 Entering Gaussian System, Link 0=g16
 Initial command:
 /gpfs/apps/hpc/Apps/Restricted/Gaussian/Rev_A.03/g16/l1.exe "/gpfs/scratch60/fas/hammes_schiffer/jg2487/c44n04/Gau-163516.inp" -scrdir="/gpfs/scratch60/fas/hammes_schiffer/jg2487/c44n04/"
 Entering Link 1 = /gpfs/apps/hpc/Apps/Restricted/Gaussian/Rev_A.03/g16/l1.exe PID=    163517.
  
 Copyright (c) 1988,1990,1992,1993,1995,1998,2003,2009,2016,
            Gaussian, Inc.  All Rights Reserved.
  
 This is part of the Gaussian(R) 16 program.  It is based on
 the Gaussian(R) 09 system (copyright 2009, Gaussian, Inc.),
 the Gaussian(R) 03 system (copyright 2003, Gaussian, Inc.),
 the Gaussian(R) 98 system (copyright 1998, Gaussian, Inc.),
 the Gaussian(R) 94 system (copyright 1995, Gaussian, Inc.),
 the Gaussian 92(TM) system (copyright 1992, Gaussian, Inc.),
 the Gaussian 90(TM) system (copyright 1990, Gaussian, Inc.),
 the Gaussian 88(TM) system (copyright 1988, Gaussian, Inc.),
 the Gaussian 86(TM) system (copyright 1986, Carnegie Mellon
 University), and the Gaussian 82(TM) system (copyright 1983,
 Carnegie Mellon University). Gaussian is a federally registered
 trademark of Gaussian, Inc.
  
 This software contains proprietary and confidential information,
 including trade secrets, belonging to Gaussian, Inc.
  
 This software is provided under written license and may be
 used, copied, transmitted, or stored only in accord with that
 written license.
  
 The following legend is applicable only to US Government
 contracts under FAR:
  
                    RESTRICTED RIGHTS LEGEND
  
 Use, reproduction and disclosure by the US Government is
 subject to restrictions as set forth in subparagraphs (a)
 and (c) of the Commercial Computer Software - Restricted
 Rights clause in FAR 52.227-19.
  
 Gaussian, Inc.
 340 Quinnipiac St., Bldg. 40, Wallingford CT 06492
  
  
 ---------------------------------------------------------------
 Warning -- This program may not be used in any manner that
 competes with the business of Gaussian, Inc. or will provide
 assistance to any competitor of Gaussian, Inc.  The licensee
 of this program is prohibited from giving any competitor of
 Gaussian, Inc. access to this program.  By using this program,
 the user acknowledges that Gaussian, Inc. is engaged in the
 business of creating and licensing software in the field of
 computational chemistry and represents and warrants to the
 licensee that it is not a competitor of Gaussian, Inc. and that
 it will not use this program in any manner prohibited above.
 ---------------------------------------------------------------
  

 Cite this work as:
 Gaussian 16, Revision A.03,
 M. J. Frisch, G. W. Trucks, H. B. Schlegel, G. E. Scuseria, 
 M. A. Robb, J. R. Cheeseman, G. Scalmani, V. Barone, 
 G. A. Petersson, H. Nakatsuji, X. Li, M. Caricato, A. V. Marenich, 
 J. Bloino, B. G. Janesko, R. Gomperts, B. Mennucci, H. P. Hratchian, 
 J. V. Ortiz, A. F. Izmaylov, J. L. Sonnenberg, D. Williams-Young, 
 F. Ding, F. Lipparini, F. Egidi, J. Goings, B. Peng, A. Petrone, 
 T. Henderson, D. Ranasinghe, V. G. Zakrzewski, J. Gao, N. Rega, 
 G. Zheng, W. Liang, M. Hada, M. Ehara, K. Toyota, R. Fukuda, 
 J. Hasegawa, M. Ishida, T. Nakajima, Y. Honda, O. Kitao, H. Nakai, 
 T. Vreven, K. Throssell, J. A. Montgomery, Jr., J. E. Peralta, 
 F. Ogliaro, M. J. Bearpark, J. J. Heyd, E. N. Brothers, K. N. Kudin, 
 V. N. Staroverov, T. A. Keith, R. Kobayashi, J. Normand, 
 K. Raghavachari, A. P. Rendell, J. C. Burant, S. S. Iyengar, 
 J. Tomasi, M. Cossi, J. M. Millam, M. Klene, C. Adamo, R. Cammi, 
 J. W. Ochterski, R. L. Martin, K. Morokuma, O. Farkas, 
 J. B. Foresman, and D. J. Fox, Gaussian, Inc., Wallingford CT, 2016.
 
 ******************************************
 Gaussian 16:  ES64L-G16RevA.03 25-Dec-2016
                18-Dec-2018 
 ******************************************
 %chk=cyclohexyl-diBIP-TS2.chk
 %mem=10GB
 %nprocshared=16
 Will use up to   16 processors via shared memory.
 ----------------------------------------------------------------------
 #p opt=(readfc,tight,ts,recalcfc=6,noeigentest) freq=internalmodes b3l
 yp/6-31g(d,p) scrf=(cpcm,solvent=dichloromethane,read) nosymm guess=re
 ad empiricaldispersion=gd3bj int=grid=ultrafine
 ----------------------------------------------------------------------
 1/5=1,7=10,10=3,11=1,18=20,26=6,38=1,40=2,71=6/1,3;
 2/9=110,12=2,15=1,17=6,18=5,40=1/2;
 3/5=1,6=6,7=101,11=2,25=1,30=1,70=2103,71=2,72=9,74=-5,75=-5,116=-2,124=41,140=1/1,2,3;
 4/5=1/1;
 5/5=2,38=6,53=9/2;
 8/6=4,10=90,11=11/1;
 11/6=1,8=1,9=11,15=111,16=1,31=1/1,2,10;
 10/6=1,31=1/2;
 6/7=2,8=2,9=2,10=2,28=1/1;
 7/10=1,25=1,30=1/1,2,3,16;
 1/5=1,7=10,11=1,18=20,26=6,71=6/3(3);
 2/9=110,15=1/2;
 7/9=1,25=1,30=1,44=-1/16;
 99//99;
 2/9=110,15=1/2;
 3/5=1,6=6,7=101,11=2,25=1,30=1,70=2105,71=2,72=9,74=-5,75=-5,124=41,140=1/1,2,3;
 4/5=5,16=3,69=1/1;
 5/5=2,38=5,53=9/2;
 8/6=4,10=90,11=11/1;
 11/6=1,8=1,9=11,15=111,16=1,31=1/1,2,10;
 10/6=1,31=1/2;
 7/10=1,25=1,30=1/1,2,3,16;
 1/5=1,7=10,11=1,18=20,26=6,71=6/3(-8);
 2/9=110,15=1/2;
 6/7=2,8=2,9=2,10=2,19=2,28=1/1;
 7/9=1,25=1,30=1,44=-1/16;
 99/9=1/99;
 Leave Link    1 at Tue Dec 18 09:24:06 2018, MaxMem=  1342177280 cpu:               9.5 elap:               0.6
 (Enter /gpfs/apps/hpc/Apps/Restricted/Gaussian/Rev_A.03/g16/l101.exe)
 --------------------------------------------------------------------
 cyclohexylimine diBIP oxidized, second transition state optimization
 --------------------------------------------------------------------
 Symbolic Z-matrix:
 Charge =  1 Multiplicity = 2
 C                     1.3998    0.97108   0.05887 
 C                     0.12065   1.56337   0.01495 
 C                    -0.01085   2.95197  -0.09785 
 C                     1.16104   3.70007  -0.17326 
 C                     2.43186   3.09748  -0.12925 
 C                     2.58833   1.71277  -0.01339 
 C                    -0.13978  -0.61159   0.18194 
 H                    -0.98639   3.42079  -0.1276 
 H                     1.09429   4.77731  -0.26561 
 H                     3.3174    3.72008  -0.18773 
 C                    -2.25289  -1.76059   0.19852 
 C                    -3.11274  -2.86706   0.21829 
 C                    -2.59575  -4.1613    0.31342 
 C                    -1.20604  -4.2769    0.3796 
 C                    -0.34085  -3.16438   0.34731 
 C                    -0.85445  -1.8704    0.25437 
 C                    -4.28105  -0.9634    0.07461 
 H                    -3.23573  -5.03316   0.33353 
 H                    -0.77032  -5.26549   0.45504 
 H                     0.72953  -3.32202   0.39824 
 N                    -0.81727   0.54772   0.09951 
 C                    -6.76911  -0.6234   -0.08698 
 C                    -5.41414  -0.07103  -0.00051 
 C                    -5.22189   1.29965   0.0144 
 C                    -6.30739   2.1903   -0.05755 
 C                    -7.62046   1.67092  -0.17546 
 C                    -7.88021   0.32118  -0.19029 
 H                    -4.21656   1.69745   0.08295 
 H                    -8.44573   2.37006  -0.25724 
 C                    -6.09018   3.66803   0.00619 
 H                    -5.02927   3.91524   0.01476 
 H                    -6.57114   4.17071  -0.83912 
 H                    -6.55456   4.07208   0.91147 
 C                    -9.2616   -0.24189  -0.28284 
 H                    -9.65334  -0.40593   0.72806 
 H                    -9.93147   0.45183  -0.7907 
 H                    -9.26647  -1.20899  -0.78725 
 O                    -6.98639  -1.8613   -0.07428 
 N                    -2.9855   -0.60242   0.11386 
 N                    -4.37895  -2.31975   0.13552 
 N                     1.19662  -0.38777   0.16651 
 H                     1.97501  -1.04      0.20478 
 C                     3.89857   1.0656    0.02813 
 H                     4.7623    1.73627  -0.01622 
 N                     4.00624  -0.20755   0.11792 
 C                     5.35573  -0.78998   0.16331 
 C                     6.12044  -0.59646  -1.1576 
 C                     6.18329  -0.27317   1.35221 
 H                     5.21037  -1.86746   0.30189 
 C                     7.48428  -1.29101  -1.09698 
 H                     6.262     0.47622  -1.33772 
 H                     5.52035  -0.98614  -1.9849 
 C                     7.5481   -0.96424   1.41173 
 H                     6.32535   0.80876   1.2427 
 H                     5.62116  -0.42773   2.27753 
 C                     8.31312  -0.79579   0.09377 
 H                     8.02705  -1.12865  -2.03246 
 H                     7.33278  -2.37397  -1.00532 
 H                     8.13359  -0.56542   2.24565 
 H                     7.40081  -2.03324   1.61092 
 H                     9.2667   -1.33076   0.14043 
 H                     8.55063   0.2659   -0.05112 
 H                    -5.29241  -2.7663    0.0787 
 H                    -2.22291   0.21591   0.08681 
 
 ITRead=  0  0  0  0  0  0  0  0  0  0  0  0  0  0  0  0  0  0  0  0
 ITRead=  0  0  0  0  0  0  0  0  0  0  0  0  0  0  0  0  0  0  0  0
 ITRead=  0  0  0  0  0  0  0  0  0  0  0  0  0  0  0  0  0  0  0  0
 ITRead=  0  0  0  0
 MicOpt= -1 -1 -1 -1 -1 -1 -1 -1 -1 -1 -1 -1 -1 -1 -1 -1 -1 -1 -1 -1
 MicOpt= -1 -1 -1 -1 -1 -1 -1 -1 -1 -1 -1 -1 -1 -1 -1 -1 -1 -1 -1 -1
 MicOpt= -1 -1 -1 -1 -1 -1 -1 -1 -1 -1 -1 -1 -1 -1 -1 -1 -1 -1 -1 -1
 MicOpt= -1 -1 -1 -1
 NAtoms=     64 NQM=       64 NQMF=       0 NMMI=      0 NMMIF=      0
                NMic=       0 NMicF=      0.
                    Isotopes and Nuclear Properties:
 (Nuclear quadrupole moments (NQMom) in fm**2, nuclear magnetic moments (NMagM)
  in nuclear magnetons)

  Atom         1           2           3           4           5           6           7           8           9          10
 IAtWgt=          12          12          12          12          12          12          12           1           1           1
 AtmWgt=  12.0000000  12.0000000  12.0000000  12.0000000  12.0000000  12.0000000  12.0000000   1.0078250   1.0078250   1.0078250
 NucSpn=           0           0           0           0           0           0           0           1           1           1
 AtZEff=  -0.0000000  -0.0000000  -0.0000000  -0.0000000  -0.0000000  -0.0000000  -0.0000000  -0.0000000  -0.0000000  -0.0000000
 NQMom=    0.0000000   0.0000000   0.0000000   0.0000000   0.0000000   0.0000000   0.0000000   0.0000000   0.0000000   0.0000000
 NMagM=    0.0000000   0.0000000   0.0000000   0.0000000   0.0000000   0.0000000   0.0000000   2.7928460   2.7928460   2.7928460
 AtZNuc=   6.0000000   6.0000000   6.0000000   6.0000000   6.0000000   6.0000000   6.0000000   1.0000000   1.0000000   1.0000000

  Atom        11          12          13          14          15          16          17          18          19          20
 IAtWgt=          12          12          12          12          12          12          12           1           1           1
 AtmWgt=  12.0000000  12.0000000  12.0000000  12.0000000  12.0000000  12.0000000  12.0000000   1.0078250   1.0078250   1.0078250
 NucSpn=           0           0           0           0           0           0           0           1           1           1
 AtZEff=  -0.0000000  -0.0000000  -0.0000000  -0.0000000  -0.0000000  -0.0000000  -0.0000000  -0.0000000  -0.0000000  -0.0000000
 NQMom=    0.0000000   0.0000000   0.0000000   0.0000000   0.0000000   0.0000000   0.0000000   0.0000000   0.0000000   0.0000000
 NMagM=    0.0000000   0.0000000   0.0000000   0.0000000   0.0000000   0.0000000   0.0000000   2.7928460   2.7928460   2.7928460
 AtZNuc=   6.0000000   6.0000000   6.0000000   6.0000000   6.0000000   6.0000000   6.0000000   1.0000000   1.0000000   1.0000000

  Atom        21          22          23          24          25          26          27          28          29          30
 IAtWgt=          14          12          12          12          12          12          12           1           1          12
 AtmWgt=  14.0030740  12.0000000  12.0000000  12.0000000  12.0000000  12.0000000  12.0000000   1.0078250   1.0078250  12.0000000
 NucSpn=           2           0           0           0           0           0           0           1           1           0
 AtZEff=  -0.0000000  -0.0000000  -0.0000000  -0.0000000  -0.0000000  -0.0000000  -0.0000000  -0.0000000  -0.0000000  -0.0000000
 NQMom=    2.0440000   0.0000000   0.0000000   0.0000000   0.0000000   0.0000000   0.0000000   0.0000000   0.0000000   0.0000000
 NMagM=    0.4037610   0.0000000   0.0000000   0.0000000   0.0000000   0.0000000   0.0000000   2.7928460   2.7928460   0.0000000
 AtZNuc=   7.0000000   6.0000000   6.0000000   6.0000000   6.0000000   6.0000000   6.0000000   1.0000000   1.0000000   6.0000000

  Atom        31          32          33          34          35          36          37          38          39          40
 IAtWgt=           1           1           1          12           1           1           1          16          14          14
 AtmWgt=   1.0078250   1.0078250   1.0078250  12.0000000   1.0078250   1.0078250   1.0078250  15.9949146  14.0030740  14.0030740
 NucSpn=           1           1           1           0           1           1           1           0           2           2
 AtZEff=  -0.0000000  -0.0000000  -0.0000000  -0.0000000  -0.0000000  -0.0000000  -0.0000000  -0.0000000  -0.0000000  -0.0000000
 NQMom=    0.0000000   0.0000000   0.0000000   0.0000000   0.0000000   0.0000000   0.0000000   0.0000000   2.0440000   2.0440000
 NMagM=    2.7928460   2.7928460   2.7928460   0.0000000   2.7928460   2.7928460   2.7928460   0.0000000   0.4037610   0.4037610
 AtZNuc=   1.0000000   1.0000000   1.0000000   6.0000000   1.0000000   1.0000000   1.0000000   8.0000000   7.0000000   7.0000000

  Atom        41          42          43          44          45          46          47          48          49          50
 IAtWgt=          14           1          12           1          14          12          12          12           1          12
 AtmWgt=  14.0030740   1.0078250  12.0000000   1.0078250  14.0030740  12.0000000  12.0000000  12.0000000   1.0078250  12.0000000
 NucSpn=           2           1           0           1           2           0           0           0           1           0
 AtZEff=  -0.0000000  -0.0000000  -0.0000000  -0.0000000  -0.0000000  -0.0000000  -0.0000000  -0.0000000  -0.0000000  -0.0000000
 NQMom=    2.0440000   0.0000000   0.0000000   0.0000000   2.0440000   0.0000000   0.0000000   0.0000000   0.0000000   0.0000000
 NMagM=    0.4037610   2.7928460   0.0000000   2.7928460   0.4037610   0.0000000   0.0000000   0.0000000   2.7928460   0.0000000
 AtZNuc=   7.0000000   1.0000000   6.0000000   1.0000000   7.0000000   6.0000000   6.0000000   6.0000000   1.0000000   6.0000000

  Atom        51          52          53          54          55          56          57          58          59          60
 IAtWgt=           1           1          12           1           1          12           1           1           1           1
 AtmWgt=   1.0078250   1.0078250  12.0000000   1.0078250   1.0078250  12.0000000   1.0078250   1.0078250   1.0078250   1.0078250
 NucSpn=           1           1           0           1           1           0           1           1           1           1
 AtZEff=  -0.0000000  -0.0000000  -0.0000000  -0.0000000  -0.0000000  -0.0000000  -0.0000000  -0.0000000  -0.0000000  -0.0000000
 NQMom=    0.0000000   0.0000000   0.0000000   0.0000000   0.0000000   0.0000000   0.0000000   0.0000000   0.0000000   0.0000000
 NMagM=    2.7928460   2.7928460   0.0000000   2.7928460   2.7928460   0.0000000   2.7928460   2.7928460   2.7928460   2.7928460
 AtZNuc=   1.0000000   1.0000000   6.0000000   1.0000000   1.0000000   6.0000000   1.0000000   1.0000000   1.0000000   1.0000000

  Atom        61          62          63          64
 IAtWgt=           1           1           1           1
 AtmWgt=   1.0078250   1.0078250   1.0078250   1.0078250
 NucSpn=           1           1           1           1
 AtZEff=  -0.0000000  -0.0000000  -0.0000000  -0.0000000
 NQMom=    0.0000000   0.0000000   0.0000000   0.0000000
 NMagM=    2.7928460   2.7928460   2.7928460   2.7928460
 AtZNuc=   1.0000000   1.0000000   1.0000000   1.0000000
 Leave Link  101 at Tue Dec 18 09:24:06 2018, MaxMem=  1342177280 cpu:               4.0 elap:               0.3
 (Enter /gpfs/apps/hpc/Apps/Restricted/Gaussian/Rev_A.03/g16/l103.exe)

 GradGradGradGradGradGradGradGradGradGradGradGradGradGradGradGradGradGrad
 Berny optimization.
 Initialization pass.
 Force constant matrix read from checkpoint file:
 "cyclohexyl-diBIP-TS2.chk"
 NVar current= 374 chk= 386 common= 374.
                           ----------------------------
                           !    Initial Parameters    !
                           ! (Angstroms and Degrees)  !
 --------------------------                            --------------------------
 ! Name  Definition              Value          Derivative Info.                !
 --------------------------------------------------------------------------------
 ! R1    R(1,2)                  1.4103         D2E/DX2 =    0.3107             !
 ! R2    R(1,6)                  1.4028         D2E/DX2 =    0.4163             !
 ! R3    R(1,41)                 1.3782         D2E/DX2 =    0.3554             !
 ! R4    R(2,3)                  1.3994         D2E/DX2 =    0.3982             !
 ! R5    R(2,21)                 1.3851         D2E/DX2 =    0.3313             !
 ! R6    R(3,4)                  1.3924         D2E/DX2 =    0.4041             !
 ! R7    R(3,8)                  1.0828         D2E/DX2 =    0.3706             !
 ! R8    R(4,5)                  1.4071         D2E/DX2 =    0.3703             !
 ! R9    R(4,9)                  1.0832         D2E/DX2 =    0.3683             !
 ! R10   R(5,6)                  1.3983         D2E/DX2 =    0.401              !
 ! R11   R(5,10)                 1.0841         D2E/DX2 =    0.3671             !
 ! R12   R(6,43)                 1.4619         D2E/DX2 =    0.3518             !
 ! R13   R(7,16)                 1.4493         D2E/DX2 =    0.3244             !
 ! R14   R(7,21)                 1.3453         D2E/DX2 =    0.3385             !
 ! R15   R(7,41)                 1.3551         D2E/DX2 =    0.4059             !
 ! R16   R(11,12)                1.4014         D2E/DX2 =    0.2754             !
 ! R17   R(11,16)                1.4039         D2E/DX2 =    0.3094             !
 ! R18   R(11,39)                1.373          D2E/DX2 =    0.2756             !
 ! R19   R(12,13)                1.3969         D2E/DX2 =    0.4008             !
 ! R20   R(12,40)                1.3819         D2E/DX2 =    0.3657             !
 ! R21   R(13,14)                1.3961         D2E/DX2 =    0.3994             !
 ! R22   R(13,18)                1.0817         D2E/DX2 =    0.3697             !
 ! R23   R(14,15)                1.4097         D2E/DX2 =    0.3774             !
 ! R24   R(14,19)                1.083          D2E/DX2 =    0.3697             !
 ! R25   R(15,16)                1.3953         D2E/DX2 =    0.3919             !
 ! R26   R(15,20)                1.0831         D2E/DX2 =    0.3667             !
 ! R27   R(17,23)                1.4442         D2E/DX2 =    0.3678             !
 ! R28   R(17,39)                1.3455         D2E/DX2 =    0.3934             !
 ! R29   R(17,40)                1.3612         D2E/DX2 =    0.3535             !
 ! R30   R(22,23)                1.4658         D2E/DX2 =    0.2961             !
 ! R31   R(22,27)                1.462          D2E/DX2 =    0.2965             !
 ! R32   R(22,38)                1.2569         D2E/DX2 =    0.6355             !
 ! R33   R(23,24)                1.3842         D2E/DX2 =    0.4119             !
 ! R34   R(24,25)                1.406          D2E/DX2 =    0.3598             !
 ! R35   R(24,28)                1.0833         D2E/DX2 =    0.3637             !
 ! R36   R(25,26)                1.417          D2E/DX2 =    0.3368             !
 ! R37   R(25,30)                1.495          D2E/DX2 =    0.3177             !
 ! R38   R(26,27)                1.3746         D2E/DX2 =    0.4387             !
 ! R39   R(26,29)                1.0847         D2E/DX2 =    0.3601             !
 ! R40   R(27,34)                1.4946         D2E/DX2 =    0.3084             !
 ! R41   R(30,31)                1.0894         D2E/DX2 =    0.3503             !
 ! R42   R(30,32)                1.0948         D2E/DX2 =    0.3442             !
 ! R43   R(30,33)                1.0947         D2E/DX2 =    0.3336             !
 ! R44   R(34,35)                1.0965         D2E/DX2 =    0.3453             !
 ! R45   R(34,36)                1.0899         D2E/DX2 =    0.3479             !
 ! R46   R(34,37)                1.0907         D2E/DX2 =    0.3407             !
 ! R47   R(39,64)                1.1189         D2E/DX2 =    0.014              !
 ! R48   R(40,63)                1.0184         D2E/DX2 =    0.4662             !
 ! R49   R(41,42)                1.0162         D2E/DX2 =    0.4296             !
 ! R50   R(43,44)                1.0944         D2E/DX2 =    0.344              !
 ! R51   R(43,45)                1.2808         D2E/DX2 =    0.6844             !
 ! R52   R(45,46)                1.4705         D2E/DX2 =    0.3038             !
 ! R53   R(46,47)                1.5385         D2E/DX2 =    0.2372             !
 ! R54   R(46,48)                1.538          D2E/DX2 =    0.2356             !
 ! R55   R(46,49)                1.096          D2E/DX2 =    0.3235             !
 ! R56   R(47,50)                1.5317         D2E/DX2 =    0.2449             !
 ! R57   R(47,51)                1.0969         D2E/DX2 =    0.3335             !
 ! R58   R(47,52)                1.0938         D2E/DX2 =    0.3377             !
 ! R59   R(48,53)                1.531          D2E/DX2 =    0.2439             !
 ! R60   R(48,54)                1.0967         D2E/DX2 =    0.3331             !
 ! R61   R(48,55)                1.0937         D2E/DX2 =    0.3362             !
 ! R62   R(50,56)                1.533          D2E/DX2 =    0.2468             !
 ! R63   R(50,57)                1.0937         D2E/DX2 =    0.3343             !
 ! R64   R(50,58)                1.0973         D2E/DX2 =    0.3306             !
 ! R65   R(53,56)                1.5332         D2E/DX2 =    0.245              !
 ! R66   R(53,59)                1.0942         D2E/DX2 =    0.335              !
 ! R67   R(53,60)                1.0973         D2E/DX2 =    0.3306             !
 ! R68   R(56,61)                1.0944         D2E/DX2 =    0.3393             !
 ! R69   R(56,62)                1.0975         D2E/DX2 =    0.3296             !
 ! A1    A(2,1,6)              123.011          D2E/DX2 =    0.0795             !
 ! A2    A(2,1,41)             106.4274         D2E/DX2 =    0.0962             !
 ! A3    A(6,1,41)             130.5589         D2E/DX2 =    0.1051             !
 ! A4    A(1,2,3)              120.2973         D2E/DX2 =    0.0765             !
 ! A5    A(1,2,21)             107.7177         D2E/DX2 =    0.0926             !
 ! A6    A(3,2,21)             131.985          D2E/DX2 =    0.0962             !
 ! A7    A(2,3,4)              117.2858         D2E/DX2 =    0.08               !
 ! A8    A(2,3,8)              121.1005         D2E/DX2 =    0.0779             !
 ! A9    A(4,3,8)              121.6135         D2E/DX2 =    0.0777             !
 ! A10   A(3,4,5)              121.8932         D2E/DX2 =    0.0825             !
 ! A11   A(3,4,9)              119.1474         D2E/DX2 =    0.0815             !
 ! A12   A(5,4,9)              118.9592         D2E/DX2 =    0.0815             !
 ! A13   A(4,5,6)              121.8512         D2E/DX2 =    0.087              !
 ! A14   A(4,5,10)             119.3465         D2E/DX2 =    0.0867             !
 ! A15   A(6,5,10)             118.8022         D2E/DX2 =    0.0875             !
 ! A16   A(1,6,5)              115.6596         D2E/DX2 =    0.0868             !
 ! A17   A(1,6,43)             121.5882         D2E/DX2 =    0.1896             !
 ! A18   A(5,6,43)             122.7521         D2E/DX2 =    0.1602             !
 ! A19   A(16,7,21)            120.2126         D2E/DX2 =    0.0692             !
 ! A20   A(16,7,41)            129.0733         D2E/DX2 =    0.0941             !
 ! A21   A(21,7,41)            110.7088         D2E/DX2 =    0.0959             !
 ! A22   A(12,11,16)           123.2888         D2E/DX2 =    0.068              !
 ! A23   A(12,11,39)           109.8449         D2E/DX2 =    0.0832             !
 ! A24   A(16,11,39)           126.866          D2E/DX2 =    0.065              !
 ! A25   A(11,12,13)           120.357          D2E/DX2 =    0.0778             !
 ! A26   A(11,12,40)           104.397          D2E/DX2 =    0.0916             !
 ! A27   A(13,12,40)           135.2451         D2E/DX2 =    0.092              !
 ! A28   A(12,13,14)           116.6378         D2E/DX2 =    0.0785             !
 ! A29   A(12,13,18)           121.9416         D2E/DX2 =    0.0791             !
 ! A30   A(14,13,18)           121.4205         D2E/DX2 =    0.0786             !
 ! A31   A(13,14,15)           122.9906         D2E/DX2 =    0.0819             !
 ! A32   A(13,14,19)           118.6451         D2E/DX2 =    0.0841             !
 ! A33   A(15,14,19)           118.3638         D2E/DX2 =    0.0839             !
 ! A34   A(14,15,16)           120.497          D2E/DX2 =    0.0813             !
 ! A35   A(14,15,20)           119.3783         D2E/DX2 =    0.0832             !
 ! A36   A(16,15,20)           120.1244         D2E/DX2 =    0.0822             !
 ! A37   A(7,16,11)            114.9144         D2E/DX2 =    0.0685             !
 ! A38   A(7,16,15)            128.8512         D2E/DX2 =    0.0926             !
 ! A39   A(11,16,15)           116.2237         D2E/DX2 =    0.0772             !
 ! A40   A(23,17,39)           126.2416         D2E/DX2 =    0.1311             !
 ! A41   A(23,17,40)           124.1638         D2E/DX2 =    0.1437             !
 ! A42   A(39,17,40)           109.5889         D2E/DX2 =    0.1022             !
 ! A43   A(2,21,7)             107.136          D2E/DX2 =    0.0953             !
 ! A44   A(23,22,27)           117.5952         D2E/DX2 =    0.0852             !
 ! A45   A(23,22,38)           122.0292         D2E/DX2 =    0.1707             !
 ! A46   A(27,22,38)           120.3756         D2E/DX2 =    0.1718             !
 ! A47   A(17,23,22)           119.7004         D2E/DX2 =    0.1979             !
 ! A48   A(17,23,24)           120.1541         D2E/DX2 =    0.1596             !
 ! A49   A(22,23,24)           120.145          D2E/DX2 =    0.0901             !
 ! A50   A(23,24,25)           121.2999         D2E/DX2 =    0.0815             !
 ! A51   A(23,24,28)           119.5498         D2E/DX2 =    0.0813             !
 ! A52   A(25,24,28)           119.1502         D2E/DX2 =    0.0828             !
 ! A53   A(24,25,26)           119.1777         D2E/DX2 =    0.0807             !
 ! A54   A(24,25,30)           120.7846         D2E/DX2 =    0.1177             !
 ! A55   A(26,25,30)           120.0333         D2E/DX2 =    0.117              !
 ! A56   A(25,26,27)           122.4063         D2E/DX2 =    0.0787             !
 ! A57   A(25,26,29)           118.3638         D2E/DX2 =    0.0817             !
 ! A58   A(27,26,29)           119.2299         D2E/DX2 =    0.0807             !
 ! A59   A(22,27,26)           119.3432         D2E/DX2 =    0.0856             !
 ! A60   A(22,27,34)           117.6058         D2E/DX2 =    0.1198             !
 ! A61   A(26,27,34)           123.0412         D2E/DX2 =    0.1124             !
 ! A62   A(25,30,31)           111.4784         D2E/DX2 =    0.1055             !
 ! A63   A(25,30,32)           110.9233         D2E/DX2 =    0.102              !
 ! A64   A(25,30,33)           109.7827         D2E/DX2 =    0.097              !
 ! A65   A(31,30,32)           109.2517         D2E/DX2 =    0.056              !
 ! A66   A(31,30,33)           108.8354         D2E/DX2 =    0.0537             !
 ! A67   A(32,30,33)           106.4198         D2E/DX2 =    0.0535             !
 ! A68   A(27,34,35)           109.2368         D2E/DX2 =    0.0964             !
 ! A69   A(27,34,36)           110.9234         D2E/DX2 =    0.1036             !
 ! A70   A(27,34,37)           111.5178         D2E/DX2 =    0.102              !
 ! A71   A(35,34,36)           107.7727         D2E/DX2 =    0.0554             !
 ! A72   A(35,34,37)           106.9835         D2E/DX2 =    0.0537             !
 ! A73   A(36,34,37)           110.2502         D2E/DX2 =    0.0538             !
 ! A74   A(11,39,17)           106.8139         D2E/DX2 =    0.0868             !
 ! A75   A(11,39,64)           104.759          D2E/DX2 =    0.0442             !
 ! A76   A(17,39,64)           148.4055         D2E/DX2 =    0.0604             !
 ! A77   A(12,40,17)           109.3545         D2E/DX2 =    0.1005             !
 ! A78   A(12,40,63)           130.66           D2E/DX2 =    0.0741             !
 ! A79   A(17,40,63)           119.9295         D2E/DX2 =    0.0799             !
 ! A80   A(1,41,7)             108.0072         D2E/DX2 =    0.0997             !
 ! A81   A(1,41,42)            121.5219         D2E/DX2 =    0.0796             !
 ! A82   A(7,41,42)            130.4618         D2E/DX2 =    0.0673             !
 ! A83   A(6,43,44)            115.7777         D2E/DX2 =    0.1161             !
 ! A84   A(6,43,45)            121.1543         D2E/DX2 =    0.1974             !
 ! A85   A(44,43,45)           123.0671         D2E/DX2 =    0.127              !
 ! A86   A(43,45,46)           118.2289         D2E/DX2 =    0.3199             !
 ! A87   A(45,46,47)           112.3221         D2E/DX2 =    0.0693             !
 ! A88   A(45,46,48)           112.6165         D2E/DX2 =    0.06               !
 ! A89   A(45,46,49)           105.7573         D2E/DX2 =    0.0211             !
 ! A90   A(47,46,48)           110.7303         D2E/DX2 =    0.0479             !
 ! A91   A(47,46,49)           107.3453         D2E/DX2 =    0.0258             !
 ! A92   A(48,46,49)           107.6957         D2E/DX2 =    0.0242             !
 ! A93   A(46,47,50)           110.5827         D2E/DX2 =    0.0531             !
 ! A94   A(46,47,51)           109.1566         D2E/DX2 =    0.0347             !
 ! A95   A(46,47,52)           109.3826         D2E/DX2 =    0.0371             !
 ! A96   A(50,47,51)           109.5745         D2E/DX2 =    0.0344             !
 ! A97   A(50,47,52)           110.9091         D2E/DX2 =    0.0377             !
 ! A98   A(51,47,52)           107.1576         D2E/DX2 =    0.015              !
 ! A99   A(46,48,53)           110.9804         D2E/DX2 =    0.0536             !
 ! A100  A(46,48,54)           108.9061         D2E/DX2 =    0.0337             !
 ! A101  A(46,48,55)           109.2676         D2E/DX2 =    0.037              !
 ! A102  A(53,48,54)           109.4949         D2E/DX2 =    0.0324             !
 ! A103  A(53,48,55)           111.1934         D2E/DX2 =    0.0372             !
 ! A104  A(54,48,55)           106.887          D2E/DX2 =    0.0148             !
 ! A105  A(47,50,56)           111.4483         D2E/DX2 =    0.0544             !
 ! A106  A(47,50,57)           109.9215         D2E/DX2 =    0.0384             !
 ! A107  A(47,50,58)           109.1398         D2E/DX2 =    0.0338             !
 ! A108  A(56,50,57)           110.3728         D2E/DX2 =    0.0384             !
 ! A109  A(56,50,58)           109.1819         D2E/DX2 =    0.0333             !
 ! A110  A(57,50,58)           106.6474         D2E/DX2 =    0.0148             !
 ! A111  A(48,53,56)           111.2113         D2E/DX2 =    0.055              !
 ! A112  A(48,53,59)           110.0056         D2E/DX2 =    0.0378             !
 ! A113  A(48,53,60)           109.0958         D2E/DX2 =    0.0342             !
 ! A114  A(56,53,59)           110.3711         D2E/DX2 =    0.0381             !
 ! A115  A(56,53,60)           109.2722         D2E/DX2 =    0.0342             !
 ! A116  A(59,53,60)           106.7711         D2E/DX2 =    0.0148             !
 ! A117  A(50,56,53)           111.2497         D2E/DX2 =    0.055              !
 ! A118  A(50,56,61)           110.2612         D2E/DX2 =    0.0382             !
 ! A119  A(50,56,62)           109.0836         D2E/DX2 =    0.034              !
 ! A120  A(53,56,61)           110.1459         D2E/DX2 =    0.0382             !
 ! A121  A(53,56,62)           109.1321         D2E/DX2 =    0.0344             !
 ! A122  A(61,56,62)           106.8546         D2E/DX2 =    0.0149             !
 ! D1    D(6,1,2,3)             -0.3734         D2E/DX2 =    0.0045             !
 ! D2    D(6,1,2,21)           179.5619         D2E/DX2 =    0.005              !
 ! D3    D(41,1,2,3)          -179.8324         D2E/DX2 =    0.0043             !
 ! D4    D(41,1,2,21)            0.1029         D2E/DX2 =    0.0068             !
 ! D5    D(2,1,6,5)              0.1969         D2E/DX2 =    0.0062             !
 ! D6    D(2,1,6,43)          -179.6788         D2E/DX2 =    0.0076             !
 ! D7    D(41,1,6,5)           179.5138         D2E/DX2 =    0.0084             !
 ! D8    D(41,1,6,43)           -0.3619         D2E/DX2 =    0.0086             !
 ! D9    D(2,1,41,7)             0.2287         D2E/DX2 =    0.0081             !
 ! D10   D(2,1,41,42)          179.2433         D2E/DX2 =    0.0052             !
 ! D11   D(6,1,41,7)          -179.1741         D2E/DX2 =    0.0062             !
 ! D12   D(6,1,41,42)           -0.1596         D2E/DX2 =    0.0046             !
 ! D13   D(1,2,3,4)              0.4792         D2E/DX2 =    0.0066             !
 ! D14   D(1,2,3,8)           -179.6838         D2E/DX2 =    0.0066             !
 ! D15   D(21,2,3,4)          -179.4379         D2E/DX2 =    0.0083             !
 ! D16   D(21,2,3,8)             0.3991         D2E/DX2 =    0.0076             !
 ! D17   D(1,2,21,7)            -0.3964         D2E/DX2 =    0.0066             !
 ! D18   D(3,2,21,7)           179.5284         D2E/DX2 =    0.005              !
 ! D19   D(2,3,4,5)             -0.4476         D2E/DX2 =    0.0089             !
 ! D20   D(2,3,4,9)            179.7331         D2E/DX2 =    0.0086             !
 ! D21   D(8,3,4,5)            179.7162         D2E/DX2 =    0.0078             !
 ! D22   D(8,3,4,9)             -0.103          D2E/DX2 =    0.0087             !
 ! D23   D(3,4,5,6)              0.2959         D2E/DX2 =    0.0088             !
 ! D24   D(3,4,5,10)          -179.7822         D2E/DX2 =    0.0089             !
 ! D25   D(9,4,5,6)           -179.8846         D2E/DX2 =    0.0082             !
 ! D26   D(9,4,5,10)             0.0374         D2E/DX2 =    0.009              !
 ! D27   D(4,5,6,1)             -0.1545         D2E/DX2 =    0.0079             !
 ! D28   D(4,5,6,43)           179.7196         D2E/DX2 =    0.0075             !
 ! D29   D(10,5,6,1)           179.9232         D2E/DX2 =    0.0082             !
 ! D30   D(10,5,6,43)           -0.2027         D2E/DX2 =    0.0084             !
 ! D31   D(1,6,43,44)         -178.8961         D2E/DX2 =    0.0163             !
 ! D32   D(1,6,43,45)            0.7581         D2E/DX2 =    0.0185             !
 ! D33   D(5,6,43,44)            1.2371         D2E/DX2 =    0.0136             !
 ! D34   D(5,6,43,45)         -179.1087         D2E/DX2 =    0.017              !
 ! D35   D(21,7,16,11)           1.4518         D2E/DX2 =    0.0037             !
 ! D36   D(21,7,16,15)        -179.8006         D2E/DX2 =    0.0047             !
 ! D37   D(41,7,16,11)        -177.6353         D2E/DX2 =    0.0056             !
 ! D38   D(41,7,16,15)           1.1123         D2E/DX2 =    0.006              !
 ! D39   D(16,7,21,2)         -178.6876         D2E/DX2 =    0.0047             !
 ! D40   D(41,7,21,2)            0.5547         D2E/DX2 =    0.0073             !
 ! D41   D(16,7,41,1)          178.6616         D2E/DX2 =    0.0058             !
 ! D42   D(16,7,41,42)          -0.2343         D2E/DX2 =    0.004              !
 ! D43   D(21,7,41,1)           -0.495          D2E/DX2 =    0.0081             !
 ! D44   D(21,7,41,42)        -179.3909         D2E/DX2 =    0.0054             !
 ! D45   D(16,11,12,13)          0.7926         D2E/DX2 =    0.0037             !
 ! D46   D(16,11,12,40)       -179.5065         D2E/DX2 =    0.0031             !
 ! D47   D(39,11,12,13)       -179.4141         D2E/DX2 =    0.0031             !
 ! D48   D(39,11,12,40)          0.2868         D2E/DX2 =    0.0052             !
 ! D49   D(12,11,16,7)         178.2436         D2E/DX2 =    0.0042             !
 ! D50   D(12,11,16,15)         -0.6692         D2E/DX2 =    0.0046             !
 ! D51   D(39,11,16,7)          -1.5133         D2E/DX2 =    0.0039             !
 ! D52   D(39,11,16,15)        179.574          D2E/DX2 =    0.0047             !
 ! D53   D(12,11,39,17)         -0.2634         D2E/DX2 =    0.0048             !
 ! D54   D(12,11,39,64)       -179.0811         D2E/DX2 =    0.0028             !
 ! D55   D(16,11,39,17)        179.5206         D2E/DX2 =    0.0031             !
 ! D56   D(16,11,39,64)          0.7028         D2E/DX2 =    0.0025             !
 ! D57   D(11,12,13,14)         -0.2682         D2E/DX2 =    0.0062             !
 ! D58   D(11,12,13,18)        179.8288         D2E/DX2 =    0.0064             !
 ! D59   D(40,12,13,14)       -179.8568         D2E/DX2 =    0.0076             !
 ! D60   D(40,12,13,18)          0.2403         D2E/DX2 =    0.0073             !
 ! D61   D(11,12,40,17)         -0.2036         D2E/DX2 =    0.0073             !
 ! D62   D(11,12,40,63)        177.0113         D2E/DX2 =    0.0037             !
 ! D63   D(13,12,40,17)        179.4298         D2E/DX2 =    0.0051             !
 ! D64   D(13,12,40,63)         -3.3552         D2E/DX2 =    0.0031             !
 ! D65   D(12,13,14,15)         -0.3254         D2E/DX2 =    0.0087             !
 ! D66   D(12,13,14,19)        179.9386         D2E/DX2 =    0.0084             !
 ! D67   D(18,13,14,15)        179.5782         D2E/DX2 =    0.0073             !
 ! D68   D(18,13,14,19)         -0.1579         D2E/DX2 =    0.0087             !
 ! D69   D(13,14,15,16)          0.4347         D2E/DX2 =    0.009              !
 ! D70   D(13,14,15,20)       -179.7404         D2E/DX2 =    0.0074             !
 ! D71   D(19,14,15,16)       -179.8286         D2E/DX2 =    0.0082             !
 ! D72   D(19,14,15,20)         -0.0036         D2E/DX2 =    0.0086             !
 ! D73   D(14,15,16,7)        -178.6701         D2E/DX2 =    0.0063             !
 ! D74   D(14,15,16,11)          0.0638         D2E/DX2 =    0.007              !
 ! D75   D(20,15,16,7)           1.5063         D2E/DX2 =    0.0066             !
 ! D76   D(20,15,16,11)       -179.7599         D2E/DX2 =    0.0069             !
 ! D77   D(39,17,23,22)        177.6926         D2E/DX2 =    0.0038             !
 ! D78   D(39,17,23,24)         -2.5611         D2E/DX2 =    0.0038             !
 ! D79   D(40,17,23,22)         -3.2731         D2E/DX2 =    0.0037             !
 ! D80   D(40,17,23,24)        176.4732         D2E/DX2 =    0.0047             !
 ! D81   D(23,17,39,11)        179.283          D2E/DX2 =    0.0082             !
 ! D82   D(23,17,39,64)         -2.8995         D2E/DX2 =    0.003              !
 ! D83   D(40,17,39,11)          0.1311         D2E/DX2 =    0.0072             !
 ! D84   D(40,17,39,64)        177.9486         D2E/DX2 =    0.0023             !
 ! D85   D(23,17,40,12)       -179.1233         D2E/DX2 =    0.0088             !
 ! D86   D(23,17,40,63)          3.3143         D2E/DX2 =    0.0049             !
 ! D87   D(39,17,40,12)          0.0499         D2E/DX2 =    0.0097             !
 ! D88   D(39,17,40,63)       -177.5124         D2E/DX2 =    0.0043             !
 ! D89   D(27,22,23,17)       -178.698          D2E/DX2 =    0.0081             !
 ! D90   D(27,22,23,24)          1.5557         D2E/DX2 =    0.0066             !
 ! D91   D(38,22,23,17)          1.2986         D2E/DX2 =    0.0096             !
 ! D92   D(38,22,23,24)       -178.4477         D2E/DX2 =    0.0082             !
 ! D93   D(23,22,27,26)         -1.2912         D2E/DX2 =    0.0064             !
 ! D94   D(23,22,27,34)        179.8105         D2E/DX2 =    0.0059             !
 ! D95   D(38,22,27,26)        178.7122         D2E/DX2 =    0.0073             !
 ! D96   D(38,22,27,34)         -0.186          D2E/DX2 =    0.0088             !
 ! D97   D(17,23,24,25)        179.9982         D2E/DX2 =    0.0081             !
 ! D98   D(17,23,24,28)         -0.0125         D2E/DX2 =    0.0082             !
 ! D99   D(22,23,24,25)         -0.2567         D2E/DX2 =    0.0062             !
 ! D100  D(22,23,24,28)        179.7326         D2E/DX2 =    0.0072             !
 ! D101  D(23,24,25,26)         -1.3225         D2E/DX2 =    0.0061             !
 ! D102  D(23,24,25,30)        177.9079         D2E/DX2 =    0.007              !
 ! D103  D(28,24,25,26)        178.6882         D2E/DX2 =    0.0068             !
 ! D104  D(28,24,25,30)         -2.0815         D2E/DX2 =    0.0072             !
 ! D105  D(24,25,26,27)          1.6048         D2E/DX2 =    0.0055             !
 ! D106  D(24,25,26,29)       -178.3545         D2E/DX2 =    0.0065             !
 ! D107  D(30,25,26,27)       -177.6315         D2E/DX2 =    0.0061             !
 ! D108  D(30,25,26,29)          2.4092         D2E/DX2 =    0.0071             !
 ! D109  D(24,25,30,31)          5.3559         D2E/DX2 =    0.0135             !
 ! D110  D(24,25,30,32)        127.3462         D2E/DX2 =    0.0122             !
 ! D111  D(24,25,30,33)       -115.3232         D2E/DX2 =    0.0112             !
 ! D112  D(26,25,30,31)       -175.4202         D2E/DX2 =    0.0134             !
 ! D113  D(26,25,30,32)        -53.43           D2E/DX2 =    0.0124             !
 ! D114  D(26,25,30,33)         63.9007         D2E/DX2 =    0.0114             !
 ! D115  D(25,26,27,22)         -0.2644         D2E/DX2 =    0.0055             !
 ! D116  D(25,26,27,34)        178.571          D2E/DX2 =    0.0057             !
 ! D117  D(29,26,27,22)        179.6946         D2E/DX2 =    0.0072             !
 ! D118  D(29,26,27,34)         -1.4701         D2E/DX2 =    0.0075             !
 ! D119  D(22,27,34,35)         87.0566         D2E/DX2 =    0.0118             !
 ! D120  D(22,27,34,36)       -154.2885         D2E/DX2 =    0.0125             !
 ! D121  D(22,27,34,37)        -30.9862         D2E/DX2 =    0.0122             !
 ! D122  D(26,27,34,35)        -91.7977         D2E/DX2 =    0.0115             !
 ! D123  D(26,27,34,36)         26.8571         D2E/DX2 =    0.0129             !
 ! D124  D(26,27,34,37)        150.1595         D2E/DX2 =    0.0117             !
 ! D125  D(6,43,45,46)        -179.6213         D2E/DX2 =    0.0456             !
 ! D126  D(44,43,45,46)          0.0071         D2E/DX2 =    0.038              !
 ! D127  D(43,45,46,47)        -66.6466         D2E/DX2 =    0.0168             !
 ! D128  D(43,45,46,48)         59.1966         D2E/DX2 =    0.0141             !
 ! D129  D(43,45,46,49)        176.5637         D2E/DX2 =    0.0161             !
 ! D130  D(45,46,47,50)       -176.5215         D2E/DX2 =    0.0197             !
 ! D131  D(45,46,47,51)         62.8606         D2E/DX2 =    0.0172             !
 ! D132  D(45,46,47,52)        -54.0933         D2E/DX2 =    0.0166             !
 ! D133  D(48,46,47,50)         56.6168         D2E/DX2 =    0.0165             !
 ! D134  D(48,46,47,51)        -64.0011         D2E/DX2 =    0.0178             !
 ! D135  D(48,46,47,52)        179.045          D2E/DX2 =    0.0164             !
 ! D136  D(49,46,47,50)        -60.6863         D2E/DX2 =    0.0156             !
 ! D137  D(49,46,47,51)        178.6958         D2E/DX2 =    0.0158             !
 ! D138  D(49,46,47,52)         61.7419         D2E/DX2 =    0.0145             !
 ! D139  D(45,46,48,53)        176.6205         D2E/DX2 =    0.0235             !
 ! D140  D(45,46,48,54)        -62.773          D2E/DX2 =    0.021              !
 ! D141  D(45,46,48,55)         53.6499         D2E/DX2 =    0.0194             !
 ! D142  D(47,46,48,53)        -56.6807         D2E/DX2 =    0.017              !
 ! D143  D(47,46,48,54)         63.9258         D2E/DX2 =    0.0193             !
 ! D144  D(47,46,48,55)       -179.6513         D2E/DX2 =    0.0175             !
 ! D145  D(49,46,48,53)         60.407          D2E/DX2 =    0.016              !
 ! D146  D(49,46,48,54)       -178.9864         D2E/DX2 =    0.0161             !
 ! D147  D(49,46,48,55)        -62.5635         D2E/DX2 =    0.0146             !
 ! D148  D(46,47,50,56)        -56.0932         D2E/DX2 =    0.016              !
 ! D149  D(46,47,50,57)       -178.7918         D2E/DX2 =    0.0159             !
 ! D150  D(46,47,50,58)         64.5719         D2E/DX2 =    0.0169             !
 ! D151  D(51,47,50,56)         64.2753         D2E/DX2 =    0.0173             !
 ! D152  D(51,47,50,57)        -58.4233         D2E/DX2 =    0.0154             !
 ! D153  D(51,47,50,58)       -175.0596         D2E/DX2 =    0.0169             !
 ! D154  D(52,47,50,56)       -177.6245         D2E/DX2 =    0.016              !
 ! D155  D(52,47,50,57)         59.6769         D2E/DX2 =    0.0143             !
 ! D156  D(52,47,50,58)        -56.9594         D2E/DX2 =    0.0152             !
 ! D157  D(46,48,53,56)         55.8497         D2E/DX2 =    0.0153             !
 ! D158  D(46,48,53,59)        178.4431         D2E/DX2 =    0.0155             !
 ! D159  D(46,48,53,60)        -64.7487         D2E/DX2 =    0.0169             !
 ! D160  D(54,48,53,56)        -64.4078         D2E/DX2 =    0.0171             !
 ! D161  D(54,48,53,59)         58.1857         D2E/DX2 =    0.0153             !
 ! D162  D(54,48,53,60)        174.9938         D2E/DX2 =    0.017              !
 ! D163  D(55,48,53,56)        177.7023         D2E/DX2 =    0.0155             !
 ! D164  D(55,48,53,59)        -59.7042         D2E/DX2 =    0.0142             !
 ! D165  D(55,48,53,60)         57.1039         D2E/DX2 =    0.0153             !
 ! D166  D(47,50,56,53)         55.3682         D2E/DX2 =    0.0158             !
 ! D167  D(47,50,56,61)        177.879          D2E/DX2 =    0.0157             !
 ! D168  D(47,50,56,62)        -65.0721         D2E/DX2 =    0.0168             !
 ! D169  D(57,50,56,53)        177.8075         D2E/DX2 =    0.0156             !
 ! D170  D(57,50,56,61)        -59.6816         D2E/DX2 =    0.0142             !
 ! D171  D(57,50,56,62)         57.3672         D2E/DX2 =    0.0152             !
 ! D172  D(58,50,56,53)        -65.2723         D2E/DX2 =    0.0173             !
 ! D173  D(58,50,56,61)         57.2386         D2E/DX2 =    0.0153             !
 ! D174  D(58,50,56,62)        174.2874         D2E/DX2 =    0.0169             !
 ! D175  D(48,53,56,50)        -55.0699         D2E/DX2 =    0.0156             !
 ! D176  D(48,53,56,61)       -177.6472         D2E/DX2 =    0.0159             !
 ! D177  D(48,53,56,62)         65.3418         D2E/DX2 =    0.0168             !
 ! D178  D(59,53,56,50)       -177.4523         D2E/DX2 =    0.0157             !
 ! D179  D(59,53,56,61)         59.9704         D2E/DX2 =    0.0143             !
 ! D180  D(59,53,56,62)        -57.0405         D2E/DX2 =    0.0152             !
 ! D181  D(60,53,56,50)         65.4245         D2E/DX2 =    0.0169             !
 ! D182  D(60,53,56,61)        -57.1528         D2E/DX2 =    0.0152             !
 ! D183  D(60,53,56,62)       -174.1638         D2E/DX2 =    0.0167             !
 --------------------------------------------------------------------------------
 Trust Radius=3.00D-01 FncErr=5.00D-06 GrdErr=5.00D-06 EigMax=2.50D+02 EigMin=1.00D-04
 Number of steps in this run=    384 maximum allowed number of steps=    384.
 Search for a saddle point of order  1.
 Step   0 in ReCalcFC= 6 IGetFC= 3 compute gradient.
 GradGradGradGradGradGradGradGradGradGradGradGradGradGradGradGradGradGrad

 Leave Link  103 at Tue Dec 18 09:24:06 2018, MaxMem=  1342177280 cpu:               0.8 elap:               0.1
 (Enter /gpfs/apps/hpc/Apps/Restricted/Gaussian/Rev_A.03/g16/l202.exe)
 Symmetry turned off by external request.
 Stoichiometry    C29H29N5O(1+,2)
 Framework group  C1[X(C29H29N5O)]
 Deg. of freedom   186
 Full point group                 C1      NOp   1
                          Input orientation:                          
 ---------------------------------------------------------------------
 Center     Atomic      Atomic             Coordinates (Angstroms)
 Number     Number       Type             X           Y           Z
 ---------------------------------------------------------------------
      1          6           0        1.399800    0.971081    0.058871
      2          6           0        0.120652    1.563372    0.014953
      3          6           0       -0.010850    2.951969   -0.097847
      4          6           0        1.161044    3.700074   -0.173264
      5          6           0        2.431864    3.097483   -0.129252
      6          6           0        2.588332    1.712769   -0.013389
      7          6           0       -0.139782   -0.611591    0.181942
      8          1           0       -0.986390    3.420790   -0.127603
      9          1           0        1.094287    4.777312   -0.265609
     10          1           0        3.317396    3.720083   -0.187732
     11          6           0       -2.252892   -1.760585    0.198515
     12          6           0       -3.112740   -2.867059    0.218287
     13          6           0       -2.595748   -4.161301    0.313422
     14          6           0       -1.206037   -4.276900    0.379595
     15          6           0       -0.340846   -3.164378    0.347305
     16          6           0       -0.854448   -1.870403    0.254366
     17          6           0       -4.281051   -0.963395    0.074607
     18          1           0       -3.235732   -5.033162    0.333527
     19          1           0       -0.770320   -5.265490    0.455036
     20          1           0        0.729526   -3.322020    0.398240
     21          7           0       -0.817266    0.547717    0.099510
     22          6           0       -6.769113   -0.623402   -0.086984
     23          6           0       -5.414138   -0.071029   -0.000508
     24          6           0       -5.221893    1.299650    0.014401
     25          6           0       -6.307393    2.190296   -0.057547
     26          6           0       -7.620462    1.670922   -0.175461
     27          6           0       -7.880210    0.321182   -0.190288
     28          1           0       -4.216563    1.697445    0.082945
     29          1           0       -8.445731    2.370058   -0.257241
     30          6           0       -6.090179    3.668026    0.006190
     31          1           0       -5.029266    3.915237    0.014757
     32          1           0       -6.571141    4.170712   -0.839117
     33          1           0       -6.554555    4.072077    0.911473
     34          6           0       -9.261603   -0.241888   -0.282844
     35          1           0       -9.653340   -0.405934    0.728055
     36          1           0       -9.931472    0.451834   -0.790703
     37          1           0       -9.266472   -1.208989   -0.787248
     38          8           0       -6.986388   -1.861297   -0.074276
     39          7           0       -2.985499   -0.602419    0.113856
     40          7           0       -4.378948   -2.319751    0.135524
     41          7           0        1.196617   -0.387772    0.166513
     42          1           0        1.975006   -1.040001    0.204781
     43          6           0        3.898573    1.065596    0.028132
     44          1           0        4.762302    1.736266   -0.016221
     45          7           0        4.006235   -0.207545    0.117916
     46          6           0        5.355734   -0.789979    0.163310
     47          6           0        6.120440   -0.596457   -1.157595
     48          6           0        6.183288   -0.273168    1.352206
     49          1           0        5.210375   -1.867462    0.301892
     50          6           0        7.484285   -1.291008   -1.096984
     51          1           0        6.261998    0.476219   -1.337724
     52          1           0        5.520351   -0.986136   -1.984896
     53          6           0        7.548098   -0.964244    1.411727
     54          1           0        6.325353    0.808762    1.242697
     55          1           0        5.621160   -0.427729    2.277529
     56          6           0        8.313123   -0.795785    0.093771
     57          1           0        8.027049   -1.128653   -2.032464
     58          1           0        7.332778   -2.373965   -1.005318
     59          1           0        8.133588   -0.565422    2.245654
     60          1           0        7.400812   -2.033236    1.610919
     61          1           0        9.266695   -1.330761    0.140433
     62          1           0        8.550628    0.265897   -0.051117
     63          1           0       -5.292414   -2.766300    0.078695
     64          1           0       -2.222912    0.215913    0.086811
 ---------------------------------------------------------------------
 Rotational constants (GHZ):           0.2540937           0.0444355           0.0384480
 Leave Link  202 at Tue Dec 18 09:24:07 2018, MaxMem=  1342177280 cpu:               1.1 elap:               0.1
 (Enter /gpfs/apps/hpc/Apps/Restricted/Gaussian/Rev_A.03/g16/l301.exe)
 Standard basis: 6-31G(d,p) (6D, 7F)
 Ernie: Thresh=  0.10000D-02 Tol=  0.10000D-05 Strict=F.
   670 basis functions,  1183 primitive gaussians,   670 cartesian basis functions
   123 alpha electrons      122 beta electrons
       nuclear repulsion energy      3359.8916785310 Hartrees.
 IExCor=  402 DFT=T Ex+Corr=B3LYP ExCW=0 ScaHFX=  0.200000
 ScaDFX=  0.800000  0.720000  1.000000  0.810000 ScalE2=  1.000000  1.000000
 IRadAn=      5 IRanWt=     -1 IRanGd=            0 ICorTp=0 IEmpDi=141
 NAtoms=   64 NActive=   64 NUniq=   64 SFac= 1.00D+00 NAtFMM=   60 NAOKFM=T Big=T
 Integral buffers will be    131072 words long.
 Raffenetti 2 integral format.
 Two-electron integral symmetry is turned off.
 R6Disp:  Grimme-D3(BJ) Dispersion energy=       -0.1442530926 Hartrees.
 Nuclear repulsion after empirical dispersion term =     3359.7474254383 Hartrees.
 Force inversion solution in PCM.
 Using the following non-standard input for PCM:
 radii=bondi
 dis
 rep
 cav
 --- end of non-standard input.
 Force inversion solution in PCM.
 ------------------------------------------------------------------------------
 Polarizable Continuum Model (PCM)
 =================================
 Model                : C-PCM.
 Atomic radii         : Bondi.
 Polarization charges : Total charges.
 Charge compensation  : None.
 Solution method      : Matrix inversion.
 Cavity type          : Scaled VdW (van der Waals Surface) (Alpha=1.100).
 Cavity algorithm     : GePol (No added spheres)
                        Default sphere list used, NSphG=   64.
                        Lebedev-Laikov grids with approx.  5.0 points / Ang**2.
                        Smoothing algorithm: York/Karplus (Gamma=1.0000).
                        Polarization charges: spherical gaussians, with
                                              point-specific exponents (IZeta= 3).
                        Self-potential: point-specific (ISelfS= 7).
                        Self-field    : sphere-specific E.n sum rule (ISelfD= 2).
 1st derivatives      : Analytical E(r).r(x)/FMM algorithm (CHGder, D1EAlg=3).
                        Cavity 1st derivative terms included.
 Solvent              : Dichloromethane, Eps=   8.930000 Eps(inf)=   2.028346
 ------------------------------------------------------------------------------
 GePol: Number of generator spheres                  =      64
 GePol: Total number of spheres                      =      64
 GePol: Number of exposed spheres                    =      64 (100.00%)
 GePol: Number of points                             =    4416
 GePol: Average weight of points                     =       0.12
 GePol: Minimum weight of points                     =   0.77D-10
 GePol: Maximum weight of points                     =    0.21770
 GePol: Number of points with low weight             =     304
 GePol: Fraction of low-weight points (<1% of avg)   =       6.88%
 GePol: Cavity surface area                          =    515.752 Ang**2
 GePol: Cavity volume                                =    497.286 Ang**3
 PCM non-electrostatic energy =         0.0187442393 Hartrees.
 Nuclear repulsion after PCM non-electrostatic terms =     3359.7661696776 Hartrees.
 Leave Link  301 at Tue Dec 18 09:24:07 2018, MaxMem=  1342177280 cpu:               3.4 elap:               0.3
 (Enter /gpfs/apps/hpc/Apps/Restricted/Gaussian/Rev_A.03/g16/l302.exe)
 NPDir=0 NMtPBC=     1 NCelOv=     1 NCel=       1 NClECP=     1 NCelD=      1
         NCelK=      1 NCelE2=     1 NClLst=     1 CellRange=     0.0.
 One-electron integrals computed using PRISM.
 NBasis=   670 RedAO= T EigKep=  2.80D-04  NBF=   670
 NBsUse=   670 1.00D-06 EigRej= -1.00D+00 NBFU=   670
 Precomputing XC quadrature grid using
 IXCGrd= 4 IRadAn=           5 IRanWt=          -1 IRanGd=           0 AccXCQ= 0.00D+00.
 Generated NRdTot=       0 NPtTot=           0 NUsed=           0 NTot=          32
 NSgBfM=   623   623   623   623   623 MxSgAt=    64 MxSgA2=    64.
 Leave Link  302 at Tue Dec 18 09:24:08 2018, MaxMem=  1342177280 cpu:              14.8 elap:               1.0
 (Enter /gpfs/apps/hpc/Apps/Restricted/Gaussian/Rev_A.03/g16/l303.exe)
 DipDrv:  MaxL=1.
 Leave Link  303 at Tue Dec 18 09:24:09 2018, MaxMem=  1342177280 cpu:               1.8 elap:               0.3
 (Enter /gpfs/apps/hpc/Apps/Restricted/Gaussian/Rev_A.03/g16/l401.exe)
 Initial guess from the checkpoint file:  "cyclohexyl-diBIP-TS2.chk"
 B after Tr=    -0.080891   -0.168831    0.015749
         Rot=    0.999626   -0.027193    0.002922    0.000387 Ang=  -3.13 deg.
 Guess basis will be translated and rotated to current coordinates.
 JPrj=2 DoOrth=T DoCkMO=T.
 Initial guess <Sx>= 0.0000 <Sy>= 0.0000 <Sz>= 0.5000 <S**2>= 0.7761 S= 0.5130
 Leave Link  401 at Tue Dec 18 09:24:11 2018, MaxMem=  1342177280 cpu:              35.9 elap:               2.3
 (Enter /gpfs/apps/hpc/Apps/Restricted/Gaussian/Rev_A.03/g16/l502.exe)
 Two-electron integral symmetry not used.
 UHF open shell SCF:
 Using DIIS extrapolation, IDIIS=  1040.
 NGot=  1342177280 LenX=  1341263254 LenY=  1340813684
 Requested convergence on RMS density matrix=1.00D-08 within 128 cycles.
 Requested convergence on MAX density matrix=1.00D-06.
 Requested convergence on             energy=1.00D-06.
 No special actions if energy rises.
 Fock matrices will be formed incrementally for  20 cycles.

 Cycle   1  Pass 1  IDiag  1:
 FoFJK:  IHMeth= 1 ICntrl=       0 DoSepK=F KAlg= 0 I1Cent=           0 FoldK=F
 IRaf= 690000000 NMat=       1 IRICut=       1 DoRegI=T DoRafI=F ISym2E= 0 IDoP0=0 IntGTp=1.
 FoFCou: FMM=T IPFlag=           0 FMFlag=      100000 FMFlg1=        2001
         NFxFlg=           0 DoJE=F BraDBF=F KetDBF=F FulRan=T
         wScrn=  0.000000 ICntrl=         0 IOpCl=  1 I1Cent=           0 NGrid=           0
         NMat0=    1 NMatS0=      1 NMatT0=    0 NMatD0=    1 NMtDS0=    0 NMtDT0=    0
 Symmetry not used in FoFCou.
 FMM levels:  10  Number of levels for PrismC:   9
 Inv3:  Mode=1 IEnd=    58503168.
 Iteration    1 A*A^-1 deviation from unit magnitude is 1.14D-14 for   2274.
 Iteration    1 A*A^-1 deviation from orthogonality  is 4.74D-15 for   2269   2011.
 Iteration    1 A^-1*A deviation from unit magnitude is 1.14D-14 for   2274.
 Iteration    1 A^-1*A deviation from orthogonality  is 2.93D-15 for   2638   2201.
 E= -1469.83555745002    
 DIIS: error= 3.40D-02 at cycle   1 NSaved=   1.
 NSaved= 1 IEnMin= 1 EnMin= -1469.83555745002     IErMin= 1 ErrMin= 3.40D-02
 ErrMax= 3.40D-02  0.00D+00 EMaxC= 1.00D-01 BMatC= 3.65D+00 BMatP= 3.65D+00
 IDIUse=3 WtCom= 6.60D-01 WtEn= 3.40D-01
 Coeff-Com:  0.100D+01
 Coeff-En:   0.100D+01
 Coeff:      0.100D+01
 Gap=     0.256 Goal=   None    Shift=    0.000
 Gap=     0.305 Goal=   None    Shift=    0.000
 GapD=    0.256 DampG=1.000 DampE=0.500 DampFc=0.5000 IDamp=-1.
 Damping current iteration by 5.00D-01
 RMSDP=2.40D-03 MaxDP=1.11D-01              OVMax= 2.19D-01

 Cycle   2  Pass 1  IDiag  1:
 RMSU=  1.18D-03    CP:  9.82D-01
 E= -1470.68138768326     Delta-E=       -0.845830233245 Rises=F Damp=T
 DIIS: error= 1.84D-02 at cycle   2 NSaved=   2.
 NSaved= 2 IEnMin= 2 EnMin= -1470.68138768326     IErMin= 2 ErrMin= 1.84D-02
 ErrMax= 1.84D-02  0.00D+00 EMaxC= 1.00D-01 BMatC= 1.05D+00 BMatP= 3.65D+00
 IDIUse=3 WtCom= 8.16D-01 WtEn= 1.84D-01
 Coeff-Com: -0.101D+01 0.201D+01
 Coeff-En:   0.000D+00 0.100D+01
 Coeff:     -0.827D+00 0.183D+01
 Gap=     0.141 Goal=   None    Shift=    0.000
 Gap=     0.077 Goal=   None    Shift=    0.000
 RMSDP=1.42D-03 MaxDP=7.46D-02 DE=-8.46D-01 OVMax= 8.46D-02

 Cycle   3  Pass 1  IDiag  1:
 RMSU=  6.93D-04    CP:  9.63D-01  2.03D+00
 E= -1471.55183257767     Delta-E=       -0.870444894412 Rises=F Damp=F
 DIIS: error= 1.79D-02 at cycle   3 NSaved=   3.
 NSaved= 3 IEnMin= 3 EnMin= -1471.55183257767     IErMin= 3 ErrMin= 1.79D-02
 ErrMax= 1.79D-02  0.00D+00 EMaxC= 1.00D-01 BMatC= 3.29D-01 BMatP= 1.05D+00
 IDIUse=3 WtCom= 8.21D-01 WtEn= 1.79D-01
 Coeff-Com: -0.668D+00 0.124D+01 0.428D+00
 Coeff-En:   0.000D+00 0.000D+00 0.100D+01
 Coeff:     -0.549D+00 0.102D+01 0.530D+00
 Gap=     0.144 Goal=   None    Shift=    0.000
 Gap=     0.079 Goal=   None    Shift=    0.000
 RMSDP=5.74D-04 MaxDP=8.08D-02 DE=-8.70D-01 OVMax= 8.64D-02

 Cycle   4  Pass 1  IDiag  1:
 RMSU=  2.39D-04    CP:  9.62D-01  2.16D+00  2.82D-01
 E= -1471.61026966731     Delta-E=       -0.058437089634 Rises=F Damp=F
 DIIS: error= 7.39D-03 at cycle   4 NSaved=   4.
 NSaved= 4 IEnMin= 4 EnMin= -1471.61026966731     IErMin= 4 ErrMin= 7.39D-03
 ErrMax= 7.39D-03  0.00D+00 EMaxC= 1.00D-01 BMatC= 5.83D-02 BMatP= 3.29D-01
 IDIUse=3 WtCom= 9.26D-01 WtEn= 7.39D-02
 Coeff-Com: -0.169D+00 0.306D+00 0.322D+00 0.542D+00
 Coeff-En:   0.000D+00 0.000D+00 0.183D+00 0.817D+00
 Coeff:     -0.157D+00 0.283D+00 0.312D+00 0.562D+00
 Gap=     0.141 Goal=   None    Shift=    0.000
 Gap=     0.076 Goal=   None    Shift=    0.000
 RMSDP=1.92D-04 MaxDP=2.33D-02 DE=-5.84D-02 OVMax= 2.38D-02

 Cycle   5  Pass 1  IDiag  1:
 RMSU=  6.46D-05    CP:  9.61D-01  2.14D+00  5.15D-01  6.79D-01
 E= -1471.62246857967     Delta-E=       -0.012198912358 Rises=F Damp=F
 DIIS: error= 8.94D-04 at cycle   5 NSaved=   5.
 NSaved= 5 IEnMin= 5 EnMin= -1471.62246857967     IErMin= 5 ErrMin= 8.94D-04
 ErrMax= 8.94D-04  0.00D+00 EMaxC= 1.00D-01 BMatC= 1.60D-03 BMatP= 5.83D-02
 IDIUse=3 WtCom= 9.91D-01 WtEn= 8.94D-03
 Coeff-Com: -0.234D-01 0.387D-01 0.127D+00 0.315D+00 0.543D+00
 Coeff-En:   0.000D+00 0.000D+00 0.000D+00 0.000D+00 0.100D+01
 Coeff:     -0.232D-01 0.384D-01 0.126D+00 0.312D+00 0.547D+00
 Gap=     0.141 Goal=   None    Shift=    0.000
 Gap=     0.075 Goal=   None    Shift=    0.000
 RMSDP=3.56D-05 MaxDP=3.43D-03 DE=-1.22D-02 OVMax= 4.49D-03

 Cycle   6  Pass 1  IDiag  1:
 RMSU=  2.17D-05    CP:  9.61D-01  2.14D+00  5.02D-01  7.31D-01  6.42D-01
 E= -1471.62282625044     Delta-E=       -0.000357670775 Rises=F Damp=F
 DIIS: error= 2.31D-04 at cycle   6 NSaved=   6.
 NSaved= 6 IEnMin= 6 EnMin= -1471.62282625044     IErMin= 6 ErrMin= 2.31D-04
 ErrMax= 2.31D-04  0.00D+00 EMaxC= 1.00D-01 BMatC= 1.14D-04 BMatP= 1.60D-03
 IDIUse=3 WtCom= 9.98D-01 WtEn= 2.31D-03
 Coeff-Com:  0.922D-02-0.182D-01 0.192D-01 0.770D-01 0.268D+00 0.645D+00
 Coeff-En:   0.000D+00 0.000D+00 0.000D+00 0.000D+00 0.000D+00 0.100D+01
 Coeff:      0.920D-02-0.182D-01 0.191D-01 0.768D-01 0.267D+00 0.646D+00
 Gap=     0.141 Goal=   None    Shift=    0.000
 Gap=     0.075 Goal=   None    Shift=    0.000
 RMSDP=1.13D-05 MaxDP=1.10D-03 DE=-3.58D-04 OVMax= 1.98D-03

 Cycle   7  Pass 1  IDiag  1:
 RMSU=  8.10D-06    CP:  9.61D-01  2.14D+00  5.04D-01  7.38D-01  7.14D-01
                    CP:  7.24D-01
 E= -1471.62284942868     Delta-E=       -0.000023178240 Rises=F Damp=F
 DIIS: error= 1.34D-04 at cycle   7 NSaved=   7.
 NSaved= 7 IEnMin= 7 EnMin= -1471.62284942868     IErMin= 7 ErrMin= 1.34D-04
 ErrMax= 1.34D-04  0.00D+00 EMaxC= 1.00D-01 BMatC= 2.58D-05 BMatP= 1.14D-04
 IDIUse=3 WtCom= 9.99D-01 WtEn= 1.34D-03
 Coeff-Com:  0.772D-02-0.145D-01-0.204D-02 0.119D-01 0.105D+00 0.397D+00
 Coeff-Com:  0.496D+00
 Coeff-En:   0.000D+00 0.000D+00 0.000D+00 0.000D+00 0.000D+00 0.662D-01
 Coeff-En:   0.934D+00
 Coeff:      0.771D-02-0.145D-01-0.204D-02 0.119D-01 0.104D+00 0.396D+00
 Coeff:      0.496D+00
 Gap=     0.141 Goal=   None    Shift=    0.000
 Gap=     0.075 Goal=   None    Shift=    0.000
 RMSDP=4.66D-06 MaxDP=5.81D-04 DE=-2.32D-05 OVMax= 8.85D-04

 Cycle   8  Pass 1  IDiag  1:
 RMSU=  3.58D-06    CP:  9.61D-01  2.14D+00  5.05D-01  7.41D-01  7.16D-01
                    CP:  8.05D-01  7.17D-01
 E= -1471.62285553479     Delta-E=       -0.000006106111 Rises=F Damp=F
 DIIS: error= 4.57D-05 at cycle   8 NSaved=   8.
 NSaved= 8 IEnMin= 8 EnMin= -1471.62285553479     IErMin= 8 ErrMin= 4.57D-05
 ErrMax= 4.57D-05  0.00D+00 EMaxC= 1.00D-01 BMatC= 1.98D-06 BMatP= 2.58D-05
 IDIUse=1 WtCom= 1.00D+00 WtEn= 0.00D+00
 Coeff-Com:  0.213D-02-0.389D-02-0.356D-02-0.578D-02 0.814D-02 0.875D-01
 Coeff-Com:  0.228D+00 0.688D+00
 Coeff:      0.213D-02-0.389D-02-0.356D-02-0.578D-02 0.814D-02 0.875D-01
 Coeff:      0.228D+00 0.688D+00
 Gap=     0.141 Goal=   None    Shift=    0.000
 Gap=     0.075 Goal=   None    Shift=    0.000
 RMSDP=2.06D-06 MaxDP=3.03D-04 DE=-6.11D-06 OVMax= 8.99D-04

 Cycle   9  Pass 1  IDiag  1:
 RMSU=  1.61D-06    CP:  9.61D-01  2.14D+00  5.05D-01  7.42D-01  7.22D-01
                    CP:  8.26D-01  8.53D-01  1.04D+00
 E= -1471.62285636848     Delta-E=       -0.000000833685 Rises=F Damp=F
 DIIS: error= 1.86D-05 at cycle   9 NSaved=   9.
 NSaved= 9 IEnMin= 9 EnMin= -1471.62285636848     IErMin= 9 ErrMin= 1.86D-05
 ErrMax= 1.86D-05  0.00D+00 EMaxC= 1.00D-01 BMatC= 6.89D-07 BMatP= 1.98D-06
 IDIUse=1 WtCom= 1.00D+00 WtEn= 0.00D+00
 Coeff-Com: -0.745D-03 0.146D-02-0.144D-02-0.635D-02-0.236D-01-0.539D-01
 Coeff-Com: -0.172D-02 0.399D+00 0.688D+00
 Coeff:     -0.745D-03 0.146D-02-0.144D-02-0.635D-02-0.236D-01-0.539D-01
 Coeff:     -0.172D-02 0.399D+00 0.688D+00
 Gap=     0.141 Goal=   None    Shift=    0.000
 Gap=     0.075 Goal=   None    Shift=    0.000
 RMSDP=1.46D-06 MaxDP=2.38D-04 DE=-8.34D-07 OVMax= 7.38D-04

 Cycle  10  Pass 1  IDiag  1:
 RMSU=  8.47D-07    CP:  9.61D-01  2.14D+00  5.05D-01  7.42D-01  7.24D-01
                    CP:  8.43D-01  9.29D-01  1.30D+00  1.00D+00
 E= -1471.62285676619     Delta-E=       -0.000000397714 Rises=F Damp=F
 DIIS: error= 1.22D-05 at cycle  10 NSaved=  10.
 NSaved=10 IEnMin=10 EnMin= -1471.62285676619     IErMin=10 ErrMin= 1.22D-05
 ErrMax= 1.22D-05  0.00D+00 EMaxC= 1.00D-01 BMatC= 1.29D-07 BMatP= 6.89D-07
 IDIUse=1 WtCom= 1.00D+00 WtEn= 0.00D+00
 Coeff-Com: -0.815D-03 0.153D-02 0.191D-03-0.153D-02-0.136D-01-0.459D-01
 Coeff-Com: -0.575D-01 0.876D-02 0.320D+00 0.789D+00
 Coeff:     -0.815D-03 0.153D-02 0.191D-03-0.153D-02-0.136D-01-0.459D-01
 Coeff:     -0.575D-01 0.876D-02 0.320D+00 0.789D+00
 Gap=     0.141 Goal=   None    Shift=    0.000
 Gap=     0.075 Goal=   None    Shift=    0.000
 RMSDP=9.30D-07 MaxDP=1.67D-04 DE=-3.98D-07 OVMax= 5.33D-04

 Cycle  11  Pass 1  IDiag  1:
 RMSU=  4.00D-07    CP:  9.61D-01  2.14D+00  5.05D-01  7.42D-01  7.25D-01
                    CP:  8.51D-01  9.75D-01  1.45D+00  1.30D+00  1.12D+00
 E= -1471.62285689344     Delta-E=       -0.000000127249 Rises=F Damp=F
 DIIS: error= 5.23D-06 at cycle  11 NSaved=  11.
 NSaved=11 IEnMin=11 EnMin= -1471.62285689344     IErMin=11 ErrMin= 5.23D-06
 ErrMax= 5.23D-06  0.00D+00 EMaxC= 1.00D-01 BMatC= 3.67D-08 BMatP= 1.29D-07
 IDIUse=1 WtCom= 1.00D+00 WtEn= 0.00D+00
 Coeff-Com: -0.211D-03 0.384D-03 0.489D-03 0.920D-03-0.110D-02-0.962D-02
 Coeff-Com: -0.283D-01-0.984D-01-0.148D-01 0.385D+00 0.766D+00
 Coeff:     -0.211D-03 0.384D-03 0.489D-03 0.920D-03-0.110D-02-0.962D-02
 Coeff:     -0.283D-01-0.984D-01-0.148D-01 0.385D+00 0.766D+00
 Gap=     0.141 Goal=   None    Shift=    0.000
 Gap=     0.075 Goal=   None    Shift=    0.000
 RMSDP=5.24D-07 MaxDP=9.26D-05 DE=-1.27D-07 OVMax= 3.11D-04

 Cycle  12  Pass 1  IDiag  1:
 RMSU=  1.78D-07    CP:  9.61D-01  2.14D+00  5.05D-01  7.42D-01  7.26D-01
                    CP:  8.56D-01  1.00D+00  1.53D+00  1.43D+00  1.43D+00
                    CP:  1.08D+00
 E= -1471.62285692777     Delta-E=       -0.000000034330 Rises=F Damp=F
 DIIS: error= 2.61D-06 at cycle  12 NSaved=  12.
 NSaved=12 IEnMin=12 EnMin= -1471.62285692777     IErMin=12 ErrMin= 2.61D-06
 ErrMax= 2.61D-06  0.00D+00 EMaxC= 1.00D-01 BMatC= 9.81D-09 BMatP= 3.67D-08
 IDIUse=1 WtCom= 1.00D+00 WtEn= 0.00D+00
 Coeff-Com:  0.107D-03-0.207D-03 0.168D-03 0.805D-03 0.303D-02 0.785D-02
 Coeff-Com:  0.149D-02-0.544D-01-0.942D-01-0.626D-02 0.405D+00 0.737D+00
 Coeff:      0.107D-03-0.207D-03 0.168D-03 0.805D-03 0.303D-02 0.785D-02
 Coeff:      0.149D-02-0.544D-01-0.942D-01-0.626D-02 0.405D+00 0.737D+00
 Gap=     0.141 Goal=   None    Shift=    0.000
 Gap=     0.075 Goal=   None    Shift=    0.000
 RMSDP=2.65D-07 MaxDP=4.41D-05 DE=-3.43D-08 OVMax= 1.53D-04

 Cycle  13  Pass 1  IDiag  1:
 RMSU=  9.92D-08    CP:  9.61D-01  2.14D+00  5.05D-01  7.42D-01  7.26D-01
                    CP:  8.57D-01  1.01D+00  1.56D+00  1.51D+00  1.56D+00
                    CP:  1.31D+00  8.88D-01
 E= -1471.62285693579     Delta-E=       -0.000000008022 Rises=F Damp=F
 DIIS: error= 1.12D-06 at cycle  13 NSaved=  13.
 NSaved=13 IEnMin=13 EnMin= -1471.62285693579     IErMin=13 ErrMin= 1.12D-06
 ErrMax= 1.12D-06  0.00D+00 EMaxC= 1.00D-01 BMatC= 2.55D-09 BMatP= 9.81D-09
 IDIUse=1 WtCom= 1.00D+00 WtEn= 0.00D+00
 Coeff-Com:  0.978D-04-0.185D-03-0.179D-04 0.220D-03 0.189D-02 0.652D-02
 Coeff-Com:  0.750D-02-0.413D-02-0.446D-01-0.969D-01 0.135D-01 0.399D+00
 Coeff-Com:  0.717D+00
 Coeff:      0.978D-04-0.185D-03-0.179D-04 0.220D-03 0.189D-02 0.652D-02
 Coeff:      0.750D-02-0.413D-02-0.446D-01-0.969D-01 0.135D-01 0.399D+00
 Coeff:      0.717D+00
 Gap=     0.141 Goal=   None    Shift=    0.000
 Gap=     0.075 Goal=   None    Shift=    0.000
 RMSDP=1.16D-07 MaxDP=1.74D-05 DE=-8.02D-09 OVMax= 6.35D-05

 Cycle  14  Pass 1  IDiag  1:
 RMSU=  4.37D-08    CP:  9.61D-01  2.14D+00  5.05D-01  7.42D-01  7.26D-01
                    CP:  8.58D-01  1.02D+00  1.57D+00  1.54D+00  1.62D+00
                    CP:  1.42D+00  1.13D+00  8.97D-01
 E= -1471.62285693723     Delta-E=       -0.000000001438 Rises=F Damp=F
 DIIS: error= 4.98D-07 at cycle  14 NSaved=  14.
 NSaved=14 IEnMin=14 EnMin= -1471.62285693723     IErMin=14 ErrMin= 4.98D-07
 ErrMax= 4.98D-07  0.00D+00 EMaxC= 1.00D-01 BMatC= 6.11D-10 BMatP= 2.55D-09
 IDIUse=1 WtCom= 1.00D+00 WtEn= 0.00D+00
 Coeff-Com:  0.332D-04-0.617D-04-0.456D-04-0.431D-04 0.475D-03 0.222D-02
 Coeff-Com:  0.400D-02 0.802D-02-0.763D-02-0.554D-01-0.733D-01 0.880D-01
 Coeff-Com:  0.409D+00 0.624D+00
 Coeff:      0.332D-04-0.617D-04-0.456D-04-0.431D-04 0.475D-03 0.222D-02
 Coeff:      0.400D-02 0.802D-02-0.763D-02-0.554D-01-0.733D-01 0.880D-01
 Coeff:      0.409D+00 0.624D+00
 Gap=     0.141 Goal=   None    Shift=    0.000
 Gap=     0.075 Goal=   None    Shift=    0.000
 RMSDP=4.23D-08 MaxDP=5.70D-06 DE=-1.44D-09 OVMax= 2.09D-05

 Cycle  15  Pass 1  IDiag  1:
 RMSU=  2.04D-08    CP:  9.61D-01  2.14D+00  5.05D-01  7.42D-01  7.26D-01
                    CP:  8.58D-01  1.02D+00  1.58D+00  1.54D+00  1.64D+00
                    CP:  1.45D+00  1.18D+00  1.05D+00  8.40D-01
 E= -1471.62285693748     Delta-E=       -0.000000000254 Rises=F Damp=F
 DIIS: error= 1.91D-07 at cycle  15 NSaved=  15.
 NSaved=15 IEnMin=15 EnMin= -1471.62285693748     IErMin=15 ErrMin= 1.91D-07
 ErrMax= 1.91D-07  0.00D+00 EMaxC= 1.00D-01 BMatC= 9.01D-11 BMatP= 6.11D-10
 IDIUse=1 WtCom= 1.00D+00 WtEn= 0.00D+00
 Coeff-Com: -0.369D-05 0.754D-05-0.190D-04-0.717D-04-0.178D-03-0.303D-03
 Coeff-Com:  0.384D-03 0.473D-02 0.631D-02-0.541D-02-0.386D-01-0.457D-01
 Coeff-Com:  0.451D-01 0.302D+00 0.732D+00
 Coeff:     -0.369D-05 0.754D-05-0.190D-04-0.717D-04-0.178D-03-0.303D-03
 Coeff:      0.384D-03 0.473D-02 0.631D-02-0.541D-02-0.386D-01-0.457D-01
 Coeff:      0.451D-01 0.302D+00 0.732D+00
 Gap=     0.141 Goal=   None    Shift=    0.000
 Gap=     0.075 Goal=   None    Shift=    0.000
 RMSDP=1.61D-08 MaxDP=1.82D-06 DE=-2.54D-10 OVMax= 5.46D-06

 Cycle  16  Pass 1  IDiag  1:
 RMSU=  8.88D-09    CP:  9.61D-01  2.14D+00  5.05D-01  7.42D-01  7.26D-01
                    CP:  8.58D-01  1.02D+00  1.58D+00  1.55D+00  1.64D+00
                    CP:  1.46D+00  1.20D+00  1.10D+00  1.02D+00  9.29D-01
 E= -1471.62285693763     Delta-E=       -0.000000000148 Rises=F Damp=F
 DIIS: error= 7.09D-08 at cycle  16 NSaved=  16.
 NSaved=16 IEnMin=16 EnMin= -1471.62285693763     IErMin=16 ErrMin= 7.09D-08
 ErrMax= 7.09D-08  0.00D+00 EMaxC= 1.00D-01 BMatC= 2.31D-11 BMatP= 9.01D-11
 IDIUse=1 WtCom= 1.00D+00 WtEn= 0.00D+00
 Coeff-Com: -0.685D-05 0.131D-04-0.235D-05-0.311D-04-0.174D-03-0.523D-03
 Coeff-Com: -0.425D-03 0.125D-02 0.463D-02 0.582D-02-0.896D-02-0.385D-01
 Coeff-Com: -0.374D-01 0.603D-01 0.389D+00 0.625D+00
 Coeff:     -0.685D-05 0.131D-04-0.235D-05-0.311D-04-0.174D-03-0.523D-03
 Coeff:     -0.425D-03 0.125D-02 0.463D-02 0.582D-02-0.896D-02-0.385D-01
 Coeff:     -0.374D-01 0.603D-01 0.389D+00 0.625D+00
 Gap=     0.141 Goal=   None    Shift=    0.000
 Gap=     0.075 Goal=   None    Shift=    0.000
 RMSDP=6.58D-09 MaxDP=8.02D-07 DE=-1.48D-10 OVMax= 1.92D-06

 Error on total polarization charges =  0.04385
 SCF Done:  E(UB3LYP) =  -1471.62285694     A.U. after   16 cycles
            NFock= 16  Conv=0.66D-08     -V/T= 2.0095
 <Sx>= 0.0000 <Sy>= 0.0000 <Sz>= 0.5000 <S**2>= 0.7737 S= 0.5118
 <L.S>= 0.000000000000E+00
 KE= 1.457711204372D+03 PE=-1.010659590603D+04 EE= 3.817495675043D+03
 Annihilation of the first spin contaminant:
 S**2 before annihilation     0.7737,   after     0.7504
 Leave Link  502 at Tue Dec 18 09:27:09 2018, MaxMem=  1342177280 cpu:            2774.4 elap:             177.9
 (Enter /gpfs/apps/hpc/Apps/Restricted/Gaussian/Rev_A.03/g16/l801.exe)
 DoSCS=F DFT=T ScalE2(SS,OS)=  1.000000  1.000000
 Range of M.O.s used for correlation:     1   670
 NBasis=   670 NAE=   123 NBE=   122 NFC=     0 NFV=     0
 NROrb=    670 NOA=   123 NOB=   122 NVA=   547 NVB=   548

 **** Warning!!: The smallest beta delta epsilon is  0.75391789D-01

 Leave Link  801 at Tue Dec 18 09:27:10 2018, MaxMem=  1342177280 cpu:               2.2 elap:               0.2
 (Enter /gpfs/apps/hpc/Apps/Restricted/Gaussian/Rev_A.03/g16/l1101.exe)
 Leave Link 1101 at Tue Dec 18 09:27:10 2018, MaxMem=  1342177280 cpu:               0.4 elap:               0.1
 (Enter /gpfs/apps/hpc/Apps/Restricted/Gaussian/Rev_A.03/g16/l1102.exe)
 Symmetrizing basis deriv contribution to polar:
 IMax=3 JMax=2 DiffMx= 0.00D+00
 Leave Link 1102 at Tue Dec 18 09:27:11 2018, MaxMem=  1342177280 cpu:               0.9 elap:               0.1
 (Enter /gpfs/apps/hpc/Apps/Restricted/Gaussian/Rev_A.03/g16/l1110.exe)
 Leave Link 1110 at Tue Dec 18 09:27:11 2018, MaxMem=  1342177280 cpu:               1.0 elap:               0.1
 (Enter /gpfs/apps/hpc/Apps/Restricted/Gaussian/Rev_A.03/g16/l1002.exe)
 Minotr:  UHF open shell wavefunction.
 Leave Link 1002 at Tue Dec 18 09:27:11 2018, MaxMem=  1342177280 cpu:               0.6 elap:               0.1
 (Enter /gpfs/apps/hpc/Apps/Restricted/Gaussian/Rev_A.03/g16/l601.exe)
 Copying SCF densities to generalized density rwf, IOpCl= 1 IROHF=0.

 **********************************************************************

            Population analysis using the SCF density.

 **********************************************************************

 Alpha  occ. eigenvalues --  -19.17265 -14.42509 -14.40951 -14.40356 -14.36357
 Alpha  occ. eigenvalues --  -14.34050 -10.32081 -10.29661 -10.29311 -10.26515
 Alpha  occ. eigenvalues --  -10.25827 -10.24803 -10.24767 -10.24632 -10.24400
 Alpha  occ. eigenvalues --  -10.24101 -10.24062 -10.23502 -10.22930 -10.22702
 Alpha  occ. eigenvalues --  -10.22541 -10.21986 -10.21937 -10.21667 -10.21558
 Alpha  occ. eigenvalues --  -10.21322 -10.21085 -10.20652 -10.19920 -10.19326
 Alpha  occ. eigenvalues --  -10.18287 -10.18228 -10.18016 -10.18010 -10.17816
 Alpha  occ. eigenvalues --   -1.07824  -1.06044  -1.04972  -0.94840  -0.93584
 Alpha  occ. eigenvalues --   -0.90755  -0.89788  -0.88579  -0.86877  -0.82700
 Alpha  occ. eigenvalues --   -0.82599  -0.80626  -0.80386  -0.77902  -0.76701
 Alpha  occ. eigenvalues --   -0.75179  -0.74356  -0.73416  -0.71498  -0.69998
 Alpha  occ. eigenvalues --   -0.69421  -0.68209  -0.66777  -0.65480  -0.64334
 Alpha  occ. eigenvalues --   -0.62886  -0.62435  -0.61335  -0.61197  -0.59722
 Alpha  occ. eigenvalues --   -0.59016  -0.56695  -0.55674  -0.55045  -0.54473
 Alpha  occ. eigenvalues --   -0.52928  -0.51934  -0.51488  -0.51337  -0.50301
 Alpha  occ. eigenvalues --   -0.50145  -0.49645  -0.48804  -0.47652  -0.47583
 Alpha  occ. eigenvalues --   -0.46893  -0.46052  -0.45967  -0.45606  -0.44826
 Alpha  occ. eigenvalues --   -0.44635  -0.44532  -0.44090  -0.43821  -0.43657
 Alpha  occ. eigenvalues --   -0.42371  -0.41982  -0.41502  -0.40631  -0.40522
 Alpha  occ. eigenvalues --   -0.40293  -0.39695  -0.39386  -0.39070  -0.38393
 Alpha  occ. eigenvalues --   -0.38280  -0.38102  -0.38056  -0.37561  -0.37474
 Alpha  occ. eigenvalues --   -0.36013  -0.35378  -0.34888  -0.34684  -0.34461
 Alpha  occ. eigenvalues --   -0.32469  -0.32247  -0.32124  -0.31887  -0.30439
 Alpha  occ. eigenvalues --   -0.29486  -0.29189  -0.28661  -0.26167  -0.26156
 Alpha  occ. eigenvalues --   -0.24431  -0.24050  -0.23313
 Alpha virt. eigenvalues --   -0.09236  -0.06731  -0.04187  -0.02465  -0.01412
 Alpha virt. eigenvalues --    0.00045   0.01735   0.03276   0.05310   0.07552
 Alpha virt. eigenvalues --    0.08160   0.08831   0.09440   0.10469   0.10671
 Alpha virt. eigenvalues --    0.11213   0.11657   0.12032   0.12351   0.12679
 Alpha virt. eigenvalues --    0.13113   0.13409   0.13672   0.14642   0.15074
 Alpha virt. eigenvalues --    0.15379   0.15644   0.16073   0.16210   0.16313
 Alpha virt. eigenvalues --    0.16555   0.16924   0.17047   0.17515   0.17586
 Alpha virt. eigenvalues --    0.17867   0.18044   0.18416   0.18617   0.19037
 Alpha virt. eigenvalues --    0.19221   0.19585   0.19792   0.20524   0.20918
 Alpha virt. eigenvalues --    0.21705   0.22800   0.23136   0.23514   0.24193
 Alpha virt. eigenvalues --    0.24856   0.25023   0.25119   0.25665   0.26127
 Alpha virt. eigenvalues --    0.26532   0.27684   0.28094   0.28818   0.29251
 Alpha virt. eigenvalues --    0.30100   0.30847   0.31262   0.31785   0.32554
 Alpha virt. eigenvalues --    0.33006   0.33953   0.36107   0.37201   0.38102
 Alpha virt. eigenvalues --    0.38827   0.39770   0.41058   0.41818   0.43092
 Alpha virt. eigenvalues --    0.43872   0.45551   0.46808   0.46914   0.47508
 Alpha virt. eigenvalues --    0.48079   0.48761   0.48898   0.49706   0.50408
 Alpha virt. eigenvalues --    0.50490   0.51070   0.51288   0.51801   0.51909
 Alpha virt. eigenvalues --    0.52293   0.52540   0.52862   0.52963   0.53464
 Alpha virt. eigenvalues --    0.53679   0.53757   0.54219   0.54413   0.55223
 Alpha virt. eigenvalues --    0.55391   0.55600   0.55952   0.56596   0.57090
 Alpha virt. eigenvalues --    0.57251   0.57796   0.57879   0.57984   0.58213
 Alpha virt. eigenvalues --    0.58564   0.58961   0.59668   0.59873   0.60423
 Alpha virt. eigenvalues --    0.60709   0.61148   0.61511   0.61768   0.62049
[...]
     24          6           0       -5.287042    1.272730   -0.404079
     25          6           0       -6.412222    2.120835   -0.479075
     26          6           0       -7.665307    1.639237   -0.041811
     27          6           0       -7.848392    0.341710    0.379202
     28          1           0       -4.329089    1.653217   -0.737569
     29          1           0       -8.513658    2.314203   -0.068085
     30          6           0       -6.286214    3.469987   -1.112503
     31          1           0       -5.486882    4.059272   -0.653853
     32          1           0       -6.012641    3.354146   -2.166907
     33          1           0       -7.221617    4.027949   -1.070775
     34          6           0       -9.180133   -0.211301    0.765645
     35          1           0       -9.967192    0.531814    0.640989
     36          1           0       -9.409454   -1.092901    0.159798
     37          1           0       -9.171619   -0.546579    1.807732
     38          8           0       -6.870465   -1.765664    0.766533
     39          7           0       -2.943826   -0.538629   -0.051491
     40          7           0       -4.315024   -2.246530    0.253841
     41          7           0        1.242799   -0.321866   -0.135663
     42          1           0        2.033940   -0.962576   -0.112590
     43          6           0        3.930360    1.088997   -0.042640
     44          1           0        4.818952    1.722635    0.066308
     45          7           0        3.998272   -0.178906   -0.226194
     46          6           0        5.325074   -0.806432   -0.149012
     47          6           0        6.385483   -0.039060   -0.946169
     48          6           0        5.779766   -0.987047    1.306720
     49          1           0        5.218764   -1.809554   -0.575599
     50          6           0        7.763153   -0.698849   -0.879090
     51          1           0        6.450625    0.970612   -0.521861
     52          1           0        6.052794    0.052470   -1.981371
     53          6           0        7.149850   -1.680350    1.352735
     54          1           0        5.833867    0.000231    1.782566
     55          1           0        5.041059   -1.582613    1.854670
     56          6           0        8.215238   -0.904401    0.568828
     57          1           0        8.479373   -0.087521   -1.439575
     58          1           0        7.713857   -1.678375   -1.365579
     59          1           0        7.462690   -1.804318    2.390266
     60          1           0        7.054976   -2.688945    0.918186
     61          1           0        9.175770   -1.428340    0.600716
     62          1           0        8.370686    0.073704    1.045274
     63          1           0       -5.224438   -2.683396    0.398195
     64          1           0       -2.099725    0.369769   -0.138005
 ---------------------------------------------------------------------
 Rotational constants (GHZ):           0.2537363           0.0447034           0.0387014
 Leave Link  202 at Tue Dec 18 12:43:44 2018, MaxMem=  1342177280 cpu:               0.5 elap:               0.1
 (Enter /gpfs/apps/hpc/Apps/Restricted/Gaussian/Rev_A.03/g16/l301.exe)
 Standard basis: 6-31G(d,p) (6D, 7F)
 Ernie: Thresh=  0.10000D-02 Tol=  0.10000D-05 Strict=F.
   670 basis functions,  1183 primitive gaussians,   670 cartesian basis functions
   123 alpha electrons      122 beta electrons
       nuclear repulsion energy      3363.5526469451 Hartrees.
 IExCor=  402 DFT=T Ex+Corr=B3LYP ExCW=0 ScaHFX=  0.200000
 ScaDFX=  0.800000  0.720000  1.000000  0.810000 ScalE2=  1.000000  1.000000
 IRadAn=      5 IRanWt=     -1 IRanGd=            0 ICorTp=0 IEmpDi=141
 NAtoms=   64 NActive=   64 NUniq=   64 SFac= 1.00D+00 NAtFMM=   60 NAOKFM=T Big=T
 Integral buffers will be    131072 words long.
 Raffenetti 2 integral format.
 Two-electron integral symmetry is turned off.
 R6Disp:  Grimme-D3(BJ) Dispersion energy=       -0.1441910973 Hartrees.
 Nuclear repulsion after empirical dispersion term =     3363.4084558478 Hartrees.
 Force inversion solution in PCM.
 ------------------------------------------------------------------------------
 Polarizable Continuum Model (PCM)
 =================================
 Model                : C-PCM.
 Atomic radii         : Bondi.
 Polarization charges : Total charges.
 Charge compensation  : None.
 Solution method      : Matrix inversion.
 Cavity type          : Scaled VdW (van der Waals Surface) (Alpha=1.100).
 Cavity algorithm     : GePol (No added spheres)
                        Default sphere list used, NSphG=   64.
                        Lebedev-Laikov grids with approx.  5.0 points / Ang**2.
                        Smoothing algorithm: York/Karplus (Gamma=1.0000).
                        Polarization charges: spherical gaussians, with
                                              point-specific exponents (IZeta= 3).
                        Self-potential: point-specific (ISelfS= 7).
                        Self-field    : sphere-specific E.n sum rule (ISelfD= 2).
 1st derivatives      : Analytical E(r).r(x)/FMM algorithm (CHGder, D1EAlg=3).
                        Cavity 1st derivative terms included.
 Solvent              : Dichloromethane, Eps=   8.930000 Eps(inf)=   2.028346
 ------------------------------------------------------------------------------
 GePol: Number of generator spheres                  =      64
 GePol: Total number of spheres                      =      64
 GePol: Number of exposed spheres                    =      64 (100.00%)
 GePol: Number of points                             =    4404
 GePol: Average weight of points                     =       0.12
 GePol: Minimum weight of points                     =   0.27D-11
 GePol: Maximum weight of points                     =    0.21770
 GePol: Number of points with low weight             =     299
 GePol: Fraction of low-weight points (<1% of avg)   =       6.79%
 GePol: Cavity surface area                          =    515.609 Ang**2
 GePol: Cavity volume                                =    496.211 Ang**3
 PCM non-electrostatic energy =         0.0188012435 Hartrees.
 Nuclear repulsion after PCM non-electrostatic terms =     3363.4272570913 Hartrees.
 Leave Link  301 at Tue Dec 18 12:43:45 2018, MaxMem=  1342177280 cpu:               3.0 elap:               0.2
 (Enter /gpfs/apps/hpc/Apps/Restricted/Gaussian/Rev_A.03/g16/l302.exe)
 NPDir=0 NMtPBC=     1 NCelOv=     1 NCel=       1 NClECP=     1 NCelD=      1
         NCelK=      1 NCelE2=     1 NClLst=     1 CellRange=     0.0.
 One-electron integrals computed using PRISM.
 NBasis=   670 RedAO= T EigKep=  2.82D-04  NBF=   670
 NBsUse=   670 1.00D-06 EigRej= -1.00D+00 NBFU=   670
 Precomputing XC quadrature grid using
 IXCGrd= 4 IRadAn=           5 IRanWt=          -1 IRanGd=           0 AccXCQ= 0.00D+00.
 Generated NRdTot=       0 NPtTot=           0 NUsed=           0 NTot=          32
 NSgBfM=   624   624   624   624   624 MxSgAt=    64 MxSgA2=    64.
 Leave Link  302 at Tue Dec 18 12:43:46 2018, MaxMem=  1342177280 cpu:              19.6 elap:               1.3
 (Enter /gpfs/apps/hpc/Apps/Restricted/Gaussian/Rev_A.03/g16/l303.exe)
 DipDrv:  MaxL=1.
 Leave Link  303 at Tue Dec 18 12:43:46 2018, MaxMem=  1342177280 cpu:               1.1 elap:               0.1
 (Enter /gpfs/apps/hpc/Apps/Restricted/Gaussian/Rev_A.03/g16/l401.exe)
 Initial guess from the checkpoint file:  "cyclohexyl-diBIP-TS2.chk"
 B after Tr=     0.038265    0.052078    0.009334
         Rot=    0.999916    0.011886   -0.005244    0.000005 Ang=   1.49 deg.
 Guess basis will be translated and rotated to current coordinates.
 JPrj=2 DoOrth=T DoCkMO=T.
 Initial guess <Sx>= 0.0000 <Sy>= 0.0000 <Sz>= 0.5000 <S**2>= 0.7742 S= 0.5120
 Generating alternative initial guess.
 ExpMin= 1.61D-01 ExpMax= 5.48D+03 ExpMxC= 8.25D+02 IAcc=2 IRadAn=         4 AccDes= 0.00D+00
 Harris functional with IExCor=  402 and IRadAn=       4 diagonalized for initial guess.
 HarFok:  IExCor=  402 AccDes= 0.00D+00 IRadAn=         4 IDoV= 1 UseB2=F ITyADJ=14
 ICtDFT=  3500011 ScaDFX=  1.000000  1.000000  1.000000  1.000000
 FoFCou: FMM=F IPFlag=           0 FMFlag=      100000 FMFlg1=        2001
         NFxFlg=           0 DoJE=T BraDBF=F KetDBF=T FulRan=T
         wScrn=  0.000000 ICntrl=       500 IOpCl=  0 I1Cent=   200000004 NGrid=           0
         NMat0=    1 NMatS0=      1 NMatT0=    0 NMatD0=    1 NMtDS0=    0 NMtDT0=    0
 Symmetry not used in FoFCou.
 Harris En= -1471.47744887808    
 Leave Link  401 at Tue Dec 18 12:43:49 2018, MaxMem=  1342177280 cpu:              48.1 elap:               3.1
 (Enter /gpfs/apps/hpc/Apps/Restricted/Gaussian/Rev_A.03/g16/l502.exe)
 Two-electron integral symmetry not used.
 UHF open shell SCF:
 Using DIIS extrapolation, IDIIS=  1040.
 NGot=  1342177280 LenX=  1341263254 LenY=  1340813684
 Requested convergence on RMS density matrix=1.00D-08 within 128 cycles.
 Requested convergence on MAX density matrix=1.00D-06.
 Requested convergence on             energy=1.00D-06.
 No special actions if energy rises.
 Fock matrices will be formed incrementally for  20 cycles.

 Cycle   1  Pass 1  IDiag  1:
 FoFJK:  IHMeth= 1 ICntrl=       0 DoSepK=F KAlg= 0 I1Cent=           0 FoldK=F
 IRaf= 690000000 NMat=       1 IRICut=       1 DoRegI=T DoRafI=F ISym2E= 0 IDoP0=0 IntGTp=1.
 FoFCou: FMM=T IPFlag=           0 FMFlag=      100000 FMFlg1=        2001
         NFxFlg=           0 DoJE=F BraDBF=F KetDBF=F FulRan=T
         wScrn=  0.000000 ICntrl=         0 IOpCl=  1 I1Cent=           0 NGrid=           0
         NMat0=    1 NMatS0=      1 NMatT0=    0 NMatD0=    1 NMtDS0=    0 NMtDT0=    0
 Symmetry not used in FoFCou.
 FMM levels:  10  Number of levels for PrismC:   9
 Inv3:  Mode=1 IEnd=    58185648.
 Iteration    1 A*A^-1 deviation from unit magnitude is 7.77D-15 for   4403.
 Iteration    1 A*A^-1 deviation from orthogonality  is 2.94D-15 for   4385   1704.
 Iteration    1 A^-1*A deviation from unit magnitude is 7.77D-15 for   4403.
 Iteration    1 A^-1*A deviation from orthogonality  is 2.14D-15 for   4125   3603.
 E= -1470.72723355933    
 DIIS: error= 2.60D-02 at cycle   1 NSaved=   1.
 NSaved= 1 IEnMin= 1 EnMin= -1470.72723355933     IErMin= 1 ErrMin= 2.60D-02
 ErrMax= 2.60D-02  0.00D+00 EMaxC= 1.00D-01 BMatC= 1.77D+00 BMatP= 1.77D+00
 IDIUse=3 WtCom= 7.40D-01 WtEn= 2.60D-01
 Coeff-Com:  0.100D+01
 Coeff-En:   0.100D+01
 Coeff:      0.100D+01
 Recover alternate guess density for next cycle.
 RMSDP=2.48D-03 MaxDP=1.08D-01              OVMax= 0.00D+00

 Cycle   2  Pass 1  IDiag  1:
 RMSU=  2.47D-03    CP:  1.01D+00
 E= -1470.90703661493     Delta-E=       -0.179803055596 Rises=F Damp=F
 DIIS: error= 2.27D-02 at cycle   2 NSaved=   2.
 NSaved= 2 IEnMin= 2 EnMin= -1470.90703661493     IErMin= 2 ErrMin= 2.27D-02
 ErrMax= 2.27D-02  0.00D+00 EMaxC= 1.00D-01 BMatC= 2.74D+00 BMatP= 1.77D+00
 IDIUse=2 WtCom= 0.00D+00 WtEn= 1.00D+00
 Coeff-En:   0.828D-01 0.917D+00
 Coeff:      0.828D-01 0.917D+00
 Gap=     0.135 Goal=   None    Shift=    0.000
 Gap=     0.075 Goal=   None    Shift=    0.000
 RMSDP=2.94D-03 MaxDP=1.73D-01 DE=-1.80D-01 OVMax= 2.67D-01

 Cycle   3  Pass 1  IDiag  1:
 RMSU=  2.18D-03    CP:  9.79D-01  2.15D-01
 E= -1470.84085220309     Delta-E=        0.066184411839 Rises=F Damp=F
 DIIS: error= 2.29D-02 at cycle   3 NSaved=   3.
 NSaved= 3 IEnMin= 2 EnMin= -1470.90703661493     IErMin= 2 ErrMin= 2.27D-02
 ErrMax= 2.29D-02  0.00D+00 EMaxC= 1.00D-01 BMatC= 3.08D+00 BMatP= 1.77D+00
 IDIUse=2 WtCom= 0.00D+00 WtEn= 1.00D+00
 Coeff-En:   0.000D+00 0.522D+00 0.478D+00
 Coeff:      0.000D+00 0.522D+00 0.478D+00
 Gap=     0.159 Goal=   None    Shift=    0.000
 Gap=     0.094 Goal=   None    Shift=    0.000
 RMSDP=1.66D-03 MaxDP=1.24D-01 DE= 6.62D-02 OVMax= 1.70D-01

 Cycle   4  Pass 1  IDiag  1:
 RMSU=  8.44D-04    CP:  9.79D-01  4.87D-01  4.19D-01
 E= -1471.57379358865     Delta-E=       -0.732941385563 Rises=F Damp=F
 DIIS: error= 1.06D-02 at cycle   4 NSaved=   4.
 NSaved= 4 IEnMin= 4 EnMin= -1471.57379358865     IErMin= 4 ErrMin= 1.06D-02
 ErrMax= 1.06D-02  0.00D+00 EMaxC= 1.00D-01 BMatC= 1.90D-01 BMatP= 1.77D+00
 IDIUse=3 WtCom= 8.94D-01 WtEn= 1.06D-01
 Coeff-Com:  0.137D-01 0.200D+00 0.242D+00 0.544D+00
 Coeff-En:   0.000D+00 0.000D+00 0.000D+00 0.100D+01
 Coeff:      0.123D-01 0.179D+00 0.217D+00 0.592D+00
 Gap=     0.136 Goal=   None    Shift=    0.000
 Gap=     0.076 Goal=   None    Shift=    0.000
 RMSDP=5.26D-04 MaxDP=7.32D-02 DE=-7.33D-01 OVMax= 9.07D-02

 Cycle   5  Pass 1  IDiag  1:
 RMSU=  3.61D-04    CP:  9.83D-01  4.76D-01  4.96D-01  5.98D-01
 E= -1471.60470542952     Delta-E=       -0.030911840866 Rises=F Damp=F
 DIIS: error= 7.46D-03 at cycle   5 NSaved=   5.
 NSaved= 5 IEnMin= 5 EnMin= -1471.60470542952     IErMin= 5 ErrMin= 7.46D-03
 ErrMax= 7.46D-03  0.00D+00 EMaxC= 1.00D-01 BMatC= 6.61D-02 BMatP= 1.90D-01
 IDIUse=3 WtCom= 9.25D-01 WtEn= 7.46D-02
 Coeff-Com:  0.605D-03 0.411D-01 0.578D-01 0.383D+00 0.518D+00
 Coeff-En:   0.000D+00 0.000D+00 0.000D+00 0.263D+00 0.737D+00
 Coeff:      0.559D-03 0.380D-01 0.535D-01 0.374D+00 0.534D+00
 Gap=     0.138 Goal=   None    Shift=    0.000
 Gap=     0.076 Goal=   None    Shift=    0.000
 RMSDP=2.38D-04 MaxDP=3.29D-02 DE=-3.09D-02 OVMax= 3.18D-02

 Cycle   6  Pass 1  IDiag  1:
 RMSU=  1.23D-04    CP:  9.82D-01  4.81D-01  4.72D-01  7.24D-01  5.44D-01
 E= -1471.61761488851     Delta-E=       -0.012909458988 Rises=F Damp=F
 DIIS: error= 1.75D-03 at cycle   6 NSaved=   6.
 NSaved= 6 IEnMin= 6 EnMin= -1471.61761488851     IErMin= 6 ErrMin= 1.75D-03
 ErrMax= 1.75D-03  0.00D+00 EMaxC= 1.00D-01 BMatC= 5.00D-03 BMatP= 6.61D-02
 IDIUse=3 WtCom= 9.82D-01 WtEn= 1.75D-02
 Coeff-Com: -0.408D-03 0.220D-02 0.655D-02 0.163D+00 0.312D+00 0.516D+00
 Coeff-En:   0.000D+00 0.000D+00 0.000D+00 0.000D+00 0.000D+00 0.100D+01
 Coeff:     -0.400D-03 0.217D-02 0.644D-02 0.160D+00 0.307D+00 0.525D+00
 Gap=     0.138 Goal=   None    Shift=    0.000
 Gap=     0.077 Goal=   None    Shift=    0.000
 RMSDP=6.95D-05 MaxDP=1.08D-02 DE=-1.29D-02 OVMax= 1.71D-02

 Cycle   7  Pass 1  IDiag  1:
 RMSU=  4.10D-05    CP:  9.82D-01  4.79D-01  4.71D-01  7.31D-01  6.11D-01
                    CP:  5.96D-01
 E= -1471.61872662861     Delta-E=       -0.001111740105 Rises=F Damp=F
 DIIS: error= 5.05D-04 at cycle   7 NSaved=   7.
 NSaved= 7 IEnMin= 7 EnMin= -1471.61872662861     IErMin= 7 ErrMin= 5.05D-04
 ErrMax= 5.05D-04  0.00D+00 EMaxC= 1.00D-01 BMatC= 4.45D-04 BMatP= 5.00D-03
 IDIUse=3 WtCom= 9.95D-01 WtEn= 5.05D-03
 Coeff-Com: -0.130D-03-0.194D-02-0.157D-02 0.507D-01 0.109D+00 0.285D+00
 Coeff-Com:  0.559D+00
 Coeff-En:   0.000D+00 0.000D+00 0.000D+00 0.000D+00 0.000D+00 0.000D+00
 Coeff-En:   0.100D+01
 Coeff:     -0.130D-03-0.193D-02-0.156D-02 0.504D-01 0.109D+00 0.283D+00
 Coeff:      0.561D+00
 Gap=     0.138 Goal=   None    Shift=    0.000
 Gap=     0.078 Goal=   None    Shift=    0.000
 RMSDP=2.12D-05 MaxDP=2.66D-03 DE=-1.11D-03 OVMax= 6.01D-03

 Cycle   8  Pass 1  IDiag  1:
 RMSU=  1.69D-05    CP:  9.82D-01  4.79D-01  4.71D-01  7.32D-01  6.12D-01
                    CP:  6.91D-01  8.84D-01
 E= -1471.61885681178     Delta-E=       -0.000130183172 Rises=F Damp=F
 DIIS: error= 2.01D-04 at cycle   8 NSaved=   8.
 NSaved= 8 IEnMin= 8 EnMin= -1471.61885681178     IErMin= 8 ErrMin= 2.01D-04
 ErrMax= 2.01D-04  0.00D+00 EMaxC= 1.00D-01 BMatC= 5.70D-05 BMatP= 4.45D-04
 IDIUse=3 WtCom= 9.98D-01 WtEn= 2.01D-03
 Coeff-Com:  0.524D-04-0.116D-02-0.208D-02-0.109D-01-0.207D-01 0.202D-01
 Coeff-Com:  0.225D+00 0.790D+00
 Coeff-En:   0.000D+00 0.000D+00 0.000D+00 0.000D+00 0.000D+00 0.000D+00
 Coeff-En:   0.000D+00 0.100D+01
 Coeff:      0.523D-04-0.116D-02-0.208D-02-0.108D-01-0.206D-01 0.202D-01
 Coeff:      0.224D+00 0.790D+00
 Gap=     0.139 Goal=   None    Shift=    0.000
 Gap=     0.078 Goal=   None    Shift=    0.000
 RMSDP=1.22D-05 MaxDP=1.96D-03 DE=-1.30D-04 OVMax= 4.71D-03

 Cycle   9  Pass 1  IDiag  1:
 RMSU=  8.34D-06    CP:  9.82D-01  4.78D-01  4.71D-01  7.34D-01  6.16D-01
                    CP:  7.21D-01  1.07D+00  1.06D+00
 E= -1471.61889691331     Delta-E=       -0.000040101529 Rises=F Damp=F
 DIIS: error= 1.11D-04 at cycle   9 NSaved=   9.
 NSaved= 9 IEnMin= 9 EnMin= -1471.61889691331     IErMin= 9 ErrMin= 1.11D-04
 ErrMax= 1.11D-04  0.00D+00 EMaxC= 1.00D-01 BMatC= 1.82D-05 BMatP= 5.70D-05
 IDIUse=3 WtCom= 9.99D-01 WtEn= 1.11D-03
 Coeff-Com:  0.959D-04 0.194D-03-0.381D-03-0.199D-01-0.466D-01-0.828D-01
 Coeff-Com: -0.131D+00 0.296D+00 0.985D+00
 Coeff-En:   0.000D+00 0.000D+00 0.000D+00 0.000D+00 0.000D+00 0.000D+00
 Coeff-En:   0.000D+00 0.000D+00 0.100D+01
 Coeff:      0.958D-04 0.194D-03-0.380D-03-0.199D-01-0.465D-01-0.827D-01
 Coeff:     -0.131D+00 0.296D+00 0.985D+00
 Gap=     0.139 Goal=   None    Shift=    0.000
 Gap=     0.079 Goal=   None    Shift=    0.000
 RMSDP=1.06D-05 MaxDP=1.47D-03 DE=-4.01D-05 OVMax= 4.08D-03

 Cycle  10  Pass 1  IDiag  1:
 RMSU=  4.70D-06    CP:  9.82D-01  4.78D-01  4.70D-01  7.35D-01  6.16D-01
                    CP:  7.54D-01  1.19D+00  1.44D+00  1.27D+00
 E= -1471.61891257904     Delta-E=       -0.000015665726 Rises=F Damp=F
 DIIS: error= 5.05D-05 at cycle  10 NSaved=  10.
 NSaved=10 IEnMin=10 EnMin= -1471.61891257904     IErMin=10 ErrMin= 5.05D-05
 ErrMax= 5.05D-05  0.00D+00 EMaxC= 1.00D-01 BMatC= 6.62D-06 BMatP= 1.82D-05
 IDIUse=1 WtCom= 1.00D+00 WtEn= 0.00D+00
 Coeff-Com:  0.511D-04 0.328D-03 0.148D-03-0.974D-02-0.245D-01-0.525D-01
 Coeff-Com: -0.131D+00 0.205D-01 0.593D+00 0.604D+00
 Coeff:      0.511D-04 0.328D-03 0.148D-03-0.974D-02-0.245D-01-0.525D-01
 Coeff:     -0.131D+00 0.205D-01 0.593D+00 0.604D+00
 Gap=     0.139 Goal=   None    Shift=    0.000
 Gap=     0.079 Goal=   None    Shift=    0.000
 RMSDP=3.95D-06 MaxDP=5.68D-04 DE=-1.57D-05 OVMax= 1.27D-03

 Cycle  11  Pass 1  IDiag  1:
 RMSU=  2.19D-06    CP:  9.82D-01  4.78D-01  4.70D-01  7.36D-01  6.16D-01
                    CP:  7.64D-01  1.23D+00  1.54D+00  1.49D+00  8.09D-01
 E= -1471.61891551787     Delta-E=       -0.000002938831 Rises=F Damp=F
 DIIS: error= 1.73D-05 at cycle  11 NSaved=  11.
 NSaved=11 IEnMin=11 EnMin= -1471.61891551787     IErMin=11 ErrMin= 1.73D-05
 ErrMax= 1.73D-05  0.00D+00 EMaxC= 1.00D-01 BMatC= 1.08D-06 BMatP= 6.62D-06
 IDIUse=1 WtCom= 1.00D+00 WtEn= 0.00D+00
 Coeff-Com:  0.208D-05 0.108D-03 0.165D-03 0.210D-04-0.110D-02-0.520D-02
 Coeff-Com: -0.364D-01-0.548D-01 0.591D-01 0.315D+00 0.723D+00
 Coeff:      0.208D-05 0.108D-03 0.165D-03 0.210D-04-0.110D-02-0.520D-02
 Coeff:     -0.364D-01-0.548D-01 0.591D-01 0.315D+00 0.723D+00
 Gap=     0.139 Goal=   None    Shift=    0.000
 Gap=     0.079 Goal=   None    Shift=    0.000
 RMSDP=1.62D-06 MaxDP=2.68D-04 DE=-2.94D-06 OVMax= 4.89D-04

 Cycle  12  Pass 1  IDiag  1:
 RMSU=  9.67D-07    CP:  9.82D-01  4.78D-01  4.70D-01  7.36D-01  6.15D-01
                    CP:  7.66D-01  1.24D+00  1.57D+00  1.55D+00  9.94D-01
                    CP:  1.01D+00
 E= -1471.61891597078     Delta-E=       -0.000000452905 Rises=F Damp=F
 DIIS: error= 6.91D-06 at cycle  12 NSaved=  12.
 NSaved=12 IEnMin=12 EnMin= -1471.61891597078     IErMin=12 ErrMin= 6.91D-06
 ErrMax= 6.91D-06  0.00D+00 EMaxC= 1.00D-01 BMatC= 2.53D-07 BMatP= 1.08D-06
 IDIUse=1 WtCom= 1.00D+00 WtEn= 0.00D+00
 Coeff-Com: -0.828D-05 0.536D-05 0.762D-04 0.185D-02 0.404D-02 0.719D-02
 Coeff-Com:  0.371D-02-0.331D-01-0.798D-01 0.710D-01 0.411D+00 0.614D+00
 Coeff:     -0.828D-05 0.536D-05 0.762D-04 0.185D-02 0.404D-02 0.719D-02
 Coeff:      0.371D-02-0.331D-01-0.798D-01 0.710D-01 0.411D+00 0.614D+00
 Gap=     0.139 Goal=   None    Shift=    0.000
 Gap=     0.079 Goal=   None    Shift=    0.000
 RMSDP=6.44D-07 MaxDP=9.85D-05 DE=-4.53D-07 OVMax= 1.87D-04

 Cycle  13  Pass 1  IDiag  1:
 RMSU=  3.95D-07    CP:  9.82D-01  4.78D-01  4.70D-01  7.36D-01  6.15D-01
                    CP:  7.67D-01  1.24D+00  1.58D+00  1.58D+00  1.05D+00
                    CP:  1.15D+00  8.97D-01
