 Entering Gaussian System, Link 0=g16
 Initial command:
 /gpfs/apps/hpc/Apps/Restricted/Gaussian/Rev_A.03/g16/l1.exe "/gpfs/scratch60/fas/hammes_schiffer/jg2487/c42n03/Gau-79057.inp" -scrdir="/gpfs/scratch60/fas/hammes_schiffer/jg2487/c42n03/"
 Entering Link 1 = /gpfs/apps/hpc/Apps/Restricted/Gaussian/Rev_A.03/g16/l1.exe PID=     79058.
  
 Copyright (c) 1988,1990,1992,1993,1995,1998,2003,2009,2016,
            Gaussian, Inc.  All Rights Reserved.
  
 This is part of the Gaussian(R) 16 program.  It is based on
 the Gaussian(R) 09 system (copyright 2009, Gaussian, Inc.),
 the Gaussian(R) 03 system (copyright 2003, Gaussian, Inc.),
 the Gaussian(R) 98 system (copyright 1998, Gaussian, Inc.),
 the Gaussian(R) 94 system (copyright 1995, Gaussian, Inc.),
 the Gaussian 92(TM) system (copyright 1992, Gaussian, Inc.),
 the Gaussian 90(TM) system (copyright 1990, Gaussian, Inc.),
 the Gaussian 88(TM) system (copyright 1988, Gaussian, Inc.),
 the Gaussian 86(TM) system (copyright 1986, Carnegie Mellon
 University), and the Gaussian 82(TM) system (copyright 1983,
 Carnegie Mellon University). Gaussian is a federally registered
 trademark of Gaussian, Inc.
  
 This software contains proprietary and confidential information,
 including trade secrets, belonging to Gaussian, Inc.
  
 This software is provided under written license and may be
 used, copied, transmitted, or stored only in accord with that
 written license.
  
 The following legend is applicable only to US Government
 contracts under FAR:
  
                    RESTRICTED RIGHTS LEGEND
  
 Use, reproduction and disclosure by the US Government is
 subject to restrictions as set forth in subparagraphs (a)
 and (c) of the Commercial Computer Software - Restricted
 Rights clause in FAR 52.227-19.
  
 Gaussian, Inc.
 340 Quinnipiac St., Bldg. 40, Wallingford CT 06492
  
  
 ---------------------------------------------------------------
 Warning -- This program may not be used in any manner that
 competes with the business of Gaussian, Inc. or will provide
 assistance to any competitor of Gaussian, Inc.  The licensee
 of this program is prohibited from giving any competitor of
 Gaussian, Inc. access to this program.  By using this program,
 the user acknowledges that Gaussian, Inc. is engaged in the
 business of creating and licensing software in the field of
 computational chemistry and represents and warrants to the
 licensee that it is not a competitor of Gaussian, Inc. and that
 it will not use this program in any manner prohibited above.
 ---------------------------------------------------------------
  

 Cite this work as:
 Gaussian 16, Revision A.03,
 M. J. Frisch, G. W. Trucks, H. B. Schlegel, G. E. Scuseria, 
 M. A. Robb, J. R. Cheeseman, G. Scalmani, V. Barone, 
 G. A. Petersson, H. Nakatsuji, X. Li, M. Caricato, A. V. Marenich, 
 J. Bloino, B. G. Janesko, R. Gomperts, B. Mennucci, H. P. Hratchian, 
 J. V. Ortiz, A. F. Izmaylov, J. L. Sonnenberg, D. Williams-Young, 
 F. Ding, F. Lipparini, F. Egidi, J. Goings, B. Peng, A. Petrone, 
 T. Henderson, D. Ranasinghe, V. G. Zakrzewski, J. Gao, N. Rega, 
 G. Zheng, W. Liang, M. Hada, M. Ehara, K. Toyota, R. Fukuda, 
 J. Hasegawa, M. Ishida, T. Nakajima, Y. Honda, O. Kitao, H. Nakai, 
 T. Vreven, K. Throssell, J. A. Montgomery, Jr., J. E. Peralta, 
 F. Ogliaro, M. J. Bearpark, J. J. Heyd, E. N. Brothers, K. N. Kudin, 
 V. N. Staroverov, T. A. Keith, R. Kobayashi, J. Normand, 
 K. Raghavachari, A. P. Rendell, J. C. Burant, S. S. Iyengar, 
 J. Tomasi, M. Cossi, J. M. Millam, M. Klene, C. Adamo, R. Cammi, 
 J. W. Ochterski, R. L. Martin, K. Morokuma, O. Farkas, 
 J. B. Foresman, and D. J. Fox, Gaussian, Inc., Wallingford CT, 2016.
 
 ******************************************
 Gaussian 16:  ES64L-G16RevA.03 25-Dec-2016
                18-Dec-2018 
 ******************************************
 %chk=cyclohexyl-diBIP-TS2.chk
 %mem=10GB
 %nprocshared=16
 Will use up to   16 processors via shared memory.
 ----------------------------------------------------------------------
 #p opt=(readfc,tight,ts,recalcfc=6,noeigentest) freq=internalmodes b3l
 yp/6-31g(d,p) scrf=(cpcm,solvent=dichloromethane,read) nosymm guess=re
 ad empiricaldispersion=gd3bj int=grid=superfinegrid
 ----------------------------------------------------------------------
 1/5=1,7=10,10=3,11=1,18=20,26=6,38=1,40=2,71=6/1,3;
 2/9=110,12=2,15=1,17=6,18=5,40=1/2;
 3/5=1,6=6,7=101,11=2,25=1,30=1,70=2103,71=2,72=9,74=-5,75=-7,116=-2,124=41,140=1/1,2,3;
 4/5=1/1;
 5/5=2,38=6,53=9/2;
 8/6=4,10=90,11=11/1;
 11/6=1,8=1,9=11,15=111,16=1,31=1/1,2,10;
 10/6=1,31=1/2;
 6/7=2,8=2,9=2,10=2,28=1/1;
 7/10=1,25=1,30=1/1,2,3,16;
 1/5=1,7=10,11=1,18=20,26=6,71=6/3(3);
 2/9=110,15=1/2;
 7/9=1,25=1,30=1,44=-1/16;
 99//99;
 2/9=110,15=1/2;
 3/5=1,6=6,7=101,11=2,25=1,30=1,70=2105,71=2,72=9,74=-5,75=-7,124=41,140=1/1,2,3;
 4/5=5,16=3,69=1/1;
 5/5=2,38=5,53=9/2;
 8/6=4,10=90,11=11/1;
 11/6=1,8=1,9=11,15=111,16=1,31=1/1,2,10;
 10/6=1,31=1/2;
 7/10=1,25=1,30=1/1,2,3,16;
 1/5=1,7=10,11=1,18=20,26=6,71=6/3(-8);
 2/9=110,15=1/2;
 6/7=2,8=2,9=2,10=2,19=2,28=1/1;
 7/9=1,25=1,30=1,44=-1/16;
 99/9=1/99;
 Leave Link    1 at Tue Dec 18 13:23:45 2018, MaxMem=  1342177280 cpu:               9.0 elap:               0.6
 (Enter /gpfs/apps/hpc/Apps/Restricted/Gaussian/Rev_A.03/g16/l101.exe)
 --------------------------------------------------------------------
 cyclohexylimine diBIP oxidized, second transition state optimization
 --------------------------------------------------------------------
 Symbolic Z-matrix:
 Charge =  1 Multiplicity = 2
 C                     1.3998    0.97108   0.05887 
 C                     0.12065   1.56337   0.01495 
 C                    -0.01085   2.95197  -0.09785 
 C                     1.16104   3.70007  -0.17326 
 C                     2.43186   3.09748  -0.12925 
 C                     2.58833   1.71277  -0.01339 
 C                    -0.13978  -0.61159   0.18194 
 H                    -0.98639   3.42079  -0.1276 
 H                     1.09429   4.77731  -0.26561 
 H                     3.3174    3.72008  -0.18773 
 C                    -2.25289  -1.76059   0.19852 
 C                    -3.11274  -2.86706   0.21829 
 C                    -2.59575  -4.1613    0.31342 
 C                    -1.20604  -4.2769    0.3796 
 C                    -0.34085  -3.16438   0.34731 
 C                    -0.85445  -1.8704    0.25437 
 C                    -4.28105  -0.9634    0.07461 
 H                    -3.23573  -5.03316   0.33353 
 H                    -0.77032  -5.26549   0.45504 
 H                     0.72953  -3.32202   0.39824 
 N                    -0.81727   0.54772   0.09951 
 C                    -6.76911  -0.6234   -0.08698 
 C                    -5.41414  -0.07103  -0.00051 
 C                    -5.22189   1.29965   0.0144 
 C                    -6.30739   2.1903   -0.05755 
 C                    -7.62046   1.67092  -0.17546 
 C                    -7.88021   0.32118  -0.19029 
 H                    -4.21656   1.69745   0.08295 
 H                    -8.44573   2.37006  -0.25724 
 C                    -6.09018   3.66803   0.00619 
 H                    -5.02927   3.91524   0.01476 
 H                    -6.57114   4.17071  -0.83912 
 H                    -6.55456   4.07208   0.91147 
 C                    -9.2616   -0.24189  -0.28284 
 H                    -9.65334  -0.40593   0.72806 
 H                    -9.93147   0.45183  -0.7907 
 H                    -9.26647  -1.20899  -0.78725 
 O                    -6.98639  -1.8613   -0.07428 
 N                    -2.9855   -0.60242   0.11386 
 N                    -4.37895  -2.31975   0.13552 
 N                     1.19662  -0.38777   0.16651 
 H                     1.97501  -1.04      0.20478 
 C                     3.89857   1.0656    0.02813 
 H                     4.7623    1.73627  -0.01622 
 N                     4.00624  -0.20755   0.11792 
 C                     5.35573  -0.78998   0.16331 
 C                     6.12044  -0.59646  -1.1576 
 C                     6.18329  -0.27317   1.35221 
 H                     5.21037  -1.86746   0.30189 
 C                     7.48428  -1.29101  -1.09698 
 H                     6.262     0.47622  -1.33772 
 H                     5.52035  -0.98614  -1.9849 
 C                     7.5481   -0.96424   1.41173 
 H                     6.32535   0.80876   1.2427 
 H                     5.62116  -0.42773   2.27753 
 C                     8.31312  -0.79579   0.09377 
 H                     8.02705  -1.12865  -2.03246 
 H                     7.33278  -2.37397  -1.00532 
 H                     8.13359  -0.56542   2.24565 
 H                     7.40081  -2.03324   1.61092 
 H                     9.2667   -1.33076   0.14043 
 H                     8.55063   0.2659   -0.05112 
 H                    -5.29241  -2.7663    0.0787 
 H                    -2.22291   0.21591   0.08681 
 
 ITRead=  0  0  0  0  0  0  0  0  0  0  0  0  0  0  0  0  0  0  0  0
 ITRead=  0  0  0  0  0  0  0  0  0  0  0  0  0  0  0  0  0  0  0  0
 ITRead=  0  0  0  0  0  0  0  0  0  0  0  0  0  0  0  0  0  0  0  0
 ITRead=  0  0  0  0
 MicOpt= -1 -1 -1 -1 -1 -1 -1 -1 -1 -1 -1 -1 -1 -1 -1 -1 -1 -1 -1 -1
 MicOpt= -1 -1 -1 -1 -1 -1 -1 -1 -1 -1 -1 -1 -1 -1 -1 -1 -1 -1 -1 -1
 MicOpt= -1 -1 -1 -1 -1 -1 -1 -1 -1 -1 -1 -1 -1 -1 -1 -1 -1 -1 -1 -1
 MicOpt= -1 -1 -1 -1
 NAtoms=     64 NQM=       64 NQMF=       0 NMMI=      0 NMMIF=      0
                NMic=       0 NMicF=      0.
                    Isotopes and Nuclear Properties:
 (Nuclear quadrupole moments (NQMom) in fm**2, nuclear magnetic moments (NMagM)
  in nuclear magnetons)

  Atom         1           2           3           4           5           6           7           8           9          10
 IAtWgt=          12          12          12          12          12          12          12           1           1           1
 AtmWgt=  12.0000000  12.0000000  12.0000000  12.0000000  12.0000000  12.0000000  12.0000000   1.0078250   1.0078250   1.0078250
 NucSpn=           0           0           0           0           0           0           0           1           1           1
 AtZEff=  -0.0000000  -0.0000000  -0.0000000  -0.0000000  -0.0000000  -0.0000000  -0.0000000  -0.0000000  -0.0000000  -0.0000000
 NQMom=    0.0000000   0.0000000   0.0000000   0.0000000   0.0000000   0.0000000   0.0000000   0.0000000   0.0000000   0.0000000
 NMagM=    0.0000000   0.0000000   0.0000000   0.0000000   0.0000000   0.0000000   0.0000000   2.7928460   2.7928460   2.7928460
 AtZNuc=   6.0000000   6.0000000   6.0000000   6.0000000   6.0000000   6.0000000   6.0000000   1.0000000   1.0000000   1.0000000

  Atom        11          12          13          14          15          16          17          18          19          20
 IAtWgt=          12          12          12          12          12          12          12           1           1           1
 AtmWgt=  12.0000000  12.0000000  12.0000000  12.0000000  12.0000000  12.0000000  12.0000000   1.0078250   1.0078250   1.0078250
 NucSpn=           0           0           0           0           0           0           0           1           1           1
 AtZEff=  -0.0000000  -0.0000000  -0.0000000  -0.0000000  -0.0000000  -0.0000000  -0.0000000  -0.0000000  -0.0000000  -0.0000000
 NQMom=    0.0000000   0.0000000   0.0000000   0.0000000   0.0000000   0.0000000   0.0000000   0.0000000   0.0000000   0.0000000
 NMagM=    0.0000000   0.0000000   0.0000000   0.0000000   0.0000000   0.0000000   0.0000000   2.7928460   2.7928460   2.7928460
 AtZNuc=   6.0000000   6.0000000   6.0000000   6.0000000   6.0000000   6.0000000   6.0000000   1.0000000   1.0000000   1.0000000

  Atom        21          22          23          24          25          26          27          28          29          30
 IAtWgt=          14          12          12          12          12          12          12           1           1          12
 AtmWgt=  14.0030740  12.0000000  12.0000000  12.0000000  12.0000000  12.0000000  12.0000000   1.0078250   1.0078250  12.0000000
 NucSpn=           2           0           0           0           0           0           0           1           1           0
 AtZEff=  -0.0000000  -0.0000000  -0.0000000  -0.0000000  -0.0000000  -0.0000000  -0.0000000  -0.0000000  -0.0000000  -0.0000000
 NQMom=    2.0440000   0.0000000   0.0000000   0.0000000   0.0000000   0.0000000   0.0000000   0.0000000   0.0000000   0.0000000
 NMagM=    0.4037610   0.0000000   0.0000000   0.0000000   0.0000000   0.0000000   0.0000000   2.7928460   2.7928460   0.0000000
 AtZNuc=   7.0000000   6.0000000   6.0000000   6.0000000   6.0000000   6.0000000   6.0000000   1.0000000   1.0000000   6.0000000

  Atom        31          32          33          34          35          36          37          38          39          40
 IAtWgt=           1           1           1          12           1           1           1          16          14          14
 AtmWgt=   1.0078250   1.0078250   1.0078250  12.0000000   1.0078250   1.0078250   1.0078250  15.9949146  14.0030740  14.0030740
 NucSpn=           1           1           1           0           1           1           1           0           2           2
 AtZEff=  -0.0000000  -0.0000000  -0.0000000  -0.0000000  -0.0000000  -0.0000000  -0.0000000  -0.0000000  -0.0000000  -0.0000000
 NQMom=    0.0000000   0.0000000   0.0000000   0.0000000   0.0000000   0.0000000   0.0000000   0.0000000   2.0440000   2.0440000
 NMagM=    2.7928460   2.7928460   2.7928460   0.0000000   2.7928460   2.7928460   2.7928460   0.0000000   0.4037610   0.4037610
 AtZNuc=   1.0000000   1.0000000   1.0000000   6.0000000   1.0000000   1.0000000   1.0000000   8.0000000   7.0000000   7.0000000

  Atom        41          42          43          44          45          46          47          48          49          50
 IAtWgt=          14           1          12           1          14          12          12          12           1          12
 AtmWgt=  14.0030740   1.0078250  12.0000000   1.0078250  14.0030740  12.0000000  12.0000000  12.0000000   1.0078250  12.0000000
 NucSpn=           2           1           0           1           2           0           0           0           1           0
 AtZEff=  -0.0000000  -0.0000000  -0.0000000  -0.0000000  -0.0000000  -0.0000000  -0.0000000  -0.0000000  -0.0000000  -0.0000000
 NQMom=    2.0440000   0.0000000   0.0000000   0.0000000   2.0440000   0.0000000   0.0000000   0.0000000   0.0000000   0.0000000
 NMagM=    0.4037610   2.7928460   0.0000000   2.7928460   0.4037610   0.0000000   0.0000000   0.0000000   2.7928460   0.0000000
 AtZNuc=   7.0000000   1.0000000   6.0000000   1.0000000   7.0000000   6.0000000   6.0000000   6.0000000   1.0000000   6.0000000

  Atom        51          52          53          54          55          56          57          58          59          60
 IAtWgt=           1           1          12           1           1          12           1           1           1           1
 AtmWgt=   1.0078250   1.0078250  12.0000000   1.0078250   1.0078250  12.0000000   1.0078250   1.0078250   1.0078250   1.0078250
 NucSpn=           1           1           0           1           1           0           1           1           1           1
 AtZEff=  -0.0000000  -0.0000000  -0.0000000  -0.0000000  -0.0000000  -0.0000000  -0.0000000  -0.0000000  -0.0000000  -0.0000000
 NQMom=    0.0000000   0.0000000   0.0000000   0.0000000   0.0000000   0.0000000   0.0000000   0.0000000   0.0000000   0.0000000
 NMagM=    2.7928460   2.7928460   0.0000000   2.7928460   2.7928460   0.0000000   2.7928460   2.7928460   2.7928460   2.7928460
 AtZNuc=   1.0000000   1.0000000   6.0000000   1.0000000   1.0000000   6.0000000   1.0000000   1.0000000   1.0000000   1.0000000

  Atom        61          62          63          64
 IAtWgt=           1           1           1           1
 AtmWgt=   1.0078250   1.0078250   1.0078250   1.0078250
 NucSpn=           1           1           1           1
 AtZEff=  -0.0000000  -0.0000000  -0.0000000  -0.0000000
 NQMom=    0.0000000   0.0000000   0.0000000   0.0000000
 NMagM=    2.7928460   2.7928460   2.7928460   2.7928460
 AtZNuc=   1.0000000   1.0000000   1.0000000   1.0000000
 Leave Link  101 at Tue Dec 18 13:23:46 2018, MaxMem=  1342177280 cpu:               5.4 elap:               0.4
 (Enter /gpfs/apps/hpc/Apps/Restricted/Gaussian/Rev_A.03/g16/l103.exe)

 GradGradGradGradGradGradGradGradGradGradGradGradGradGradGradGradGradGrad
 Berny optimization.
 Initialization pass.
 Force constant matrix read from checkpoint file:
 "cyclohexyl-diBIP-TS2.chk"
 NVar current= 374 chk= 374 common= 374.
                           ----------------------------
                           !    Initial Parameters    !
                           ! (Angstroms and Degrees)  !
 --------------------------                            --------------------------
 ! Name  Definition              Value          Derivative Info.                !
 --------------------------------------------------------------------------------
 ! R1    R(1,2)                  1.4103         D2E/DX2 =    0.3001             !
 ! R2    R(1,6)                  1.4028         D2E/DX2 =    0.4022             !
 ! R3    R(1,41)                 1.3782         D2E/DX2 =    0.3709             !
 ! R4    R(2,3)                  1.3994         D2E/DX2 =    0.3906             !
 ! R5    R(2,21)                 1.3851         D2E/DX2 =    0.3362             !
 ! R6    R(3,4)                  1.3924         D2E/DX2 =    0.4074             !
 ! R7    R(3,8)                  1.0828         D2E/DX2 =    0.3682             !
 ! R8    R(4,5)                  1.4071         D2E/DX2 =    0.3707             !
 ! R9    R(4,9)                  1.0832         D2E/DX2 =    0.3639             !
 ! R10   R(5,6)                  1.3983         D2E/DX2 =    0.3955             !
 ! R11   R(5,10)                 1.0841         D2E/DX2 =    0.364              !
 ! R12   R(6,43)                 1.4619         D2E/DX2 =    0.3476             !
 ! R13   R(7,16)                 1.4493         D2E/DX2 =    0.4221             !
 ! R14   R(7,21)                 1.3453         D2E/DX2 =    0.4246             !
 ! R15   R(7,41)                 1.3551         D2E/DX2 =    0.3823             !
 ! R16   R(11,12)                1.4014         D2E/DX2 =    0.3349             !
 ! R17   R(11,16)                1.4039         D2E/DX2 =    0.519              !
 ! R18   R(11,39)                1.373          D2E/DX2 =    0.4232             !
 ! R19   R(12,13)                1.3969         D2E/DX2 =    0.3959             !
 ! R20   R(12,40)                1.3819         D2E/DX2 =    0.3496             !
 ! R21   R(13,14)                1.3961         D2E/DX2 =    0.4042             !
 ! R22   R(13,18)                1.0817         D2E/DX2 =    0.3696             !
 ! R23   R(14,15)                1.4097         D2E/DX2 =    0.3675             !
 ! R24   R(14,19)                1.083          D2E/DX2 =    0.3682             !
 ! R25   R(15,16)                1.3953         D2E/DX2 =    0.4047             !
 ! R26   R(15,20)                1.0831         D2E/DX2 =    0.3691             !
 ! R27   R(17,23)                1.4442         D2E/DX2 =    0.3786             !
 ! R28   R(17,39)                1.3455         D2E/DX2 =    0.397              !
 ! R29   R(17,40)                1.3612         D2E/DX2 =    0.3767             !
 ! R30   R(22,23)                1.4658         D2E/DX2 =    0.3056             !
 ! R31   R(22,27)                1.462          D2E/DX2 =    0.2996             !
 ! R32   R(22,38)                1.2569         D2E/DX2 =    0.6358             !
 ! R33   R(23,24)                1.3842         D2E/DX2 =    0.426              !
 ! R34   R(24,25)                1.406          D2E/DX2 =    0.3557             !
 ! R35   R(24,28)                1.0833         D2E/DX2 =    0.3645             !
 ! R36   R(25,26)                1.417          D2E/DX2 =    0.3476             !
 ! R37   R(25,30)                1.495          D2E/DX2 =    0.3144             !
 ! R38   R(26,27)                1.3746         D2E/DX2 =    0.4243             !
 ! R39   R(26,29)                1.0847         D2E/DX2 =    0.3629             !
 ! R40   R(27,34)                1.4946         D2E/DX2 =    0.3153             !
 ! R41   R(30,31)                1.0894         D2E/DX2 =    0.3404             !
 ! R42   R(30,32)                1.0948         D2E/DX2 =    0.3402             !
 ! R43   R(30,33)                1.0947         D2E/DX2 =    0.3498             !
 ! R44   R(34,35)                1.0965         D2E/DX2 =    0.353              !
 ! R45   R(34,36)                1.0899         D2E/DX2 =    0.3404             !
 ! R46   R(34,37)                1.0907         D2E/DX2 =    0.3389             !
 ! R47   R(39,64)                1.1189         D2E/DX2 =   -0.0278             !
 ! R48   R(40,63)                1.0184         D2E/DX2 =    0.437              !
 ! R49   R(41,42)                1.0162         D2E/DX2 =    0.4487             !
 ! R50   R(43,44)                1.0944         D2E/DX2 =    0.3363             !
 ! R51   R(43,45)                1.2808         D2E/DX2 =    0.6864             !
 ! R52   R(45,46)                1.4705         D2E/DX2 =    0.2975             !
 ! R53   R(46,47)                1.5385         D2E/DX2 =    0.2356             !
 ! R54   R(46,48)                1.538          D2E/DX2 =    0.2342             !
 ! R55   R(46,49)                1.096          D2E/DX2 =    0.3277             !
 ! R56   R(47,50)                1.5317         D2E/DX2 =    0.2475             !
 ! R57   R(47,51)                1.0969         D2E/DX2 =    0.3318             !
 ! R58   R(47,52)                1.0938         D2E/DX2 =    0.3367             !
 ! R59   R(48,53)                1.531          D2E/DX2 =    0.246              !
 ! R60   R(48,54)                1.0967         D2E/DX2 =    0.3327             !
 ! R61   R(48,55)                1.0937         D2E/DX2 =    0.3353             !
 ! R62   R(50,56)                1.533          D2E/DX2 =    0.2444             !
 ! R63   R(50,57)                1.0937         D2E/DX2 =    0.335              !
 ! R64   R(50,58)                1.0973         D2E/DX2 =    0.3294             !
 ! R65   R(53,56)                1.5332         D2E/DX2 =    0.2448             !
 ! R66   R(53,59)                1.0942         D2E/DX2 =    0.3353             !
 ! R67   R(53,60)                1.0973         D2E/DX2 =    0.3279             !
 ! R68   R(56,61)                1.0944         D2E/DX2 =    0.3361             !
 ! R69   R(56,62)                1.0975         D2E/DX2 =    0.3286             !
 ! A1    A(2,1,6)              123.011          D2E/DX2 =    0.0795             !
 ! A2    A(2,1,41)             106.4274         D2E/DX2 =    0.0945             !
 ! A3    A(6,1,41)             130.5589         D2E/DX2 =    0.0998             !
 ! A4    A(1,2,3)              120.2973         D2E/DX2 =    0.0786             !
 ! A5    A(1,2,21)             107.7177         D2E/DX2 =    0.1077             !
 ! A6    A(3,2,21)             131.985          D2E/DX2 =    0.1019             !
 ! A7    A(2,3,4)              117.2858         D2E/DX2 =    0.0808             !
 ! A8    A(2,3,8)              121.1005         D2E/DX2 =    0.0771             !
 ! A9    A(4,3,8)              121.6135         D2E/DX2 =    0.0774             !
 ! A10   A(3,4,5)              121.8932         D2E/DX2 =    0.0811             !
 ! A11   A(3,4,9)              119.1474         D2E/DX2 =    0.082              !
 ! A12   A(5,4,9)              118.9592         D2E/DX2 =    0.0816             !
 ! A13   A(4,5,6)              121.8512         D2E/DX2 =    0.0844             !
 ! A14   A(4,5,10)             119.3465         D2E/DX2 =    0.0821             !
 ! A15   A(6,5,10)             118.8022         D2E/DX2 =    0.0812             !
 ! A16   A(1,6,5)              115.6596         D2E/DX2 =    0.084              !
 ! A17   A(1,6,43)             121.5882         D2E/DX2 =    0.1455             !
 ! A18   A(5,6,43)             122.7521         D2E/DX2 =    0.133              !
 ! A19   A(16,7,21)            120.2126         D2E/DX2 =    0.3454             !
 ! A20   A(16,7,41)            129.0733         D2E/DX2 =    0.2138             !
 ! A21   A(21,7,41)            110.7088         D2E/DX2 =    0.1443             !
 ! A22   A(12,11,16)           123.2888         D2E/DX2 =    0.1131             !
 ! A23   A(12,11,39)           109.8449         D2E/DX2 =    0.1181             !
 ! A24   A(16,11,39)           126.866          D2E/DX2 =    0.2124             !
 ! A25   A(11,12,13)           120.357          D2E/DX2 =    0.0851             !
 ! A26   A(11,12,40)           104.397          D2E/DX2 =    0.0998             !
 ! A27   A(13,12,40)           135.2451         D2E/DX2 =    0.1241             !
 ! A28   A(12,13,14)           116.6378         D2E/DX2 =    0.0808             !
 ! A29   A(12,13,18)           121.9416         D2E/DX2 =    0.0785             !
 ! A30   A(14,13,18)           121.4205         D2E/DX2 =    0.078              !
 ! A31   A(13,14,15)           122.9906         D2E/DX2 =    0.083              !
 ! A32   A(13,14,19)           118.6451         D2E/DX2 =    0.084              !
 ! A33   A(15,14,19)           118.3638         D2E/DX2 =    0.0834             !
 ! A34   A(14,15,16)           120.497          D2E/DX2 =    0.0993             !
 ! A35   A(14,15,20)           119.3783         D2E/DX2 =    0.0894             !
 ! A36   A(16,15,20)           120.1244         D2E/DX2 =    0.0896             !
 ! A37   A(7,16,11)            114.9144         D2E/DX2 =    0.5198             !
 ! A38   A(7,16,15)            128.8512         D2E/DX2 =    0.3942             !
 ! A39   A(11,16,15)           116.2237         D2E/DX2 =    0.0991             !
 ! A40   A(23,17,39)           126.2416         D2E/DX2 =    0.1513             !
 ! A41   A(23,17,40)           124.1638         D2E/DX2 =    0.1602             !
 ! A42   A(39,17,40)           109.5889         D2E/DX2 =    0.1117             !
 ! A43   A(2,21,7)             107.136          D2E/DX2 =    0.1473             !
 ! A44   A(23,22,27)           117.5952         D2E/DX2 =    0.087              !
 ! A45   A(23,22,38)           122.0292         D2E/DX2 =    0.1858             !
 ! A46   A(27,22,38)           120.3756         D2E/DX2 =    0.1855             !
 ! A47   A(17,23,22)           119.7004         D2E/DX2 =    0.2365             !
 ! A48   A(17,23,24)           120.1541         D2E/DX2 =    0.1888             !
 ! A49   A(22,23,24)           120.145          D2E/DX2 =    0.0932             !
 ! A50   A(23,24,25)           121.2999         D2E/DX2 =    0.0835             !
 ! A51   A(23,24,28)           119.5498         D2E/DX2 =    0.0843             !
 ! A52   A(25,24,28)           119.1502         D2E/DX2 =    0.0856             !
 ! A53   A(24,25,26)           119.1777         D2E/DX2 =    0.0813             !
 ! A54   A(24,25,30)           120.7846         D2E/DX2 =    0.118              !
 ! A55   A(26,25,30)           120.0333         D2E/DX2 =    0.1227             !
 ! A56   A(25,26,27)           122.4063         D2E/DX2 =    0.0789             !
 ! A57   A(25,26,29)           118.3638         D2E/DX2 =    0.0826             !
 ! A58   A(27,26,29)           119.2299         D2E/DX2 =    0.0812             !
 ! A59   A(22,27,26)           119.3432         D2E/DX2 =    0.0865             !
 ! A60   A(22,27,34)           117.6058         D2E/DX2 =    0.1295             !
 ! A61   A(26,27,34)           123.0412         D2E/DX2 =    0.1209             !
 ! A62   A(25,30,31)           111.4784         D2E/DX2 =    0.0996             !
 ! A63   A(25,30,32)           110.9233         D2E/DX2 =    0.1029             !
 ! A64   A(25,30,33)           109.7827         D2E/DX2 =    0.1108             !
 ! A65   A(31,30,32)           109.2517         D2E/DX2 =    0.0527             !
 ! A66   A(31,30,33)           108.8354         D2E/DX2 =    0.0562             !
 ! A67   A(32,30,33)           106.4198         D2E/DX2 =    0.0557             !
 ! A68   A(27,34,35)           109.2368         D2E/DX2 =    0.1076             !
 ! A69   A(27,34,36)           110.9234         D2E/DX2 =    0.1017             !
 ! A70   A(27,34,37)           111.5178         D2E/DX2 =    0.0996             !
 ! A71   A(35,34,36)           107.7727         D2E/DX2 =    0.0546             !
 ! A72   A(35,34,37)           106.9835         D2E/DX2 =    0.0546             !
 ! A73   A(36,34,37)           110.2502         D2E/DX2 =    0.0534             !
 ! A74   A(11,39,17)           106.8139         D2E/DX2 =    0.1032             !
 ! A75   A(11,39,64)           104.759          D2E/DX2 =    0.1872             !
 ! A76   A(17,39,64)           148.4055         D2E/DX2 =    0.1231             !
 ! A77   A(12,40,17)           109.3545         D2E/DX2 =    0.1038             !
 ! A78   A(12,40,63)           130.66           D2E/DX2 =    0.0707             !
 ! A79   A(17,40,63)           119.9295         D2E/DX2 =    0.081              !
 ! A80   A(1,41,7)             108.0072         D2E/DX2 =    0.1095             !
 ! A81   A(1,41,42)            121.5219         D2E/DX2 =    0.0841             !
 ! A82   A(7,41,42)            130.4618         D2E/DX2 =    0.0749             !
 ! A83   A(6,43,44)            115.7777         D2E/DX2 =    0.1042             !
 ! A84   A(6,43,45)            121.1543         D2E/DX2 =    0.1667             !
 ! A85   A(44,43,45)           123.0671         D2E/DX2 =    0.1189             !
 ! A86   A(43,45,46)           118.2289         D2E/DX2 =    0.3292             !
 ! A87   A(45,46,47)           112.3221         D2E/DX2 =    0.0578             !
 ! A88   A(45,46,48)           112.6165         D2E/DX2 =    0.0601             !
 ! A89   A(45,46,49)           105.7573         D2E/DX2 =    0.0217             !
 ! A90   A(47,46,48)           110.7303         D2E/DX2 =    0.0461             !
 ! A91   A(47,46,49)           107.3453         D2E/DX2 =    0.0253             !
 ! A92   A(48,46,49)           107.6957         D2E/DX2 =    0.0255             !
 ! A93   A(46,47,50)           110.5827         D2E/DX2 =    0.0523             !
 ! A94   A(46,47,51)           109.1566         D2E/DX2 =    0.0334             !
 ! A95   A(46,47,52)           109.3826         D2E/DX2 =    0.038              !
 ! A96   A(50,47,51)           109.5745         D2E/DX2 =    0.0331             !
 ! A97   A(50,47,52)           110.9091         D2E/DX2 =    0.0379             !
 ! A98   A(51,47,52)           107.1576         D2E/DX2 =    0.0148             !
 ! A99   A(46,48,53)           110.9804         D2E/DX2 =    0.0525             !
 ! A100  A(46,48,54)           108.9061         D2E/DX2 =    0.0337             !
 ! A101  A(46,48,55)           109.2676         D2E/DX2 =    0.038              !
 ! A102  A(53,48,54)           109.4949         D2E/DX2 =    0.0341             !
 ! A103  A(53,48,55)           111.1934         D2E/DX2 =    0.0371             !
 ! A104  A(54,48,55)           106.887          D2E/DX2 =    0.0148             !
 ! A105  A(47,50,56)           111.4483         D2E/DX2 =    0.0543             !
 ! A106  A(47,50,57)           109.9215         D2E/DX2 =    0.0383             !
 ! A107  A(47,50,58)           109.1398         D2E/DX2 =    0.0348             !
 ! A108  A(56,50,57)           110.3728         D2E/DX2 =    0.0386             !
 ! A109  A(56,50,58)           109.1819         D2E/DX2 =    0.0337             !
 ! A110  A(57,50,58)           106.6474         D2E/DX2 =    0.0148             !
 ! A111  A(48,53,56)           111.2113         D2E/DX2 =    0.0548             !
 ! A112  A(48,53,59)           110.0056         D2E/DX2 =    0.0381             !
 ! A113  A(48,53,60)           109.0958         D2E/DX2 =    0.0343             !
 ! A114  A(56,53,59)           110.3711         D2E/DX2 =    0.0383             !
 ! A115  A(56,53,60)           109.2722         D2E/DX2 =    0.0332             !
 ! A116  A(59,53,60)           106.7711         D2E/DX2 =    0.0148             !
 ! A117  A(50,56,53)           111.2497         D2E/DX2 =    0.0547             !
 ! A118  A(50,56,61)           110.2612         D2E/DX2 =    0.0382             !
 ! A119  A(50,56,62)           109.0836         D2E/DX2 =    0.0337             !
 ! A120  A(53,56,61)           110.1459         D2E/DX2 =    0.0382             !
 ! A121  A(53,56,62)           109.1321         D2E/DX2 =    0.0335             !
 ! A122  A(61,56,62)           106.8546         D2E/DX2 =    0.0149             !
 ! D1    D(6,1,2,3)             -0.3734         D2E/DX2 =    0.0049             !
 ! D2    D(6,1,2,21)           179.5619         D2E/DX2 =    0.0041             !
 ! D3    D(41,1,2,3)          -179.8324         D2E/DX2 =    0.0051             !
 ! D4    D(41,1,2,21)            0.1029         D2E/DX2 =    0.0078             !
 ! D5    D(2,1,6,5)              0.1969         D2E/DX2 =    0.0053             !
 ! D6    D(2,1,6,43)          -179.6788         D2E/DX2 =    0.0055             !
 ! D7    D(41,1,6,5)           179.5138         D2E/DX2 =    0.0072             !
 ! D8    D(41,1,6,43)           -0.3619         D2E/DX2 =    0.0075             !
 ! D9    D(2,1,41,7)             0.2287         D2E/DX2 =    0.0087             !
 ! D10   D(2,1,41,42)          179.2433         D2E/DX2 =    0.0051             !
 ! D11   D(6,1,41,7)          -179.1741         D2E/DX2 =    0.0049             !
 ! D12   D(6,1,41,42)           -0.1596         D2E/DX2 =    0.0039             !
 ! D13   D(1,2,3,4)              0.4792         D2E/DX2 =    0.0069             !
 ! D14   D(1,2,3,8)           -179.6838         D2E/DX2 =    0.0069             !
 ! D15   D(21,2,3,4)          -179.4379         D2E/DX2 =    0.0077             !
 ! D16   D(21,2,3,8)             0.3991         D2E/DX2 =    0.008              !
 ! D17   D(1,2,21,7)            -0.3964         D2E/DX2 =    0.0087             !
 ! D18   D(3,2,21,7)           179.5284         D2E/DX2 =    0.0063             !
 ! D19   D(2,3,4,5)             -0.4476         D2E/DX2 =    0.0086             !
 ! D20   D(2,3,4,9)            179.7331         D2E/DX2 =    0.0082             !
 ! D21   D(8,3,4,5)            179.7162         D2E/DX2 =    0.0076             !
 ! D22   D(8,3,4,9)             -0.103          D2E/DX2 =    0.0086             !
 ! D23   D(3,4,5,6)              0.2959         D2E/DX2 =    0.0089             !
 ! D24   D(3,4,5,10)          -179.7822         D2E/DX2 =    0.0081             !
 ! D25   D(9,4,5,6)           -179.8846         D2E/DX2 =    0.008              !
 ! D26   D(9,4,5,10)             0.0374         D2E/DX2 =    0.0086             !
 ! D27   D(4,5,6,1)             -0.1545         D2E/DX2 =    0.0074             !
 ! D28   D(4,5,6,43)           179.7196         D2E/DX2 =    0.0067             !
 ! D29   D(10,5,6,1)           179.9232         D2E/DX2 =    0.0074             !
 ! D30   D(10,5,6,43)           -0.2027         D2E/DX2 =    0.0073             !
 ! D31   D(1,6,43,44)         -178.8961         D2E/DX2 =    0.0091             !
 ! D32   D(1,6,43,45)            0.7581         D2E/DX2 =    0.0122             !
 ! D33   D(5,6,43,44)            1.2371         D2E/DX2 =    0.0098             !
 ! D34   D(5,6,43,45)         -179.1087         D2E/DX2 =    0.0111             !
 ! D35   D(21,7,16,11)           1.4518         D2E/DX2 =    0.0215             !
 ! D36   D(21,7,16,15)        -179.8006         D2E/DX2 =    0.0269             !
 ! D37   D(41,7,16,11)        -177.6353         D2E/DX2 =    0.0101             !
 ! D38   D(41,7,16,15)           1.1123         D2E/DX2 =    0.0113             !
 ! D39   D(16,7,21,2)         -178.6876         D2E/DX2 =    0.008              !
 ! D40   D(41,7,21,2)            0.5547         D2E/DX2 =    0.0108             !
 ! D41   D(16,7,41,1)          178.6616         D2E/DX2 =    0.0087             !
 ! D42   D(16,7,41,42)          -0.2343         D2E/DX2 =    0.006              !
 ! D43   D(21,7,41,1)           -0.495          D2E/DX2 =    0.011              !
 ! D44   D(21,7,41,42)        -179.3909         D2E/DX2 =    0.0059             !
 ! D45   D(16,11,12,13)          0.7926         D2E/DX2 =    0.0061             !
 ! D46   D(16,11,12,40)       -179.5065         D2E/DX2 =    0.0062             !
 ! D47   D(39,11,12,13)       -179.4141         D2E/DX2 =    0.0082             !
 ! D48   D(39,11,12,40)          0.2868         D2E/DX2 =    0.0108             !
 ! D49   D(12,11,16,7)         178.2436         D2E/DX2 =    0.0143             !
 ! D50   D(12,11,16,15)         -0.6692         D2E/DX2 =    0.0101             !
 ! D51   D(39,11,16,7)          -1.5133         D2E/DX2 =    0.0212             !
 ! D52   D(39,11,16,15)        179.574          D2E/DX2 =    0.0158             !
 ! D53   D(12,11,39,17)         -0.2634         D2E/DX2 =    0.0125             !
 ! D54   D(12,11,39,64)       -179.0811         D2E/DX2 =    0.0133             !
 ! D55   D(16,11,39,17)        179.5206         D2E/DX2 =    0.0077             !
 ! D56   D(16,11,39,64)          0.7028         D2E/DX2 =    0.0095             !
 ! D57   D(11,12,13,14)         -0.2682         D2E/DX2 =    0.0068             !
 ! D58   D(11,12,13,18)        179.8288         D2E/DX2 =    0.0069             !
 ! D59   D(40,12,13,14)       -179.8568         D2E/DX2 =    0.0084             !
 ! D60   D(40,12,13,18)          0.2403         D2E/DX2 =    0.0077             !
 ! D61   D(11,12,40,17)         -0.2036         D2E/DX2 =    0.0095             !
 ! D62   D(11,12,40,63)        177.0113         D2E/DX2 =    0.0057             !
 ! D63   D(13,12,40,17)        179.4298         D2E/DX2 =    0.0075             !
 ! D64   D(13,12,40,63)         -3.3552         D2E/DX2 =    0.004              !
 ! D65   D(12,13,14,15)         -0.3254         D2E/DX2 =    0.0097             !
 ! D66   D(12,13,14,19)        179.9386         D2E/DX2 =    0.0087             !
 ! D67   D(18,13,14,15)        179.5782         D2E/DX2 =    0.0081             !
 ! D68   D(18,13,14,19)         -0.1579         D2E/DX2 =    0.0089             !
 ! D69   D(13,14,15,16)          0.4347         D2E/DX2 =    0.0093             !
 ! D70   D(13,14,15,20)       -179.7404         D2E/DX2 =    0.009              !
 ! D71   D(19,14,15,16)       -179.8286         D2E/DX2 =    0.0089             !
 ! D72   D(19,14,15,20)         -0.0036         D2E/DX2 =    0.0088             !
 ! D73   D(14,15,16,7)        -178.6701         D2E/DX2 =    0.0138             !
 ! D74   D(14,15,16,11)          0.0638         D2E/DX2 =    0.01               !
 ! D75   D(20,15,16,7)           1.5063         D2E/DX2 =    0.0088             !
 ! D76   D(20,15,16,11)       -179.7599         D2E/DX2 =    0.0071             !
 ! D77   D(39,17,23,22)        177.6926         D2E/DX2 =    0.0093             !
 ! D78   D(39,17,23,24)         -2.5611         D2E/DX2 =    0.0067             !
 ! D79   D(40,17,23,22)         -3.2731         D2E/DX2 =    0.0075             !
 ! D80   D(40,17,23,24)        176.4732         D2E/DX2 =    0.0075             !
 ! D81   D(23,17,39,11)        179.283          D2E/DX2 =    0.0097             !
 ! D82   D(23,17,39,64)         -2.8995         D2E/DX2 =    0.008              !
 ! D83   D(40,17,39,11)          0.1311         D2E/DX2 =    0.0118             !
 ! D84   D(40,17,39,64)        177.9486         D2E/DX2 =    0.0137             !
 ! D85   D(23,17,40,12)       -179.1233         D2E/DX2 =    0.0101             !
 ! D86   D(23,17,40,63)          3.3143         D2E/DX2 =    0.0056             !
 ! D87   D(39,17,40,12)          0.0499         D2E/DX2 =    0.0109             !
 ! D88   D(39,17,40,63)       -177.5124         D2E/DX2 =    0.0066             !
 ! D89   D(27,22,23,17)       -178.698          D2E/DX2 =    0.0094             !
 ! D90   D(27,22,23,24)          1.5557         D2E/DX2 =    0.007              !
 ! D91   D(38,22,23,17)          1.2986         D2E/DX2 =    0.0102             !
 ! D92   D(38,22,23,24)       -178.4477         D2E/DX2 =    0.0083             !
 ! D93   D(23,22,27,26)         -1.2912         D2E/DX2 =    0.0069             !
 ! D94   D(23,22,27,34)        179.8105         D2E/DX2 =    0.008              !
 ! D95   D(38,22,27,26)        178.7122         D2E/DX2 =    0.0075             !
 ! D96   D(38,22,27,34)         -0.186          D2E/DX2 =    0.0095             !
 ! D97   D(17,23,24,25)        179.9982         D2E/DX2 =    0.009              !
 ! D98   D(17,23,24,28)         -0.0125         D2E/DX2 =    0.0086             !
 ! D99   D(22,23,24,25)         -0.2567         D2E/DX2 =    0.0066             !
 ! D100  D(22,23,24,28)        179.7326         D2E/DX2 =    0.0071             !
 ! D101  D(23,24,25,26)         -1.3225         D2E/DX2 =    0.0058             !
 ! D102  D(23,24,25,30)        177.9079         D2E/DX2 =    0.0057             !
 ! D103  D(28,24,25,26)        178.6882         D2E/DX2 =    0.0067             !
 ! D104  D(28,24,25,30)         -2.0815         D2E/DX2 =    0.0068             !
 ! D105  D(24,25,26,27)          1.6048         D2E/DX2 =    0.0055             !
 ! D106  D(24,25,26,29)       -178.3545         D2E/DX2 =    0.0068             !
 ! D107  D(30,25,26,27)       -177.6315         D2E/DX2 =    0.0055             !
 ! D108  D(30,25,26,29)          2.4092         D2E/DX2 =    0.0071             !
 ! D109  D(24,25,30,31)          5.3559         D2E/DX2 =    0.0123             !
 ! D110  D(24,25,30,32)        127.3462         D2E/DX2 =    0.0123             !
 ! D111  D(24,25,30,33)       -115.3232         D2E/DX2 =    0.0122             !
 ! D112  D(26,25,30,31)       -175.4202         D2E/DX2 =    0.0123             !
 ! D113  D(26,25,30,32)        -53.43           D2E/DX2 =    0.0116             !
 ! D114  D(26,25,30,33)         63.9007         D2E/DX2 =    0.0124             !
 ! D115  D(25,26,27,22)         -0.2644         D2E/DX2 =    0.0062             !
 ! D116  D(25,26,27,34)        178.571          D2E/DX2 =    0.0079             !
 ! D117  D(29,26,27,22)        179.6946         D2E/DX2 =    0.0074             !
 ! D118  D(29,26,27,34)         -1.4701         D2E/DX2 =    0.0085             !
 ! D119  D(22,27,34,35)         87.0566         D2E/DX2 =    0.0129             !
 ! D120  D(22,27,34,36)       -154.2885         D2E/DX2 =    0.0113             !
 ! D121  D(22,27,34,37)        -30.9862         D2E/DX2 =    0.0115             !
 ! D122  D(26,27,34,35)        -91.7977         D2E/DX2 =    0.013              !
 ! D123  D(26,27,34,36)         26.8571         D2E/DX2 =    0.011              !
 ! D124  D(26,27,34,37)        150.1595         D2E/DX2 =    0.0112             !
 ! D125  D(6,43,45,46)        -179.6213         D2E/DX2 =    0.0296             !
 ! D126  D(44,43,45,46)          0.0071         D2E/DX2 =    0.0247             !
 ! D127  D(43,45,46,47)        -66.6466         D2E/DX2 =    0.0086             !
 ! D128  D(43,45,46,48)         59.1966         D2E/DX2 =    0.0092             !
 ! D129  D(43,45,46,49)        176.5637         D2E/DX2 =    0.0135             !
 ! D130  D(45,46,47,50)       -176.5215         D2E/DX2 =    0.0211             !
 ! D131  D(45,46,47,51)         62.8606         D2E/DX2 =    0.019              !
 ! D132  D(45,46,47,52)        -54.0933         D2E/DX2 =    0.0189             !
 ! D133  D(48,46,47,50)         56.6168         D2E/DX2 =    0.0168             !
 ! D134  D(48,46,47,51)        -64.0011         D2E/DX2 =    0.0188             !
 ! D135  D(48,46,47,52)        179.045          D2E/DX2 =    0.0177             !
 ! D136  D(49,46,47,50)        -60.6863         D2E/DX2 =    0.0156             !
 ! D137  D(49,46,47,51)        178.6958         D2E/DX2 =    0.0158             !
 ! D138  D(49,46,47,52)         61.7419         D2E/DX2 =    0.0149             !
 ! D139  D(45,46,48,53)        176.6205         D2E/DX2 =    0.0196             !
 ! D140  D(45,46,48,54)        -62.773          D2E/DX2 =    0.0187             !
 ! D141  D(45,46,48,55)         53.6499         D2E/DX2 =    0.0174             !
 ! D142  D(47,46,48,53)        -56.6807         D2E/DX2 =    0.0164             !
 ! D143  D(47,46,48,54)         63.9258         D2E/DX2 =    0.0182             !
 ! D144  D(47,46,48,55)       -179.6513         D2E/DX2 =    0.0165             !
 ! D145  D(49,46,48,53)         60.407          D2E/DX2 =    0.0156             !
 ! D146  D(49,46,48,54)       -178.9864         D2E/DX2 =    0.016              !
 ! D147  D(49,46,48,55)        -62.5635         D2E/DX2 =    0.0146             !
 ! D148  D(46,47,50,56)        -56.0932         D2E/DX2 =    0.0149             !
 ! D149  D(46,47,50,57)       -178.7918         D2E/DX2 =    0.016              !
 ! D150  D(46,47,50,58)         64.5719         D2E/DX2 =    0.0169             !
 ! D151  D(51,47,50,56)         64.2753         D2E/DX2 =    0.0166             !
 ! D152  D(51,47,50,57)        -58.4233         D2E/DX2 =    0.0152             !
 ! D153  D(51,47,50,58)       -175.0596         D2E/DX2 =    0.0167             !
 ! D154  D(52,47,50,56)       -177.6245         D2E/DX2 =    0.016              !
 ! D155  D(52,47,50,57)         59.6769         D2E/DX2 =    0.0146             !
 ! D156  D(52,47,50,58)        -56.9594         D2E/DX2 =    0.0154             !
 ! D157  D(46,48,53,56)         55.8497         D2E/DX2 =    0.015              !
 ! D158  D(46,48,53,59)        178.4431         D2E/DX2 =    0.0159             !
 ! D159  D(46,48,53,60)        -64.7487         D2E/DX2 =    0.0163             !
 ! D160  D(54,48,53,56)        -64.4078         D2E/DX2 =    0.017              !
 ! D161  D(54,48,53,59)         58.1857         D2E/DX2 =    0.0154             !
 ! D162  D(54,48,53,60)        174.9938         D2E/DX2 =    0.0166             !
 ! D163  D(55,48,53,56)        177.7023         D2E/DX2 =    0.016              !
 ! D164  D(55,48,53,59)        -59.7042         D2E/DX2 =    0.0145             !
 ! D165  D(55,48,53,60)         57.1039         D2E/DX2 =    0.0152             !
 ! D166  D(47,50,56,53)         55.3682         D2E/DX2 =    0.0155             !
 ! D167  D(47,50,56,61)        177.879          D2E/DX2 =    0.0155             !
 ! D168  D(47,50,56,62)        -65.0721         D2E/DX2 =    0.0166             !
 ! D169  D(57,50,56,53)        177.8075         D2E/DX2 =    0.0157             !
 ! D170  D(57,50,56,61)        -59.6816         D2E/DX2 =    0.0141             !
 ! D171  D(57,50,56,62)         57.3672         D2E/DX2 =    0.0151             !
 ! D172  D(58,50,56,53)        -65.2723         D2E/DX2 =    0.0171             !
 ! D173  D(58,50,56,61)         57.2386         D2E/DX2 =    0.0151             !
 ! D174  D(58,50,56,62)        174.2874         D2E/DX2 =    0.0168             !
 ! D175  D(48,53,56,50)        -55.0699         D2E/DX2 =    0.0156             !
 ! D176  D(48,53,56,61)       -177.6472         D2E/DX2 =    0.0159             !
 ! D177  D(48,53,56,62)         65.3418         D2E/DX2 =    0.0168             !
 ! D178  D(59,53,56,50)       -177.4523         D2E/DX2 =    0.0159             !
 ! D179  D(59,53,56,61)         59.9704         D2E/DX2 =    0.0144             !
 ! D180  D(59,53,56,62)        -57.0405         D2E/DX2 =    0.0154             !
 ! D181  D(60,53,56,50)         65.4245         D2E/DX2 =    0.0169             !
 ! D182  D(60,53,56,61)        -57.1528         D2E/DX2 =    0.0152             !
 ! D183  D(60,53,56,62)       -174.1638         D2E/DX2 =    0.0167             !
 --------------------------------------------------------------------------------
 Trust Radius=3.00D-01 FncErr=5.00D-06 GrdErr=5.00D-06 EigMax=2.50D+02 EigMin=1.00D-04
 Number of steps in this run=    384 maximum allowed number of steps=    384.
 Search for a saddle point of order  1.
 Step   0 in ReCalcFC= 6 IGetFC= 3 compute gradient.
 GradGradGradGradGradGradGradGradGradGradGradGradGradGradGradGradGradGrad

 Leave Link  103 at Tue Dec 18 13:23:46 2018, MaxMem=  1342177280 cpu:               0.5 elap:               0.1
 (Enter /gpfs/apps/hpc/Apps/Restricted/Gaussian/Rev_A.03/g16/l202.exe)
 Symmetry turned off by external request.
 Stoichiometry    C29H29N5O(1+,2)
 Framework group  C1[X(C29H29N5O)]
 Deg. of freedom   186
 Full point group                 C1      NOp   1
                          Input orientation:                          
 ---------------------------------------------------------------------
 Center     Atomic      Atomic             Coordinates (Angstroms)
 Number     Number       Type             X           Y           Z
 ---------------------------------------------------------------------
      1          6           0        1.399800    0.971081    0.058871
      2          6           0        0.120652    1.563372    0.014953
      3          6           0       -0.010850    2.951969   -0.097847
      4          6           0        1.161044    3.700074   -0.173264
      5          6           0        2.431864    3.097483   -0.129252
      6          6           0        2.588332    1.712769   -0.013389
      7          6           0       -0.139782   -0.611591    0.181942
      8          1           0       -0.986390    3.420790   -0.127603
      9          1           0        1.094287    4.777312   -0.265609
     10          1           0        3.317396    3.720083   -0.187732
     11          6           0       -2.252892   -1.760585    0.198515
     12          6           0       -3.112740   -2.867059    0.218287
     13          6           0       -2.595748   -4.161301    0.313422
     14          6           0       -1.206037   -4.276900    0.379595
     15          6           0       -0.340846   -3.164378    0.347305
     16          6           0       -0.854448   -1.870403    0.254366
     17          6           0       -4.281051   -0.963395    0.074607
     18          1           0       -3.235732   -5.033162    0.333527
     19          1           0       -0.770320   -5.265490    0.455036
     20          1           0        0.729526   -3.322020    0.398240
     21          7           0       -0.817266    0.547717    0.099510
     22          6           0       -6.769113   -0.623402   -0.086984
     23          6           0       -5.414138   -0.071029   -0.000508
     24          6           0       -5.221893    1.299650    0.014401
     25          6           0       -6.307393    2.190296   -0.057547
     26          6           0       -7.620462    1.670922   -0.175461
     27          6           0       -7.880210    0.321182   -0.190288
     28          1           0       -4.216563    1.697445    0.082945
     29          1           0       -8.445731    2.370058   -0.257241
     30          6           0       -6.090179    3.668026    0.006190
     31          1           0       -5.029266    3.915237    0.014757
     32          1           0       -6.571141    4.170712   -0.839117
     33          1           0       -6.554555    4.072077    0.911473
     34          6           0       -9.261603   -0.241888   -0.282844
     35          1           0       -9.653340   -0.405934    0.728055
     36          1           0       -9.931472    0.451834   -0.790703
     37          1           0       -9.266472   -1.208989   -0.787248
     38          8           0       -6.986388   -1.861297   -0.074276
     39          7           0       -2.985499   -0.602419    0.113856
     40          7           0       -4.378948   -2.319751    0.135524
     41          7           0        1.196617   -0.387772    0.166513
     42          1           0        1.975006   -1.040001    0.204781
     43          6           0        3.898573    1.065596    0.028132
     44          1           0        4.762302    1.736266   -0.016221
     45          7           0        4.006235   -0.207545    0.117916
     46          6           0        5.355734   -0.789979    0.163310
     47          6           0        6.120440   -0.596457   -1.157595
     48          6           0        6.183288   -0.273168    1.352206
     49          1           0        5.210375   -1.867462    0.301892
     50          6           0        7.484285   -1.291008   -1.096984
     51          1           0        6.261998    0.476219   -1.337724
     52          1           0        5.520351   -0.986136   -1.984896
     53          6           0        7.548098   -0.964244    1.411727
     54          1           0        6.325353    0.808762    1.242697
     55          1           0        5.621160   -0.427729    2.277529
     56          6           0        8.313123   -0.795785    0.093771
     57          1           0        8.027049   -1.128653   -2.032464
     58          1           0        7.332778   -2.373965   -1.005318
     59          1           0        8.133588   -0.565422    2.245654
     60          1           0        7.400812   -2.033236    1.610919
     61          1           0        9.266695   -1.330761    0.140433
     62          1           0        8.550628    0.265897   -0.051117
     63          1           0       -5.292414   -2.766300    0.078695
     64          1           0       -2.222912    0.215913    0.086811
 ---------------------------------------------------------------------
 Rotational constants (GHZ):           0.2540937           0.0444355           0.0384480
 Leave Link  202 at Tue Dec 18 13:23:46 2018, MaxMem=  1342177280 cpu:               0.8 elap:               0.1
 (Enter /gpfs/apps/hpc/Apps/Restricted/Gaussian/Rev_A.03/g16/l301.exe)
 Standard basis: 6-31G(d,p) (6D, 7F)
 Ernie: Thresh=  0.10000D-02 Tol=  0.10000D-05 Strict=F.
   670 basis functions,  1183 primitive gaussians,   670 cartesian basis functions
   123 alpha electrons      122 beta electrons
       nuclear repulsion energy      3359.8916785310 Hartrees.
 IExCor=  402 DFT=T Ex+Corr=B3LYP ExCW=0 ScaHFX=  0.200000
 ScaDFX=  0.800000  0.720000  1.000000  0.810000 ScalE2=  1.000000  1.000000
 IRadAn=      7 IRanWt=     -1 IRanGd=            0 ICorTp=0 IEmpDi=141
 NAtoms=   64 NActive=   64 NUniq=   64 SFac= 1.00D+00 NAtFMM=   60 NAOKFM=T Big=T
 Integral buffers will be    131072 words long.
 Raffenetti 2 integral format.
 Two-electron integral symmetry is turned off.
 R6Disp:  Grimme-D3(BJ) Dispersion energy=       -0.1442530926 Hartrees.
 Nuclear repulsion after empirical dispersion term =     3359.7474254383 Hartrees.
 Force inversion solution in PCM.
 Using the following non-standard input for PCM:
 radii=bondi
 dis
 rep
 cav
 --- end of non-standard input.
 Force inversion solution in PCM.
 ------------------------------------------------------------------------------
 Polarizable Continuum Model (PCM)
 =================================
 Model                : C-PCM.
 Atomic radii         : Bondi.
 Polarization charges : Total charges.
 Charge compensation  : None.
 Solution method      : Matrix inversion.
 Cavity type          : Scaled VdW (van der Waals Surface) (Alpha=1.100).
 Cavity algorithm     : GePol (No added spheres)
                        Default sphere list used, NSphG=   64.
                        Lebedev-Laikov grids with approx.  5.0 points / Ang**2.
                        Smoothing algorithm: York/Karplus (Gamma=1.0000).
                        Polarization charges: spherical gaussians, with
                                              point-specific exponents (IZeta= 3).
                        Self-potential: point-specific (ISelfS= 7).
                        Self-field    : sphere-specific E.n sum rule (ISelfD= 2).
 1st derivatives      : Analytical E(r).r(x)/FMM algorithm (CHGder, D1EAlg=3).
                        Cavity 1st derivative terms included.
 Solvent              : Dichloromethane, Eps=   8.930000 Eps(inf)=   2.028346
 ------------------------------------------------------------------------------
 GePol: Number of generator spheres                  =      64
 GePol: Total number of spheres                      =      64
 GePol: Number of exposed spheres                    =      64 (100.00%)
 GePol: Number of points                             =    4416
 GePol: Average weight of points                     =       0.12
 GePol: Minimum weight of points                     =   0.77D-10
 GePol: Maximum weight of points                     =    0.21770
 GePol: Number of points with low weight             =     304
 GePol: Fraction of low-weight points (<1% of avg)   =       6.88%
 GePol: Cavity surface area                          =    515.752 Ang**2
 GePol: Cavity volume                                =    497.286 Ang**3
 PCM non-electrostatic energy =         0.0187442393 Hartrees.
 Nuclear repulsion after PCM non-electrostatic terms =     3359.7661696776 Hartrees.
 Leave Link  301 at Tue Dec 18 13:23:47 2018, MaxMem=  1342177280 cpu:               3.6 elap:               0.3
 (Enter /gpfs/apps/hpc/Apps/Restricted/Gaussian/Rev_A.03/g16/l302.exe)
 NPDir=0 NMtPBC=     1 NCelOv=     1 NCel=       1 NClECP=     1 NCelD=      1
         NCelK=      1 NCelE2=     1 NClLst=     1 CellRange=     0.0.
 One-electron integrals computed using PRISM.
 NBasis=   670 RedAO= T EigKep=  2.80D-04  NBF=   670
 NBsUse=   670 1.00D-06 EigRej= -1.00D+00 NBFU=   670
 Precomputing XC quadrature grid using
 IXCGrd= 4 IRadAn=           7 IRanWt=          -1 IRanGd=           0 AccXCQ= 0.00D+00.
 Generated NRdTot=       0 NPtTot=           0 NUsed=           0 NTot=          32
 NSgBfM=   622   622   622   622   622 MxSgAt=    64 MxSgA2=    64.
 Leave Link  302 at Tue Dec 18 13:23:48 2018, MaxMem=  1342177280 cpu:              21.2 elap:               1.4
 (Enter /gpfs/apps/hpc/Apps/Restricted/Gaussian/Rev_A.03/g16/l303.exe)
 DipDrv:  MaxL=1.
 Leave Link  303 at Tue Dec 18 13:23:49 2018, MaxMem=  1342177280 cpu:               1.9 elap:               0.3
 (Enter /gpfs/apps/hpc/Apps/Restricted/Gaussian/Rev_A.03/g16/l401.exe)
 Initial guess from the checkpoint file:  "cyclohexyl-diBIP-TS2.chk"
 B after Tr=    -0.004942    0.003796    0.052057
         Rot=    0.999857   -0.016616    0.003228    0.000501 Ang=  -1.94 deg.
 Guess basis will be translated and rotated to current coordinates.
 JPrj=2 DoOrth=T DoCkMO=T.
 Initial guess <Sx>= 0.0000 <Sy>= 0.0000 <Sz>= 0.5000 <S**2>= 0.7742 S= 0.5120
 Leave Link  401 at Tue Dec 18 13:23:52 2018, MaxMem=  1342177280 cpu:              36.9 elap:               2.4
 (Enter /gpfs/apps/hpc/Apps/Restricted/Gaussian/Rev_A.03/g16/l502.exe)
 Two-electron integral symmetry not used.
 UHF open shell SCF:
 Using DIIS extrapolation, IDIIS=  1040.
 NGot=  1342177280 LenX=  1341263254 LenY=  1340813684
 Requested convergence on RMS density matrix=1.00D-08 within 128 cycles.
 Requested convergence on MAX density matrix=1.00D-06.
 Requested convergence on             energy=1.00D-06.
 No special actions if energy rises.
 Fock matrices will be formed incrementally for  20 cycles.

 Cycle   1  Pass 1  IDiag  1:
 FoFJK:  IHMeth= 1 ICntrl=       0 DoSepK=F KAlg= 0 I1Cent=           0 FoldK=F
 IRaf= 690000000 NMat=       1 IRICut=       1 DoRegI=T DoRafI=F ISym2E= 0 IDoP0=0 IntGTp=1.
 FoFCou: FMM=T IPFlag=           0 FMFlag=      100000 FMFlg1=        2001
         NFxFlg=           0 DoJE=F BraDBF=F KetDBF=F FulRan=T
         wScrn=  0.000000 ICntrl=         0 IOpCl=  1 I1Cent=           0 NGrid=           0
         NMat0=    1 NMatS0=      1 NMatT0=    0 NMatD0=    1 NMtDS0=    0 NMtDT0=    0
 Symmetry not used in FoFCou.
 FMM levels:  10  Number of levels for PrismC:   9
 Inv3:  Mode=1 IEnd=    58503168.
 Iteration    1 A*A^-1 deviation from unit magnitude is 1.14D-14 for   2274.
 Iteration    1 A*A^-1 deviation from orthogonality  is 4.74D-15 for   2269   2011.
 Iteration    1 A^-1*A deviation from unit magnitude is 1.14D-14 for   2274.
 Iteration    1 A^-1*A deviation from orthogonality  is 2.93D-15 for   2638   2201.
 E= -1469.71131539004    
 DIIS: error= 4.15D-02 at cycle   1 NSaved=   1.
 NSaved= 1 IEnMin= 1 EnMin= -1469.71131539004     IErMin= 1 ErrMin= 4.15D-02
 ErrMax= 4.15D-02  0.00D+00 EMaxC= 1.00D-01 BMatC= 3.57D+00 BMatP= 3.57D+00
 IDIUse=3 WtCom= 5.85D-01 WtEn= 4.15D-01
 Coeff-Com:  0.100D+01
 Coeff-En:   0.100D+01
 Coeff:      0.100D+01
 Gap=     0.210 Goal=   None    Shift=    0.000
 Gap=     0.168 Goal=   None    Shift=    0.000
 GapD=    0.168 DampG=1.000 DampE=0.500 DampFc=0.5000 IDamp=-1.
 Damping current iteration by 5.00D-01
 RMSDP=2.44D-03 MaxDP=2.86D-01              OVMax= 3.06D-01

 Cycle   2  Pass 1  IDiag  1:
 RMSU=  1.20D-03    CP:  9.81D-01
 E= -1470.61835195093     Delta-E=       -0.907036560883 Rises=F Damp=T
 DIIS: error= 2.58D-02 at cycle   2 NSaved=   2.
 NSaved= 2 IEnMin= 2 EnMin= -1470.61835195093     IErMin= 2 ErrMin= 2.58D-02
 ErrMax= 2.58D-02  0.00D+00 EMaxC= 1.00D-01 BMatC= 1.00D+00 BMatP= 3.57D+00
 IDIUse=3 WtCom= 7.42D-01 WtEn= 2.58D-01
 Coeff-Com: -0.994D+00 0.199D+01
 Coeff-En:   0.000D+00 0.100D+01
 Coeff:     -0.738D+00 0.174D+01
 Gap=     0.147 Goal=   None    Shift=    0.000
 Gap=     0.071 Goal=   None    Shift=    0.000
 RMSDP=1.41D-03 MaxDP=1.64D-01 DE=-9.07D-01 OVMax= 6.87D-02

 Cycle   3  Pass 1  IDiag  1:
 RMSU=  5.25D-04    CP:  9.60D-01  2.07D+00
 E= -1471.59009055737     Delta-E=       -0.971738606443 Rises=F Damp=F
 DIIS: error= 9.09D-03 at cycle   3 NSaved=   3.
 NSaved= 3 IEnMin= 3 EnMin= -1471.59009055737     IErMin= 3 ErrMin= 9.09D-03
 ErrMax= 9.09D-03  0.00D+00 EMaxC= 1.00D-01 BMatC= 1.28D-01 BMatP= 1.00D+00
 IDIUse=3 WtCom= 9.09D-01 WtEn= 9.09D-02
 Coeff-Com: -0.530D+00 0.992D+00 0.538D+00
 Coeff-En:   0.000D+00 0.000D+00 0.100D+01
 Coeff:     -0.482D+00 0.902D+00 0.580D+00
 Gap=     0.143 Goal=   None    Shift=    0.000
 Gap=     0.075 Goal=   None    Shift=    0.000
 RMSDP=3.31D-04 MaxDP=4.03D-02 DE=-9.72D-01 OVMax= 6.44D-02

 Cycle   4  Pass 1  IDiag  1:
 RMSU=  1.75D-04    CP:  9.59D-01  2.14D+00  4.88D-01
 E= -1471.61971109583     Delta-E=       -0.029620538464 Rises=F Damp=F
 DIIS: error= 2.55D-03 at cycle   4 NSaved=   4.
 NSaved= 4 IEnMin= 4 EnMin= -1471.61971109583     IErMin= 4 ErrMin= 2.55D-03
 ErrMax= 2.55D-03  0.00D+00 EMaxC= 1.00D-01 BMatC= 1.27D-02 BMatP= 1.28D-01
 IDIUse=3 WtCom= 9.75D-01 WtEn= 2.55D-02
 Coeff-Com: -0.180D+00 0.329D+00 0.293D+00 0.558D+00
 Coeff-En:   0.000D+00 0.000D+00 0.485D-02 0.995D+00
 Coeff:     -0.175D+00 0.321D+00 0.285D+00 0.569D+00
 Gap=     0.141 Goal=   None    Shift=    0.000
 Gap=     0.076 Goal=   None    Shift=    0.000
 RMSDP=1.14D-04 MaxDP=1.51D-02 DE=-2.96D-02 OVMax= 2.46D-02

 Cycle   5  Pass 1  IDiag  1:
 RMSU=  6.89D-05    CP:  9.58D-01  2.14D+00  6.11D-01  6.40D-01
 E= -1471.62229991205     Delta-E=       -0.002588816219 Rises=F Damp=F
 DIIS: error= 1.20D-03 at cycle   5 NSaved=   5.
 NSaved= 5 IEnMin= 5 EnMin= -1471.62229991205     IErMin= 5 ErrMin= 1.20D-03
 ErrMax= 1.20D-03  0.00D+00 EMaxC= 1.00D-01 BMatC= 2.33D-03 BMatP= 1.27D-02
 IDIUse=3 WtCom= 9.88D-01 WtEn= 1.20D-02
 Coeff-Com: -0.161D-01 0.265D-01 0.722D-01 0.348D+00 0.569D+00
 Coeff-En:   0.000D+00 0.000D+00 0.000D+00 0.152D+00 0.848D+00
 Coeff:     -0.159D-01 0.262D-01 0.713D-01 0.346D+00 0.573D+00
 Gap=     0.141 Goal=   None    Shift=    0.000
 Gap=     0.076 Goal=   None    Shift=    0.000
 RMSDP=3.81D-05 MaxDP=3.51D-03 DE=-2.59D-03 OVMax= 5.26D-03

 Cycle   6  Pass 1  IDiag  1:
 RMSU=  1.72D-05    CP:  9.58D-01  2.14D+00  5.98D-01  7.48D-01  6.05D-01
 E= -1471.62283025606     Delta-E=       -0.000530344006 Rises=F Damp=F
 DIIS: error= 2.05D-04 at cycle   6 NSaved=   6.
 NSaved= 6 IEnMin= 6 EnMin= -1471.62283025606     IErMin= 6 ErrMin= 2.05D-04
 ErrMax= 2.05D-04  0.00D+00 EMaxC= 1.00D-01 BMatC= 1.01D-04 BMatP= 2.33D-03
 IDIUse=3 WtCom= 9.98D-01 WtEn= 2.05D-03
 Coeff-Com: -0.571D-03-0.385D-03 0.224D-01 0.151D+00 0.299D+00 0.529D+00
 Coeff-En:   0.000D+00 0.000D+00 0.000D+00 0.000D+00 0.000D+00 0.100D+01
 Coeff:     -0.570D-03-0.384D-03 0.224D-01 0.151D+00 0.298D+00 0.530D+00
 Gap=     0.141 Goal=   None    Shift=    0.000
 Gap=     0.075 Goal=   None    Shift=    0.000
 RMSDP=9.46D-06 MaxDP=7.84D-04 DE=-5.30D-04 OVMax= 1.69D-03

 Cycle   7  Pass 1  IDiag  1:
 RMSU=  5.94D-06    CP:  9.58D-01  2.14D+00  5.98D-01  7.53D-01  6.50D-01
                    CP:  6.17D-01
 E= -1471.62285125942     Delta-E=       -0.000021003366 Rises=F Damp=F
 DIIS: error= 6.91D-05 at cycle   7 NSaved=   7.
 NSaved= 7 IEnMin= 7 EnMin= -1471.62285125942     IErMin= 7 ErrMin= 6.91D-05
 ErrMax= 6.91D-05  0.00D+00 EMaxC= 1.00D-01 BMatC= 1.32D-05 BMatP= 1.01D-04
 IDIUse=1 WtCom= 1.00D+00 WtEn= 0.00D+00
 Coeff-Com:  0.170D-02-0.354D-02 0.288D-02 0.390D-01 0.950D-01 0.303D+00
 Coeff-Com:  0.562D+00
 Coeff:      0.170D-02-0.354D-02 0.288D-02 0.390D-01 0.950D-01 0.303D+00
 Coeff:      0.562D+00
 Gap=     0.141 Goal=   None    Shift=    0.000
 Gap=     0.075 Goal=   None    Shift=    0.000
 RMSDP=3.32D-06 MaxDP=3.81D-04 DE=-2.10D-05 OVMax= 5.56D-04

 Cycle   8  Pass 1  IDiag  1:
 RMSU=  2.24D-06    CP:  9.58D-01  2.14D+00  5.99D-01  7.55D-01  6.53D-01
                    CP:  6.79D-01  6.42D-01
 E= -1471.62285438187     Delta-E=       -0.000003122447 Rises=F Damp=F
 DIIS: error= 2.87D-05 at cycle   8 NSaved=   8.
 NSaved= 8 IEnMin= 8 EnMin= -1471.62285438187     IErMin= 8 ErrMin= 2.87D-05
 ErrMax= 2.87D-05  0.00D+00 EMaxC= 1.00D-01 BMatC= 9.89D-07 BMatP= 1.32D-05
 IDIUse=1 WtCom= 1.00D+00 WtEn= 0.00D+00
 Coeff-Com:  0.910D-03-0.177D-02-0.549D-03 0.587D-02 0.212D-01 0.105D+00
 Coeff-Com:  0.275D+00 0.594D+00
 Coeff:      0.910D-03-0.177D-02-0.549D-03 0.587D-02 0.212D-01 0.105D+00
 Coeff:      0.275D+00 0.594D+00
 Gap=     0.141 Goal=   None    Shift=    0.000
 Gap=     0.075 Goal=   None    Shift=    0.000
 RMSDP=1.27D-06 MaxDP=1.32D-04 DE=-3.12D-06 OVMax= 4.61D-04

 Cycle   9  Pass 1  IDiag  1:
 RMSU=  1.05D-06    CP:  9.58D-01  2.14D+00  5.99D-01  7.55D-01  6.54D-01
                    CP:  6.94D-01  7.49D-01  9.00D-01
 E= -1471.62285470602     Delta-E=       -0.000000324152 Rises=F Damp=F
 DIIS: error= 1.30D-05 at cycle   9 NSaved=   9.
 NSaved= 9 IEnMin= 9 EnMin= -1471.62285470602     IErMin= 9 ErrMin= 1.30D-05
 ErrMax= 1.30D-05  0.00D+00 EMaxC= 1.00D-01 BMatC= 2.10D-07 BMatP= 9.89D-07
 IDIUse=1 WtCom= 1.00D+00 WtEn= 0.00D+00
 Coeff-Com:  0.474D-04-0.473D-04-0.742D-03-0.544D-02-0.951D-02-0.114D-01
 Coeff-Com:  0.142D-01 0.302D+00 0.711D+00
 Coeff:      0.474D-04-0.473D-04-0.742D-03-0.544D-02-0.951D-02-0.114D-01
 Coeff:      0.142D-01 0.302D+00 0.711D+00
 Gap=     0.141 Goal=   None    Shift=    0.000
 Gap=     0.075 Goal=   None    Shift=    0.000
 RMSDP=7.95D-07 MaxDP=1.24D-04 DE=-3.24D-07 OVMax= 4.26D-04

 Cycle  10  Pass 1  IDiag  1:
 RMSU=  5.02D-07    CP:  9.58D-01  2.14D+00  5.99D-01  7.55D-01  6.55D-01
                    CP:  7.01D-01  7.80D-01  1.15D+00  1.07D+00
 E= -1471.62285483298     Delta-E=       -0.000000126955 Rises=F Damp=F
 DIIS: error= 8.16D-06 at cycle  10 NSaved=  10.
 NSaved=10 IEnMin=10 EnMin= -1471.62285483298     IErMin=10 ErrMin= 8.16D-06
 ErrMax= 8.16D-06  0.00D+00 EMaxC= 1.00D-01 BMatC= 6.57D-08 BMatP= 2.10D-07
 IDIUse=1 WtCom= 1.00D+00 WtEn= 0.00D+00
 Coeff-Com: -0.196D-03 0.404D-03-0.250D-03-0.451D-02-0.102D-01-0.308D-01
 Coeff-Com: -0.611D-01 0.204D-01 0.395D+00 0.691D+00
 Coeff:     -0.196D-03 0.404D-03-0.250D-03-0.451D-02-0.102D-01-0.308D-01
 Coeff:     -0.611D-01 0.204D-01 0.395D+00 0.691D+00
 Gap=     0.141 Goal=   None    Shift=    0.000
 Gap=     0.075 Goal=   None    Shift=    0.000
 RMSDP=5.30D-07 MaxDP=9.30D-05 DE=-1.27D-07 OVMax= 3.14D-04

 Cycle  11  Pass 1  IDiag  1:
 RMSU=  2.47D-07    CP:  9.58D-01  2.14D+00  5.99D-01  7.55D-01  6.56D-01
                    CP:  7.05D-01  8.07D-01  1.28D+00  1.36D+00  1.03D+00
 E= -1471.62285488334     Delta-E=       -0.000000050362 Rises=F Damp=F
 DIIS: error= 3.95D-06 at cycle  11 NSaved=  11.
 NSaved=11 IEnMin=11 EnMin= -1471.62285488334     IErMin=11 ErrMin= 3.95D-06
 ErrMax= 3.95D-06  0.00D+00 EMaxC= 1.00D-01 BMatC= 1.88D-08 BMatP= 6.57D-08
 IDIUse=1 WtCom= 1.00D+00 WtEn= 0.00D+00
 Coeff-Com: -0.114D-03 0.220D-03 0.132D-03-0.571D-03-0.212D-02-0.131D-01
 Coeff-Com: -0.438D-01-0.107D+00-0.480D-01 0.390D+00 0.825D+00
 Coeff:     -0.114D-03 0.220D-03 0.132D-03-0.571D-03-0.212D-02-0.131D-01
 Coeff:     -0.438D-01-0.107D+00-0.480D-01 0.390D+00 0.825D+00
 Gap=     0.141 Goal=   None    Shift=    0.000
 Gap=     0.075 Goal=   None    Shift=    0.000
 RMSDP=4.25D-07 MaxDP=7.81D-05 DE=-5.04D-08 OVMax= 2.73D-04

 Cycle  12  Pass 1  IDiag  1:
 RMSU=  1.26D-07    CP:  9.58D-01  2.14D+00  5.99D-01  7.55D-01  6.56D-01
                    CP:  7.08D-01  8.28D-01  1.39D+00  1.57D+00  1.42D+00
                    CP:  1.07D+00
 E= -1471.62285490377     Delta-E=       -0.000000020425 Rises=F Damp=F
 DIIS: error= 1.52D-06 at cycle  12 NSaved=  12.
 NSaved=12 IEnMin=12 EnMin= -1471.62285490377     IErMin=12 ErrMin= 1.52D-06
 ErrMax= 1.52D-06  0.00D+00 EMaxC= 1.00D-01 BMatC= 5.36D-09 BMatP= 1.88D-08
 IDIUse=1 WtCom= 1.00D+00 WtEn= 0.00D+00
 Coeff-Com: -0.172D-04 0.264D-04 0.142D-03 0.874D-03 0.158D-02 0.936D-03
 Coeff-Com: -0.960D-02-0.645D-01-0.133D+00 0.384D-01 0.470D+00 0.694D+00
 Coeff:     -0.172D-04 0.264D-04 0.142D-03 0.874D-03 0.158D-02 0.936D-03
 Coeff:     -0.960D-02-0.645D-01-0.133D+00 0.384D-01 0.470D+00 0.694D+00
 Gap=     0.141 Goal=   None    Shift=    0.000
 Gap=     0.075 Goal=   None    Shift=    0.000
 RMSDP=1.93D-07 MaxDP=3.42D-05 DE=-2.04D-08 OVMax= 1.19D-04

 Cycle  13  Pass 1  IDiag  1:
 RMSU=  6.06D-08    CP:  9.58D-01  2.14D+00  5.99D-01  7.55D-01  6.56D-01
                    CP:  7.10D-01  8.35D-01  1.44D+00  1.67D+00  1.57D+00
                    CP:  1.31D+00  8.33D-01
 E= -1471.62285490764     Delta-E=       -0.000000003872 Rises=F Damp=F
 DIIS: error= 5.49D-07 at cycle  13 NSaved=  13.
 NSaved=13 IEnMin=13 EnMin= -1471.62285490764     IErMin=13 ErrMin= 5.49D-07
 ErrMax= 5.49D-07  0.00D+00 EMaxC= 1.00D-01 BMatC= 8.99D-10 BMatP= 5.36D-09
 IDIUse=1 WtCom= 1.00D+00 WtEn= 0.00D+00
 Coeff-Com:  0.853D-05-0.195D-04 0.441D-04 0.502D-03 0.109D-02 0.257D-02
 Coeff-Com:  0.221D-02-0.135D-01-0.591D-01-0.497D-01 0.951D-01 0.350D+00
 Coeff-Com:  0.671D+00
 Coeff:      0.853D-05-0.195D-04 0.441D-04 0.502D-03 0.109D-02 0.257D-02
 Coeff:      0.221D-02-0.135D-01-0.591D-01-0.497D-01 0.951D-01 0.350D+00
 Coeff:      0.671D+00
 Gap=     0.141 Goal=   None    Shift=    0.000
 Gap=     0.075 Goal=   None    Shift=    0.000
 RMSDP=6.38D-08 MaxDP=1.03D-05 DE=-3.87D-09 OVMax= 3.69D-05

 Cycle  14  Pass 1  IDiag  1:
 RMSU=  2.65D-08    CP:  9.58D-01  2.14D+00  5.99D-01  7.55D-01  6.56D-01
                    CP:  7.10D-01  8.37D-01  1.45D+00  1.69D+00  1.62D+00
                    CP:  1.38D+00  9.99D-01  8.47D-01
 E= -1471.62285490806     Delta-E=       -0.000000000420 Rises=F Damp=F
 DIIS: error= 2.39D-07 at cycle  14 NSaved=  14.
 NSaved=14 IEnMin=14 EnMin= -1471.62285490806     IErMin=14 ErrMin= 2.39D-07
 ErrMax= 2.39D-07  0.00D+00 EMaxC= 1.00D-01 BMatC= 2.04D-10 BMatP= 8.99D-10
 IDIUse=1 WtCom= 1.00D+00 WtEn= 0.00D+00
 Coeff-Com:  0.838D-05-0.163D-04-0.114D-04 0.534D-04 0.203D-03 0.121D-02
 Coeff-Com:  0.353D-02 0.883D-02 0.130D-03-0.355D-01-0.617D-01 0.216D-01
 Coeff-Com:  0.359D+00 0.703D+00
 Coeff:      0.838D-05-0.163D-04-0.114D-04 0.534D-04 0.203D-03 0.121D-02
 Coeff:      0.353D-02 0.883D-02 0.130D-03-0.355D-01-0.617D-01 0.216D-01
 Coeff:      0.359D+00 0.703D+00
 Gap=     0.141 Goal=   None    Shift=    0.000
 Gap=     0.075 Goal=   None    Shift=    0.000
 RMSDP=2.57D-08 MaxDP=3.56D-06 DE=-4.20D-10 OVMax= 1.29D-05

 Cycle  15  Pass 1  IDiag  1:
 RMSU=  1.25D-08    CP:  9.58D-01  2.14D+00  5.99D-01  7.55D-01  6.56D-01
                    CP:  7.10D-01  8.38D-01  1.46D+00  1.70D+00  1.64D+00
                    CP:  1.42D+00  1.05D+00  1.02D+00  8.56D-01
 E= -1471.62285490821     Delta-E=       -0.000000000156 Rises=F Damp=F
 DIIS: error= 1.17D-07 at cycle  15 NSaved=  15.
 NSaved=15 IEnMin=15 EnMin= -1471.62285490821     IErMin=15 ErrMin= 1.17D-07
 ErrMax= 1.17D-07  0.00D+00 EMaxC= 1.00D-01 BMatC= 3.61D-11 BMatP= 2.04D-10
 IDIUse=1 WtCom= 1.00D+00 WtEn= 0.00D+00
 Coeff-Com:  0.219D-05-0.371D-05-0.133D-04-0.787D-04-0.131D-03 0.449D-04
 Coeff-Com:  0.114D-02 0.708D-02 0.118D-01-0.531D-02-0.487D-01-0.588D-01
 Coeff-Com:  0.242D-01 0.328D+00 0.741D+00
 Coeff:      0.219D-05-0.371D-05-0.133D-04-0.787D-04-0.131D-03 0.449D-04
 Coeff:      0.114D-02 0.708D-02 0.118D-01-0.531D-02-0.487D-01-0.588D-01
 Coeff:      0.242D-01 0.328D+00 0.741D+00
 Gap=     0.141 Goal=   None    Shift=    0.000
 Gap=     0.075 Goal=   None    Shift=    0.000
 RMSDP=1.05D-08 MaxDP=1.06D-06 DE=-1.56D-10 OVMax= 3.40D-06

 Cycle  16  Pass 1  IDiag  1:
 RMSU=  6.37D-09    CP:  9.58D-01  2.14D+00  5.99D-01  7.55D-01  6.56D-01
                    CP:  7.10D-01  8.38D-01  1.46D+00  1.70D+00  1.64D+00
                    CP:  1.42D+00  1.07D+00  1.08D+00  1.04D+00  9.36D-01
 E= -1471.62285490820     Delta-E=        0.000000000017 Rises=F Damp=F
 DIIS: error= 6.27D-08 at cycle  16 NSaved=  16.
 NSaved=16 IEnMin=15 EnMin= -1471.62285490821     IErMin=16 ErrMin= 6.27D-08
 ErrMax= 6.27D-08  0.00D+00 EMaxC= 1.00D-01 BMatC= 1.02D-11 BMatP= 3.61D-11
 IDIUse=1 WtCom= 1.00D+00 WtEn= 0.00D+00
 Coeff-Com: -0.120D-06 0.547D-06-0.540D-05-0.544D-04-0.109D-03-0.179D-03
 Coeff-Com:  0.155D-04 0.243D-02 0.638D-02 0.321D-02-0.178D-01-0.357D-01
 Coeff-Com: -0.473D-01 0.624D-01 0.403D+00 0.623D+00
 Coeff:     -0.120D-06 0.547D-06-0.540D-05-0.544D-04-0.109D-03-0.179D-03
 Coeff:      0.155D-04 0.243D-02 0.638D-02 0.321D-02-0.178D-01-0.357D-01
 Coeff:     -0.473D-01 0.624D-01 0.403D+00 0.623D+00
 Gap=     0.141 Goal=   None    Shift=    0.000
 Gap=     0.075 Goal=   None    Shift=    0.000
 RMSDP=4.75D-09 MaxDP=5.71D-07 DE= 1.73D-11 OVMax= 1.33D-06

 Error on total polarization charges =  0.04385
 SCF Done:  E(UB3LYP) =  -1471.62285491     A.U. after   16 cycles
            NFock= 16  Conv=0.48D-08     -V/T= 2.0095
 <Sx>= 0.0000 <Sy>= 0.0000 <Sz>= 0.5000 <S**2>= 0.7737 S= 0.5118
 <L.S>= 0.000000000000E+00
 KE= 1.457711220098D+03 PE=-1.010659593471D+04 EE= 3.817495690023D+03
 Annihilation of the first spin contaminant:
 S**2 before annihilation     0.7737,   after     0.7504
 Leave Link  502 at Tue Dec 18 13:29:05 2018, MaxMem=  1342177280 cpu:            4931.3 elap:             312.9
 (Enter /gpfs/apps/hpc/Apps/Restricted/Gaussian/Rev_A.03/g16/l801.exe)
 DoSCS=F DFT=T ScalE2(SS,OS)=  1.000000  1.000000
 Range of M.O.s used for correlation:     1   670
 NBasis=   670 NAE=   123 NBE=   122 NFC=     0 NFV=     0
 NROrb=    670 NOA=   123 NOB=   122 NVA=   547 NVB=   548

 **** Warning!!: The smallest beta delta epsilon is  0.75391769D-01

 Leave Link  801 at Tue Dec 18 13:29:05 2018, MaxMem=  1342177280 cpu:               0.5 elap:               0.1
 (Enter /gpfs/apps/hpc/Apps/Restricted/Gaussian/Rev_A.03/g16/l1101.exe)
 Leave Link 1101 at Tue Dec 18 13:29:05 2018, MaxMem=  1342177280 cpu:               0.6 elap:               0.1
 (Enter /gpfs/apps/hpc/Apps/Restricted/Gaussian/Rev_A.03/g16/l1102.exe)
 Symmetrizing basis deriv contribution to polar:
 IMax=3 JMax=2 DiffMx= 0.00D+00
 Leave Link 1102 at Tue Dec 18 13:29:06 2018, MaxMem=  1342177280 cpu:               1.7 elap:               0.1
 (Enter /gpfs/apps/hpc/Apps/Restricted/Gaussian/Rev_A.03/g16/l1110.exe)
 Leave Link 1110 at Tue Dec 18 13:29:06 2018, MaxMem=  1342177280 cpu:               0.8 elap:               0.1
 (Enter /gpfs/apps/hpc/Apps/Restricted/Gaussian/Rev_A.03/g16/l1002.exe)
 Minotr:  UHF open shell wavefunction.
 Leave Link 1002 at Tue Dec 18 13:29:06 2018, MaxMem=  1342177280 cpu:               0.6 elap:               0.1
 (Enter /gpfs/apps/hpc/Apps/Restricted/Gaussian/Rev_A.03/g16/l601.exe)
 Copying SCF densities to generalized density rwf, IOpCl= 1 IROHF=0.

 **********************************************************************

            Population analysis using the SCF density.

 **********************************************************************

 Alpha  occ. eigenvalues --  -19.17265 -14.42509 -14.40951 -14.40356 -14.36357
 Alpha  occ. eigenvalues --  -14.34050 -10.32081 -10.29661 -10.29311 -10.26515
 Alpha  occ. eigenvalues --  -10.25827 -10.24803 -10.24767 -10.24632 -10.24400
 Alpha  occ. eigenvalues --  -10.24101 -10.24062 -10.23502 -10.22930 -10.22702
 Alpha  occ. eigenvalues --  -10.22541 -10.21986 -10.21937 -10.21667 -10.21557
 Alpha  occ. eigenvalues --  -10.21322 -10.21085 -10.20652 -10.19920 -10.19326
 Alpha  occ. eigenvalues --  -10.18287 -10.18228 -10.18016 -10.18010 -10.17816
 Alpha  occ. eigenvalues --   -1.07824  -1.06044  -1.04972  -0.94840  -0.93584
 Alpha  occ. eigenvalues --   -0.90755  -0.89788  -0.88579  -0.86877  -0.82700
 Alpha  occ. eigenvalues --   -0.82599  -0.80626  -0.80386  -0.77902  -0.76701
 Alpha  occ. eigenvalues --   -0.75179  -0.74356  -0.73416  -0.71498  -0.69998
 Alpha  occ. eigenvalues --   -0.69421  -0.68209  -0.66777  -0.65480  -0.64334
 Alpha  occ. eigenvalues --   -0.62886  -0.62435  -0.61335  -0.61197  -0.59722
 Alpha  occ. eigenvalues --   -0.59016  -0.56695  -0.55674  -0.55045  -0.54473
 Alpha  occ. eigenvalues --   -0.52928  -0.51934  -0.51488  -0.51337  -0.50301
 Alpha  occ. eigenvalues --   -0.50145  -0.49645  -0.48804  -0.47652  -0.47583
 Alpha  occ. eigenvalues --   -0.46893  -0.46052  -0.45967  -0.45606  -0.44826
 Alpha  occ. eigenvalues --   -0.44635  -0.44532  -0.44089  -0.43821  -0.43657
 Alpha  occ. eigenvalues --   -0.42371  -0.41983  -0.41502  -0.40631  -0.40522
 Alpha  occ. eigenvalues --   -0.40293  -0.39695  -0.39386  -0.39070  -0.38393
 Alpha  occ. eigenvalues --   -0.38280  -0.38102  -0.38056  -0.37561  -0.37474
 Alpha  occ. eigenvalues --   -0.36013  -0.35378  -0.34888  -0.34684  -0.34461
 Alpha  occ. eigenvalues --   -0.32469  -0.32247  -0.32124  -0.31887  -0.30439
 Alpha  occ. eigenvalues --   -0.29486  -0.29189  -0.28661  -0.26167  -0.26156
 Alpha  occ. eigenvalues --   -0.24431  -0.24050  -0.23313
 Alpha virt. eigenvalues --   -0.09236  -0.06731  -0.04187  -0.02465  -0.01412
 Alpha virt. eigenvalues --    0.00045   0.01735   0.03276   0.05310   0.07552
 Alpha virt. eigenvalues --    0.08160   0.08831   0.09440   0.10469   0.10671
 Alpha virt. eigenvalues --    0.11213   0.11656   0.12032   0.12351   0.12679
 Alpha virt. eigenvalues --    0.13113   0.13409   0.13672   0.14642   0.15074
 Alpha virt. eigenvalues --    0.15379   0.15644   0.16073   0.16210   0.16313
 Alpha virt. eigenvalues --    0.16555   0.16924   0.17047   0.17515   0.17586
 Alpha virt. eigenvalues --    0.17867   0.18045   0.18416   0.18617   0.19037
 Alpha virt. eigenvalues --    0.19221   0.19585   0.19792   0.20524   0.20918
 Alpha virt. eigenvalues --    0.21704   0.22800   0.23136   0.23514   0.24193
 Alpha virt. eigenvalues --    0.24856   0.25023   0.25119   0.25665   0.26127
 Alpha virt. eigenvalues --    0.26532   0.27684   0.28094   0.28818   0.29251
 Alpha virt. eigenvalues --    0.30100   0.30846   0.31262   0.31785   0.32554
 Alpha virt. eigenvalues --    0.33006   0.33953   0.36107   0.37201   0.38102
 Alpha virt. eigenvalues --    0.38827   0.39770   0.41058   0.41818   0.43092
 Alpha virt. eigenvalues --    0.43872   0.45551   0.46808   0.46914   0.47508
 Alpha virt. eigenvalues --    0.48079   0.48761   0.48898   0.49706   0.50408
 Alpha virt. eigenvalues --    0.50491   0.51070   0.51288   0.51801   0.51909
 Alpha virt. eigenvalues --    0.52293   0.52540   0.52862   0.52963   0.53464
 Alpha virt. eigenvalues --    0.53680   0.53757   0.54219   0.54413   0.55223
 Alpha virt. eigenvalues --    0.55391   0.55600   0.55952   0.56596   0.57090
 Alpha virt. eigenvalues --    0.57251   0.57796   0.57879   0.57984   0.58213
 Alpha virt. eigenvalues --    0.58564   0.58961   0.59668   0.59873   0.60423
 Alpha virt. eigenvalues --    0.60709   0.61148   0.61511   0.61768   0.62049
 Alpha virt. eigenvalues --    0.62723   0.62988   0.63152   0.63212   0.64445
[...]
         NFxFlg=           0 DoJE=T BraDBF=F KetDBF=T FulRan=T
         wScrn=  0.000000 ICntrl=       500 IOpCl=  0 I1Cent=   200000004 NGrid=           0
         NMat0=    1 NMatS0=      1 NMatT0=    0 NMatD0=    1 NMtDS0=    0 NMtDT0=    0
 Symmetry not used in FoFCou.
 Harris En= -1471.48178580697    
 Leave Link  401 at Tue Dec 18 13:58:49 2018, MaxMem=  1342177280 cpu:              71.7 elap:               4.5
 (Enter /gpfs/apps/hpc/Apps/Restricted/Gaussian/Rev_A.03/g16/l502.exe)
 Two-electron integral symmetry not used.
 UHF open shell SCF:
 Using DIIS extrapolation, IDIIS=  1040.
 NGot=  1342177280 LenX=  1341263254 LenY=  1340813684
 Requested convergence on RMS density matrix=1.00D-08 within 128 cycles.
 Requested convergence on MAX density matrix=1.00D-06.
 Requested convergence on             energy=1.00D-06.
 No special actions if energy rises.
 Fock matrices will be formed incrementally for  20 cycles.

 Cycle   1  Pass 1  IDiag  1:
 FoFJK:  IHMeth= 1 ICntrl=       0 DoSepK=F KAlg= 0 I1Cent=           0 FoldK=F
 IRaf= 690000000 NMat=       1 IRICut=       1 DoRegI=T DoRafI=F ISym2E= 0 IDoP0=0 IntGTp=1.
 FoFCou: FMM=T IPFlag=           0 FMFlag=      100000 FMFlg1=        2001
         NFxFlg=           0 DoJE=F BraDBF=F KetDBF=F FulRan=T
         wScrn=  0.000000 ICntrl=         0 IOpCl=  1 I1Cent=           0 NGrid=           0
         NMat0=    1 NMatS0=      1 NMatT0=    0 NMatD0=    1 NMtDS0=    0 NMtDT0=    0
 Symmetry not used in FoFCou.
 FMM levels:  10  Number of levels for PrismC:   9
 Inv3:  Mode=1 IEnd=    59274075.
 Iteration    1 A*A^-1 deviation from unit magnitude is 1.21D-14 for    906.
 Iteration    1 A*A^-1 deviation from orthogonality  is 3.39D-15 for   4428   1731.
 Iteration    1 A^-1*A deviation from unit magnitude is 1.21D-14 for    906.
 Iteration    1 A^-1*A deviation from orthogonality  is 4.19D-15 for   4444   1706.
 E= -1471.49762056889    
 DIIS: error= 1.01D-02 at cycle   1 NSaved=   1.
 NSaved= 1 IEnMin= 1 EnMin= -1471.49762056889     IErMin= 1 ErrMin= 1.01D-02
 ErrMax= 1.01D-02  0.00D+00 EMaxC= 1.00D-01 BMatC= 2.66D-01 BMatP= 2.66D-01
 IDIUse=3 WtCom= 8.99D-01 WtEn= 1.01D-01
 Coeff-Com:  0.100D+01
 Coeff-En:   0.100D+01
 Coeff:      0.100D+01
 Recover alternate guess density for next cycle.
 RMSDP=1.93D-03 MaxDP=1.13D-01              OVMax= 0.00D+00

 Cycle   2  Pass 1  IDiag  1:
 RMSU=  1.91D-03    CP:  1.02D+00
 E= -1470.90960926661     Delta-E=        0.588011302276 Rises=F Damp=F
 Switch densities from cycles 1 and 2 for lowest energy.
 DIIS: error= 2.71D-02 at cycle   2 NSaved=   2.
 NSaved= 2 IEnMin= 1 EnMin= -1471.49762056889     IErMin= 1 ErrMin= 1.01D-02
 ErrMax= 2.71D-02  0.00D+00 EMaxC= 1.00D+00 BMatC= 2.74D+00 BMatP= 2.66D-01
 IDIUse=1 WtCom= 1.00D+00 WtEn= 0.00D+00
 Coeff-Com:  0.911D+00 0.887D-01
 Coeff:      0.911D+00 0.887D-01
 Gap=     0.144 Goal=   None    Shift=    0.000
 Gap=     0.068 Goal=   None    Shift=    0.000
 RMSDP=5.99D-04 MaxDP=2.76D-02 DE= 5.88D-01 OVMax= 2.35D-01

 Cycle   3  Pass 1  IDiag  1:
 RMSU=  5.85D-04    CP:  9.97D-01  6.44D-02
 E= -1471.61409860595     Delta-E=       -0.704489339334 Rises=F Damp=F
 DIIS: error= 2.69D-03 at cycle   3 NSaved=   3.
 NSaved= 3 IEnMin= 3 EnMin= -1471.61409860595     IErMin= 3 ErrMin= 2.69D-03
 ErrMax= 2.69D-03  0.00D+00 EMaxC= 1.00D+00 BMatC= 3.10D-02 BMatP= 2.66D-01
 IDIUse=1 WtCom= 1.00D+00 WtEn= 0.00D+00
 Coeff-Com: -0.366D-01 0.862D-01 0.950D+00
 Coeff:     -0.366D-01 0.862D-01 0.950D+00
 Gap=     0.140 Goal=   None    Shift=    0.000
 Gap=     0.076 Goal=   None    Shift=    0.000
 RMSDP=1.98D-04 MaxDP=1.67D-02 DE=-7.04D-01 OVMax= 2.22D-02

 Cycle   4  Pass 1  IDiag  1:
 RMSU=  1.60D-04    CP:  9.97D-01  1.25D-01  9.83D-01
 E= -1471.61998001330     Delta-E=       -0.005881407349 Rises=F Damp=F
 DIIS: error= 2.82D-03 at cycle   4 NSaved=   4.
 NSaved= 4 IEnMin= 4 EnMin= -1471.61998001330     IErMin= 3 ErrMin= 2.69D-03
 ErrMax= 2.82D-03  0.00D+00 EMaxC= 1.00D+00 BMatC= 9.79D-03 BMatP= 3.10D-02
 IDIUse=1 WtCom= 1.00D+00 WtEn= 0.00D+00
 Coeff-Com: -0.339D-01 0.328D-01 0.498D+00 0.503D+00
 Coeff:     -0.339D-01 0.328D-01 0.498D+00 0.503D+00
 Gap=     0.139 Goal=   None    Shift=    0.000
 Gap=     0.078 Goal=   None    Shift=    0.000
 RMSDP=9.42D-05 MaxDP=1.09D-02 DE=-5.88D-03 OVMax= 1.25D-02

 Cycle   5  Pass 1  IDiag  1:
 RMSU=  5.58D-05    CP:  9.97D-01  1.19D-01  1.01D+00  5.46D-01
 E= -1471.62205083397     Delta-E=       -0.002070820675 Rises=F Damp=F
 DIIS: error= 1.06D-03 at cycle   5 NSaved=   5.
 NSaved= 5 IEnMin= 5 EnMin= -1471.62205083397     IErMin= 5 ErrMin= 1.06D-03
 ErrMax= 1.06D-03  0.00D+00 EMaxC= 1.00D+00 BMatC= 1.12D-03 BMatP= 9.79D-03
 IDIUse=1 WtCom= 1.00D+00 WtEn= 0.00D+00
 Coeff-Com: -0.121D-01 0.657D-02 0.158D+00 0.292D+00 0.556D+00
 Coeff:     -0.121D-01 0.657D-02 0.158D+00 0.292D+00 0.556D+00
 Gap=     0.139 Goal=   None    Shift=    0.000
 Gap=     0.078 Goal=   None    Shift=    0.000
 RMSDP=3.07D-05 MaxDP=3.65D-03 DE=-2.07D-03 OVMax= 3.90D-03

 Cycle   6  Pass 1  IDiag  1:
 RMSU=  2.01D-05    CP:  9.97D-01  1.19D-01  1.02D+00  6.17D-01  6.37D-01
 E= -1471.62227223858     Delta-E=       -0.000221404606 Rises=F Damp=F
 DIIS: error= 3.23D-04 at cycle   6 NSaved=   6.
 NSaved= 6 IEnMin= 6 EnMin= -1471.62227223858     IErMin= 6 ErrMin= 3.23D-04
 ErrMax= 3.23D-04  0.00D+00 EMaxC= 1.00D+00 BMatC= 1.18D-04 BMatP= 1.12D-03
 IDIUse=1 WtCom= 1.00D+00 WtEn= 0.00D+00
 Coeff-Com: -0.358D-02 0.426D-03 0.404D-01 0.121D+00 0.317D+00 0.525D+00
 Coeff:     -0.358D-02 0.426D-03 0.404D-01 0.121D+00 0.317D+00 0.525D+00
 Gap=     0.139 Goal=   None    Shift=    0.000
 Gap=     0.078 Goal=   None    Shift=    0.000
 RMSDP=1.05D-05 MaxDP=1.50D-03 DE=-2.21D-04 OVMax= 2.25D-03

 Cycle   7  Pass 1  IDiag  1:
 RMSU=  6.75D-06    CP:  9.97D-01  1.18D-01  1.02D+00  6.28D-01  6.83D-01
                    CP:  6.34D-01
 E= -1471.62229895661     Delta-E=       -0.000026718034 Rises=F Damp=F
 DIIS: error= 9.35D-05 at cycle   7 NSaved=   7.
 NSaved= 7 IEnMin= 7 EnMin= -1471.62229895661     IErMin= 7 ErrMin= 9.35D-05
 ErrMax= 9.35D-05  0.00D+00 EMaxC= 1.00D+00 BMatC= 1.03D-05 BMatP= 1.18D-04
 IDIUse=1 WtCom= 1.00D+00 WtEn= 0.00D+00
 Coeff-Com: -0.824D-03-0.291D-03 0.703D-02 0.369D-01 0.111D+00 0.278D+00
 Coeff-Com:  0.567D+00
 Coeff:     -0.824D-03-0.291D-03 0.703D-02 0.369D-01 0.111D+00 0.278D+00
 Coeff:      0.567D+00
 Gap=     0.139 Goal=   None    Shift=    0.000
 Gap=     0.078 Goal=   None    Shift=    0.000
 RMSDP=3.40D-06 MaxDP=4.11D-04 DE=-2.67D-05 OVMax= 9.85D-04

 Cycle   8  Pass 1  IDiag  1:
 RMSU=  2.78D-06    CP:  9.97D-01  1.18D-01  1.02D+00  6.29D-01  6.88D-01
                    CP:  7.22D-01  9.04D-01
 E= -1471.62230207867     Delta-E=       -0.000003122059 Rises=F Damp=F
 DIIS: error= 4.99D-05 at cycle   8 NSaved=   8.
 NSaved= 8 IEnMin= 8 EnMin= -1471.62230207867     IErMin= 8 ErrMin= 4.99D-05
 ErrMax= 4.99D-05  0.00D+00 EMaxC= 1.00D+00 BMatC= 1.56D-06 BMatP= 1.03D-05
 IDIUse=1 WtCom= 1.00D+00 WtEn= 0.00D+00
 Coeff-Com:  0.387D-03-0.215D-03-0.541D-02-0.850D-02-0.194D-01 0.185D-01
 Coeff-Com:  0.247D+00 0.767D+00
 Coeff:      0.387D-03-0.215D-03-0.541D-02-0.850D-02-0.194D-01 0.185D-01
 Coeff:      0.247D+00 0.767D+00
 Gap=     0.139 Goal=   None    Shift=    0.000
 Gap=     0.078 Goal=   None    Shift=    0.000
 RMSDP=2.03D-06 MaxDP=3.09D-04 DE=-3.12D-06 OVMax= 8.41D-04

 Cycle   9  Pass 1  IDiag  1:
 RMSU=  1.46D-06    CP:  9.97D-01  1.18D-01  1.02D+00  6.31D-01  6.95D-01
                    CP:  7.53D-01  1.08D+00  1.04D+00
 E= -1471.62230316619     Delta-E=       -0.000001087518 Rises=F Damp=F
 DIIS: error= 2.03D-05 at cycle   9 NSaved=   9.
 NSaved= 9 IEnMin= 9 EnMin= -1471.62230316619     IErMin= 9 ErrMin= 2.03D-05
 ErrMax= 2.03D-05  0.00D+00 EMaxC= 1.00D+00 BMatC= 4.53D-07 BMatP= 1.56D-06
 IDIUse=1 WtCom= 1.00D+00 WtEn= 0.00D+00
 Coeff-Com:  0.404D-03 0.106D-04-0.430D-02-0.140D-01-0.438D-01-0.778D-01
 Coeff-Com: -0.106D+00 0.289D+00 0.957D+00
 Coeff:      0.404D-03 0.106D-04-0.430D-02-0.140D-01-0.438D-01-0.778D-01
 Coeff:     -0.106D+00 0.289D+00 0.957D+00
 Gap=     0.139 Goal=   None    Shift=    0.000
 Gap=     0.078 Goal=   None    Shift=    0.000
 RMSDP=1.70D-06 MaxDP=2.83D-04 DE=-1.09D-06 OVMax= 7.07D-04

 Cycle  10  Pass 1  IDiag  1:
 RMSU=  7.54D-07    CP:  9.97D-01  1.18D-01  1.02D+00  6.32D-01  6.96D-01
                    CP:  7.85D-01  1.20D+00  1.41D+00  1.31D+00
 E= -1471.62230359524     Delta-E=       -0.000000429056 Rises=F Damp=F
 DIIS: error= 1.27D-05 at cycle  10 NSaved=  10.
 NSaved=10 IEnMin=10 EnMin= -1471.62230359524     IErMin=10 ErrMin= 1.27D-05
 ErrMax= 1.27D-05  0.00D+00 EMaxC= 1.00D+00 BMatC= 1.57D-07 BMatP= 4.53D-07
 IDIUse=1 WtCom= 1.00D+00 WtEn= 0.00D+00
 Coeff-Com:  0.149D-03 0.536D-04-0.116D-02-0.571D-02-0.207D-01-0.475D-01
 Coeff-Com: -0.122D+00-0.743D-02 0.546D+00 0.659D+00
 Coeff:      0.149D-03 0.536D-04-0.116D-02-0.571D-02-0.207D-01-0.475D-01
 Coeff:     -0.122D+00-0.743D-02 0.546D+00 0.659D+00
 Gap=     0.139 Goal=   None    Shift=    0.000
 Gap=     0.078 Goal=   None    Shift=    0.000
 RMSDP=7.01D-07 MaxDP=1.25D-04 DE=-4.29D-07 OVMax= 2.73D-04

 Cycle  11  Pass 1  IDiag  1:
 RMSU=  3.47D-07    CP:  9.97D-01  1.18D-01  1.02D+00  6.32D-01  6.96D-01
                    CP:  7.93D-01  1.24D+00  1.52D+00  1.56D+00  8.47D-01
 E= -1471.62230368368     Delta-E=       -0.000000088439 Rises=F Damp=F
 DIIS: error= 3.56D-06 at cycle  11 NSaved=  11.
 NSaved=11 IEnMin=11 EnMin= -1471.62230368368     IErMin=11 ErrMin= 3.56D-06
 ErrMax= 3.56D-06  0.00D+00 EMaxC= 1.00D+00 BMatC= 3.08D-08 BMatP= 1.57D-07
 IDIUse=1 WtCom= 1.00D+00 WtEn= 0.00D+00
 Coeff-Com: -0.224D-04 0.242D-04 0.459D-03 0.667D-03 0.453D-03-0.362D-02
 Coeff-Com: -0.355D-01-0.712D-01 0.241D-01 0.333D+00 0.751D+00
 Coeff:     -0.224D-04 0.242D-04 0.459D-03 0.667D-03 0.453D-03-0.362D-02
 Coeff:     -0.355D-01-0.712D-01 0.241D-01 0.333D+00 0.751D+00
 Gap=     0.139 Goal=   None    Shift=    0.000
 Gap=     0.078 Goal=   None    Shift=    0.000
 RMSDP=3.29D-07 MaxDP=6.41D-05 DE=-8.84D-08 OVMax= 1.02D-04

 Cycle  12  Pass 1  IDiag  1:
 RMSU=  1.76D-07    CP:  9.97D-01  1.18D-01  1.02D+00  6.32D-01  6.96D-01
                    CP:  7.97D-01  1.26D+00  1.57D+00  1.65D+00  1.06D+00
                    CP:  9.81D-01
 E= -1471.62230369863     Delta-E=       -0.000000014946 Rises=F Damp=F
 DIIS: error= 1.61D-06 at cycle  12 NSaved=  12.
 NSaved=12 IEnMin=12 EnMin= -1471.62230369863     IErMin=12 ErrMin= 1.61D-06
 ErrMax= 1.61D-06  0.00D+00 EMaxC= 1.00D+00 BMatC= 8.55D-09 BMatP= 3.08D-08
 IDIUse=1 WtCom= 1.00D+00 WtEn= 0.00D+00
 Coeff-Com: -0.418D-04 0.376D-05 0.506D-03 0.146D-02 0.417D-02 0.707D-02
 Coeff-Com:  0.254D-02-0.379D-01-0.906D-01 0.734D-01 0.448D+00 0.591D+00
 Coeff:     -0.418D-04 0.376D-05 0.506D-03 0.146D-02 0.417D-02 0.707D-02
 Coeff:      0.254D-02-0.379D-01-0.906D-01 0.734D-01 0.448D+00 0.591D+00
 Gap=     0.139 Goal=   None    Shift=    0.000
 Gap=     0.078 Goal=   None    Shift=    0.000
 RMSDP=1.14D-07 MaxDP=1.75D-05 DE=-1.49D-08 OVMax= 2.93D-05

 Cycle  13  Pass 1  IDiag  1:
 RMSU=  7.05D-08    CP:  9.97D-01  1.18D-01  1.02D+00  6.32D-01  6.96D-01
                    CP:  7.97D-01  1.26D+00  1.58D+00  1.67D+00  1.10D+00
                    CP:  1.14D+00  8.40D-01
 E= -1471.62230370184     Delta-E=       -0.000000003209 Rises=F Damp=F
 DIIS: error= 7.56D-07 at cycle  13 NSaved=  13.
 NSaved=13 IEnMin=13 EnMin= -1471.62230370184     IErMin=13 ErrMin= 7.56D-07
 ErrMax= 7.56D-07  0.00D+00 EMaxC= 1.00D+00 BMatC= 8.69D-10 BMatP= 8.55D-09
 IDIUse=1 WtCom= 1.00D+00 WtEn= 0.00D+00
 Coeff-Com: -0.139D-04-0.299D-05 0.126D-03 0.477D-03 0.172D-02 0.373D-02
 Coeff-Com:  0.793D-02-0.251D-02-0.422D-01-0.307D-01 0.401D-01 0.231D+00
 Coeff-Com:  0.790D+00
 Coeff:     -0.139D-04-0.299D-05 0.126D-03 0.477D-03 0.172D-02 0.373D-02
 Coeff:      0.793D-02-0.251D-02-0.422D-01-0.307D-01 0.401D-01 0.231D+00
 Coeff:      0.790D+00
 Gap=     0.139 Goal=   None    Shift=    0.000
 Gap=     0.078 Goal=   None    Shift=    0.000
 RMSDP=5.18D-08 MaxDP=8.06D-06 DE=-3.21D-09 OVMax= 1.43D-05

 Cycle  14  Pass 1  IDiag  1:
 RMSU=  3.34D-08    CP:  9.97D-01  1.18D-01  1.02D+00  6.32D-01  6.96D-01
                    CP:  7.97D-01  1.26D+00  1.58D+00  1.68D+00  1.13D+00
                    CP:  1.21D+00  9.78D-01  9.91D-01
 E= -1471.62230370231     Delta-E=       -0.000000000470 Rises=F Damp=F
 DIIS: error= 4.28D-07 at cycle  14 NSaved=  14.
 NSaved=14 IEnMin=14 EnMin= -1471.62230370231     IErMin=14 ErrMin= 4.28D-07
 ErrMax= 4.28D-07  0.00D+00 EMaxC= 1.00D+00 BMatC= 4.27D-10 BMatP= 8.69D-10
 IDIUse=1 WtCom= 1.00D+00 WtEn= 0.00D+00
 Coeff-Com:  0.789D-06-0.287D-05-0.391D-04-0.429D-04 0.146D-03 0.686D-03
 Coeff-Com:  0.447D-02 0.667D-02-0.582D-02-0.360D-01-0.777D-01 0.734D-02
 Coeff-Com:  0.493D+00 0.607D+00
 Coeff:      0.789D-06-0.287D-05-0.391D-04-0.429D-04 0.146D-03 0.686D-03
 Coeff:      0.447D-02 0.667D-02-0.582D-02-0.360D-01-0.777D-01 0.734D-02
 Coeff:      0.493D+00 0.607D+00
 Gap=     0.139 Goal=   None    Shift=    0.000
 Gap=     0.078 Goal=   None    Shift=    0.000
 RMSDP=2.70D-08 MaxDP=5.00D-06 DE=-4.70D-10 OVMax= 8.56D-06

 Cycle  15  Pass 1  IDiag  1:
 RMSU=  1.56D-08    CP:  9.97D-01  1.18D-01  1.02D+00  6.32D-01  6.96D-01
                    CP:  7.97D-01  1.26D+00  1.58D+00  1.68D+00  1.14D+00
                    CP:  1.23D+00  1.03D+00  1.20D+00  8.11D-01
 E= -1471.62230370248     Delta-E=       -0.000000000166 Rises=F Damp=F
 DIIS: error= 1.59D-07 at cycle  15 NSaved=  15.
 NSaved=15 IEnMin=15 EnMin= -1471.62230370248     IErMin=15 ErrMin= 1.59D-07
 ErrMax= 1.59D-07  0.00D+00 EMaxC= 1.00D+00 BMatC= 4.25D-11 BMatP= 4.27D-10
 IDIUse=1 WtCom= 1.00D+00 WtEn= 0.00D+00
 Coeff-Com:  0.316D-05-0.397D-06-0.409D-04-0.123D-03-0.308D-03-0.604D-03
 Coeff-Com:  0.139D-03 0.304D-02 0.733D-02-0.763D-02-0.396D-01-0.476D-01
 Coeff-Com:  0.229D-01 0.230D+00 0.832D+00
 Coeff:      0.316D-05-0.397D-06-0.409D-04-0.123D-03-0.308D-03-0.604D-03
 Coeff:      0.139D-03 0.304D-02 0.733D-02-0.763D-02-0.396D-01-0.476D-01
 Coeff:      0.229D-01 0.230D+00 0.832D+00
 Gap=     0.139 Goal=   None    Shift=    0.000
 Gap=     0.078 Goal=   None    Shift=    0.000
 RMSDP=1.24D-08 MaxDP=1.54D-06 DE=-1.66D-10 OVMax= 3.74D-06

 Cycle  16  Pass 1  IDiag  1:
 RMSU=  6.80D-09    CP:  9.97D-01  1.18D-01  1.02D+00  6.32D-01  6.96D-01
                    CP:  7.97D-01  1.26D+00  1.58D+00  1.69D+00  1.14D+00
                    CP:  1.24D+00  1.05D+00  1.27D+00  1.01D+00  1.08D+00
 E= -1471.62230370247     Delta-E=        0.000000000007 Rises=F Damp=F
 DIIS: error= 6.81D-08 at cycle  16 NSaved=  16.
 NSaved=16 IEnMin=15 EnMin= -1471.62230370248     IErMin=16 ErrMin= 6.81D-08
 ErrMax= 6.81D-08  0.00D+00 EMaxC= 1.00D+00 BMatC= 1.38D-11 BMatP= 4.25D-11
 IDIUse=1 WtCom= 1.00D+00 WtEn= 0.00D+00
 Coeff-Com:  0.151D-05 0.300D-06-0.151D-04-0.586D-04-0.181D-03-0.440D-03
 Coeff-Com: -0.595D-03 0.457D-03 0.472D-02 0.151D-02-0.814D-02-0.253D-01
 Coeff-Com: -0.655D-01 0.176D-01 0.430D+00 0.646D+00
 Coeff:      0.151D-05 0.300D-06-0.151D-04-0.586D-04-0.181D-03-0.440D-03
 Coeff:     -0.595D-03 0.457D-03 0.472D-02 0.151D-02-0.814D-02-0.253D-01
 Coeff:     -0.655D-01 0.176D-01 0.430D+00 0.646D+00
 Gap=     0.139 Goal=   None    Shift=    0.000
 Gap=     0.078 Goal=   None    Shift=    0.000
 RMSDP=5.50D-09 MaxDP=6.11D-07 DE= 7.28D-12 OVMax= 1.36D-06

 Error on total polarization charges =  0.04384
 SCF Done:  E(UB3LYP) =  -1471.62230370     A.U. after   16 cycles
            NFock= 16  Conv=0.55D-08     -V/T= 2.0096
 <Sx>= 0.0000 <Sy>= 0.0000 <Sz>= 0.5000 <S**2>= 0.7735 S= 0.5117
 <L.S>= 0.000000000000E+00
 KE= 1.457636371205D+03 PE=-1.011501683167D+04 EE= 3.821754530699D+03
 Annihilation of the first spin contaminant:
 S**2 before annihilation     0.7735,   after     0.7504
 Leave Link  502 at Tue Dec 18 14:04:04 2018, MaxMem=  1342177280 cpu:            4967.7 elap:             315.3
 (Enter /gpfs/apps/hpc/Apps/Restricted/Gaussian/Rev_A.03/g16/l801.exe)
 DoSCS=F DFT=T ScalE2(SS,OS)=  1.000000  1.000000
 Range of M.O.s used for correlation:     1   670
 NBasis=   670 NAE=   123 NBE=   122 NFC=     0 NFV=     0
 NROrb=    670 NOA=   123 NOB=   122 NVA=   547 NVB=   548

 **** Warning!!: The largest alpha MO coefficient is  0.10109441D+02


 **** Warning!!: The largest beta MO coefficient is  0.10161935D+02


 **** Warning!!: The smallest beta delta epsilon is  0.78139901D-01

 Leave Link  801 at Tue Dec 18 14:04:04 2018, MaxMem=  1342177280 cpu:               1.9 elap:               0.1
 (Enter /gpfs/apps/hpc/Apps/Restricted/Gaussian/Rev_A.03/g16/l1101.exe)
 Using compressed storage, NAtomX=    64.
 Will process     65 centers per pass.
 R6Disp: Adding Grimme-D3(BJ) dispersion energy 1st derivatives to the gradient.
 Leave Link 1101 at Tue Dec 18 14:04:06 2018, MaxMem=  1342177280 cpu:              21.9 elap:               1.4
 (Enter /gpfs/apps/hpc/Apps/Restricted/Gaussian/Rev_A.03/g16/l1102.exe)
 Symmetrizing basis deriv contribution to polar:
 IMax=3 JMax=2 DiffMx= 0.00D+00
 Leave Link 1102 at Tue Dec 18 14:04:06 2018, MaxMem=  1342177280 cpu:               1.2 elap:               0.1
 (Enter /gpfs/apps/hpc/Apps/Restricted/Gaussian/Rev_A.03/g16/l1110.exe)
 Forming Gx(P) for the SCF density, NAtomX=    64.
 Integral derivatives from FoFJK, PRISM(SPDF).
 Do as many integral derivatives as possible in FoFJK.
 G2DrvN: MDV=    1342172536.
 G2DrvN: will do    33 centers at a time, making    2 passes.
 G2DrvN:  IPasSy=1 do centers    0 through   32.
 Calling FoFCou, ICntrl=  3107 FMM=T I1Cent=   0 AccDes= 0.00D+00.
 FoFJK:  IHMeth= 1 ICntrl=    3107 DoSepK=F KAlg= 0 I1Cent=           0 FoldK=F
 IRaf=         0 NMat=       1 IRICut=       1 DoRegI=T DoRafI=F ISym2E= 0 IDoP0=0 IntGTp=1.
 FoFCou: FMM=T IPFlag=           0 FMFlag=      100000 FMFlg1=        2001
         NFxFlg=           0 DoJE=F BraDBF=F KetDBF=F FulRan=T
         wScrn=  0.000000 ICntrl=      3107 IOpCl=  1 I1Cent=           0 NGrid=           0
         NMat0=    1 NMatS0=      1 NMatT0=    0 NMatD0=    1 NMtDS0=    0 NMtDT0=    0
 Symmetry not used in FoFCou.
 FMM levels:  10  Number of levels for PrismC:   9
 G2DrvN:  IPasSy=1 do centers   33 through   64.
 Calling FoFCou, ICntrl=  3107 FMM=T I1Cent=   0 AccDes= 0.00D+00.
 NEqPCM:  Using equilibrium solvation (IEInf=0, Eps=   8.9300, EpsInf=   2.0283)
 G2PCM: DoFxE=T DoFxN=T DoGrad=T DoDP/DQ/DG/TGxP=FFFF NFrqRd=   0 IEInf=0 SqF1=F DoCFld=F IF1Alg=4.
 GePol: Maximum number of non-zero 1st derivatives   =     222
 End of G2Drv F.D. properties file   721 does not exist.
 End of G2Drv F.D. properties file   722 does not exist.
 End of G2Drv F.D. properties file   788 does not exist.
 Leave Link 1110 at Tue Dec 18 14:27:54 2018, MaxMem=  1342177280 cpu:           22792.7 elap:            1428.5
 (Enter /gpfs/apps/hpc/Apps/Restricted/Gaussian/Rev_A.03/g16/l1002.exe)
 Minotr:  UHF open shell wavefunction.
          IDoAtm=11111111111111111111111111111111111111111111111111
          IDoAtm=11111111111111
 NEqPCM:  Using equilibrium solvation (IEInf=0, Eps=   8.9300, EpsInf=   2.0283)
          Direct CPHF calculation.
          Differentiating once with respect to electric field.
                with respect to dipole field.
          Differentiating once with respect to nuclear coordinates.
          Requested convergence is 1.0D-08 RMS, and 1.0D-07 maximum.
          Secondary convergence is 1.0D-12 RMS, and 1.0D-12 maximum.
          NewPWx=T KeepS1=F KeepF1=F KeepIn=T MapXYZ=F SortEE=F KeepMc=T.
        29328 words used for storage of precomputed grid.
 Two-electron integral symmetry not used.
          MDV=    1342177280 using IRadAn=       4.
          Solving linear equations simultaneously, MaxMat=      72.
 FoF2E skips out because all densities are zero.
 CalDSu exits because no D1Ps are significant.
 FoFJK:  IHMeth= 1 ICntrl=       0 DoSepK=F KAlg= 0 I1Cent=           0 FoldK=F
 IRaf= 620000000 NMat=      72 IRICut=       1 DoRegI=T DoRafI=F ISym2E= 0 IDoP0=0 IntGTp=1.
