 Entering Gaussian System, Link 0=g16
 Input=cyclohexyl-triBIP-E4PT.com
 Output=cyclohexyl-triBIP-E4PT.log
 Initial command:
 /gpfs/apps/hpc/Apps/Restricted/Gaussian/Rev_A.03/g16/l1.exe "/gpfs/scratch60/fas/hammes_schiffer/jg2487/c38n02/Gau-104785.inp" -scrdir="/gpfs/scratch60/fas/hammes_schiffer/jg2487/c38n02/"
 Entering Link 1 = /gpfs/apps/hpc/Apps/Restricted/Gaussian/Rev_A.03/g16/l1.exe PID=    104786.
  
 Copyright (c) 1988,1990,1992,1993,1995,1998,2003,2009,2016,
            Gaussian, Inc.  All Rights Reserved.
  
 This is part of the Gaussian(R) 16 program.  It is based on
 the Gaussian(R) 09 system (copyright 2009, Gaussian, Inc.),
 the Gaussian(R) 03 system (copyright 2003, Gaussian, Inc.),
 the Gaussian(R) 98 system (copyright 1998, Gaussian, Inc.),
 the Gaussian(R) 94 system (copyright 1995, Gaussian, Inc.),
 the Gaussian 92(TM) system (copyright 1992, Gaussian, Inc.),
 the Gaussian 90(TM) system (copyright 1990, Gaussian, Inc.),
 the Gaussian 88(TM) system (copyright 1988, Gaussian, Inc.),
 the Gaussian 86(TM) system (copyright 1986, Carnegie Mellon
 University), and the Gaussian 82(TM) system (copyright 1983,
 Carnegie Mellon University). Gaussian is a federally registered
 trademark of Gaussian, Inc.
  
 This software contains proprietary and confidential information,
 including trade secrets, belonging to Gaussian, Inc.
  
 This software is provided under written license and may be
 used, copied, transmitted, or stored only in accord with that
 written license.
  
 The following legend is applicable only to US Government
 contracts under FAR:
  
                    RESTRICTED RIGHTS LEGEND
  
 Use, reproduction and disclosure by the US Government is
 subject to restrictions as set forth in subparagraphs (a)
 and (c) of the Commercial Computer Software - Restricted
 Rights clause in FAR 52.227-19.
  
 Gaussian, Inc.
 340 Quinnipiac St., Bldg. 40, Wallingford CT 06492
  
  
 ---------------------------------------------------------------
 Warning -- This program may not be used in any manner that
 competes with the business of Gaussian, Inc. or will provide
 assistance to any competitor of Gaussian, Inc.  The licensee
 of this program is prohibited from giving any competitor of
 Gaussian, Inc. access to this program.  By using this program,
 the user acknowledges that Gaussian, Inc. is engaged in the
 business of creating and licensing software in the field of
 computational chemistry and represents and warrants to the
 licensee that it is not a competitor of Gaussian, Inc. and that
 it will not use this program in any manner prohibited above.
 ---------------------------------------------------------------
  

 Cite this work as:
 Gaussian 16, Revision A.03,
 M. J. Frisch, G. W. Trucks, H. B. Schlegel, G. E. Scuseria, 
 M. A. Robb, J. R. Cheeseman, G. Scalmani, V. Barone, 
 G. A. Petersson, H. Nakatsuji, X. Li, M. Caricato, A. V. Marenich, 
 J. Bloino, B. G. Janesko, R. Gomperts, B. Mennucci, H. P. Hratchian, 
 J. V. Ortiz, A. F. Izmaylov, J. L. Sonnenberg, D. Williams-Young, 
 F. Ding, F. Lipparini, F. Egidi, J. Goings, B. Peng, A. Petrone, 
 T. Henderson, D. Ranasinghe, V. G. Zakrzewski, J. Gao, N. Rega, 
 G. Zheng, W. Liang, M. Hada, M. Ehara, K. Toyota, R. Fukuda, 
 J. Hasegawa, M. Ishida, T. Nakajima, Y. Honda, O. Kitao, H. Nakai, 
 T. Vreven, K. Throssell, J. A. Montgomery, Jr., J. E. Peralta, 
 F. Ogliaro, M. J. Bearpark, J. J. Heyd, E. N. Brothers, K. N. Kudin, 
 V. N. Staroverov, T. A. Keith, R. Kobayashi, J. Normand, 
 K. Raghavachari, A. P. Rendell, J. C. Burant, S. S. Iyengar, 
 J. Tomasi, M. Cossi, J. M. Millam, M. Klene, C. Adamo, R. Cammi, 
 J. W. Ochterski, R. L. Martin, K. Morokuma, O. Farkas, 
 J. B. Foresman, and D. J. Fox, Gaussian, Inc., Wallingford CT, 2016.
 
 ******************************************
 Gaussian 16:  ES64L-G16RevA.03 25-Dec-2016
                22-Dec-2018 
 ******************************************
 %chk=cyclohexyl-triBIP-E4PT.chk
 %mem=10GB
 %nprocshared=16
 Will use up to   16 processors via shared memory.
 ----------------------------------------------------------------
 #p freq(ReadFC,InternalModes) Geom(AllCheck) NoSymm scale=0.9631
 ----------------------------------------------------------------
 1/18=20,29=7,38=1,114=963100/1,3;
 2/9=110,12=2,15=1,40=1/2;
 7/8=21,25=11,30=1/16;
 99/5=2/99;
 Leave Link    1 at Sat Dec 22 11:14:25 2018, MaxMem=  1342177280 cpu:              10.3 elap:               0.7
 (Enter /gpfs/apps/hpc/Apps/Restricted/Gaussian/Rev_A.03/g16/l101.exe)
 Structure from the checkpoint file:  "cyclohexyl-triBIP-E4PT.chk"
 ---------------------------------------------------------------------
 cyclohexylimine triBIP oxidized, all protons transferred optimization
 ---------------------------------------------------------------------
 Charge =  1 Multiplicity = 2
 Redundant internal coordinates found in file.  (old form).
 C,0,1.604844,0.342192,1.143316
 C,0,0.532362,1.214834,0.830867
 C,0,0.703427,2.590103,0.690696
 C,0,1.995276,3.087488,0.871799
 C,0,3.072571,2.246059,1.181922
 C,0,2.90449,0.862822,1.323041
 C,0,-0.15302,-0.893168,0.964898
 H,0,-0.127128,3.241678,0.4492
 H,0,2.171002,4.151587,0.769096
 H,0,4.063571,2.661969,1.313863
 C,0,-2.45256,-1.800755,0.626472
 C,0,-3.346813,-2.903666,0.591933
 C,0,-2.932565,-4.21171,0.843294
 C,0,-1.582927,-4.393911,1.137545
 C,0,-0.677271,-3.319364,1.175072
 C,0,-1.085682,-2.006655,0.927679
 C,0,-4.394612,-1.002596,0.123099
 H,0,-3.625716,-5.042896,0.812812
 H,0,-1.21525,-5.392741,1.339843
 H,0,0.36528,-3.502932,1.401743
 N,0,-0.566337,0.391091,0.729067
 C,0,-6.822926,-0.611006,-0.478253
 C,0,-5.468898,-0.097712,-0.2322
 C,0,-5.199856,1.260589,-0.341423
 C,0,-6.197082,2.172494,-0.69728
 C,0,-7.507509,1.67969,-0.955856
 C,0,-7.857801,0.35473,-0.867917
 H,0,-4.191491,1.596592,-0.145931
 H,0,-8.262195,2.399393,-1.239901
 C,0,-5.934537,3.669095,-0.819181
 C,0,-9.272198,-0.134051,-1.175052
 O,0,-7.074293,-1.840216,-0.361922
 N,0,-3.123466,-0.636554,0.334467
 N,0,-4.56333,-2.353152,0.271485
 N,0,1.154485,-0.96128,1.220378
 C,0,4.016652,-0.010783,1.640127
 N,0,3.858344,-1.364953,1.743326
 N,0,5.28492,0.363604,1.858379
 C,0,7.330595,-0.998773,2.407874
 C,0,7.769664,-2.320286,2.614394
 C,0,6.885358,-3.399416,2.540184
 C,0,5.527168,-3.216551,2.251387
 C,0,5.08627,-1.913868,2.042226
 C,0,5.962174,-0.802679,2.109382
 H,0,8.81544,-2.495229,2.838255
 H,0,7.259304,-4.401487,2.708227
 H,0,4.84818,-4.058293,2.196119
 C,0,8.244206,0.098278,2.507746
 H,0,9.284985,-0.098539,2.737241
 N,0,7.877901,1.33346,2.346072
 C,0,8.722076,2.534033,2.434866
 C,0,10.191668,2.225119,2.705817
 C,0,8.543776,3.364325,1.156961
 H,0,8.320742,3.110005,3.276647
 C,0,10.986705,3.533889,2.80917
 H,0,10.590503,1.617522,1.884335
 H,0,10.296919,1.647068,3.62865
 C,0,9.339986,4.669398,1.260983
 H,0,8.900378,2.773708,0.306185
 H,0,7.480873,3.568555,0.99606
 C,0,10.819358,4.394506,1.552111
 H,0,12.041962,3.303938,2.978772
 H,0,10.638626,4.094908,3.684367
 H,0,9.22981,5.238573,0.333939
 H,0,8.918458,5.283668,2.065724
 H,0,11.363823,5.336438,1.665915
 H,0,11.261917,3.869178,0.697063
 H,0,6.882607,1.479253,2.125144
 H,0,2.951443,-1.814538,1.613233
 H,0,-1.535219,0.619805,0.512439
 H,0,-5.472586,-2.784224,0.135154
 C,0,-9.222821,-1.135623,-2.351643
 H,0,-8.637116,-2.01534,-2.08896
 H,0,-10.238684,-1.451451,-2.60593
 H,0,-8.779722,-0.667146,-3.234709
 C,0,-6.243692,4.112844,-2.266081
 H,0,-7.277642,3.895225,-2.542983
 H,0,-6.088388,5.190868,-2.360042
 H,0,-5.584515,3.6076,-2.976145
 C,0,-10.199857,1.023152,-1.574367
 H,0,-10.297025,1.762136,-0.773983
 H,0,-9.848782,1.536759,-2.473296
 H,0,-11.194084,0.622529,-1.783322
 C,0,-9.87525,-0.817127,0.07239
 H,0,-9.280519,-1.67704,0.376339
 H,0,-9.926793,-0.11351,0.907691
 H,0,-10.891942,-1.151921,-0.151907
 C,0,-6.865428,4.42408,0.155179
 H,0,-6.704131,5.50061,0.05379
 H,0,-7.918478,4.220657,-0.050627
 H,0,-6.656813,4.140181,1.189476
 C,0,-4.481145,4.03559,-0.488424
 H,0,-4.221109,3.757044,0.536099
 H,0,-3.777356,3.547957,-1.167917
 H,0,-4.350227,5.115435,-0.58823
 Recover connectivity data from disk.
 ITRead=  0  0  0  0  0  0  0  0  0  0  0  0  0  0  0  0  0  0  0  0
 ITRead=  0  0  0  0  0  0  0  0  0  0  0  0  0  0  0  0  0  0  0  0
 ITRead=  0  0  0  0  0  0  0  0  0  0  0  0  0  0  0  0  0  0  0  0
 ITRead=  0  0  0  0  0  0  0  0  0  0  0  0  0  0  0  0  0  0  0  0
 ITRead=  0  0  0  0  0  0  0  0  0  0  0  0  0  0  0
 MicOpt= -1 -1 -1 -1 -1 -1 -1 -1 -1 -1 -1 -1 -1 -1 -1 -1 -1 -1 -1 -1
 MicOpt= -1 -1 -1 -1 -1 -1 -1 -1 -1 -1 -1 -1 -1 -1 -1 -1 -1 -1 -1 -1
 MicOpt= -1 -1 -1 -1 -1 -1 -1 -1 -1 -1 -1 -1 -1 -1 -1 -1 -1 -1 -1 -1
 MicOpt= -1 -1 -1 -1 -1 -1 -1 -1 -1 -1 -1 -1 -1 -1 -1 -1 -1 -1 -1 -1
 MicOpt= -1 -1 -1 -1 -1 -1 -1 -1 -1 -1 -1 -1 -1 -1 -1
 NAtoms=     95 NQM=       95 NQMF=       0 NMMI=      0 NMMIF=      0
                NMic=       0 NMicF=      0.
                    Isotopes and Nuclear Properties:
 (Nuclear quadrupole moments (NQMom) in fm**2, nuclear magnetic moments (NMagM)
  in nuclear magnetons)

  Atom         1           2           3           4           5           6           7           8           9          10
 IAtWgt=          12          12          12          12          12          12          12           1           1           1
 AtmWgt=  12.0000000  12.0000000  12.0000000  12.0000000  12.0000000  12.0000000  12.0000000   1.0078250   1.0078250   1.0078250
 NucSpn=           0           0           0           0           0           0           0           1           1           1
 AtZEff=   3.6000000   3.6000000   3.6000000   3.6000000   3.6000000   3.6000000   3.6000000   1.0000000   1.0000000   1.0000000
 NQMom=    0.0000000   0.0000000   0.0000000   0.0000000   0.0000000   0.0000000   0.0000000   0.0000000   0.0000000   0.0000000
 NMagM=    0.0000000   0.0000000   0.0000000   0.0000000   0.0000000   0.0000000   0.0000000   2.7928460   2.7928460   2.7928460
 AtZNuc=   6.0000000   6.0000000   6.0000000   6.0000000   6.0000000   6.0000000   6.0000000   1.0000000   1.0000000   1.0000000

  Atom        11          12          13          14          15          16          17          18          19          20
 IAtWgt=          12          12          12          12          12          12          12           1           1           1
 AtmWgt=  12.0000000  12.0000000  12.0000000  12.0000000  12.0000000  12.0000000  12.0000000   1.0078250   1.0078250   1.0078250
 NucSpn=           0           0           0           0           0           0           0           1           1           1
 AtZEff=   3.6000000   3.6000000   3.6000000   3.6000000   3.6000000   3.6000000   3.6000000   1.0000000   1.0000000   1.0000000
 NQMom=    0.0000000   0.0000000   0.0000000   0.0000000   0.0000000   0.0000000   0.0000000   0.0000000   0.0000000   0.0000000
 NMagM=    0.0000000   0.0000000   0.0000000   0.0000000   0.0000000   0.0000000   0.0000000   2.7928460   2.7928460   2.7928460
 AtZNuc=   6.0000000   6.0000000   6.0000000   6.0000000   6.0000000   6.0000000   6.0000000   1.0000000   1.0000000   1.0000000

  Atom        21          22          23          24          25          26          27          28          29          30
 IAtWgt=          14          12          12          12          12          12          12           1           1          12
 AtmWgt=  14.0030740  12.0000000  12.0000000  12.0000000  12.0000000  12.0000000  12.0000000   1.0078250   1.0078250  12.0000000
 NucSpn=           2           0           0           0           0           0           0           1           1           0
 AtZEff=   4.5500000   3.6000000   3.6000000   3.6000000   3.6000000   3.6000000   3.6000000   1.0000000   1.0000000   3.6000000
 NQMom=    2.0440000   0.0000000   0.0000000   0.0000000   0.0000000   0.0000000   0.0000000   0.0000000   0.0000000   0.0000000
 NMagM=    0.4037610   0.0000000   0.0000000   0.0000000   0.0000000   0.0000000   0.0000000   2.7928460   2.7928460   0.0000000
 AtZNuc=   7.0000000   6.0000000   6.0000000   6.0000000   6.0000000   6.0000000   6.0000000   1.0000000   1.0000000   6.0000000

  Atom        31          32          33          34          35          36          37          38          39          40
 IAtWgt=          12          16          14          14          14          12          14          14          12          12
 AtmWgt=  12.0000000  15.9949146  14.0030740  14.0030740  14.0030740  12.0000000  14.0030740  14.0030740  12.0000000  12.0000000
 NucSpn=           0           0           2           2           2           0           2           2           0           0
 AtZEff=   3.6000000   5.6000000   4.5500000   4.5500000   4.5500000   3.6000000   4.5500000   4.5500000   3.6000000   3.6000000
 NQMom=    0.0000000   0.0000000   2.0440000   2.0440000   2.0440000   0.0000000   2.0440000   2.0440000   0.0000000   0.0000000
 NMagM=    0.0000000   0.0000000   0.4037610   0.4037610   0.4037610   0.0000000   0.4037610   0.4037610   0.0000000   0.0000000
 AtZNuc=   6.0000000   8.0000000   7.0000000   7.0000000   7.0000000   6.0000000   7.0000000   7.0000000   6.0000000   6.0000000

  Atom        41          42          43          44          45          46          47          48          49          50
 IAtWgt=          12          12          12          12           1           1           1          12           1          14
 AtmWgt=  12.0000000  12.0000000  12.0000000  12.0000000   1.0078250   1.0078250   1.0078250  12.0000000   1.0078250  14.0030740
 NucSpn=           0           0           0           0           1           1           1           0           1           2
 AtZEff=   3.6000000   3.6000000   3.6000000   3.6000000   1.0000000   1.0000000   1.0000000   3.6000000   1.0000000   4.5500000
 NQMom=    0.0000000   0.0000000   0.0000000   0.0000000   0.0000000   0.0000000   0.0000000   0.0000000   0.0000000   2.0440000
 NMagM=    0.0000000   0.0000000   0.0000000   0.0000000   2.7928460   2.7928460   2.7928460   0.0000000   2.7928460   0.4037610
 AtZNuc=   6.0000000   6.0000000   6.0000000   6.0000000   1.0000000   1.0000000   1.0000000   6.0000000   1.0000000   7.0000000

  Atom        51          52          53          54          55          56          57          58          59          60
 IAtWgt=          12          12          12           1          12           1           1          12           1           1
 AtmWgt=  12.0000000  12.0000000  12.0000000   1.0078250  12.0000000   1.0078250   1.0078250  12.0000000   1.0078250   1.0078250
 NucSpn=           0           0           0           1           0           1           1           0           1           1
 AtZEff=   3.6000000   3.6000000   3.6000000   1.0000000   3.6000000   1.0000000   1.0000000   3.6000000   1.0000000   1.0000000
 NQMom=    0.0000000   0.0000000   0.0000000   0.0000000   0.0000000   0.0000000   0.0000000   0.0000000   0.0000000   0.0000000
 NMagM=    0.0000000   0.0000000   0.0000000   2.7928460   0.0000000   2.7928460   2.7928460   0.0000000   2.7928460   2.7928460
 AtZNuc=   6.0000000   6.0000000   6.0000000   1.0000000   6.0000000   1.0000000   1.0000000   6.0000000   1.0000000   1.0000000

  Atom        61          62          63          64          65          66          67          68          69          70
 IAtWgt=          12           1           1           1           1           1           1           1           1           1
 AtmWgt=  12.0000000   1.0078250   1.0078250   1.0078250   1.0078250   1.0078250   1.0078250   1.0078250   1.0078250   1.0078250
 NucSpn=           0           1           1           1           1           1           1           1           1           1
 AtZEff=   3.6000000   1.0000000   1.0000000   1.0000000   1.0000000   1.0000000   1.0000000   1.0000000   1.0000000   1.0000000
 NQMom=    0.0000000   0.0000000   0.0000000   0.0000000   0.0000000   0.0000000   0.0000000   0.0000000   0.0000000   0.0000000
 NMagM=    0.0000000   2.7928460   2.7928460   2.7928460   2.7928460   2.7928460   2.7928460   2.7928460   2.7928460   2.7928460
 AtZNuc=   6.0000000   1.0000000   1.0000000   1.0000000   1.0000000   1.0000000   1.0000000   1.0000000   1.0000000   1.0000000

  Atom        71          72          73          74          75          76          77          78          79          80
 IAtWgt=           1          12           1           1           1          12           1           1           1          12
 AtmWgt=   1.0078250  12.0000000   1.0078250   1.0078250   1.0078250  12.0000000   1.0078250   1.0078250   1.0078250  12.0000000
 NucSpn=           1           0           1           1           1           0           1           1           1           0
 AtZEff=   1.0000000   3.6000000   1.0000000   1.0000000   1.0000000   3.6000000   1.0000000   1.0000000   1.0000000   3.6000000
 NQMom=    0.0000000   0.0000000   0.0000000   0.0000000   0.0000000   0.0000000   0.0000000   0.0000000   0.0000000   0.0000000
 NMagM=    2.7928460   0.0000000   2.7928460   2.7928460   2.7928460   0.0000000   2.7928460   2.7928460   2.7928460   0.0000000
 AtZNuc=   1.0000000   6.0000000   1.0000000   1.0000000   1.0000000   6.0000000   1.0000000   1.0000000   1.0000000   6.0000000

  Atom        81          82          83          84          85          86          87          88          89          90
 IAtWgt=           1           1           1          12           1           1           1          12           1           1
 AtmWgt=   1.0078250   1.0078250   1.0078250  12.0000000   1.0078250   1.0078250   1.0078250  12.0000000   1.0078250   1.0078250
 NucSpn=           1           1           1           0           1           1           1           0           1           1
 AtZEff=   1.0000000   1.0000000   1.0000000   3.6000000   1.0000000   1.0000000   1.0000000   3.6000000   1.0000000   1.0000000
 NQMom=    0.0000000   0.0000000   0.0000000   0.0000000   0.0000000   0.0000000   0.0000000   0.0000000   0.0000000   0.0000000
 NMagM=    2.7928460   2.7928460   2.7928460   0.0000000   2.7928460   2.7928460   2.7928460   0.0000000   2.7928460   2.7928460
 AtZNuc=   1.0000000   1.0000000   1.0000000   6.0000000   1.0000000   1.0000000   1.0000000   6.0000000   1.0000000   1.0000000

  Atom        91          92          93          94          95
 IAtWgt=           1          12           1           1           1
 AtmWgt=   1.0078250  12.0000000   1.0078250   1.0078250   1.0078250
 NucSpn=           1           0           1           1           1
 AtZEff=   1.0000000   3.6000000   1.0000000   1.0000000   1.0000000
 NQMom=    0.0000000   0.0000000   0.0000000   0.0000000   0.0000000
 NMagM=    2.7928460   0.0000000   2.7928460   2.7928460   2.7928460
 AtZNuc=   1.0000000   6.0000000   1.0000000   1.0000000   1.0000000
 Leave Link  101 at Sat Dec 22 11:14:26 2018, MaxMem=  1342177280 cpu:               4.4 elap:               0.3
 (Enter /gpfs/apps/hpc/Apps/Restricted/Gaussian/Rev_A.03/g16/l103.exe)

 GradGradGradGradGradGradGradGradGradGradGradGradGradGradGradGradGradGrad
 Berny optimization.
 Initialization pass.
                           ----------------------------
                           !    Initial Parameters    !
                           ! (Angstroms and Degrees)  !
 --------------------------                            --------------------------
 ! Name  Definition              Value          Derivative Info.                !
 --------------------------------------------------------------------------------
 ! R1    R(1,2)                  1.4175         estimate D2E/DX2                !
 ! R2    R(1,6)                  1.4115         estimate D2E/DX2                !
 ! R3    R(1,35)                 1.3812         estimate D2E/DX2                !
 ! R4    R(2,3)                  1.3929         estimate D2E/DX2                !
 ! R5    R(2,21)                 1.377          estimate D2E/DX2                !
 ! R6    R(3,4)                  1.3961         estimate D2E/DX2                !
 ! R7    R(3,8)                  1.0829         estimate D2E/DX2                !
 ! R8    R(4,5)                  1.4017         estimate D2E/DX2                !
 ! R9    R(4,9)                  1.0834         estimate D2E/DX2                !
 ! R10   R(5,6)                  1.4005         estimate D2E/DX2                !
 ! R11   R(5,10)                 1.0828         estimate D2E/DX2                !
 ! R12   R(6,36)                 1.4494         estimate D2E/DX2                !
 ! R13   R(7,16)                 1.453          estimate D2E/DX2                !
 ! R14   R(7,21)                 1.3696         estimate D2E/DX2                !
 ! R15   R(7,35)                 1.334          estimate D2E/DX2                !
 ! R16   R(11,12)                1.4203         estimate D2E/DX2                !
 ! R17   R(11,16)                1.4147         estimate D2E/DX2                !
 ! R18   R(11,33)                1.375          estimate D2E/DX2                !
 ! R19   R(12,13)                1.3949         estimate D2E/DX2                !
 ! R20   R(12,34)                1.3732         estimate D2E/DX2                !
 ! R21   R(13,14)                1.3933         estimate D2E/DX2                !
 ! R22   R(13,18)                1.0827         estimate D2E/DX2                !
 ! R23   R(14,15)                1.4058         estimate D2E/DX2                !
 ! R24   R(14,19)                1.0834         estimate D2E/DX2                !
 ! R25   R(15,16)                1.3969         estimate D2E/DX2                !
 ! R26   R(15,20)                1.0826         estimate D2E/DX2                !
 ! R27   R(17,23)                1.4488         estimate D2E/DX2                !
 ! R28   R(17,33)                1.3396         estimate D2E/DX2                !
 ! R29   R(17,34)                1.3691         estimate D2E/DX2                !
 ! R30   R(21,70)                1.0188         estimate D2E/DX2                !
 ! R31   R(22,23)                1.4688         estimate D2E/DX2                !
 ! R32   R(22,27)                1.4681         estimate D2E/DX2                !
 ! R33   R(22,32)                1.26           estimate D2E/DX2                !
 ! R34   R(23,24)                1.389          estimate D2E/DX2                !
 ! R35   R(24,25)                1.3974         estimate D2E/DX2                !
 ! R36   R(24,28)                1.0807         estimate D2E/DX2                !
 ! R37   R(25,26)                1.4237         estimate D2E/DX2                !
 ! R38   R(25,30)                1.5243         estimate D2E/DX2                !
 ! R39   R(26,27)                1.3733         estimate D2E/DX2                !
 ! R40   R(26,29)                1.0808         estimate D2E/DX2                !
 ! R41   R(27,31)                1.5277         estimate D2E/DX2                !
 ! R42   R(30,76)                1.5447         estimate D2E/DX2                !
 ! R43   R(30,88)                1.5446         estimate D2E/DX2                !
 ! R44   R(30,92)                1.5349         estimate D2E/DX2                !
 ! R45   R(31,72)                1.5459         estimate D2E/DX2                !
 ! R46   R(31,80)                1.5359         estimate D2E/DX2                !
 ! R47   R(31,84)                1.5448         estimate D2E/DX2                !
 ! R48   R(34,71)                1.0155         estimate D2E/DX2                !
 ! R49   R(36,37)                1.3673         estimate D2E/DX2                !
 ! R50   R(36,38)                1.3403         estimate D2E/DX2                !
 ! R51   R(37,43)                1.3778         estimate D2E/DX2                !
 ! R52   R(37,69)                1.0205         estimate D2E/DX2                !
 ! R53   R(38,44)                1.3718         estimate D2E/DX2                !
 ! R54   R(39,40)                1.4078         estimate D2E/DX2                !
 ! R55   R(39,44)                1.4143         estimate D2E/DX2                !
 ! R56   R(39,48)                1.4311         estimate D2E/DX2                !
 ! R57   R(40,41)                1.3971         estimate D2E/DX2                !
 ! R58   R(40,45)                1.0837         estimate D2E/DX2                !
 ! R59   R(41,42)                1.4005         estimate D2E/DX2                !
 ! R60   R(41,46)                1.0827         estimate D2E/DX2                !
 ! R61   R(42,43)                1.3911         estimate D2E/DX2                !
 ! R62   R(42,47)                1.0829         estimate D2E/DX2                !
 ! R63   R(43,44)                1.4165         estimate D2E/DX2                !
 ! R64   R(48,49)                1.0838         estimate D2E/DX2                !
 ! R65   R(48,50)                1.2985         estimate D2E/DX2                !
 ! R66   R(50,51)                1.4703         estimate D2E/DX2                !
 ! R67   R(50,68)                1.0299         estimate D2E/DX2                !
 ! R68   R(51,52)                1.526          estimate D2E/DX2                !
 ! R69   R(51,53)                1.5343         estimate D2E/DX2                !
 ! R70   R(51,54)                1.0961         estimate D2E/DX2                !
 ! R71   R(52,55)                1.5348         estimate D2E/DX2                !
 ! R72   R(52,56)                1.0968         estimate D2E/DX2                !
 ! R73   R(52,57)                1.094          estimate D2E/DX2                !
 ! R74   R(53,58)                1.5323         estimate D2E/DX2                !
 ! R75   R(53,59)                1.0954         estimate D2E/DX2                !
 ! R76   R(53,60)                1.0942         estimate D2E/DX2                !
 ! R77   R(55,61)                1.5326         estimate D2E/DX2                !
 ! R78   R(55,62)                1.0933         estimate D2E/DX2                !
 ! R79   R(55,63)                1.0963         estimate D2E/DX2                !
 ! R80   R(58,61)                1.5326         estimate D2E/DX2                !
 ! R81   R(58,64)                1.0934         estimate D2E/DX2                !
 ! R82   R(58,65)                1.0966         estimate D2E/DX2                !
 ! R83   R(61,66)                1.0939         estimate D2E/DX2                !
 ! R84   R(61,67)                1.0968         estimate D2E/DX2                !
 ! R85   R(72,73)                1.089          estimate D2E/DX2                !
 ! R86   R(72,74)                1.0938         estimate D2E/DX2                !
 ! R87   R(72,75)                1.0934         estimate D2E/DX2                !
 ! R88   R(76,77)                1.0923         estimate D2E/DX2                !
 ! R89   R(76,78)                1.0932         estimate D2E/DX2                !
 ! R90   R(76,79)                1.0927         estimate D2E/DX2                !
 ! R91   R(80,81)                1.0937         estimate D2E/DX2                !
 ! R92   R(80,82)                1.0932         estimate D2E/DX2                !
 ! R93   R(80,83)                1.0921         estimate D2E/DX2                !
 ! R94   R(84,85)                1.0888         estimate D2E/DX2                !
 ! R95   R(84,86)                1.0934         estimate D2E/DX2                !
 ! R96   R(84,87)                1.0936         estimate D2E/DX2                !
 ! R97   R(88,89)                1.0933         estimate D2E/DX2                !
 ! R98   R(88,90)                1.0921         estimate D2E/DX2                !
 ! R99   R(88,91)                1.0927         estimate D2E/DX2                !
 ! R100  R(92,93)                1.0931         estimate D2E/DX2                !
 ! R101  R(92,94)                1.0931         estimate D2E/DX2                !
 ! R102  R(92,95)                1.0923         estimate D2E/DX2                !
 ! A1    A(2,1,6)              119.8428         estimate D2E/DX2                !
 ! A2    A(2,1,35)             110.2772         estimate D2E/DX2                !
 ! A3    A(6,1,35)             129.8799         estimate D2E/DX2                !
 ! A4    A(1,2,3)              122.4844         estimate D2E/DX2                !
 ! A5    A(1,2,21)             104.5788         estimate D2E/DX2                !
 ! A6    A(3,2,21)             132.9367         estimate D2E/DX2                !
 ! A7    A(2,3,4)              116.8937         estimate D2E/DX2                !
 ! A8    A(2,3,8)              121.4872         estimate D2E/DX2                !
 ! A9    A(4,3,8)              121.6188         estimate D2E/DX2                !
 ! A10   A(3,4,5)              121.7366         estimate D2E/DX2                !
 ! A11   A(3,4,9)              119.1907         estimate D2E/DX2                !
 ! A12   A(5,4,9)              119.0726         estimate D2E/DX2                !
 ! A13   A(4,5,6)              121.5293         estimate D2E/DX2                !
 ! A14   A(4,5,10)             119.9859         estimate D2E/DX2                !
 ! A15   A(6,5,10)             118.4842         estimate D2E/DX2                !
 ! A16   A(1,6,5)              117.5131         estimate D2E/DX2                !
 ! A17   A(1,6,36)             120.8011         estimate D2E/DX2                !
 ! A18   A(5,6,36)             121.6858         estimate D2E/DX2                !
 ! A19   A(16,7,21)            121.3648         estimate D2E/DX2                !
 ! A20   A(16,7,35)            126.5087         estimate D2E/DX2                !
 ! A21   A(21,7,35)            112.1264         estimate D2E/DX2                !
 ! A22   A(12,11,16)           120.0317         estimate D2E/DX2                !
 ! A23   A(12,11,33)           110.1875         estimate D2E/DX2                !
 ! A24   A(16,11,33)           129.7804         estimate D2E/DX2                !
 ! A25   A(11,12,13)           122.4668         estimate D2E/DX2                !
 ! A26   A(11,12,34)           104.6044         estimate D2E/DX2                !
 ! A27   A(13,12,34)           132.9277         estimate D2E/DX2                !
 ! A28   A(12,13,14)           116.6376         estimate D2E/DX2                !
 ! A29   A(12,13,18)           121.6475         estimate D2E/DX2                !
 ! A30   A(14,13,18)           121.7148         estimate D2E/DX2                !
 ! A31   A(13,14,15)           121.9865         estimate D2E/DX2                !
 ! A32   A(13,14,19)           119.257          estimate D2E/DX2                !
 ! A33   A(15,14,19)           118.7559         estimate D2E/DX2                !
 ! A34   A(14,15,16)           121.6841         estimate D2E/DX2                !
 ! A35   A(14,15,20)           119.7611         estimate D2E/DX2                !
 ! A36   A(16,15,20)           118.5548         estimate D2E/DX2                !
 ! A37   A(7,16,11)            120.9379         estimate D2E/DX2                !
 ! A38   A(7,16,15)            121.8688         estimate D2E/DX2                !
 ! A39   A(11,16,15)           117.1916         estimate D2E/DX2                !
 ! A40   A(23,17,33)           124.8642         estimate D2E/DX2                !
 ! A41   A(23,17,34)           123.4558         estimate D2E/DX2                !
 ! A42   A(33,17,34)           111.6775         estimate D2E/DX2                !
 ! A43   A(2,21,7)             107.9045         estimate D2E/DX2                !
 ! A44   A(2,21,70)            129.809          estimate D2E/DX2                !
 ! A45   A(7,21,70)            122.2837         estimate D2E/DX2                !
 ! A46   A(23,22,27)           117.6707         estimate D2E/DX2                !
 ! A47   A(23,22,32)           120.6207         estimate D2E/DX2                !
 ! A48   A(27,22,32)           121.7078         estimate D2E/DX2                !
 ! A49   A(17,23,22)           120.4214         estimate D2E/DX2                !
 ! A50   A(17,23,24)           119.1055         estimate D2E/DX2                !
 ! A51   A(22,23,24)           120.4727         estimate D2E/DX2                !
 ! A52   A(23,24,25)           121.3296         estimate D2E/DX2                !
 ! A53   A(23,24,28)           118.0699         estimate D2E/DX2                !
 ! A54   A(25,24,28)           120.6002         estimate D2E/DX2                !
 ! A55   A(24,25,26)           118.5043         estimate D2E/DX2                !
 ! A56   A(24,25,30)           122.5584         estimate D2E/DX2                !
 ! A57   A(26,25,30)           118.9372         estimate D2E/DX2                !
 ! A58   A(25,26,27)           123.8558         estimate D2E/DX2                !
 ! A59   A(25,26,29)           117.3826         estimate D2E/DX2                !
 ! A60   A(27,26,29)           118.7614         estimate D2E/DX2                !
 ! A61   A(22,27,26)           118.1536         estimate D2E/DX2                !
 ! A62   A(22,27,31)           119.7041         estimate D2E/DX2                !
 ! A63   A(26,27,31)           122.1391         estimate D2E/DX2                !
 ! A64   A(25,30,76)           108.8134         estimate D2E/DX2                !
 ! A65   A(25,30,88)           109.0042         estimate D2E/DX2                !
 ! A66   A(25,30,92)           112.3507         estimate D2E/DX2                !
 ! A67   A(76,30,88)           109.259          estimate D2E/DX2                !
 ! A68   A(76,30,92)           108.83           estimate D2E/DX2                !
 ! A69   A(88,30,92)           108.5423         estimate D2E/DX2                !
 ! A70   A(27,31,72)           109.3131         estimate D2E/DX2                !
 ! A71   A(27,31,80)           111.7401         estimate D2E/DX2                !
 ! A72   A(27,31,84)           109.911          estimate D2E/DX2                !
 ! A73   A(72,31,80)           108.0315         estimate D2E/DX2                !
 ! A74   A(72,31,84)           109.9121         estimate D2E/DX2                !
 ! A75   A(80,31,84)           107.8971         estimate D2E/DX2                !
 ! A76   A(11,33,17)           105.3756         estimate D2E/DX2                !
 ! A77   A(12,34,17)           108.1548         estimate D2E/DX2                !
 ! A78   A(12,34,71)           130.8737         estimate D2E/DX2                !
 ! A79   A(17,34,71)           120.9671         estimate D2E/DX2                !
 ! A80   A(1,35,7)             105.1126         estimate D2E/DX2                !
 ! A81   A(6,36,37)            121.6438         estimate D2E/DX2                !
 ! A82   A(6,36,38)            126.3975         estimate D2E/DX2                !
 ! A83   A(37,36,38)           111.9582         estimate D2E/DX2                !
 ! A84   A(36,37,43)           107.9239         estimate D2E/DX2                !
 ! A85   A(36,37,69)           121.9765         estimate D2E/DX2                !
 ! A86   A(43,37,69)           130.0984         estimate D2E/DX2                !
 ! A87   A(36,38,44)           105.0392         estimate D2E/DX2                !
 ! A88   A(40,39,44)           117.5745         estimate D2E/DX2                !
 ! A89   A(40,39,48)           120.68           estimate D2E/DX2                !
 ! A90   A(44,39,48)           121.7443         estimate D2E/DX2                !
 ! A91   A(39,40,41)           121.3225         estimate D2E/DX2                !
 ! A92   A(39,40,45)           118.8701         estimate D2E/DX2                !
 ! A93   A(41,40,45)           119.807          estimate D2E/DX2                !
 ! A94   A(40,41,42)           121.5943         estimate D2E/DX2                !
 ! A95   A(40,41,46)           119.2102         estimate D2E/DX2                !
 ! A96   A(42,41,46)           119.1954         estimate D2E/DX2                !
 ! A97   A(41,42,43)           117.428          estimate D2E/DX2                !
 ! A98   A(41,42,47)           121.1376         estimate D2E/DX2                !
 ! A99   A(43,42,47)           121.4342         estimate D2E/DX2                !
 ! A100  A(37,43,42)           133.4836         estimate D2E/DX2                !
 ! A101  A(37,43,44)           104.4091         estimate D2E/DX2                !
 ! A102  A(42,43,44)           122.1066         estimate D2E/DX2                !
 ! A103  A(38,44,39)           129.3597         estimate D2E/DX2                !
 ! A104  A(38,44,43)           110.6695         estimate D2E/DX2                !
 ! A105  A(39,44,43)           119.9706         estimate D2E/DX2                !
 ! A106  A(39,48,49)           119.2491         estimate D2E/DX2                !
 ! A107  A(39,48,50)           122.7121         estimate D2E/DX2                !
 ! A108  A(49,48,50)           118.0358         estimate D2E/DX2                !
 ! A109  A(48,50,51)           127.391          estimate D2E/DX2                !
 ! A110  A(48,50,68)           115.7219         estimate D2E/DX2                !
 ! A111  A(51,50,68)           116.8859         estimate D2E/DX2                !
 ! A112  A(50,51,52)           113.4754         estimate D2E/DX2                !
 ! A113  A(50,51,53)           108.9558         estimate D2E/DX2                !
 ! A114  A(50,51,54)           105.3805         estimate D2E/DX2                !
 ! A115  A(52,51,53)           111.6753         estimate D2E/DX2                !
 ! A116  A(52,51,54)           108.8227         estimate D2E/DX2                !
 ! A117  A(53,51,54)           108.2235         estimate D2E/DX2                !
 ! A118  A(51,52,55)           109.7673         estimate D2E/DX2                !
 ! A119  A(51,52,56)           109.229          estimate D2E/DX2                !
 ! A120  A(51,52,57)           110.4506         estimate D2E/DX2                !
 ! A121  A(55,52,56)           109.5386         estimate D2E/DX2                !
 ! A122  A(55,52,57)           110.1162         estimate D2E/DX2                !
 ! A123  A(56,52,57)           107.7033         estimate D2E/DX2                !
 ! A124  A(51,53,58)           110.1187         estimate D2E/DX2                !
 ! A125  A(51,53,59)           108.4987         estimate D2E/DX2                !
 ! A126  A(51,53,60)           109.6543         estimate D2E/DX2                !
 ! A127  A(58,53,59)           110.0476         estimate D2E/DX2                !
 ! A128  A(58,53,60)           110.8395         estimate D2E/DX2                !
 ! A129  A(59,53,60)           107.6174         estimate D2E/DX2                !
 ! A130  A(52,55,61)           111.5335         estimate D2E/DX2                !
 ! A131  A(52,55,62)           109.3347         estimate D2E/DX2                !
 ! A132  A(52,55,63)           109.0057         estimate D2E/DX2                !
 ! A133  A(61,55,62)           110.5333         estimate D2E/DX2                !
 ! A134  A(61,55,63)           109.4365         estimate D2E/DX2                !
 ! A135  A(62,55,63)           106.8734         estimate D2E/DX2                !
 ! A136  A(53,58,61)           111.2045         estimate D2E/DX2                !
 ! A137  A(53,58,64)           109.4779         estimate D2E/DX2                !
 ! A138  A(53,58,65)           109.0963         estimate D2E/DX2                !
 ! A139  A(61,58,64)           110.5908         estimate D2E/DX2                !
 ! A140  A(61,58,65)           109.3966         estimate D2E/DX2                !
 ! A141  A(64,58,65)           106.9695         estimate D2E/DX2                !
 ! A142  A(55,61,58)           111.2184         estimate D2E/DX2                !
 ! A143  A(55,61,66)           110.1116         estimate D2E/DX2                !
 ! A144  A(55,61,67)           109.0512         estimate D2E/DX2                !
 ! A145  A(58,61,66)           110.228          estimate D2E/DX2                !
 ! A146  A(58,61,67)           109.1057         estimate D2E/DX2                !
 ! A147  A(66,61,67)           107.0196         estimate D2E/DX2                !
 ! A148  A(31,72,73)           110.9131         estimate D2E/DX2                !
 ! A149  A(31,72,74)           109.5326         estimate D2E/DX2                !
 ! A150  A(31,72,75)           110.4885         estimate D2E/DX2                !
 ! A151  A(73,72,74)           108.8043         estimate D2E/DX2                !
 ! A152  A(73,72,75)           108.8418         estimate D2E/DX2                !
 ! A153  A(74,72,75)           108.1991         estimate D2E/DX2                !
 ! A154  A(30,76,77)           111.6959         estimate D2E/DX2                !
 ! A155  A(30,76,78)           109.5948         estimate D2E/DX2                !
 ! A156  A(30,76,79)           110.8013         estimate D2E/DX2                !
 ! A157  A(77,76,78)           108.0083         estimate D2E/DX2                !
 ! A158  A(77,76,79)           108.3115         estimate D2E/DX2                !
 ! A159  A(78,76,79)           108.3253         estimate D2E/DX2                !
 ! A160  A(31,80,81)           111.8679         estimate D2E/DX2                !
 ! A161  A(31,80,82)           111.9491         estimate D2E/DX2                !
 ! A162  A(31,80,83)           108.857          estimate D2E/DX2                !
 ! A163  A(81,80,82)           108.231          estimate D2E/DX2                !
 ! A164  A(81,80,83)           107.8791         estimate D2E/DX2                !
 ! A165  A(82,80,83)           107.9014         estimate D2E/DX2                !
 ! A166  A(31,84,85)           111.1867         estimate D2E/DX2                !
 ! A167  A(31,84,86)           110.534          estimate D2E/DX2                !
 ! A168  A(31,84,87)           109.4302         estimate D2E/DX2                !
 ! A169  A(85,84,86)           108.7065         estimate D2E/DX2                !
 ! A170  A(85,84,87)           108.8605         estimate D2E/DX2                !
 ! A171  A(86,84,87)           108.0508         estimate D2E/DX2                !
 ! A172  A(30,88,89)           109.5045         estimate D2E/DX2                !
 ! A173  A(30,88,90)           111.7893         estimate D2E/DX2                !
 ! A174  A(30,88,91)           110.7965         estimate D2E/DX2                !
 ! A175  A(89,88,90)           107.9512         estimate D2E/DX2                !
 ! A176  A(89,88,91)           108.3891         estimate D2E/DX2                !
 ! A177  A(90,88,91)           108.3059         estimate D2E/DX2                !
 ! A178  A(30,92,93)           111.4921         estimate D2E/DX2                !
 ! A179  A(30,92,94)           111.6652         estimate D2E/DX2                !
 ! A180  A(30,92,95)           109.2588         estimate D2E/DX2                !
 ! A181  A(93,92,94)           108.4085         estimate D2E/DX2                !
 ! A182  A(93,92,95)           108.0014         estimate D2E/DX2                !
 ! A183  A(94,92,95)           107.8814         estimate D2E/DX2                !
 ! D1    D(6,1,2,3)             -0.0416         estimate D2E/DX2                !
 ! D2    D(6,1,2,21)          -179.9251         estimate D2E/DX2                !
 ! D3    D(35,1,2,3)          -179.9463         estimate D2E/DX2                !
 ! D4    D(35,1,2,21)            0.1702         estimate D2E/DX2                !
 ! D5    D(2,1,6,5)              0.0672         estimate D2E/DX2                !
 ! D6    D(2,1,6,36)          -179.8665         estimate D2E/DX2                !
 ! D7    D(35,1,6,5)           179.9507         estimate D2E/DX2                !
 ! D8    D(35,1,6,36)            0.0171         estimate D2E/DX2                !
 ! D9    D(2,1,35,7)            -0.0543         estimate D2E/DX2                !
 ! D10   D(6,1,35,7)          -179.9466         estimate D2E/DX2                !
 ! D11   D(1,2,3,4)              0.0437         estimate D2E/DX2                !
 ! D12   D(1,2,3,8)            179.8447         estimate D2E/DX2                !
 ! D13   D(21,2,3,4)           179.8897         estimate D2E/DX2                !
 ! D14   D(21,2,3,8)            -0.3093         estimate D2E/DX2                !
 ! D15   D(1,2,21,7)            -0.2164         estimate D2E/DX2                !
 ! D16   D(1,2,21,70)         -179.6088         estimate D2E/DX2                !
 ! D17   D(3,2,21,7)           179.9178         estimate D2E/DX2                !
 ! D18   D(3,2,21,70)            0.5254         estimate D2E/DX2                !
 ! D19   D(2,3,4,5)             -0.0757         estimate D2E/DX2                !
 ! D20   D(2,3,4,9)            179.857          estimate D2E/DX2                !
 ! D21   D(8,3,4,5)           -179.8764         estimate D2E/DX2                !
 ! D22   D(8,3,4,9)              0.0563         estimate D2E/DX2                !
 ! D23   D(3,4,5,6)              0.108          estimate D2E/DX2                !
 ! D24   D(3,4,5,10)           179.843          estimate D2E/DX2                !
 ! D25   D(9,4,5,6)           -179.8248         estimate D2E/DX2                !
 ! D26   D(9,4,5,10)            -0.0898         estimate D2E/DX2                !
 ! D27   D(4,5,6,1)             -0.1003         estimate D2E/DX2                !
 ! D28   D(4,5,6,36)           179.8327         estimate D2E/DX2                !
 ! D29   D(10,5,6,1)          -179.8392         estimate D2E/DX2                !
 ! D30   D(10,5,6,36)            0.0939         estimate D2E/DX2                !
 ! D31   D(1,6,36,37)            1.6658         estimate D2E/DX2                !
 ! D32   D(1,6,36,38)         -178.6361         estimate D2E/DX2                !
 ! D33   D(5,6,36,37)         -178.265          estimate D2E/DX2                !
 ! D34   D(5,6,36,38)            1.433          estimate D2E/DX2                !
 ! D35   D(21,7,16,11)           0.9174         estimate D2E/DX2                !
 ! D36   D(21,7,16,15)        -179.5772         estimate D2E/DX2                !
 ! D37   D(35,7,16,11)        -179.2025         estimate D2E/DX2                !
 ! D38   D(35,7,16,15)           0.3029         estimate D2E/DX2                !
 ! D39   D(16,7,21,2)         -179.9039         estimate D2E/DX2                !
 ! D40   D(16,7,21,70)          -0.456          estimate D2E/DX2                !
 ! D41   D(35,7,21,2)            0.2001         estimate D2E/DX2                !
 ! D42   D(35,7,21,70)         179.648          estimate D2E/DX2                !
 ! D43   D(16,7,35,1)         -179.9777         estimate D2E/DX2                !
 ! D44   D(21,7,35,1)           -0.0882         estimate D2E/DX2                !
 ! D45   D(16,11,12,13)         -0.1656         estimate D2E/DX2                !
 ! D46   D(16,11,12,34)       -179.8261         estimate D2E/DX2                !
 ! D47   D(33,11,12,13)        179.6378         estimate D2E/DX2                !
 ! D48   D(33,11,12,34)         -0.0228         estimate D2E/DX2                !
 ! D49   D(12,11,16,7)         179.8375         estimate D2E/DX2                !
 ! D50   D(12,11,16,15)          0.3097         estimate D2E/DX2                !
 ! D51   D(33,11,16,7)           0.0777         estimate D2E/DX2                !
 ! D52   D(33,11,16,15)       -179.4501         estimate D2E/DX2                !
 ! D53   D(12,11,33,17)         -0.0741         estimate D2E/DX2                !
 ! D54   D(16,11,33,17)        179.7043         estimate D2E/DX2                !
 ! D55   D(11,12,13,14)          0.1417         estimate D2E/DX2                !
 ! D56   D(11,12,13,18)       -179.9611         estimate D2E/DX2                !
 ! D57   D(34,12,13,14)        179.6931         estimate D2E/DX2                !
 ! D58   D(34,12,13,18)         -0.4097         estimate D2E/DX2                !
 ! D59   D(11,12,34,17)          0.1099         estimate D2E/DX2                !
 ! D60   D(11,12,34,71)        179.3356         estimate D2E/DX2                !
 ! D61   D(13,12,34,17)       -179.499          estimate D2E/DX2                !
 ! D62   D(13,12,34,71)         -0.2733         estimate D2E/DX2                !
 ! D63   D(12,13,14,15)         -0.2802         estimate D2E/DX2                !
 ! D64   D(12,13,14,19)        179.9969         estimate D2E/DX2                !
 ! D65   D(18,13,14,15)        179.8226         estimate D2E/DX2                !
 ! D66   D(18,13,14,19)          0.0997         estimate D2E/DX2                !
 ! D67   D(13,14,15,16)          0.4544         estimate D2E/DX2                !
 ! D68   D(13,14,15,20)       -179.6236         estimate D2E/DX2                !
 ! D69   D(19,14,15,16)       -179.8214         estimate D2E/DX2                !
 ! D70   D(19,14,15,20)          0.1007         estimate D2E/DX2                !
 ! D71   D(14,15,16,7)        -179.9755         estimate D2E/DX2                !
 ! D72   D(14,15,16,11)         -0.4524         estimate D2E/DX2                !
 ! D73   D(20,15,16,7)           0.1016         estimate D2E/DX2                !
 ! D74   D(20,15,16,11)        179.6246         estimate D2E/DX2                !
 ! D75   D(33,17,23,22)        178.2962         estimate D2E/DX2                !
 ! D76   D(33,17,23,24)         -1.4825         estimate D2E/DX2                !
 ! D77   D(34,17,23,22)         -1.0723         estimate D2E/DX2                !
 ! D78   D(34,17,23,24)        179.149          estimate D2E/DX2                !
 ! D79   D(23,17,33,11)       -179.2859         estimate D2E/DX2                !
 ! D80   D(34,17,33,11)          0.1471         estimate D2E/DX2                !
 ! D81   D(23,17,34,12)        179.2755         estimate D2E/DX2                !
 ! D82   D(23,17,34,71)         -0.0417         estimate D2E/DX2                !
 ! D83   D(33,17,34,12)         -0.1669         estimate D2E/DX2                !
 ! D84   D(33,17,34,71)       -179.4841         estimate D2E/DX2                !
 ! D85   D(27,22,23,17)       -178.4671         estimate D2E/DX2                !
 ! D86   D(27,22,23,24)          1.3085         estimate D2E/DX2                !
 ! D87   D(32,22,23,17)          1.211          estimate D2E/DX2                !
 ! D88   D(32,22,23,24)       -179.0134         estimate D2E/DX2                !
 ! D89   D(23,22,27,26)         -1.1568         estimate D2E/DX2                !
 ! D90   D(23,22,27,31)        178.2089         estimate D2E/DX2                !
 ! D91   D(32,22,27,26)        179.1687         estimate D2E/DX2                !
 ! D92   D(32,22,27,31)         -1.4656         estimate D2E/DX2                !
 ! D93   D(17,23,24,25)        179.2075         estimate D2E/DX2                !
 ! D94   D(17,23,24,28)         -0.5953         estimate D2E/DX2                !
 ! D95   D(22,23,24,25)         -0.571          estimate D2E/DX2                !
 ! D96   D(22,23,24,28)        179.6262         estimate D2E/DX2                !
 ! D97   D(23,24,25,26)         -0.322          estimate D2E/DX2                !
 ! D98   D(23,24,25,30)        179.7172         estimate D2E/DX2                !
 ! D99   D(28,24,25,26)        179.4759         estimate D2E/DX2                !
 ! D100  D(28,24,25,30)         -0.485          estimate D2E/DX2                !
 ! D101  D(24,25,26,27)          0.4633         estimate D2E/DX2                !
 ! D102  D(24,25,26,29)       -179.3619         estimate D2E/DX2                !
 ! D103  D(30,25,26,27)       -179.5745         estimate D2E/DX2                !
 ! D104  D(30,25,26,29)          0.6004         estimate D2E/DX2                !
 ! D105  D(24,25,30,76)        119.7009         estimate D2E/DX2                !
 ! D106  D(24,25,30,88)       -121.2289         estimate D2E/DX2                !
 ! D107  D(24,25,30,92)         -0.8799         estimate D2E/DX2                !
 ! D108  D(26,25,30,76)        -60.2597         estimate D2E/DX2                !
 ! D109  D(26,25,30,88)         58.8104         estimate D2E/DX2                !
 ! D110  D(26,25,30,92)        179.1594         estimate D2E/DX2                !
 ! D111  D(25,26,27,22)          0.3035         estimate D2E/DX2                !
 ! D112  D(25,26,27,31)       -179.0459         estimate D2E/DX2                !
 ! D113  D(29,26,27,22)       -179.8736         estimate D2E/DX2                !
 ! D114  D(29,26,27,31)          0.7771         estimate D2E/DX2                !
 ! D115  D(22,27,31,72)        -59.9432         estimate D2E/DX2                !
 ! D116  D(22,27,31,80)       -179.4719         estimate D2E/DX2                !
 ! D117  D(22,27,31,84)         60.772          estimate D2E/DX2                !
 ! D118  D(26,27,31,72)        119.3963         estimate D2E/DX2                !
 ! D119  D(26,27,31,80)         -0.1324         estimate D2E/DX2                !
 ! D120  D(26,27,31,84)       -119.8885         estimate D2E/DX2                !
 ! D121  D(25,30,76,77)         58.6495         estimate D2E/DX2                !
 ! D122  D(25,30,76,78)        178.3068         estimate D2E/DX2                !
 ! D123  D(25,30,76,79)        -62.205          estimate D2E/DX2                !
 ! D124  D(88,30,76,77)        -60.2611         estimate D2E/DX2                !
 ! D125  D(88,30,76,78)         59.3962         estimate D2E/DX2                !
 ! D126  D(88,30,76,79)        178.8844         estimate D2E/DX2                !
 ! D127  D(92,30,76,77)       -178.6238         estimate D2E/DX2                !
 ! D128  D(92,30,76,78)        -58.9664         estimate D2E/DX2                !
 ! D129  D(92,30,76,79)         60.5217         estimate D2E/DX2                !
 ! D130  D(25,30,88,89)       -178.3883         estimate D2E/DX2                !
 ! D131  D(25,30,88,90)        -58.8026         estimate D2E/DX2                !
 ! D132  D(25,30,88,91)         62.1051         estimate D2E/DX2                !
 ! D133  D(76,30,88,89)        -59.5963         estimate D2E/DX2                !
 ! D134  D(76,30,88,90)         59.9893         estimate D2E/DX2                !
 ! D135  D(76,30,88,91)       -179.103          estimate D2E/DX2                !
 ! D136  D(92,30,88,89)         58.9459         estimate D2E/DX2                !
 ! D137  D(92,30,88,90)        178.5316         estimate D2E/DX2                !
 ! D138  D(92,30,88,91)        -60.5607         estimate D2E/DX2                !
 ! D139  D(25,30,92,93)        -60.5209         estimate D2E/DX2                !
 ! D140  D(25,30,92,94)         60.9189         estimate D2E/DX2                !
 ! D141  D(25,30,92,95)       -179.8217         estimate D2E/DX2                !
 ! D142  D(76,30,92,93)        178.9078         estimate D2E/DX2                !
 ! D143  D(76,30,92,94)        -59.6524         estimate D2E/DX2                !
 ! D144  D(76,30,92,95)         59.607          estimate D2E/DX2                !
 ! D145  D(88,30,92,93)         60.0948         estimate D2E/DX2                !
 ! D146  D(88,30,92,94)       -178.4654         estimate D2E/DX2                !
 ! D147  D(88,30,92,95)        -59.206          estimate D2E/DX2                !
 ! D148  D(27,31,72,73)         62.5743         estimate D2E/DX2                !
 ! D149  D(27,31,72,74)       -177.3131         estimate D2E/DX2                !
 ! D150  D(27,31,72,75)        -58.2137         estimate D2E/DX2                !
 ! D151  D(80,31,72,73)       -175.6336         estimate D2E/DX2                !
 ! D152  D(80,31,72,74)        -55.521          estimate D2E/DX2                !
 ! D153  D(80,31,72,75)         63.5784         estimate D2E/DX2                !
 ! D154  D(84,31,72,73)        -58.1402         estimate D2E/DX2                !
 ! D155  D(84,31,72,74)         61.9724         estimate D2E/DX2                !
 ! D156  D(84,31,72,75)       -178.9281         estimate D2E/DX2                !
 ! D157  D(27,31,80,81)        -60.9165         estimate D2E/DX2                !
 ! D158  D(27,31,80,82)         60.7646         estimate D2E/DX2                !
 ! D159  D(27,31,80,83)        179.9629         estimate D2E/DX2                !
 ! D160  D(72,31,80,81)        178.8017         estimate D2E/DX2                !
 ! D161  D(72,31,80,82)        -59.5172         estimate D2E/DX2                !
 ! D162  D(72,31,80,83)         59.6811         estimate D2E/DX2                !
 ! D163  D(84,31,80,81)         60.0179         estimate D2E/DX2                !
 ! D164  D(84,31,80,82)       -178.301          estimate D2E/DX2                !
 ! D165  D(84,31,80,83)        -59.1027         estimate D2E/DX2                !
 ! D166  D(27,31,84,85)        -60.4595         estimate D2E/DX2                !
 ! D167  D(27,31,84,86)         60.3704         estimate D2E/DX2                !
 ! D168  D(27,31,84,87)        179.2514         estimate D2E/DX2                !
 ! D169  D(72,31,84,85)         59.8938         estimate D2E/DX2                !
 ! D170  D(72,31,84,86)       -179.2763         estimate D2E/DX2                !
 ! D171  D(72,31,84,87)        -60.3953         estimate D2E/DX2                !
 ! D172  D(80,31,84,85)        177.4708         estimate D2E/DX2                !
 ! D173  D(80,31,84,86)        -61.6993         estimate D2E/DX2                !
 ! D174  D(80,31,84,87)         57.1817         estimate D2E/DX2                !
 ! D175  D(6,36,37,43)         179.5956         estimate D2E/DX2                !
 ! D176  D(6,36,37,69)          -0.7675         estimate D2E/DX2                !
 ! D177  D(38,36,37,43)         -0.1423         estimate D2E/DX2                !
 ! D178  D(38,36,37,69)        179.4946         estimate D2E/DX2                !
 ! D179  D(6,36,38,44)        -179.6448         estimate D2E/DX2                !
 ! D180  D(37,36,38,44)          0.078          estimate D2E/DX2                !
 ! D181  D(36,37,43,42)       -179.5494         estimate D2E/DX2                !
 ! D182  D(36,37,43,44)          0.1393         estimate D2E/DX2                !
 ! D183  D(69,37,43,42)          0.8532         estimate D2E/DX2                !
 ! D184  D(69,37,43,44)       -179.458          estimate D2E/DX2                !
 ! D185  D(36,38,44,39)       -179.798          estimate D2E/DX2                !
 ! D186  D(36,38,44,43)          0.0142         estimate D2E/DX2                !
 ! D187  D(44,39,40,41)         -0.5892         estimate D2E/DX2                !
 ! D188  D(44,39,40,45)        179.6194         estimate D2E/DX2                !
 ! D189  D(48,39,40,41)        179.0183         estimate D2E/DX2                !
 ! D190  D(48,39,40,45)         -0.7731         estimate D2E/DX2                !
 ! D191  D(40,39,44,38)       -179.5155         estimate D2E/DX2                !
 ! D192  D(40,39,44,43)          0.6873         estimate D2E/DX2                !
 ! D193  D(48,39,44,38)          0.8814         estimate D2E/DX2                !
 ! D194  D(48,39,44,43)       -178.9158         estimate D2E/DX2                !
 ! D195  D(40,39,48,49)          0.4912         estimate D2E/DX2                !
 ! D196  D(40,39,48,50)       -178.8754         estimate D2E/DX2                !
 ! D197  D(44,39,48,49)       -179.9179         estimate D2E/DX2                !
 ! D198  D(44,39,48,50)          0.7155         estimate D2E/DX2                !
 ! D199  D(39,40,41,42)          0.3146         estimate D2E/DX2                !
 ! D200  D(39,40,41,46)       -179.7967         estimate D2E/DX2                !
 ! D201  D(45,40,41,42)       -179.8959         estimate D2E/DX2                !
 ! D202  D(45,40,41,46)         -0.0072         estimate D2E/DX2                !
 ! D203  D(40,41,42,43)         -0.1223         estimate D2E/DX2                !
 ! D204  D(40,41,42,47)       -179.9722         estimate D2E/DX2                !
 ! D205  D(46,41,42,43)        179.989          estimate D2E/DX2                !
 ! D206  D(46,41,42,47)          0.1391         estimate D2E/DX2                !
 ! D207  D(41,42,43,37)        179.8772         estimate D2E/DX2                !
 ! D208  D(41,42,43,44)          0.2331         estimate D2E/DX2                !
 ! D209  D(47,42,43,37)         -0.2735         estimate D2E/DX2                !
 ! D210  D(47,42,43,44)       -179.9176         estimate D2E/DX2                !
 ! D211  D(37,43,44,38)         -0.0966         estimate D2E/DX2                !
 ! D212  D(37,43,44,39)        179.7357         estimate D2E/DX2                !
 ! D213  D(42,43,44,38)        179.6367         estimate D2E/DX2                !
 ! D214  D(42,43,44,39)         -0.5309         estimate D2E/DX2                !
 ! D215  D(39,48,50,51)        179.5159         estimate D2E/DX2                !
 ! D216  D(39,48,50,68)         -0.8919         estimate D2E/DX2                !
 ! D217  D(49,48,50,51)          0.142          estimate D2E/DX2                !
 ! D218  D(49,48,50,68)        179.7342         estimate D2E/DX2                !
 ! D219  D(48,50,51,52)          2.0748         estimate D2E/DX2                !
 ! D220  D(48,50,51,53)        127.1697         estimate D2E/DX2                !
 ! D221  D(48,50,51,54)       -116.891          estimate D2E/DX2                !
 ! D222  D(68,50,51,52)       -177.5133         estimate D2E/DX2                !
 ! D223  D(68,50,51,53)        -52.4184         estimate D2E/DX2                !
 ! D224  D(68,50,51,54)         63.5209         estimate D2E/DX2                !
 ! D225  D(50,51,52,55)       -178.8926         estimate D2E/DX2                !
 ! D226  D(50,51,52,56)         60.9925         estimate D2E/DX2                !
 ! D227  D(50,51,52,57)        -57.288          estimate D2E/DX2                !
 ! D228  D(53,51,52,55)         57.4853         estimate D2E/DX2                !
 ! D229  D(53,51,52,56)        -62.6295         estimate D2E/DX2                !
 ! D230  D(53,51,52,57)        179.09           estimate D2E/DX2                !
 ! D231  D(54,51,52,55)        -61.9217         estimate D2E/DX2                !
 ! D232  D(54,51,52,56)        177.9634         estimate D2E/DX2                !
 ! D233  D(54,51,52,57)         59.683          estimate D2E/DX2                !
 ! D234  D(50,51,53,58)        176.2247         estimate D2E/DX2                !
 ! D235  D(50,51,53,59)        -63.2761         estimate D2E/DX2                !
 ! D236  D(50,51,53,60)         54.0069         estimate D2E/DX2                !
 ! D237  D(52,51,53,58)        -57.6356         estimate D2E/DX2                !
 ! D238  D(52,51,53,59)         62.8635         estimate D2E/DX2                !
 ! D239  D(52,51,53,60)       -179.8535         estimate D2E/DX2                !
 ! D240  D(54,51,53,58)         62.125          estimate D2E/DX2                !
 ! D241  D(54,51,53,59)       -177.3759         estimate D2E/DX2                !
 ! D242  D(54,51,53,60)        -60.0928         estimate D2E/DX2                !
 ! D243  D(51,52,55,61)        -56.0712         estimate D2E/DX2                !
 ! D244  D(51,52,55,62)       -178.6228         estimate D2E/DX2                !
 ! D245  D(51,52,55,63)         64.8772         estimate D2E/DX2                !
 ! D246  D(56,52,55,61)         63.8551         estimate D2E/DX2                !
 ! D247  D(56,52,55,62)        -58.6964         estimate D2E/DX2                !
 ! D248  D(56,52,55,63)       -175.1964         estimate D2E/DX2                !
 ! D249  D(57,52,55,61)       -177.8759         estimate D2E/DX2                !
 ! D250  D(57,52,55,62)         59.5725         estimate D2E/DX2                !
 ! D251  D(57,52,55,63)        -56.9275         estimate D2E/DX2                !
 ! D252  D(51,53,58,61)         55.816          estimate D2E/DX2                !
 ! D253  D(51,53,58,64)        178.3193         estimate D2E/DX2                !
 ! D254  D(51,53,58,65)        -64.9334         estimate D2E/DX2                !
 ! D255  D(59,53,58,61)        -63.7462         estimate D2E/DX2                !
 ! D256  D(59,53,58,64)         58.7571         estimate D2E/DX2                !
 ! D257  D(59,53,58,65)        175.5045         estimate D2E/DX2                !
 ! D258  D(60,53,58,61)        177.3305         estimate D2E/DX2                !
 ! D259  D(60,53,58,64)        -60.1662         estimate D2E/DX2                !
 ! D260  D(60,53,58,65)         56.5811         estimate D2E/DX2                !
 ! D261  D(52,55,61,58)         55.3761         estimate D2E/DX2                !
 ! D262  D(52,55,61,66)        177.866          estimate D2E/DX2                !
 ! D263  D(52,55,61,67)        -64.9907         estimate D2E/DX2                !
 ! D264  D(62,55,61,58)        177.2376         estimate D2E/DX2                !
 ! D265  D(62,55,61,66)        -60.2725         estimate D2E/DX2                !
 ! D266  D(62,55,61,67)         56.8708         estimate D2E/DX2                !
 ! D267  D(63,55,61,58)        -65.3206         estimate D2E/DX2                !
 ! D268  D(63,55,61,66)         57.1693         estimate D2E/DX2                !
 ! D269  D(63,55,61,67)        174.3126         estimate D2E/DX2                !
 ! D270  D(53,58,61,55)        -55.1397         estimate D2E/DX2                !
 ! D271  D(53,58,61,66)       -177.5624         estimate D2E/DX2                !
 ! D272  D(53,58,61,67)         65.1948         estimate D2E/DX2                !
 ! D273  D(64,58,61,55)       -176.9981         estimate D2E/DX2                !
 ! D274  D(64,58,61,66)         60.5792         estimate D2E/DX2                !
 ! D275  D(64,58,61,67)        -56.6636         estimate D2E/DX2                !
 ! D276  D(65,58,61,55)         65.4328         estimate D2E/DX2                !
 ! D277  D(65,58,61,66)        -56.9899         estimate D2E/DX2                !
 ! D278  D(65,58,61,67)       -174.2327         estimate D2E/DX2                !
 --------------------------------------------------------------------------------
 Trust Radius=3.00D-01 FncErr=1.00D-07 GrdErr=1.00D-07 EigMax=2.50D+02 EigMin=1.00D-04
 Number of steps in this run=    570 maximum allowed number of steps=    570.
 GradGradGradGradGradGradGradGradGradGradGradGradGradGradGradGradGradGrad

 Leave Link  103 at Sat Dec 22 11:14:26 2018, MaxMem=  1342177280 cpu:               0.8 elap:               0.1
 (Enter /gpfs/apps/hpc/Apps/Restricted/Gaussian/Rev_A.03/g16/l202.exe)
 Symmetry turned off by external request.
 Stoichiometry    C42H45N7O(1+,2)
 Framework group  C1[X(C42H45N7O)]
 Deg. of freedom   279
 Full point group                 C1      NOp   1
                          Input orientation:                          
 ---------------------------------------------------------------------
 Center     Atomic      Atomic             Coordinates (Angstroms)
 Number     Number       Type             X           Y           Z
 ---------------------------------------------------------------------
      1          6           0        1.604844    0.342192    1.143316
      2          6           0        0.532362    1.214834    0.830867
      3          6           0        0.703427    2.590103    0.690696
      4          6           0        1.995276    3.087488    0.871799
      5          6           0        3.072571    2.246059    1.181922
      6          6           0        2.904490    0.862822    1.323041
      7          6           0       -0.153020   -0.893168    0.964898
      8          1           0       -0.127128    3.241678    0.449200
      9          1           0        2.171002    4.151587    0.769096
     10          1           0        4.063571    2.661969    1.313863
     11          6           0       -2.452560   -1.800755    0.626472
     12          6           0       -3.346813   -2.903666    0.591933
     13          6           0       -2.932565   -4.211710    0.843294
     14          6           0       -1.582927   -4.393911    1.137545
     15          6           0       -0.677271   -3.319364    1.175072
     16          6           0       -1.085682   -2.006655    0.927679
     17          6           0       -4.394612   -1.002596    0.123099
     18          1           0       -3.625716   -5.042896    0.812812
     19          1           0       -1.215250   -5.392741    1.339843
     20          1           0        0.365280   -3.502932    1.401743
     21          7           0       -0.566337    0.391091    0.729067
     22          6           0       -6.822926   -0.611006   -0.478253
     23          6           0       -5.468898   -0.097712   -0.232200
     24          6           0       -5.199856    1.260589   -0.341423
     25          6           0       -6.197082    2.172494   -0.697280
     26          6           0       -7.507509    1.679690   -0.955856
     27          6           0       -7.857801    0.354730   -0.867917
     28          1           0       -4.191491    1.596592   -0.145931
     29          1           0       -8.262195    2.399393   -1.239901
     30          6           0       -5.934537    3.669095   -0.819181
     31          6           0       -9.272198   -0.134051   -1.175052
     32          8           0       -7.074293   -1.840216   -0.361922
     33          7           0       -3.123466   -0.636554    0.334467
     34          7           0       -4.563330   -2.353152    0.271485
     35          7           0        1.154485   -0.961280    1.220378
     36          6           0        4.016652   -0.010783    1.640127
     37          7           0        3.858344   -1.364953    1.743326
     38          7           0        5.284920    0.363604    1.858379
     39          6           0        7.330595   -0.998773    2.407874
     40          6           0        7.769664   -2.320286    2.614394
     41          6           0        6.885358   -3.399416    2.540184
     42          6           0        5.527168   -3.216551    2.251387
     43          6           0        5.086270   -1.913868    2.042226
     44          6           0        5.962174   -0.802679    2.109382
     45          1           0        8.815440   -2.495229    2.838255
     46          1           0        7.259304   -4.401487    2.708227
     47          1           0        4.848180   -4.058293    2.196119
     48          6           0        8.244206    0.098278    2.507746
     49          1           0        9.284985   -0.098539    2.737241
     50          7           0        7.877901    1.333460    2.346072
     51          6           0        8.722076    2.534033    2.434866
     52          6           0       10.191668    2.225119    2.705817
     53          6           0        8.543776    3.364325    1.156961
     54          1           0        8.320742    3.110005    3.276647
     55          6           0       10.986705    3.533889    2.809170
     56          1           0       10.590503    1.617522    1.884335
     57          1           0       10.296919    1.647068    3.628650
     58          6           0        9.339986    4.669398    1.260983
     59          1           0        8.900378    2.773708    0.306185
     60          1           0        7.480873    3.568555    0.996060
     61          6           0       10.819358    4.394506    1.552111
     62          1           0       12.041962    3.303938    2.978772
     63          1           0       10.638626    4.094908    3.684367
     64          1           0        9.229810    5.238573    0.333939
     65          1           0        8.918458    5.283668    2.065724
     66          1           0       11.363823    5.336438    1.665915
     67          1           0       11.261917    3.869178    0.697063
     68          1           0        6.882607    1.479253    2.125144
     69          1           0        2.951443   -1.814538    1.613233
     70          1           0       -1.535219    0.619805    0.512439
     71          1           0       -5.472586   -2.784224    0.135154
     72          6           0       -9.222821   -1.135623   -2.351643
     73          1           0       -8.637116   -2.015340   -2.088960
     74          1           0      -10.238684   -1.451451   -2.605930
     75          1           0       -8.779722   -0.667146   -3.234709
     76          6           0       -6.243692    4.112844   -2.266081
     77          1           0       -7.277642    3.895225   -2.542983
     78          1           0       -6.088388    5.190868   -2.360042
     79          1           0       -5.584515    3.607600   -2.976145
     80          6           0      -10.199857    1.023152   -1.574367
     81          1           0      -10.297025    1.762136   -0.773983
     82          1           0       -9.848782    1.536759   -2.473296
     83          1           0      -11.194084    0.622529   -1.783322
     84          6           0       -9.875250   -0.817127    0.072390
     85          1           0       -9.280519   -1.677040    0.376339
     86          1           0       -9.926793   -0.113510    0.907691
     87          1           0      -10.891942   -1.151921   -0.151907
     88          6           0       -6.865428    4.424080    0.155179
     89          1           0       -6.704131    5.500610    0.053790
     90          1           0       -7.918478    4.220657   -0.050627
     91          1           0       -6.656813    4.140181    1.189476
     92          6           0       -4.481145    4.035590   -0.488424
     93          1           0       -4.221109    3.757044    0.536099
     94          1           0       -3.777356    3.547957   -1.167917
     95          1           0       -4.350227    5.115435   -0.588230
 ---------------------------------------------------------------------
 Rotational constants (GHZ):           0.1215821           0.0181639           0.0159554
 Leave Link  202 at Sat Dec 22 11:14:26 2018, MaxMem=  1342177280 cpu:               0.4 elap:               0.1
 (Enter /gpfs/apps/hpc/Apps/Restricted/Gaussian/Rev_A.03/g16/l716.exe)
 Electric field and nuclear coordinate derivatives read from checkpoint file.
 Dipole        = 7.72004964D+00 1.61510916D+00 2.89267404D+00
 Polarizability= 1.20143370D+03-5.77881828D+01 1.00360894D+03
                 1.86431475D+02-9.55598651D+01 3.80087367D+02
 Full mass-weighted force constant matrix:
 Low frequencies ---   -8.2086   -0.0038    0.0004    0.0032    5.5642   13.0422
 Low frequencies ---   13.3619   21.7803   26.7570
 Diagonal vibrational polarizability:
      197.1447660      62.5585815     136.8672138
 Harmonic frequencies (cm**-1), IR intensities (KM/Mole), Raman scattering
 activities (A**4/AMU), depolarization ratios for plane and unpolarized
 incident light, reduced masses (AMU), force constants (mDyne/A),
 and normal coordinates:
                      1                      2                      3
                      A                      A                      A
 Frequencies --     11.6912                20.8473                22.0593
 Red. masses --      4.9458                 6.3507                 5.1265
 Frc consts  --      0.0004                 0.0016                 0.0015
 IR Inten    --      0.0367                 0.3496                 0.1883
  Atom  AN      X      Y      Z        X      Y      Z        X      Y      Z
     1   6     0.01   0.07  -0.02    -0.02   0.02   0.15     0.02   0.00  -0.01
     2   6     0.01   0.07  -0.02    -0.02   0.03   0.18     0.03   0.00  -0.03
     3   6     0.02   0.07  -0.02    -0.03   0.03   0.21     0.03   0.00  -0.03
     4   6     0.02   0.06  -0.02    -0.02   0.03   0.21     0.03  -0.00  -0.02
     5   6     0.02   0.06  -0.02    -0.02   0.02   0.17     0.03  -0.01   0.00
     6   6     0.01   0.06  -0.02    -0.02   0.02   0.14     0.02  -0.00   0.01
     7   6     0.01   0.07  -0.02    -0.02   0.02   0.12     0.02   0.00  -0.03
     8   1     0.02   0.07  -0.02    -0.03   0.04   0.24     0.04   0.00  -0.04
     9   1     0.02   0.06  -0.02    -0.02   0.03   0.23     0.04  -0.00  -0.02
    10   1     0.02   0.06  -0.02    -0.02   0.02   0.17     0.03  -0.01   0.02
    11   6     0.01   0.05  -0.01    -0.01   0.02   0.04     0.02   0.01  -0.05
    12   6     0.03   0.03  -0.02     0.00   0.01  -0.00     0.03   0.00  -0.07
    13   6     0.04   0.04  -0.02     0.00   0.01  -0.01     0.03  -0.00  -0.10
    14   6     0.05   0.05  -0.03    -0.00   0.01   0.03     0.03  -0.00  -0.11
    15   6     0.03   0.07  -0.02    -0.01   0.02   0.07     0.03   0.00  -0.08
    16   6     0.01   0.06  -0.02    -0.02   0.02   0.08     0.02   0.00  -0.05
    17   6    -0.00   0.02  -0.01     0.00   0.01  -0.01     0.02   0.01  -0.03
    18   1     0.06   0.03  -0.03     0.01   0.00  -0.05     0.04  -0.01  -0.12
    19   1     0.06   0.06  -0.03    -0.00   0.01   0.03     0.04  -0.01  -0.13
    20   1     0.03   0.08  -0.03    -0.02   0.02   0.10     0.03   0.00  -0.09
    21   7     0.01   0.07  -0.02    -0.02   0.03   0.16     0.03   0.01  -0.04
    22   6    -0.01  -0.03  -0.00     0.01  -0.01  -0.06     0.02   0.00  -0.02
    23   6    -0.02  -0.00  -0.00     0.00   0.00  -0.03     0.01   0.01  -0.01
    24   6    -0.05   0.01   0.00    -0.01   0.00  -0.01    -0.00   0.01   0.03
    25   6    -0.07  -0.01   0.01    -0.01  -0.00  -0.02    -0.01   0.01   0.05
    26   6    -0.06  -0.04   0.01     0.00  -0.01  -0.05    -0.00   0.01   0.03
    27   6    -0.03  -0.05   0.00     0.01  -0.01  -0.07     0.01   0.00  -0.01
    28   1    -0.06   0.03   0.01    -0.01   0.01   0.01    -0.01   0.02   0.05
    29   1    -0.08  -0.06   0.01     0.00  -0.01  -0.06    -0.01   0.01   0.04
    30   6    -0.11  -0.01   0.01    -0.02   0.00  -0.01    -0.02   0.02   0.10
    31   6    -0.02  -0.08   0.00     0.02  -0.02  -0.10     0.02  -0.00  -0.03
    32   8     0.01  -0.03  -0.00     0.02  -0.01  -0.09     0.02  -0.00  -0.05
    33   7    -0.01   0.04  -0.01    -0.01   0.01   0.04     0.02   0.01  -0.02
    34   7     0.02   0.02  -0.01     0.01   0.00  -0.03     0.02   0.00  -0.06
    35   7     0.00   0.07  -0.01    -0.02   0.02   0.12     0.02   0.00  -0.01
    36   6     0.00   0.05  -0.01    -0.01   0.01   0.10     0.01  -0.01   0.03
    37   7    -0.02   0.05   0.00    -0.01   0.01   0.08    -0.01  -0.00   0.07
    38   7     0.01   0.03  -0.01    -0.00   0.00   0.05     0.01  -0.01   0.04
    39   6    -0.02  -0.01   0.01     0.02  -0.02  -0.08    -0.01  -0.02   0.11
    40   6    -0.05  -0.01   0.03     0.03  -0.02  -0.12    -0.03  -0.01   0.16
    41   6    -0.07   0.00   0.04     0.02  -0.02  -0.10    -0.04  -0.01   0.19
    42   6    -0.06   0.03   0.03     0.01  -0.01  -0.03    -0.03  -0.00   0.16
    43   6    -0.03   0.04   0.02    -0.00  -0.00   0.02    -0.02  -0.01   0.11
    44   6    -0.01   0.02   0.00     0.01  -0.01  -0.00    -0.01  -0.01   0.09
    45   1    -0.05  -0.03   0.03     0.04  -0.03  -0.18    -0.03  -0.02   0.18
    46   1    -0.09  -0.00   0.05     0.02  -0.02  -0.13    -0.05  -0.00   0.22
    47   1    -0.08   0.04   0.04    -0.00  -0.00  -0.01    -0.04   0.00   0.17
    48   6     0.01  -0.03  -0.00     0.03  -0.02  -0.10    -0.00  -0.02   0.07
    49   1     0.00  -0.06   0.00     0.04  -0.03  -0.16    -0.00  -0.01   0.08
    50   7     0.05  -0.02  -0.01     0.02  -0.02  -0.05    -0.00  -0.03   0.01
    51   6     0.08  -0.05  -0.00     0.02  -0.02  -0.07    -0.02  -0.01  -0.05
    52   6     0.07  -0.09   0.03     0.03  -0.02  -0.10    -0.00   0.02  -0.09
    53   6     0.13  -0.04  -0.00    -0.00  -0.02  -0.07    -0.07  -0.05  -0.06
    54   1     0.08  -0.03  -0.01     0.04  -0.02  -0.07     0.00   0.00  -0.05
    55   6     0.10  -0.12   0.04     0.03  -0.02  -0.11    -0.03   0.04  -0.15
    56   1     0.06  -0.10   0.03     0.01  -0.01  -0.11    -0.02   0.01  -0.09
    57   1     0.03  -0.10   0.03     0.04  -0.02  -0.11     0.04   0.04  -0.08
    58   6     0.17  -0.06   0.01    -0.00  -0.02  -0.08    -0.10  -0.03  -0.12
    59   1     0.13  -0.05   0.00    -0.02  -0.02  -0.08    -0.09  -0.07  -0.06
    60   1     0.14  -0.01  -0.02    -0.01  -0.02  -0.05    -0.08  -0.08  -0.04
    61   6     0.16  -0.11   0.04     0.00  -0.01  -0.11    -0.09   0.01  -0.16
[...]
 ! R30   R(21,70)               -0.0833                  5.3                    !
 ! R49   R(36,37)                0.0433                  2.8                    !
 ! R51   R(37,43)                0.0496                  3.2                    !
 ! R52   R(37,69)               -1.0697                 68.4                    !
 ! A81   A(6,36,37)             -0.0251                  1.6                    !
 ! A83   A(37,36,38)             0.0248                  1.6                    !
 ! A84   A(36,37,43)            -0.0489                  3.1                    !
 ! A86   A(43,37,69)             0.0521                  3.3                    !
 ! A100  A(37,43,42)            -0.0248                  1.6                    !
 ! A101  A(37,43,44)             0.0236                  1.5                    !
 --------------------------------------------------------------------------------
                           ----------------------------
                           ! Normal Mode   278        !
 --------------------------                            --------------------------
 ! Name  Definition              Value          Relative Weight (%)             !
 --------------------------------------------------------------------------------
 ! R5    R(2,21)                 0.0493                  3.2                    !
 ! R14   R(7,21)                 0.0438                  2.8                    !
 ! R30   R(21,70)               -1.0698                 68.8                    !
 ! R48   R(34,71)               -0.0207                  1.3                    !
 ! R52   R(37,69)                0.0835                  5.4                    !
 ! A5    A(1,2,21)               0.0236                  1.5                    !
 ! A6    A(3,2,21)              -0.0249                  1.6                    !
 ! A19   A(16,7,21)             -0.025                   1.6                    !
 ! A21   A(21,7,35)              0.0246                  1.6                    !
 ! A43   A(2,21,7)              -0.0488                  3.1                    !
 ! A44   A(2,21,70)              0.05                    3.2                    !
 --------------------------------------------------------------------------------
                           ----------------------------
                           ! Normal Mode   279        !
 --------------------------                            --------------------------
 ! Name  Definition              Value          Relative Weight (%)             !
 --------------------------------------------------------------------------------
 ! R20   R(12,34)                0.0488                  3.4                    !
 ! R29   R(17,34)                0.0424                  2.9                    !
 ! R30   R(21,70)                0.021                   1.4                    !
 ! R48   R(34,71)               -1.0713                 73.8                    !
 ! A26   A(11,12,34)             0.0232                  1.6                    !
 ! A27   A(13,12,34)            -0.0243                  1.7                    !
 ! A41   A(23,17,34)            -0.0245                  1.7                    !
 ! A42   A(33,17,34)             0.0241                  1.7                    !
 ! A77   A(12,34,17)            -0.0479                  3.3                    !
 ! A78   A(12,34,71)             0.0532                  3.7                    !
 --------------------------------------------------------------------------------
 -------------------------------------------------------------------
 Center     Atomic                   Forces (Hartrees/Bohr)
 Number     Number              X              Y              Z
 -------------------------------------------------------------------
      1        6          -0.000000567   -0.000000062    0.000001766
      2        6           0.000000359    0.000001274   -0.000001992
      3        6           0.000001781   -0.000000900   -0.000007692
      4        6           0.000002564   -0.000001253   -0.000009793
      5        6           0.000000922   -0.000001340   -0.000006504
      6        6           0.000000712    0.000000853   -0.000000499
      7        6          -0.000001724    0.000001872    0.000007240
      8        1           0.000002368   -0.000000667   -0.000010404
      9        1           0.000003317   -0.000001565   -0.000014460
     10        1           0.000002148   -0.000001049   -0.000008289
     11        6          -0.000002394    0.000002766    0.000011243
     12        6          -0.000003505    0.000002263    0.000016170
     13        6          -0.000004780    0.000004160    0.000021341
     14        6          -0.000005614    0.000003690    0.000022184
     15        6          -0.000003179    0.000002678    0.000017550
     16        6          -0.000003414    0.000002346    0.000011726
     17        6          -0.000001587    0.000002885    0.000007918
     18        1          -0.000005752    0.000004322    0.000025072
     19        1          -0.000005994    0.000004067    0.000026300
     20        1          -0.000004558    0.000002850    0.000018140
     21        7          -0.000001191    0.000000642    0.000001637
     22        6          -0.000001317    0.000002672    0.000006530
     23        6          -0.000000546    0.000001205    0.000004489
     24        6           0.000000420    0.000001757   -0.000001782
     25        6           0.000001472    0.000000032   -0.000005091
     26        6           0.000000894    0.000001632   -0.000003280
     27        6          -0.000001184    0.000001210    0.000002527
     28        1           0.000000511    0.000000605   -0.000003043
     29        1           0.000001675   -0.000000129   -0.000005985
     30        6           0.000002232   -0.000000643   -0.000011826
     31        6          -0.000001089    0.000001169    0.000004634
     32        8          -0.000002700    0.000002139    0.000011830
     33        7          -0.000001938    0.000001687    0.000006231
     34        7          -0.000003126    0.000002850    0.000013685
     35        7          -0.000001368    0.000001191    0.000007307
     36        6          -0.000000157    0.000000324    0.000003087
     37        7          -0.000001447    0.000000964    0.000008917
     38        7          -0.000000595   -0.000000170    0.000001271
     39        6          -0.000001492    0.000000492    0.000006946
     40        6          -0.000002530    0.000000514    0.000012577
     41        6          -0.000004259    0.000001403    0.000017030
     42        6          -0.000003553    0.000001674    0.000016673
     43        6          -0.000002435    0.000000318    0.000010985
     44        6          -0.000002142    0.000000667    0.000006138
     45        1          -0.000003331    0.000000554    0.000013105
     46        1          -0.000004972    0.000001404    0.000021361
     47        1          -0.000004833    0.000001610    0.000020062
     48        6          -0.000000483   -0.000000484    0.000002061
     49        1          -0.000000603   -0.000000383    0.000003012
     50        7           0.000000199   -0.000000863   -0.000003139
     51        6           0.000002278   -0.000001115   -0.000007651
     52        6           0.000001563   -0.000001586   -0.000006864
     53        6           0.000002372   -0.000006406   -0.000012364
     54        1           0.000002541    0.000002883   -0.000010641
     55        6           0.000003020   -0.000001302   -0.000012130
     56        1           0.000000916   -0.000005344   -0.000004564
     57        1           0.000001026    0.000002592   -0.000004744
     58        6           0.000003598   -0.000006451   -0.000016400
     59        1           0.000001857   -0.000010130   -0.000008996
     60        1           0.000003042   -0.000005982   -0.000012365
     61        6           0.000003740   -0.000006927   -0.000016483
     62        1           0.000002475   -0.000002060   -0.000011808
     63        1           0.000003642    0.000002178   -0.000015080
     64        1           0.000004408   -0.000010365   -0.000019929
     65        1           0.000004794   -0.000003110   -0.000020246
     66        1           0.000004648   -0.000006940   -0.000020225
     67        1           0.000003155   -0.000011011   -0.000014155
     68        1           0.000000878   -0.000000543   -0.000003484
     69        1          -0.000002894    0.000000952    0.000010727
     70        1           0.000000345    0.000000872    0.000000930
     71        1          -0.000003689    0.000003225    0.000015616
     72        6          -0.000002149   -0.000003478    0.000009409
     73        1          -0.000002987   -0.000003064    0.000012681
     74        1          -0.000002804   -0.000003675    0.000010333
     75        1          -0.000001656   -0.000007542    0.000006616
     76        6           0.000003163   -0.000006133   -0.000013463
     77        1           0.000002901   -0.000006355   -0.000012472
     78        1           0.000004117   -0.000006554   -0.000018228
     79        1           0.000002343   -0.000009746   -0.000011401
     80        6           0.000000104    0.000000789   -0.000000015
     81        1           0.000000764    0.000004137   -0.000003295
     82        1           0.000000469   -0.000003387   -0.000002387
     83        1          -0.000000298    0.000000908    0.000001749
     84        6          -0.000001069    0.000006831    0.000007528
     85        1          -0.000002809    0.000008390    0.000011184
     86        1          -0.000000980    0.000011271    0.000005007
     87        1          -0.000002094    0.000007446    0.000009148
     88        6           0.000003577    0.000004599   -0.000014613
     89        1           0.000004666    0.000004358   -0.000019404
     90        1           0.000003399    0.000004914   -0.000013900
     91        1           0.000003358    0.000008928   -0.000013765
     92        6           0.000003258    0.000000095   -0.000013078
     93        1           0.000002964    0.000003772   -0.000012270
     94        1           0.000002667   -0.000003959   -0.000011514
     95        1           0.000004169   -0.000001208   -0.000017962
 -------------------------------------------------------------------
 Cartesian Forces:  Max     0.000026300 RMS     0.000007505
 FormGI is forming the generalized inverse of G from B-inverse, IUseBI=4.
 Leave Link  716 at Sat Dec 22 11:14:27 2018, MaxMem=  1342177280 cpu:               8.8 elap:               0.6
 (Enter /gpfs/apps/hpc/Apps/Restricted/Gaussian/Rev_A.03/g16/l9999.exe)

 ----------------------------------------------------------------------

 Electric dipole moment (input orientation):
 (Debye = 10**-18 statcoulomb cm , SI units = C m)
                  (au)            (Debye)         (10**-30 SI)
   Tot        0.840091D+01      0.213530D+02      0.712259D+02
   x          0.772005D+01      0.196224D+02      0.654533D+02
   y          0.161511D+01      0.410520D+01      0.136935D+02
   z          0.289267D+01      0.735244D+01      0.245251D+02

 Dipole polarizability, Alpha (input orientation).
 (esu units = cm**3 , SI units = C**2 m**2 J**-1)
 Alpha(0;0):
               (au)            (10**-24 esu)      (10**-40 SI)
   iso        0.861710D+03      0.127692D+03      0.142077D+03
   aniso      0.832433D+03      0.123354D+03      0.137250D+03
   xx         0.120143D+04      0.178034D+03      0.198090D+03
   yx        -0.577882D+02     -0.856333D+01     -0.952798D+01
   yy         0.100361D+04      0.148720D+03      0.165473D+03
   zx         0.186431D+03      0.276263D+02      0.307384D+02
   zy        -0.955599D+02     -0.141605D+02     -0.157557D+02
   zz         0.380087D+03      0.563231D+02      0.626679D+02

 ----------------------------------------------------------------------

 Dipole orientation:
     6         -0.94279891         -0.18506699          3.65518724
     6         -1.37050172          1.79851252          1.90647693
     6         -1.34843389          4.33438071          2.61198159
     6         -0.87874755          4.86183385          5.15391427
     6         -0.45137537          2.93526637          6.92080911
     6         -0.47101394          0.38366935          6.21820840
     6         -1.56131506         -1.95398883          0.03762162
     1         -1.67446132          5.82583001          1.24924760
     1         -0.84119175          6.81107346          5.77884262
     1         -0.08747117          3.40556378          8.87870656
     6         -2.36397336         -2.92788273         -4.50563559
     6         -2.65842830         -4.72014324         -6.48173942
     6         -2.47901418         -7.31822553         -6.07403322
     6         -1.99643772         -8.09515389         -3.60502062
     6         -1.69211524         -6.35893735         -1.61747527
     6         -1.87547729         -3.75517309         -2.01076835
     6         -3.05262326         -0.79586471         -7.91570799
     1         -2.70669397         -8.66253568         -7.59954956
     1         -1.84133806        -10.09558143         -3.19777316
     1         -1.30761459         -7.03756084          0.27378886
     7         -1.76113698          0.59450874         -0.36700393
     6         -3.81182358          0.74533262        -12.38167213
     6         -3.41518883          1.26298390         -9.68371924
     6         -3.37380748          3.73209268         -8.79409770
     6         -3.68300198          5.78490921        -10.42610108
     6         -4.03234235          5.29863524        -13.04904212
     6         -4.10213253          2.91871053        -14.08149624
     1         -3.08821786          4.02813834         -6.79372370
     1         -4.24809106          6.91190444        -14.28295885
     6         -3.65851614          8.51440098         -9.50576602
     6         -4.44119973          2.48329261        -16.91512369
     8         -3.88518888         -1.49350867        -13.18907497
     7         -2.61742216         -0.51564360         -5.43775240
     7         -3.09344536         -3.28988355         -8.60281310
     7         -1.06934840         -2.49669847          2.44968889
     6         -0.02324355         -1.61321908          8.03849321
     7          0.02261684         -4.10004816          7.33875023
     7          0.39590831         -1.31944805         10.51896207
     6          1.21739718         -4.53085962         13.93400953
     6          1.49546621         -7.14356802         14.35074832
     6          1.27098600         -8.88018210         12.37474458
     6          0.77276437         -8.10189106          9.89467091
     6          0.50267289         -5.52237412          9.46619638
     6          0.72553744         -3.72219360         11.43466678
     1          1.88497064         -7.80612078         16.24891799
     1          1.49078167        -10.87567765         12.76941185
     1          0.60070035         -9.46011313          8.37378663
     6          1.41345381         -2.77791194         15.98411223
     1          1.79509568         -3.48146994         17.86932325
     7          1.13007391         -0.35822375         15.69154930
     6          1.27086991          1.60624255         17.65147347
     6          1.90966247          0.57511955         20.26759794
     6          3.15855913          3.64068063         16.81197827
     1         -0.61597965          2.45859168         17.71151914
     6          1.96377859          2.74534093         22.19097260
     1          3.76735950         -0.34210319         20.20493126
     1          0.52460976         -0.84861585         20.84083875
     6          3.21325583          5.80357342         18.73648210
     1          5.03323555          2.77579448         16.66307873
     1          2.64041260          4.33843578         14.93567377
     6          3.81543212          4.82521569         21.39507959
     1          2.46783058          1.99905427         24.05031628
     1          0.06003263          3.54484379         22.35981019
     1          4.60436506          7.21374979         18.14872392
     1          1.36702841          6.74477751         18.75127197
     1          3.76644036          6.37970595         22.75684349
     1          5.74170986          4.06052034         21.41639074
     1          0.77818636          0.23715531         13.87236326
     1         -0.27704175         -4.65378975          5.51586476
     1         -2.12252692          1.33415582         -2.10739988
     1         -3.38852364         -3.80675134        -10.42712127
     6         -2.11453183          1.05783615        -17.95884783
     1         -1.94068060         -0.79977458        -17.09041288
     1         -2.30829861          0.82209027        -20.00317003
     1         -0.38603000          2.12956995        -17.59377306
     6         -1.47330192          9.93235716        -10.82289701
     1         -1.66489499          9.88980484        -12.87766379
     1         -1.46873488         11.90908347        -10.22268555
     1          0.34841825          9.09810091        -10.32377746
     6         -4.68696504          4.98542194        -18.36547797
     1         -6.32868929          6.07684997        -17.74493940
     1         -3.00678408          6.16871148        -18.15413520
     1         -4.92319290          4.57199969        -20.37353745
     6         -6.86156090          0.92451906        -17.39883899
     1         -6.75794726         -0.91393033        -16.48068357
     1         -8.52307952          1.92693417        -16.68919844
     1         -7.10327976          0.64322834        -19.43197721
     6         -6.19214623          9.77908274        -10.21402957
     1         -6.17009795         11.75427371         -9.60878692
     1         -6.52414861          9.74153314        -12.25054611
     1         -7.77118841          8.82976473         -9.28189405
     6         -3.30270101          8.70681905         -6.63347788
     1         -4.82996871          7.75811922         -5.61646116
     1         -1.50709689          7.88274172         -6.03059606
     1         -3.30557062         10.69507170         -6.07875612

 Electric dipole moment (dipole orientation):
 (Debye = 10**-18 statcoulomb cm , SI units = C m)
                  (au)            (Debye)         (10**-30 SI)
   Tot        0.840091D+01      0.213530D+02      0.712259D+02
   x          0.000000D+00      0.000000D+00      0.000000D+00
   y          0.000000D+00      0.000000D+00      0.000000D+00
   z          0.840091D+01      0.213530D+02      0.712259D+02

 Dipole polarizability, Alpha (dipole orientation).
 (esu units = cm**3 , SI units = C**2 m**2 J**-1)
 Alpha(0;0):
               (au)            (10**-24 esu)      (10**-40 SI)
   iso        0.861710D+03      0.127692D+03      0.142077D+03
   aniso      0.832433D+03      0.123354D+03      0.137250D+03
   xx         0.359573D+03      0.532832D+02      0.592856D+02
   yx        -0.495457D+02     -0.734191D+01     -0.816898D+01
   yy         0.104390D+04      0.154691D+03      0.172117D+03
   zx         0.155377D+03      0.230245D+02      0.256183D+02
   zy        -0.102640D+03     -0.152097D+02     -0.169231D+02
   zz         0.118165D+04      0.175103D+03      0.194828D+03

 ----------------------------------------------------------------------

 This type of calculation cannot be archived.


 THERE ARE PEOPLE SO ADDICTED TO EXAGERATING THEY
 CAN'T TELL THE TRUTH WITHOUT LYING. -- FORTUNE COOKIE
 Job cpu time:       0 days  0 hours  0 minutes 25.2 seconds.
 Elapsed time:       0 days  0 hours  0 minutes  1.8 seconds.
 File lengths (MBytes):  RWF=     80 Int=      0 D2E=      0 Chk=    152 Scr=      8
 Normal termination of Gaussian 16 at Sat Dec 22 11:14:27 2018.
