 Entering Gaussian System, Link 0=g16
 Input=cyclohexyl-triBIP-E4PT.com
 Output=cyclohexyl-triBIP-E4PT.log
 Initial command:
 /gpfs/apps/hpc/Apps/Restricted/Gaussian/Rev_A.03/g16/l1.exe "/gpfs/scratch60/fas/hammes_schiffer/jg2487/c43n04/Gau-87049.inp" -scrdir="/gpfs/scratch60/fas/hammes_schiffer/jg2487/c43n04/"
 Entering Link 1 = /gpfs/apps/hpc/Apps/Restricted/Gaussian/Rev_A.03/g16/l1.exe PID=     87051.
  
 Copyright (c) 1988,1990,1992,1993,1995,1998,2003,2009,2016,
            Gaussian, Inc.  All Rights Reserved.
  
 This is part of the Gaussian(R) 16 program.  It is based on
 the Gaussian(R) 09 system (copyright 2009, Gaussian, Inc.),
 the Gaussian(R) 03 system (copyright 2003, Gaussian, Inc.),
 the Gaussian(R) 98 system (copyright 1998, Gaussian, Inc.),
 the Gaussian(R) 94 system (copyright 1995, Gaussian, Inc.),
 the Gaussian 92(TM) system (copyright 1992, Gaussian, Inc.),
 the Gaussian 90(TM) system (copyright 1990, Gaussian, Inc.),
 the Gaussian 88(TM) system (copyright 1988, Gaussian, Inc.),
 the Gaussian 86(TM) system (copyright 1986, Carnegie Mellon
 University), and the Gaussian 82(TM) system (copyright 1983,
 Carnegie Mellon University). Gaussian is a federally registered
 trademark of Gaussian, Inc.
  
 This software contains proprietary and confidential information,
 including trade secrets, belonging to Gaussian, Inc.
  
 This software is provided under written license and may be
 used, copied, transmitted, or stored only in accord with that
 written license.
  
 The following legend is applicable only to US Government
 contracts under FAR:
  
                    RESTRICTED RIGHTS LEGEND
  
 Use, reproduction and disclosure by the US Government is
 subject to restrictions as set forth in subparagraphs (a)
 and (c) of the Commercial Computer Software - Restricted
 Rights clause in FAR 52.227-19.
  
 Gaussian, Inc.
 340 Quinnipiac St., Bldg. 40, Wallingford CT 06492
  
  
 ---------------------------------------------------------------
 Warning -- This program may not be used in any manner that
 competes with the business of Gaussian, Inc. or will provide
 assistance to any competitor of Gaussian, Inc.  The licensee
 of this program is prohibited from giving any competitor of
 Gaussian, Inc. access to this program.  By using this program,
 the user acknowledges that Gaussian, Inc. is engaged in the
 business of creating and licensing software in the field of
 computational chemistry and represents and warrants to the
 licensee that it is not a competitor of Gaussian, Inc. and that
 it will not use this program in any manner prohibited above.
 ---------------------------------------------------------------
  

 Cite this work as:
 Gaussian 16, Revision A.03,
 M. J. Frisch, G. W. Trucks, H. B. Schlegel, G. E. Scuseria, 
 M. A. Robb, J. R. Cheeseman, G. Scalmani, V. Barone, 
 G. A. Petersson, H. Nakatsuji, X. Li, M. Caricato, A. V. Marenich, 
 J. Bloino, B. G. Janesko, R. Gomperts, B. Mennucci, H. P. Hratchian, 
 J. V. Ortiz, A. F. Izmaylov, J. L. Sonnenberg, D. Williams-Young, 
 F. Ding, F. Lipparini, F. Egidi, J. Goings, B. Peng, A. Petrone, 
 T. Henderson, D. Ranasinghe, V. G. Zakrzewski, J. Gao, N. Rega, 
 G. Zheng, W. Liang, M. Hada, M. Ehara, K. Toyota, R. Fukuda, 
 J. Hasegawa, M. Ishida, T. Nakajima, Y. Honda, O. Kitao, H. Nakai, 
 T. Vreven, K. Throssell, J. A. Montgomery, Jr., J. E. Peralta, 
 F. Ogliaro, M. J. Bearpark, J. J. Heyd, E. N. Brothers, K. N. Kudin, 
 V. N. Staroverov, T. A. Keith, R. Kobayashi, J. Normand, 
 K. Raghavachari, A. P. Rendell, J. C. Burant, S. S. Iyengar, 
 J. Tomasi, M. Cossi, J. M. Millam, M. Klene, C. Adamo, R. Cammi, 
 J. W. Ochterski, R. L. Martin, K. Morokuma, O. Farkas, 
 J. B. Foresman, and D. J. Fox, Gaussian, Inc., Wallingford CT, 2016.
 
 ******************************************
 Gaussian 16:  ES64L-G16RevA.03 25-Dec-2016
                16-Dec-2018 
 ******************************************
 %chk=cyclohexyl-triBIP-E4PT.chk
 %mem=10GB
 %nprocshared=16
 Will use up to   16 processors via shared memory.
 ----------------------------------------------------------------
 #p freq(ReadFC,InternalModes) Geom(AllCheck) NoSymm scale=0.9649
 ----------------------------------------------------------------
 1/18=20,29=7,38=1,114=964900/1,3;
 2/9=110,12=2,15=1,40=1/2;
 7/8=21,25=11,30=1/16;
 99/5=2/99;
 Leave Link    1 at Sun Dec 16 14:42:52 2018, MaxMem=  1342177280 cpu:               6.4 elap:               0.4
 (Enter /gpfs/apps/hpc/Apps/Restricted/Gaussian/Rev_A.03/g16/l101.exe)
 Structure from the checkpoint file:  "cyclohexyl-triBIP-E4PT.chk"
 ---------------------------------------------------------------------
 cyclohexylimine triBIP oxidized, all protons transferred optimization
 ---------------------------------------------------------------------
 Charge =  1 Multiplicity = 2
 Redundant internal coordinates found in file.  (old form).
 C,0,1.633039,0.419179,0.991576
 C,0,0.56491,1.302279,0.694447
 C,0,0.748323,2.677096,0.565582
 C,0,2.045858,3.161129,0.74306
 C,0,3.117819,2.308621,1.041217
 C,0,2.938285,0.925857,1.170904
 C,0,-0.13574,-0.801672,0.819528
 H,0,-0.076066,3.340462,0.337199
 H,0,2.229928,4.224567,0.647873
 H,0,4.112807,2.7153,1.171461
 C,0,-2.44704,-1.707014,0.536387
 C,0,-3.338611,-2.812895,0.537618
 C,0,-2.916029,-4.119264,0.783254
 C,0,-1.557694,-4.299611,1.033265
 C,0,-0.654541,-3.223048,1.039627
 C,0,-1.072309,-1.911592,0.798708
 C,0,-4.405435,-0.919188,0.088128
 H,0,-3.61005,-4.950389,0.781167
 H,0,-1.182139,-5.296719,1.22933
 H,0,0.394438,-3.402462,1.238374
 N,0,-0.541689,0.486943,0.595356
 C,0,-6.860857,-0.582,-0.412159
 C,0,-5.507888,-0.038308,-0.240807
 C,0,-5.290721,1.323118,-0.396549
 C,0,-6.335025,2.199682,-0.727063
 C,0,-7.646848,1.6853,-0.895921
 C,0,-7.932623,0.35024,-0.754281
 H,0,-4.288076,1.711273,-0.261721
 H,0,-8.445667,2.377043,-1.14374
 C,0,-6.073923,3.66069,-0.928984
 H,0,-5.155946,3.972208,-0.428867
 H,0,-5.963834,3.878778,-1.99791
 H,0,-6.907972,4.263215,-0.562539
 C,0,-9.308978,-0.209379,-0.927572
 H,0,-9.332717,-0.934763,-1.746673
 H,0,-9.62307,-0.747429,-0.028682
 H,0,-10.026984,0.583568,-1.136462
 O,0,-7.117276,-1.807187,-0.273759
 N,0,-3.130488,-0.545282,0.255673
 N,0,-4.565731,-2.268753,0.252941
 N,0,1.173434,-0.880944,1.060443
 C,0,4.042227,0.036482,1.474865
 N,0,3.869899,-1.318399,1.540494
 N,0,5.313641,0.392435,1.706843
 C,0,7.342433,-1.008299,2.226657
 C,0,7.766176,-2.339903,2.399103
 C,0,6.871196,-3.406908,2.290777
 C,0,5.51623,-3.200332,2.003401
 C,0,5.09127,-1.887794,1.825325
 C,0,5.978453,-0.787863,1.924725
 H,0,8.807852,-2.531591,2.629072
 H,0,7.232458,-4.417369,2.43349
 H,0,4.827247,-4.032288,1.926753
 C,0,8.262579,0.073105,2.399034
 H,0,9.296033,-0.149359,2.636612
 N,0,7.913963,1.32092,2.308093
 C,0,8.774053,2.497254,2.515509
 C,0,10.207841,2.131654,2.889
 C,0,8.721405,3.390853,1.268968
 H,0,8.319668,3.044106,3.350098
 C,0,11.036527,3.403322,3.108513
 H,0,10.65203,1.542569,2.078464
 H,0,10.219988,1.514286,3.791649
 C,0,9.550824,4.660107,1.49316
 H,0,9.120017,2.824645,0.419898
 H,0,7.681672,3.642084,1.039097
 C,0,10.993982,4.324828,1.884954
 H,0,12.067232,3.124842,3.343971
 H,0,10.645723,3.940365,3.980904
 H,0,9.532083,5.274038,0.588913
 H,0,9.088816,5.253904,2.290815
 H,0,11.549738,5.2442,2.090902
 H,0,11.49225,3.829407,1.042875
 H,0,6.927455,1.494835,2.072081
 H,0,2.956178,-1.753315,1.405876
 H,0,-1.510614,0.726275,0.394197
 H,0,-5.479132,-2.7029,0.151065
 Recover connectivity data from disk.
 ITRead=  0  0  0  0  0  0  0  0  0  0  0  0  0  0  0  0  0  0  0  0
 ITRead=  0  0  0  0  0  0  0  0  0  0  0  0  0  0  0  0  0  0  0  0
 ITRead=  0  0  0  0  0  0  0  0  0  0  0  0  0  0  0  0  0  0  0  0
 ITRead=  0  0  0  0  0  0  0  0  0  0  0  0  0  0  0  0  0
 MicOpt= -1 -1 -1 -1 -1 -1 -1 -1 -1 -1 -1 -1 -1 -1 -1 -1 -1 -1 -1 -1
 MicOpt= -1 -1 -1 -1 -1 -1 -1 -1 -1 -1 -1 -1 -1 -1 -1 -1 -1 -1 -1 -1
 MicOpt= -1 -1 -1 -1 -1 -1 -1 -1 -1 -1 -1 -1 -1 -1 -1 -1 -1 -1 -1 -1
 MicOpt= -1 -1 -1 -1 -1 -1 -1 -1 -1 -1 -1 -1 -1 -1 -1 -1 -1
 NAtoms=     77 NQM=       77 NQMF=       0 NMMI=      0 NMMIF=      0
                NMic=       0 NMicF=      0.
                    Isotopes and Nuclear Properties:
 (Nuclear quadrupole moments (NQMom) in fm**2, nuclear magnetic moments (NMagM)
  in nuclear magnetons)

  Atom         1           2           3           4           5           6           7           8           9          10
 IAtWgt=          12          12          12          12          12          12          12           1           1           1
 AtmWgt=  12.0000000  12.0000000  12.0000000  12.0000000  12.0000000  12.0000000  12.0000000   1.0078250   1.0078250   1.0078250
 NucSpn=           0           0           0           0           0           0           0           1           1           1
 AtZEff=   3.6000000   3.6000000   3.6000000   3.6000000   3.6000000   3.6000000   3.6000000   1.0000000   1.0000000   1.0000000
 NQMom=    0.0000000   0.0000000   0.0000000   0.0000000   0.0000000   0.0000000   0.0000000   0.0000000   0.0000000   0.0000000
 NMagM=    0.0000000   0.0000000   0.0000000   0.0000000   0.0000000   0.0000000   0.0000000   2.7928460   2.7928460   2.7928460
 AtZNuc=   6.0000000   6.0000000   6.0000000   6.0000000   6.0000000   6.0000000   6.0000000   1.0000000   1.0000000   1.0000000

  Atom        11          12          13          14          15          16          17          18          19          20
 IAtWgt=          12          12          12          12          12          12          12           1           1           1
 AtmWgt=  12.0000000  12.0000000  12.0000000  12.0000000  12.0000000  12.0000000  12.0000000   1.0078250   1.0078250   1.0078250
 NucSpn=           0           0           0           0           0           0           0           1           1           1
 AtZEff=   3.6000000   3.6000000   3.6000000   3.6000000   3.6000000   3.6000000   3.6000000   1.0000000   1.0000000   1.0000000
 NQMom=    0.0000000   0.0000000   0.0000000   0.0000000   0.0000000   0.0000000   0.0000000   0.0000000   0.0000000   0.0000000
 NMagM=    0.0000000   0.0000000   0.0000000   0.0000000   0.0000000   0.0000000   0.0000000   2.7928460   2.7928460   2.7928460
 AtZNuc=   6.0000000   6.0000000   6.0000000   6.0000000   6.0000000   6.0000000   6.0000000   1.0000000   1.0000000   1.0000000

  Atom        21          22          23          24          25          26          27          28          29          30
 IAtWgt=          14          12          12          12          12          12          12           1           1          12
 AtmWgt=  14.0030740  12.0000000  12.0000000  12.0000000  12.0000000  12.0000000  12.0000000   1.0078250   1.0078250  12.0000000
 NucSpn=           2           0           0           0           0           0           0           1           1           0
 AtZEff=   4.5500000   3.6000000   3.6000000   3.6000000   3.6000000   3.6000000   3.6000000   1.0000000   1.0000000   3.6000000
 NQMom=    2.0440000   0.0000000   0.0000000   0.0000000   0.0000000   0.0000000   0.0000000   0.0000000   0.0000000   0.0000000
 NMagM=    0.4037610   0.0000000   0.0000000   0.0000000   0.0000000   0.0000000   0.0000000   2.7928460   2.7928460   0.0000000
 AtZNuc=   7.0000000   6.0000000   6.0000000   6.0000000   6.0000000   6.0000000   6.0000000   1.0000000   1.0000000   6.0000000

  Atom        31          32          33          34          35          36          37          38          39          40
 IAtWgt=           1           1           1          12           1           1           1          16          14          14
 AtmWgt=   1.0078250   1.0078250   1.0078250  12.0000000   1.0078250   1.0078250   1.0078250  15.9949146  14.0030740  14.0030740
 NucSpn=           1           1           1           0           1           1           1           0           2           2
 AtZEff=   1.0000000   1.0000000   1.0000000   3.6000000   1.0000000   1.0000000   1.0000000   5.6000000   4.5500000   4.5500000
 NQMom=    0.0000000   0.0000000   0.0000000   0.0000000   0.0000000   0.0000000   0.0000000   0.0000000   2.0440000   2.0440000
 NMagM=    2.7928460   2.7928460   2.7928460   0.0000000   2.7928460   2.7928460   2.7928460   0.0000000   0.4037610   0.4037610
 AtZNuc=   1.0000000   1.0000000   1.0000000   6.0000000   1.0000000   1.0000000   1.0000000   8.0000000   7.0000000   7.0000000

  Atom        41          42          43          44          45          46          47          48          49          50
 IAtWgt=          14          12          14          14          12          12          12          12          12          12
 AtmWgt=  14.0030740  12.0000000  14.0030740  14.0030740  12.0000000  12.0000000  12.0000000  12.0000000  12.0000000  12.0000000
 NucSpn=           2           0           2           2           0           0           0           0           0           0
 AtZEff=   4.5500000   3.6000000   4.5500000   4.5500000   3.6000000   3.6000000   3.6000000   3.6000000   3.6000000   3.6000000
 NQMom=    2.0440000   0.0000000   2.0440000   2.0440000   0.0000000   0.0000000   0.0000000   0.0000000   0.0000000   0.0000000
 NMagM=    0.4037610   0.0000000   0.4037610   0.4037610   0.0000000   0.0000000   0.0000000   0.0000000   0.0000000   0.0000000
 AtZNuc=   7.0000000   6.0000000   7.0000000   7.0000000   6.0000000   6.0000000   6.0000000   6.0000000   6.0000000   6.0000000

  Atom        51          52          53          54          55          56          57          58          59          60
 IAtWgt=           1           1           1          12           1          14          12          12          12           1
 AtmWgt=   1.0078250   1.0078250   1.0078250  12.0000000   1.0078250  14.0030740  12.0000000  12.0000000  12.0000000   1.0078250
 NucSpn=           1           1           1           0           1           2           0           0           0           1
 AtZEff=   1.0000000   1.0000000   1.0000000   3.6000000   1.0000000   4.5500000   3.6000000   3.6000000   3.6000000   1.0000000
 NQMom=    0.0000000   0.0000000   0.0000000   0.0000000   0.0000000   2.0440000   0.0000000   0.0000000   0.0000000   0.0000000
 NMagM=    2.7928460   2.7928460   2.7928460   0.0000000   2.7928460   0.4037610   0.0000000   0.0000000   0.0000000   2.7928460
 AtZNuc=   1.0000000   1.0000000   1.0000000   6.0000000   1.0000000   7.0000000   6.0000000   6.0000000   6.0000000   1.0000000

  Atom        61          62          63          64          65          66          67          68          69          70
 IAtWgt=          12           1           1          12           1           1          12           1           1           1
 AtmWgt=  12.0000000   1.0078250   1.0078250  12.0000000   1.0078250   1.0078250  12.0000000   1.0078250   1.0078250   1.0078250
 NucSpn=           0           1           1           0           1           1           0           1           1           1
 AtZEff=   3.6000000   1.0000000   1.0000000   3.6000000   1.0000000   1.0000000   3.6000000   1.0000000   1.0000000   1.0000000
 NQMom=    0.0000000   0.0000000   0.0000000   0.0000000   0.0000000   0.0000000   0.0000000   0.0000000   0.0000000   0.0000000
 NMagM=    0.0000000   2.7928460   2.7928460   0.0000000   2.7928460   2.7928460   0.0000000   2.7928460   2.7928460   2.7928460
 AtZNuc=   6.0000000   1.0000000   1.0000000   6.0000000   1.0000000   1.0000000   6.0000000   1.0000000   1.0000000   1.0000000

  Atom        71          72          73          74          75          76          77
 IAtWgt=           1           1           1           1           1           1           1
 AtmWgt=   1.0078250   1.0078250   1.0078250   1.0078250   1.0078250   1.0078250   1.0078250
 NucSpn=           1           1           1           1           1           1           1
 AtZEff=   1.0000000   1.0000000   1.0000000   1.0000000   1.0000000   1.0000000   1.0000000
 NQMom=    0.0000000   0.0000000   0.0000000   0.0000000   0.0000000   0.0000000   0.0000000
 NMagM=    2.7928460   2.7928460   2.7928460   2.7928460   2.7928460   2.7928460   2.7928460
 AtZNuc=   1.0000000   1.0000000   1.0000000   1.0000000   1.0000000   1.0000000   1.0000000
 Leave Link  101 at Sun Dec 16 14:42:52 2018, MaxMem=  1342177280 cpu:               4.1 elap:               0.3
 (Enter /gpfs/apps/hpc/Apps/Restricted/Gaussian/Rev_A.03/g16/l103.exe)

 GradGradGradGradGradGradGradGradGradGradGradGradGradGradGradGradGradGrad
 Berny optimization.
 Initialization pass.
                           ----------------------------
                           !    Initial Parameters    !
                           ! (Angstroms and Degrees)  !
 --------------------------                            --------------------------
 ! Name  Definition              Value          Derivative Info.                !
 --------------------------------------------------------------------------------
 ! R1    R(1,2)                  1.4174         estimate D2E/DX2                !
 ! R2    R(1,6)                  1.4116         estimate D2E/DX2                !
 ! R3    R(1,41)                 1.3807         estimate D2E/DX2                !
 ! R4    R(2,3)                  1.393          estimate D2E/DX2                !
 ! R5    R(2,21)                 1.3781         estimate D2E/DX2                !
 ! R6    R(3,4)                  1.3962         estimate D2E/DX2                !
 ! R7    R(3,8)                  1.0825         estimate D2E/DX2                !
 ! R8    R(4,5)                  1.4017         estimate D2E/DX2                !
 ! R9    R(4,9)                  1.0834         estimate D2E/DX2                !
 ! R10   R(5,6)                  1.4004         estimate D2E/DX2                !
 ! R11   R(5,10)                 1.0828         estimate D2E/DX2                !
 ! R12   R(6,42)                 1.4499         estimate D2E/DX2                !
 ! R13   R(7,16)                 1.4524         estimate D2E/DX2                !
 ! R14   R(7,21)                 1.3695         estimate D2E/DX2                !
 ! R15   R(7,41)                 1.3335         estimate D2E/DX2                !
 ! R16   R(11,12)                1.4205         estimate D2E/DX2                !
 ! R17   R(11,16)                1.4144         estimate D2E/DX2                !
 ! R18   R(11,39)                1.3768         estimate D2E/DX2                !
 ! R19   R(12,13)                1.3948         estimate D2E/DX2                !
 ! R20   R(12,40)                1.3722         estimate D2E/DX2                !
 ! R21   R(13,14)                1.3929         estimate D2E/DX2                !
 ! R22   R(13,18)                1.0828         estimate D2E/DX2                !
 ! R23   R(14,15)                1.4052         estimate D2E/DX2                !
 ! R24   R(14,19)                1.0834         estimate D2E/DX2                !
 ! R25   R(15,16)                1.3973         estimate D2E/DX2                !
 ! R26   R(15,20)                1.0826         estimate D2E/DX2                !
 ! R27   R(17,23)                1.449          estimate D2E/DX2                !
 ! R28   R(17,39)                1.3392         estimate D2E/DX2                !
 ! R29   R(17,40)                1.369          estimate D2E/DX2                !
 ! R30   R(21,76)                1.0181         estimate D2E/DX2                !
 ! R31   R(22,23)                1.4682         estimate D2E/DX2                !
 ! R32   R(22,27)                1.4611         estimate D2E/DX2                !
 ! R33   R(22,38)                1.2594         estimate D2E/DX2                !
 ! R34   R(23,24)                1.3874         estimate D2E/DX2                !
 ! R35   R(24,25)                1.4029         estimate D2E/DX2                !
 ! R36   R(24,28)                1.0836         estimate D2E/DX2                !
 ! R37   R(25,26)                1.4191         estimate D2E/DX2                !
 ! R38   R(25,30)                1.4978         estimate D2E/DX2                !
 ! R39   R(26,27)                1.3726         estimate D2E/DX2                !
 ! R40   R(26,29)                1.0854         estimate D2E/DX2                !
 ! R41   R(27,34)                1.4958         estimate D2E/DX2                !
 ! R42   R(30,31)                1.0908         estimate D2E/DX2                !
 ! R43   R(30,32)                1.0965         estimate D2E/DX2                !
 ! R44   R(30,33)                1.0922         estimate D2E/DX2                !
 ! R45   R(34,35)                1.0944         estimate D2E/DX2                !
 ! R46   R(34,36)                1.0937         estimate D2E/DX2                !
 ! R47   R(34,37)                1.0899         estimate D2E/DX2                !
 ! R48   R(40,77)                1.0164         estimate D2E/DX2                !
 ! R49   R(42,43)                1.3674         estimate D2E/DX2                !
 ! R50   R(42,44)                1.3405         estimate D2E/DX2                !
 ! R51   R(43,49)                1.3773         estimate D2E/DX2                !
 ! R52   R(43,75)                1.0209         estimate D2E/DX2                !
 ! R53   R(44,50)                1.3721         estimate D2E/DX2                !
 ! R54   R(45,46)                1.408          estimate D2E/DX2                !
 ! R55   R(45,50)                1.4143         estimate D2E/DX2                !
 ! R56   R(45,54)                1.4303         estimate D2E/DX2                !
 ! R57   R(46,47)                1.3969         estimate D2E/DX2                !
 ! R58   R(46,51)                1.0838         estimate D2E/DX2                !
 ! R59   R(47,48)                1.4004         estimate D2E/DX2                !
 ! R60   R(47,52)                1.0825         estimate D2E/DX2                !
 ! R61   R(48,49)                1.3911         estimate D2E/DX2                !
 ! R62   R(48,53)                1.0829         estimate D2E/DX2                !
 ! R63   R(49,50)                1.4166         estimate D2E/DX2                !
 ! R64   R(54,55)                1.0835         estimate D2E/DX2                !
 ! R65   R(54,56)                1.2988         estimate D2E/DX2                !
 ! R66   R(56,57)                1.4719         estimate D2E/DX2                !
 ! R67   R(56,74)                1.0291         estimate D2E/DX2                !
 ! R68   R(57,58)                1.5261         estimate D2E/DX2                !
 ! R69   R(57,59)                1.5347         estimate D2E/DX2                !
 ! R70   R(57,60)                1.0964         estimate D2E/DX2                !
 ! R71   R(58,61)                1.5336         estimate D2E/DX2                !
 ! R72   R(58,62)                1.096          estimate D2E/DX2                !
 ! R73   R(58,63)                1.0936         estimate D2E/DX2                !
 ! R74   R(59,64)                1.5327         estimate D2E/DX2                !
 ! R75   R(59,65)                1.0956         estimate D2E/DX2                !
 ! R76   R(59,66)                1.0941         estimate D2E/DX2                !
 ! R77   R(61,67)                1.5323         estimate D2E/DX2                !
 ! R78   R(61,68)                1.0933         estimate D2E/DX2                !
 ! R79   R(61,69)                1.0965         estimate D2E/DX2                !
 ! R80   R(64,67)                1.5325         estimate D2E/DX2                !
 ! R81   R(64,70)                1.0931         estimate D2E/DX2                !
 ! R82   R(64,71)                1.0965         estimate D2E/DX2                !
 ! R83   R(67,72)                1.0939         estimate D2E/DX2                !
 ! R84   R(67,73)                1.0967         estimate D2E/DX2                !
 ! A1    A(2,1,6)              119.9873         estimate D2E/DX2                !
 ! A2    A(2,1,41)             110.2604         estimate D2E/DX2                !
 ! A3    A(6,1,41)             129.7523         estimate D2E/DX2                !
 ! A4    A(1,2,3)              122.3498         estimate D2E/DX2                !
 ! A5    A(1,2,21)             104.5708         estimate D2E/DX2                !
 ! A6    A(3,2,21)             133.079          estimate D2E/DX2                !
 ! A7    A(2,3,4)              116.9213         estimate D2E/DX2                !
 ! A8    A(2,3,8)              121.605          estimate D2E/DX2                !
 ! A9    A(4,3,8)              121.4737         estimate D2E/DX2                !
 ! A10   A(3,4,5)              121.7964         estimate D2E/DX2                !
 ! A11   A(3,4,9)              119.1434         estimate D2E/DX2                !
 ! A12   A(5,4,9)              119.0601         estimate D2E/DX2                !
 ! A13   A(4,5,6)              121.4796         estimate D2E/DX2                !
 ! A14   A(4,5,10)             119.9946         estimate D2E/DX2                !
 ! A15   A(6,5,10)             118.525          estimate D2E/DX2                !
 ! A16   A(1,6,5)              117.4651         estimate D2E/DX2                !
 ! A17   A(1,6,42)             120.6978         estimate D2E/DX2                !
 ! A18   A(5,6,42)             121.837          estimate D2E/DX2                !
 ! A19   A(16,7,21)            121.7058         estimate D2E/DX2                !
 ! A20   A(16,7,41)            126.1731         estimate D2E/DX2                !
 ! A21   A(21,7,41)            112.1179         estimate D2E/DX2                !
 ! A22   A(12,11,16)           119.8195         estimate D2E/DX2                !
 ! A23   A(12,11,39)           110.2133         estimate D2E/DX2                !
 ! A24   A(16,11,39)           129.967          estimate D2E/DX2                !
 ! A25   A(11,12,13)           122.625          estimate D2E/DX2                !
 ! A26   A(11,12,40)           104.6186         estimate D2E/DX2                !
 ! A27   A(13,12,40)           132.7551         estimate D2E/DX2                !
 ! A28   A(12,13,14)           116.6366         estimate D2E/DX2                !
 ! A29   A(12,13,18)           121.6262         estimate D2E/DX2                !
 ! A30   A(14,13,18)           121.7371         estimate D2E/DX2                !
 ! A31   A(13,14,15)           121.8962         estimate D2E/DX2                !
 ! A32   A(13,14,19)           119.3213         estimate D2E/DX2                !
 ! A33   A(15,14,19)           118.7825         estimate D2E/DX2                !
 ! A34   A(14,15,16)           121.742          estimate D2E/DX2                !
 ! A35   A(14,15,20)           119.7757         estimate D2E/DX2                !
 ! A36   A(16,15,20)           118.4821         estimate D2E/DX2                !
 ! A37   A(7,16,11)            121.2567         estimate D2E/DX2                !
 ! A38   A(7,16,15)            121.4644         estimate D2E/DX2                !
 ! A39   A(11,16,15)           117.2788         estimate D2E/DX2                !
 ! A40   A(23,17,39)           125.6634         estimate D2E/DX2                !
 ! A41   A(23,17,40)           122.5162         estimate D2E/DX2                !
 ! A42   A(39,17,40)           111.8177         estimate D2E/DX2                !
 ! A43   A(2,21,7)             107.8724         estimate D2E/DX2                !
 ! A44   A(2,21,76)            129.7412         estimate D2E/DX2                !
 ! A45   A(7,21,76)            122.3862         estimate D2E/DX2                !
 ! A46   A(23,22,27)           117.8418         estimate D2E/DX2                !
 ! A47   A(23,22,38)           122.3495         estimate D2E/DX2                !
 ! A48   A(27,22,38)           119.8087         estimate D2E/DX2                !
 ! A49   A(17,23,22)           120.1666         estimate D2E/DX2                !
 ! A50   A(17,23,24)           120.1944         estimate D2E/DX2                !
 ! A51   A(22,23,24)           119.6389         estimate D2E/DX2                !
 ! A52   A(23,24,25)           121.5367         estimate D2E/DX2                !
 ! A53   A(23,24,28)           118.8408         estimate D2E/DX2                !
 ! A54   A(25,24,28)           119.6222         estimate D2E/DX2                !
 ! A55   A(24,25,26)           119.3175         estimate D2E/DX2                !
 ! A56   A(24,25,30)           120.7608         estimate D2E/DX2                !
 ! A57   A(26,25,30)           119.9104         estimate D2E/DX2                !
 ! A58   A(25,26,27)           122.1887         estimate D2E/DX2                !
 ! A59   A(25,26,29)           118.4562         estimate D2E/DX2                !
 ! A60   A(27,26,29)           119.355          estimate D2E/DX2                !
 ! A61   A(22,27,26)           119.4735         estimate D2E/DX2                !
 ! A62   A(22,27,34)           117.6044         estimate D2E/DX2                !
 ! A63   A(26,27,34)           122.9212         estimate D2E/DX2                !
 ! A64   A(25,30,31)           111.3128         estimate D2E/DX2                !
 ! A65   A(25,30,32)           110.0555         estimate D2E/DX2                !
 ! A66   A(25,30,33)           111.0845         estimate D2E/DX2                !
 ! A67   A(31,30,32)           107.7982         estimate D2E/DX2                !
 ! A68   A(31,30,33)           109.3459         estimate D2E/DX2                !
 ! A69   A(32,30,33)           107.0986         estimate D2E/DX2                !
 ! A70   A(27,34,35)           110.7714         estimate D2E/DX2                !
 ! A71   A(27,34,36)           110.6758         estimate D2E/DX2                !
 ! A72   A(27,34,37)           110.8651         estimate D2E/DX2                !
 ! A73   A(35,34,36)           106.4297         estimate D2E/DX2                !
 ! A74   A(35,34,37)           108.9344         estimate D2E/DX2                !
 ! A75   A(36,34,37)           109.0409         estimate D2E/DX2                !
 ! A76   A(11,39,17)           105.2195         estimate D2E/DX2                !
 ! A77   A(12,40,17)           108.1303         estimate D2E/DX2                !
 ! A78   A(12,40,77)           130.9217         estimate D2E/DX2                !
 ! A79   A(17,40,77)           120.9446         estimate D2E/DX2                !
 ! A80   A(1,41,7)             105.1779         estimate D2E/DX2                !
 ! A81   A(6,42,43)            121.4614         estimate D2E/DX2                !
 ! A82   A(6,42,44)            126.5524         estimate D2E/DX2                !
 ! A83   A(43,42,44)           111.983          estimate D2E/DX2                !
 ! A84   A(42,43,49)           107.9262         estimate D2E/DX2                !
 ! A85   A(42,43,75)           121.9115         estimate D2E/DX2                !
 ! A86   A(49,43,75)           130.1536         estimate D2E/DX2                !
 ! A87   A(42,44,50)           104.9878         estimate D2E/DX2                !
 ! A88   A(46,45,50)           117.6328         estimate D2E/DX2                !
 ! A89   A(46,45,54)           120.442          estimate D2E/DX2                !
 ! A90   A(50,45,54)           121.892          estimate D2E/DX2                !
 ! A91   A(45,46,47)           121.3384         estimate D2E/DX2                !
 ! A92   A(45,46,51)           118.8485         estimate D2E/DX2                !
 ! A93   A(47,46,51)           119.8109         estimate D2E/DX2                !
 ! A94   A(46,47,48)           121.5436         estimate D2E/DX2                !
 ! A95   A(46,47,52)           119.272          estimate D2E/DX2                !
 ! A96   A(48,47,52)           119.1844         estimate D2E/DX2                !
 ! A97   A(47,48,49)           117.4535         estimate D2E/DX2                !
 ! A98   A(47,48,53)           121.116          estimate D2E/DX2                !
 ! A99   A(49,48,53)           121.4302         estimate D2E/DX2                !
 ! A100  A(43,49,48)           133.4273         estimate D2E/DX2                !
 ! A101  A(43,49,50)           104.4108         estimate D2E/DX2                !
 ! A102  A(48,49,50)           122.1619         estimate D2E/DX2                !
 ! A103  A(44,50,45)           129.441          estimate D2E/DX2                !
 ! A104  A(44,50,49)           110.6916         estimate D2E/DX2                !
 ! A105  A(45,50,49)           119.8645         estimate D2E/DX2                !
 ! A106  A(45,54,55)           118.999          estimate D2E/DX2                !
 ! A107  A(45,54,56)           123.0431         estimate D2E/DX2                !
 ! A108  A(55,54,56)           117.9458         estimate D2E/DX2                !
 ! A109  A(54,56,57)           126.9494         estimate D2E/DX2                !
 ! A110  A(54,56,74)           115.8305         estimate D2E/DX2                !
 ! A111  A(57,56,74)           117.2185         estimate D2E/DX2                !
 ! A112  A(56,57,58)           113.0805         estimate D2E/DX2                !
 ! A113  A(56,57,59)           109.32           estimate D2E/DX2                !
 ! A114  A(56,57,60)           105.2905         estimate D2E/DX2                !
 ! A115  A(58,57,59)           111.7477         estimate D2E/DX2                !
 ! A116  A(58,57,60)           108.8183         estimate D2E/DX2                !
 ! A117  A(59,57,60)           108.2802         estimate D2E/DX2                !
 ! A118  A(57,58,61)           110.1236         estimate D2E/DX2                !
 ! A119  A(57,58,62)           109.1797         estimate D2E/DX2                !
 ! A120  A(57,58,63)           110.3449         estimate D2E/DX2                !
 ! A121  A(61,58,62)           109.4222         estimate D2E/DX2                !
 ! A122  A(61,58,63)           110.1171         estimate D2E/DX2                !
 ! A123  A(62,58,63)           107.6054         estimate D2E/DX2                !
 ! A124  A(57,59,64)           110.1707         estimate D2E/DX2                !
 ! A125  A(57,59,65)           108.4257         estimate D2E/DX2                !
 ! A126  A(57,59,66)           109.6925         estimate D2E/DX2                !
 ! A127  A(64,59,65)           110.1472         estimate D2E/DX2                !
 ! A128  A(64,59,66)           110.7837         estimate D2E/DX2                !
 ! A129  A(65,59,66)           107.5534         estimate D2E/DX2                !
 ! A130  A(58,61,67)           111.6758         estimate D2E/DX2                !
 ! A131  A(58,61,68)           109.2092         estimate D2E/DX2                !
 ! A132  A(58,61,69)           109.1126         estimate D2E/DX2                !
 ! A133  A(67,61,68)           110.5677         estimate D2E/DX2                !
 ! A134  A(67,61,69)           109.3215         estimate D2E/DX2                !
 ! A135  A(68,61,69)           106.8232         estimate D2E/DX2                !
 ! A136  A(59,64,67)           111.4577         estimate D2E/DX2                !
 ! A137  A(59,64,70)           109.5613         estimate D2E/DX2                !
 ! A138  A(59,64,71)           109.0778         estimate D2E/DX2                !
 ! A139  A(67,64,70)           110.5176         estimate D2E/DX2                !
 ! A140  A(67,64,71)           109.2251         estimate D2E/DX2                !
 ! A141  A(70,64,71)           106.8815         estimate D2E/DX2                !
 ! A142  A(61,67,64)           111.2137         estimate D2E/DX2                !
 ! A143  A(61,67,72)           109.9378         estimate D2E/DX2                !
 ! A144  A(61,67,73)           109.1971         estimate D2E/DX2                !
 ! A145  A(64,67,72)           110.0414         estimate D2E/DX2                !
 ! A146  A(64,67,73)           109.2909         estimate D2E/DX2                !
 ! A147  A(72,67,73)           107.0618         estimate D2E/DX2                !
 ! D1    D(6,1,2,3)              0.1429         estimate D2E/DX2                !
 ! D2    D(6,1,2,21)          -179.6539         estimate D2E/DX2                !
 ! D3    D(41,1,2,3)          -179.9449         estimate D2E/DX2                !
 ! D4    D(41,1,2,21)            0.2583         estimate D2E/DX2                !
 ! D5    D(2,1,6,5)             -0.099          estimate D2E/DX2                !
 ! D6    D(2,1,6,42)          -179.9808         estimate D2E/DX2                !
 ! D7    D(41,1,6,5)          -179.9919         estimate D2E/DX2                !
 ! D8    D(41,1,6,42)            0.1263         estimate D2E/DX2                !
 ! D9    D(2,1,41,7)            -0.2531         estimate D2E/DX2                !
 ! D10   D(6,1,41,7)           179.648          estimate D2E/DX2                !
 ! D11   D(1,2,3,4)              0.0002         estimate D2E/DX2                !
 ! D12   D(1,2,3,8)            179.9269         estimate D2E/DX2                !
 ! D13   D(21,2,3,4)           179.731          estimate D2E/DX2                !
 ! D14   D(21,2,3,8)            -0.3423         estimate D2E/DX2                !
 ! D15   D(1,2,21,7)            -0.16           estimate D2E/DX2                !
 ! D16   D(1,2,21,76)          179.9568         estimate D2E/DX2                !
 ! D17   D(3,2,21,7)          -179.925          estimate D2E/DX2                !
 ! D18   D(3,2,21,76)            0.1918         estimate D2E/DX2                !
 ! D19   D(2,3,4,5)             -0.1855         estimate D2E/DX2                !
 ! D20   D(2,3,4,9)            179.8144         estimate D2E/DX2                !
 ! D21   D(8,3,4,5)            179.8878         estimate D2E/DX2                !
 ! D22   D(8,3,4,9)             -0.1123         estimate D2E/DX2                !
 ! D23   D(3,4,5,6)              0.2325         estimate D2E/DX2                !
 ! D24   D(3,4,5,10)           179.9072         estimate D2E/DX2                !
 ! D25   D(9,4,5,6)           -179.7674         estimate D2E/DX2                !
 ! D26   D(9,4,5,10)            -0.0927         estimate D2E/DX2                !
 ! D27   D(4,5,6,1)             -0.082          estimate D2E/DX2                !
 ! D28   D(4,5,6,42)           179.7984         estimate D2E/DX2                !
 ! D29   D(10,5,6,1)          -179.7614         estimate D2E/DX2                !
 ! D30   D(10,5,6,42)            0.119          estimate D2E/DX2                !
 ! D31   D(1,6,42,43)            2.8596         estimate D2E/DX2                !
 ! D32   D(1,6,42,44)         -177.8464         estimate D2E/DX2                !
 ! D33   D(5,6,42,43)         -177.017          estimate D2E/DX2                !
 ! D34   D(5,6,42,44)            2.2771         estimate D2E/DX2                !
 ! D35   D(21,7,16,11)           0.4096         estimate D2E/DX2                !
 ! D36   D(21,7,16,15)        -179.4348         estimate D2E/DX2                !
 ! D37   D(41,7,16,11)         179.7029         estimate D2E/DX2                !
 ! D38   D(41,7,16,15)          -0.1414         estimate D2E/DX2                !
 ! D39   D(16,7,21,2)          179.3933         estimate D2E/DX2                !
 ! D40   D(16,7,21,76)          -0.7131         estimate D2E/DX2                !
 ! D41   D(41,7,21,2)            0.009          estimate D2E/DX2                !
 ! D42   D(41,7,21,76)         179.9026         estimate D2E/DX2                !
 ! D43   D(16,7,41,1)         -179.2003         estimate D2E/DX2                !
 ! D44   D(21,7,41,1)            0.1507         estimate D2E/DX2                !
 ! D45   D(16,11,12,13)         -0.3353         estimate D2E/DX2                !
 ! D46   D(16,11,12,40)       -179.9788         estimate D2E/DX2                !
 ! D47   D(39,11,12,13)        179.5068         estimate D2E/DX2                !
 ! D48   D(39,11,12,40)         -0.1366         estimate D2E/DX2                !
 ! D49   D(12,11,16,7)        -179.3261         estimate D2E/DX2                !
 ! D50   D(12,11,16,15)          0.5245         estimate D2E/DX2                !
 ! D51   D(39,11,16,7)           0.8672         estimate D2E/DX2                !
 ! D52   D(39,11,16,15)       -179.2822         estimate D2E/DX2                !
 ! D53   D(12,11,39,17)         -0.0024         estimate D2E/DX2                !
 ! D54   D(16,11,39,17)        179.8189         estimate D2E/DX2                !
 ! D55   D(11,12,13,14)          0.0452         estimate D2E/DX2                !
 ! D56   D(11,12,13,18)        179.9421         estimate D2E/DX2                !
 ! D57   D(40,12,13,14)        179.5754         estimate D2E/DX2                !
 ! D58   D(40,12,13,18)         -0.5277         estimate D2E/DX2                !
 ! D59   D(11,12,40,17)          0.2195         estimate D2E/DX2                !
 ! D60   D(11,12,40,77)        179.5421         estimate D2E/DX2                !
 ! D61   D(13,12,40,17)       -179.3715         estimate D2E/DX2                !
 ! D62   D(13,12,40,77)         -0.0489         estimate D2E/DX2                !
 ! D63   D(12,13,14,15)          0.036          estimate D2E/DX2                !
 ! D64   D(12,13,14,19)       -179.9862         estimate D2E/DX2                !
 ! D65   D(18,13,14,15)       -179.8608         estimate D2E/DX2                !
 ! D66   D(18,13,14,19)          0.1171         estimate D2E/DX2                !
 ! D67   D(13,14,15,16)          0.179          estimate D2E/DX2                !
 ! D68   D(13,14,15,20)        179.9814         estimate D2E/DX2                !
 ! D69   D(19,14,15,16)       -179.799          estimate D2E/DX2                !
 ! D70   D(19,14,15,20)          0.0034         estimate D2E/DX2                !
 ! D71   D(14,15,16,7)         179.3948         estimate D2E/DX2                !
 ! D72   D(14,15,16,11)         -0.4555         estimate D2E/DX2                !
 ! D73   D(20,15,16,7)          -0.4101         estimate D2E/DX2                !
 ! D74   D(20,15,16,11)        179.7396         estimate D2E/DX2                !
 ! D75   D(39,17,23,22)        179.2963         estimate D2E/DX2                !
 ! D76   D(39,17,23,24)         -0.6549         estimate D2E/DX2                !
 ! D77   D(40,17,23,22)         -0.065          estimate D2E/DX2                !
 ! D78   D(40,17,23,24)        179.9838         estimate D2E/DX2                !
 ! D79   D(23,17,39,11)       -179.2732         estimate D2E/DX2                !
 ! D80   D(40,17,39,11)          0.1467         estimate D2E/DX2                !
 ! D81   D(23,17,40,12)        179.2015         estimate D2E/DX2                !
 ! D82   D(23,17,40,77)         -0.2017         estimate D2E/DX2                !
 ! D83   D(39,17,40,12)         -0.2396         estimate D2E/DX2                !
 ! D84   D(39,17,40,77)       -179.6428         estimate D2E/DX2                !
 ! D85   D(27,22,23,17)       -179.5036         estimate D2E/DX2                !
 ! D86   D(27,22,23,24)          0.4478         estimate D2E/DX2                !
 ! D87   D(38,22,23,17)          0.5462         estimate D2E/DX2                !
 ! D88   D(38,22,23,24)       -179.5023         estimate D2E/DX2                !
 ! D89   D(23,22,27,26)         -0.3235         estimate D2E/DX2                !
 ! D90   D(23,22,27,34)       -179.9986         estimate D2E/DX2                !
 ! D91   D(38,22,27,26)        179.6279         estimate D2E/DX2                !
 ! D92   D(38,22,27,34)         -0.0471         estimate D2E/DX2                !
 ! D93   D(17,23,24,25)        179.3992         estimate D2E/DX2                !
 ! D94   D(17,23,24,28)         -0.3848         estimate D2E/DX2                !
 ! D95   D(22,23,24,25)         -0.5522         estimate D2E/DX2                !
 ! D96   D(22,23,24,28)        179.6637         estimate D2E/DX2                !
 ! D97   D(23,24,25,26)          0.5135         estimate D2E/DX2                !
 ! D98   D(23,24,25,30)       -178.259          estimate D2E/DX2                !
 ! D99   D(28,24,25,26)       -179.7041         estimate D2E/DX2                !
 ! D100  D(28,24,25,30)          1.5235         estimate D2E/DX2                !
 ! D101  D(24,25,26,27)         -0.386          estimate D2E/DX2                !
 ! D102  D(24,25,26,29)        179.5193         estimate D2E/DX2                !
 ! D103  D(30,25,26,27)        178.397          estimate D2E/DX2                !
 ! D104  D(30,25,26,29)         -1.6977         estimate D2E/DX2                !
 ! D105  D(24,25,30,31)        -22.0641         estimate D2E/DX2                !
 ! D106  D(24,25,30,32)         97.3891         estimate D2E/DX2                !
 ! D107  D(24,25,30,33)       -144.1727         estimate D2E/DX2                !
 ! D108  D(26,25,30,31)        159.1707         estimate D2E/DX2                !
 ! D109  D(26,25,30,32)        -81.3761         estimate D2E/DX2                !
 ! D110  D(26,25,30,33)         37.0621         estimate D2E/DX2                !
 ! D111  D(25,26,27,22)          0.3002         estimate D2E/DX2                !
 ! D112  D(25,26,27,34)        179.9571         estimate D2E/DX2                !
 ! D113  D(29,26,27,22)       -179.6043         estimate D2E/DX2                !
 ! D114  D(29,26,27,34)          0.0527         estimate D2E/DX2                !
 ! D115  D(22,27,34,35)        -61.444          estimate D2E/DX2                !
 ! D116  D(22,27,34,36)         56.361          estimate D2E/DX2                !
 ! D117  D(22,27,34,37)        177.4936         estimate D2E/DX2                !
 ! D118  D(26,27,34,35)        118.893          estimate D2E/DX2                !
 ! D119  D(26,27,34,36)       -123.302          estimate D2E/DX2                !
 ! D120  D(26,27,34,37)         -2.1693         estimate D2E/DX2                !
 ! D121  D(6,42,43,49)         179.144          estimate D2E/DX2                !
 ! D122  D(6,42,43,75)          -1.8259         estimate D2E/DX2                !
 ! D123  D(44,42,43,49)         -0.2445         estimate D2E/DX2                !
 ! D124  D(44,42,43,75)        178.7856         estimate D2E/DX2                !
 ! D125  D(6,42,44,50)        -179.1423         estimate D2E/DX2                !
 ! D126  D(43,42,44,50)          0.2083         estimate D2E/DX2                !
 ! D127  D(42,43,49,48)       -179.8229         estimate D2E/DX2                !
 ! D128  D(42,43,49,50)          0.1673         estimate D2E/DX2                !
 ! D129  D(75,43,49,48)          1.2543         estimate D2E/DX2                !
 ! D130  D(75,43,49,50)       -178.7555         estimate D2E/DX2                !
 ! D131  D(42,44,50,45)       -179.4618         estimate D2E/DX2                !
 ! D132  D(42,44,50,49)         -0.0965         estimate D2E/DX2                !
 ! D133  D(50,45,46,47)         -0.6729         estimate D2E/DX2                !
 ! D134  D(50,45,46,51)        179.878          estimate D2E/DX2                !
 ! D135  D(54,45,46,47)        177.2719         estimate D2E/DX2                !
 ! D136  D(54,45,46,51)         -2.1772         estimate D2E/DX2                !
 ! D137  D(46,45,50,44)       -179.793          estimate D2E/DX2                !
 ! D138  D(46,45,50,49)          0.8916         estimate D2E/DX2                !
 ! D139  D(54,45,50,44)          2.2939         estimate D2E/DX2                !
 ! D140  D(54,45,50,49)       -177.0215         estimate D2E/DX2                !
 ! D141  D(46,45,54,55)          1.7074         estimate D2E/DX2                !
 ! D142  D(46,45,54,56)       -177.0044         estimate D2E/DX2                !
 ! D143  D(50,45,54,55)        179.5629         estimate D2E/DX2                !
 ! D144  D(50,45,54,56)          0.851          estimate D2E/DX2                !
 ! D145  D(45,46,47,48)          0.1501         estimate D2E/DX2                !
 ! D146  D(45,46,47,52)       -179.7669         estimate D2E/DX2                !
 ! D147  D(51,46,47,48)        179.594          estimate D2E/DX2                !
 ! D148  D(51,46,47,52)         -0.3229         estimate D2E/DX2                !
 ! D149  D(46,47,48,49)          0.1569         estimate D2E/DX2                !
 ! D150  D(46,47,48,53)       -179.6355         estimate D2E/DX2                !
 ! D151  D(52,47,48,49)       -179.9261         estimate D2E/DX2                !
 ! D152  D(52,47,48,53)          0.2816         estimate D2E/DX2                !
 ! D153  D(47,48,49,43)       -179.9317         estimate D2E/DX2                !
 ! D154  D(47,48,49,50)          0.0796         estimate D2E/DX2                !
 ! D155  D(53,48,49,43)         -0.1401         estimate D2E/DX2                !
 ! D156  D(53,48,49,50)        179.8712         estimate D2E/DX2                !
 ! D157  D(43,49,50,44)         -0.0449         estimate D2E/DX2                !
 ! D158  D(43,49,50,45)        179.3899         estimate D2E/DX2                !
 ! D159  D(48,49,50,44)        179.9467         estimate D2E/DX2                !
 ! D160  D(48,49,50,45)         -0.6185         estimate D2E/DX2                !
 ! D161  D(45,54,56,57)        177.669          estimate D2E/DX2                !
 ! D162  D(45,54,56,74)         -1.8531         estimate D2E/DX2                !
 ! D163  D(55,54,56,57)         -1.0557         estimate D2E/DX2                !
 ! D164  D(55,54,56,74)        179.4223         estimate D2E/DX2                !
 ! D165  D(54,56,57,58)         -0.7313         estimate D2E/DX2                !
 ! D166  D(54,56,57,59)        124.4518         estimate D2E/DX2                !
 ! D167  D(54,56,57,60)       -119.417          estimate D2E/DX2                !
 ! D168  D(74,56,57,58)        178.7849         estimate D2E/DX2                !
 ! D169  D(74,56,57,59)        -56.0319         estimate D2E/DX2                !
 ! D170  D(74,56,57,60)         60.0993         estimate D2E/DX2                !
 ! D171  D(56,57,58,61)       -179.1786         estimate D2E/DX2                !
 ! D172  D(56,57,58,62)         60.6616         estimate D2E/DX2                !
 ! D173  D(56,57,58,63)        -57.4065         estimate D2E/DX2                !
 ! D174  D(59,57,58,61)         56.9604         estimate D2E/DX2                !
 ! D175  D(59,57,58,62)        -63.1994         estimate D2E/DX2                !
 ! D176  D(59,57,58,63)        178.7325         estimate D2E/DX2                !
 ! D177  D(60,57,58,61)        -62.5588         estimate D2E/DX2                !
 ! D178  D(60,57,58,62)        177.2814         estimate D2E/DX2                !
 ! D179  D(60,57,58,63)         59.2132         estimate D2E/DX2                !
 ! D180  D(56,57,59,64)        176.9496         estimate D2E/DX2                !
 ! D181  D(56,57,59,65)        -62.4433         estimate D2E/DX2                !
 ! D182  D(56,57,59,66)         54.7424         estimate D2E/DX2                !
 ! D183  D(58,57,59,64)        -57.0985         estimate D2E/DX2                !
 ! D184  D(58,57,59,65)         63.5086         estimate D2E/DX2                !
 ! D185  D(58,57,59,66)       -179.3056         estimate D2E/DX2                !
 ! D186  D(60,57,59,64)         62.7376         estimate D2E/DX2                !
 ! D187  D(60,57,59,65)       -176.6553         estimate D2E/DX2                !
 ! D188  D(60,57,59,66)        -59.4696         estimate D2E/DX2                !
 ! D189  D(57,58,61,67)        -55.625          estimate D2E/DX2                !
 ! D190  D(57,58,61,68)       -178.2281         estimate D2E/DX2                !
 ! D191  D(57,58,61,69)         65.3422         estimate D2E/DX2                !
 ! D192  D(62,58,61,67)         64.3882         estimate D2E/DX2                !
 ! D193  D(62,58,61,68)        -58.2149         estimate D2E/DX2                !
 ! D194  D(62,58,61,69)       -174.6446         estimate D2E/DX2                !
 ! D195  D(63,58,61,67)       -177.5322         estimate D2E/DX2                !
 ! D196  D(63,58,61,68)         59.8647         estimate D2E/DX2                !
 ! D197  D(63,58,61,69)        -56.565          estimate D2E/DX2                !
 ! D198  D(57,59,64,67)         55.6054         estimate D2E/DX2                !
 ! D199  D(57,59,64,70)        178.2433         estimate D2E/DX2                !
 ! D200  D(57,59,64,71)        -65.0785         estimate D2E/DX2                !
 ! D201  D(65,59,64,67)        -63.962          estimate D2E/DX2                !
 ! D202  D(65,59,64,70)         58.6759         estimate D2E/DX2                !
 ! D203  D(65,59,64,71)        175.3541         estimate D2E/DX2                !
 ! D204  D(66,59,64,67)        177.1658         estimate D2E/DX2                !
 ! D205  D(66,59,64,70)        -60.1963         estimate D2E/DX2                !
 ! D206  D(66,59,64,71)         56.4818         estimate D2E/DX2                !
 ! D207  D(58,61,67,64)         54.9379         estimate D2E/DX2                !
 ! D208  D(58,61,67,72)        177.0681         estimate D2E/DX2                !
 ! D209  D(58,61,67,73)        -65.752          estimate D2E/DX2                !
 ! D210  D(68,61,67,64)        176.7609         estimate D2E/DX2                !
 ! D211  D(68,61,67,72)        -61.1089         estimate D2E/DX2                !
 ! D212  D(68,61,67,73)         56.0711         estimate D2E/DX2                !
 ! D213  D(69,61,67,64)        -65.9077         estimate D2E/DX2                !
 ! D214  D(69,61,67,72)         56.2225         estimate D2E/DX2                !
 ! D215  D(69,61,67,73)        173.4025         estimate D2E/DX2                !
 ! D216  D(59,64,67,61)        -54.9273         estimate D2E/DX2                !
 ! D217  D(59,64,67,72)       -176.9974         estimate D2E/DX2                !
 ! D218  D(59,64,67,73)         65.7073         estimate D2E/DX2                !
 ! D219  D(70,64,67,61)       -177.0148         estimate D2E/DX2                !
 ! D220  D(70,64,67,72)         60.9151         estimate D2E/DX2                !
 ! D221  D(70,64,67,73)        -56.3802         estimate D2E/DX2                !
 ! D222  D(71,64,67,61)         65.6703         estimate D2E/DX2                !
 ! D223  D(71,64,67,72)        -56.3999         estimate D2E/DX2                !
 ! D224  D(71,64,67,73)       -173.6951         estimate D2E/DX2                !
 --------------------------------------------------------------------------------
 Trust Radius=3.00D-01 FncErr=1.00D-07 GrdErr=1.00D-07 EigMax=2.50D+02 EigMin=1.00D-04
 Number of steps in this run=    462 maximum allowed number of steps=    462.
 GradGradGradGradGradGradGradGradGradGradGradGradGradGradGradGradGradGrad

 Leave Link  103 at Sun Dec 16 14:42:52 2018, MaxMem=  1342177280 cpu:               0.6 elap:               0.1
 (Enter /gpfs/apps/hpc/Apps/Restricted/Gaussian/Rev_A.03/g16/l202.exe)
 Symmetry turned off by external request.
 Stoichiometry    C36H33N7O(1+,2)
 Framework group  C1[X(C36H33N7O)]
 Deg. of freedom   225
 Full point group                 C1      NOp   1
                          Input orientation:                          
 ---------------------------------------------------------------------
 Center     Atomic      Atomic             Coordinates (Angstroms)
 Number     Number       Type             X           Y           Z
 ---------------------------------------------------------------------
      1          6           0        1.633039    0.419179    0.991576
      2          6           0        0.564910    1.302279    0.694447
      3          6           0        0.748323    2.677096    0.565582
      4          6           0        2.045858    3.161129    0.743060
      5          6           0        3.117819    2.308621    1.041217
      6          6           0        2.938285    0.925857    1.170904
      7          6           0       -0.135740   -0.801672    0.819528
      8          1           0       -0.076066    3.340462    0.337199
      9          1           0        2.229928    4.224567    0.647873
     10          1           0        4.112807    2.715300    1.171461
     11          6           0       -2.447040   -1.707014    0.536387
     12          6           0       -3.338611   -2.812895    0.537618
     13          6           0       -2.916029   -4.119264    0.783254
     14          6           0       -1.557694   -4.299611    1.033265
     15          6           0       -0.654541   -3.223048    1.039627
     16          6           0       -1.072309   -1.911592    0.798708
     17          6           0       -4.405435   -0.919188    0.088128
     18          1           0       -3.610050   -4.950389    0.781167
     19          1           0       -1.182139   -5.296719    1.229330
     20          1           0        0.394438   -3.402462    1.238374
     21          7           0       -0.541689    0.486943    0.595356
     22          6           0       -6.860857   -0.582000   -0.412159
     23          6           0       -5.507888   -0.038308   -0.240807
     24          6           0       -5.290721    1.323118   -0.396549
     25          6           0       -6.335025    2.199682   -0.727063
     26          6           0       -7.646848    1.685300   -0.895921
     27          6           0       -7.932623    0.350240   -0.754281
     28          1           0       -4.288076    1.711273   -0.261721
     29          1           0       -8.445667    2.377043   -1.143740
     30          6           0       -6.073923    3.660690   -0.928984
     31          1           0       -5.155946    3.972208   -0.428867
     32          1           0       -5.963834    3.878778   -1.997910
     33          1           0       -6.907972    4.263215   -0.562539
     34          6           0       -9.308978   -0.209379   -0.927572
     35          1           0       -9.332717   -0.934763   -1.746673
     36          1           0       -9.623070   -0.747429   -0.028682
     37          1           0      -10.026984    0.583568   -1.136462
     38          8           0       -7.117276   -1.807187   -0.273759
     39          7           0       -3.130488   -0.545282    0.255673
     40          7           0       -4.565731   -2.268753    0.252941
     41          7           0        1.173434   -0.880944    1.060443
     42          6           0        4.042227    0.036482    1.474865
     43          7           0        3.869899   -1.318399    1.540494
     44          7           0        5.313641    0.392435    1.706843
     45          6           0        7.342433   -1.008299    2.226657
     46          6           0        7.766176   -2.339903    2.399103
     47          6           0        6.871196   -3.406908    2.290777
     48          6           0        5.516230   -3.200332    2.003401
     49          6           0        5.091270   -1.887794    1.825325
     50          6           0        5.978453   -0.787863    1.924725
     51          1           0        8.807852   -2.531591    2.629072
     52          1           0        7.232458   -4.417369    2.433490
     53          1           0        4.827247   -4.032288    1.926753
     54          6           0        8.262579    0.073105    2.399034
     55          1           0        9.296033   -0.149359    2.636612
     56          7           0        7.913963    1.320920    2.308093
     57          6           0        8.774053    2.497254    2.515509
     58          6           0       10.207841    2.131654    2.889000
     59          6           0        8.721405    3.390853    1.268968
     60          1           0        8.319668    3.044106    3.350098
     61          6           0       11.036527    3.403322    3.108513
     62          1           0       10.652030    1.542569    2.078464
     63          1           0       10.219988    1.514286    3.791649
     64          6           0        9.550824    4.660107    1.493160
     65          1           0        9.120017    2.824645    0.419898
     66          1           0        7.681672    3.642084    1.039097
     67          6           0       10.993982    4.324828    1.884954
     68          1           0       12.067232    3.124842    3.343971
     69          1           0       10.645723    3.940365    3.980904
     70          1           0        9.532083    5.274038    0.588913
     71          1           0        9.088816    5.253904    2.290815
     72          1           0       11.549738    5.244200    2.090902
     73          1           0       11.492250    3.829407    1.042875
     74          1           0        6.927455    1.494835    2.072081
     75          1           0        2.956178   -1.753315    1.405876
     76          1           0       -1.510614    0.726275    0.394197
     77          1           0       -5.479132   -2.702900    0.151065
 ---------------------------------------------------------------------
 Rotational constants (GHZ):           0.1690298           0.0234778           0.0206824
 Leave Link  202 at Sun Dec 16 14:42:52 2018, MaxMem=  1342177280 cpu:               1.0 elap:               0.1
 (Enter /gpfs/apps/hpc/Apps/Restricted/Gaussian/Rev_A.03/g16/l716.exe)
 Electric field and nuclear coordinate derivatives read from checkpoint file.
 Dipole        = 7.68365111D+00 1.60614010D+00 2.79252380D+00
 Polarizability= 1.09862060D+03-5.63195190D+01 9.03015140D+02
                 1.69553743D+02-8.71175172D+01 2.84994477D+02
 Full mass-weighted force constant matrix:
 Low frequencies ---  -13.1690   -0.0034    0.0005    0.0033    3.5245   11.6243
 Low frequencies ---   21.1142   23.8409   30.2584
 Diagonal vibrational polarizability:
      188.3322403      58.2707878     167.6957536
 Harmonic frequencies (cm**-1), IR intensities (KM/Mole), Raman scattering
 activities (A**4/AMU), depolarization ratios for plane and unpolarized
 incident light, reduced masses (AMU), force constants (mDyne/A),
 and normal coordinates:
                      1                      2                      3
                      A                      A                      A
 Frequencies --     15.3646                22.0144                25.8593
 Red. masses --      6.7215                 5.5300                 5.7477
 Frc consts  --      0.0009                 0.0016                 0.0023
 IR Inten    --      0.3910                 0.0629                 0.1381
  Atom  AN      X      Y      Z        X      Y      Z        X      Y      Z
     1   6    -0.03  -0.00   0.16    -0.01   0.08   0.01    -0.02   0.01   0.03
     2   6    -0.03   0.00   0.17    -0.01   0.08   0.01    -0.03   0.01   0.04
     3   6    -0.03   0.01   0.20    -0.01   0.08   0.01    -0.03   0.01   0.02
     4   6    -0.03   0.01   0.21    -0.01   0.08   0.01    -0.03   0.01  -0.00
     5   6    -0.03   0.00   0.19    -0.01   0.08   0.01    -0.02   0.02  -0.02
     6   6    -0.03  -0.00   0.16    -0.01   0.08   0.01    -0.02   0.02  -0.00
     7   6    -0.02  -0.00   0.11    -0.00   0.08   0.00    -0.02   0.01   0.07
     8   1    -0.03   0.01   0.22    -0.01   0.08   0.01    -0.03   0.01   0.03
     9   1    -0.03   0.01   0.23    -0.01   0.08   0.01    -0.03   0.01  -0.02
    10   1    -0.03  -0.00   0.19    -0.01   0.08   0.01    -0.02   0.02  -0.04
    11   6    -0.00  -0.01   0.00     0.01   0.03  -0.02    -0.02   0.00   0.07
    12   6    -0.00  -0.01  -0.06     0.04   0.01  -0.04    -0.02   0.01   0.10
    13   6    -0.00  -0.01  -0.06     0.07   0.02  -0.05    -0.03   0.01   0.17
    14   6    -0.01  -0.01  -0.01     0.07   0.05  -0.04    -0.04   0.02   0.21
    15   6    -0.02  -0.01   0.05     0.04   0.07  -0.02    -0.03   0.02   0.18
    16   6    -0.01  -0.01   0.06     0.01   0.06  -0.01    -0.02   0.01   0.11
    17   6     0.01  -0.00  -0.05    -0.01  -0.01  -0.02    -0.01  -0.01   0.01
    18   1    -0.00  -0.02  -0.11     0.09   0.00  -0.06    -0.03   0.02   0.19
    19   1    -0.02  -0.02  -0.01     0.10   0.06  -0.05    -0.04   0.03   0.26
    20   1    -0.03  -0.01   0.09     0.05   0.10  -0.02    -0.04   0.02   0.21
    21   7    -0.02   0.00   0.15    -0.01   0.08   0.00    -0.03   0.01   0.06
    22   6     0.02   0.01  -0.10    -0.02  -0.08  -0.02     0.00  -0.02  -0.03
    23   6     0.02   0.00  -0.06    -0.03  -0.04  -0.01    -0.00  -0.01  -0.03
    24   6     0.02   0.00  -0.03    -0.07  -0.03   0.01     0.00  -0.02  -0.05
    25   6     0.03   0.01  -0.03    -0.10  -0.06   0.02     0.01  -0.02  -0.09
    26   6     0.03   0.02  -0.06    -0.08  -0.09   0.01     0.01  -0.03  -0.10
    27   6     0.03   0.01  -0.09    -0.04  -0.10  -0.00     0.01  -0.02  -0.07
    28   1     0.02   0.00  -0.00    -0.09  -0.00   0.02     0.00  -0.02  -0.05
    29   1     0.03   0.02  -0.06    -0.11  -0.12   0.02     0.02  -0.03  -0.12
    30   6     0.03   0.01  -0.00    -0.14  -0.05   0.03     0.01  -0.03  -0.11
    31   1     0.03   0.00   0.00    -0.16  -0.02   0.05     0.01  -0.02  -0.11
    32   1     0.03   0.04   0.00    -0.12  -0.04   0.03     0.01  -0.04  -0.11
    33   1     0.03   0.01   0.01    -0.16  -0.07   0.01     0.01  -0.02  -0.11
    34   6     0.03   0.02  -0.12    -0.03  -0.14  -0.00     0.01  -0.02  -0.08
    35   1     0.04   0.03  -0.12    -0.01  -0.15   0.00     0.01  -0.03  -0.07
    36   1     0.02   0.01  -0.13    -0.02  -0.14   0.00     0.00  -0.02  -0.08
    37   1     0.03   0.02  -0.12    -0.05  -0.16  -0.01     0.01  -0.02  -0.09
    38   8     0.02   0.00  -0.13     0.02  -0.09  -0.03    -0.00  -0.01  -0.01
    39   7     0.00  -0.00   0.00    -0.02   0.02  -0.01    -0.01  -0.01   0.02
    40   7     0.01  -0.01  -0.09     0.03  -0.02  -0.03    -0.01  -0.00   0.06
    41   7    -0.02  -0.00   0.12    -0.01   0.08   0.01    -0.02   0.01   0.05
    42   6    -0.02  -0.01   0.12    -0.02   0.07   0.02    -0.01   0.02  -0.03
    43   7    -0.01  -0.01   0.12    -0.05   0.08   0.04    -0.00   0.02  -0.05
    44   7    -0.01  -0.01   0.08    -0.01   0.05   0.00    -0.00   0.02  -0.06
    45   6     0.02  -0.01  -0.04    -0.03  -0.00   0.00     0.01   0.01  -0.14
    46   6     0.03  -0.01  -0.08    -0.07  -0.01   0.02     0.02   0.00  -0.18
    47   6     0.03  -0.01  -0.04    -0.10   0.01   0.05     0.02   0.00  -0.19
    48   6     0.01  -0.01   0.03    -0.10   0.04   0.06     0.01   0.01  -0.14
    49   6    -0.00  -0.01   0.06    -0.06   0.05   0.04     0.01   0.01  -0.10
    50   6     0.00  -0.01   0.03    -0.03   0.03   0.02     0.01   0.01  -0.10
    51   1     0.04  -0.01  -0.14    -0.07  -0.04   0.01     0.03  -0.00  -0.21
    52   1     0.04  -0.01  -0.07    -0.13   0.00   0.06     0.03   0.00  -0.22
    53   1     0.01  -0.01   0.06    -0.12   0.06   0.08     0.01   0.01  -0.14
    54   6     0.02  -0.00  -0.09     0.01  -0.03  -0.02     0.01   0.00  -0.10
    55   1     0.04   0.00  -0.14     0.00  -0.07  -0.03     0.02  -0.01  -0.12
    56   7     0.01  -0.00  -0.07     0.05  -0.02  -0.03     0.01   0.01  -0.04
    57   6     0.01   0.00  -0.10     0.09  -0.05  -0.02     0.02  -0.01   0.03
    58   6     0.02   0.01  -0.12     0.08  -0.10  -0.03     0.01  -0.04   0.04
    59   6    -0.02  -0.01  -0.10     0.11  -0.03  -0.01     0.05   0.04   0.06
    60   1     0.02   0.01  -0.09     0.11  -0.05  -0.01     0.01  -0.04   0.04
    61   6     0.01   0.02  -0.13     0.11  -0.13  -0.01     0.02  -0.06   0.10
    62   1     0.01   0.01  -0.12     0.06  -0.10  -0.04     0.01  -0.01   0.03
    63   1     0.03   0.02  -0.11     0.06  -0.12  -0.04    -0.02  -0.08   0.01
    64   6    -0.03   0.00  -0.12     0.15  -0.06   0.01     0.07   0.02   0.12
    65   1    -0.03  -0.01  -0.10     0.10  -0.03  -0.02     0.06   0.07   0.05
    66   1    -0.03  -0.02  -0.08     0.12  -0.00  -0.00     0.06   0.06   0.05
    67   6    -0.02   0.01  -0.14     0.14  -0.10   0.01     0.06  -0.01   0.14
    68   1     0.01   0.03  -0.15     0.11  -0.16  -0.01     0.01  -0.08   0.11
    69   1     0.01   0.02  -0.13     0.13  -0.13   0.00     0.01  -0.09   0.12
    70   1    -0.04  -0.01  -0.13     0.16  -0.04   0.03     0.09   0.06   0.15
    71   1    -0.02   0.00  -0.12     0.16  -0.06   0.02     0.06  -0.00   0.14
    72   1    -0.02   0.02  -0.15     0.16  -0.12   0.02     0.06  -0.03   0.18
    73   1    -0.03   0.01  -0.14     0.13  -0.10   0.00     0.07   0.01   0.13
    74   1    -0.00  -0.01  -0.02     0.05   0.01  -0.02     0.01   0.02  -0.02
    75   1    -0.01  -0.01   0.13    -0.06   0.10   0.04    -0.01   0.02  -0.03
    76   1    -0.02   0.00   0.13    -0.01   0.08  -0.00    -0.03   0.00   0.06
    77   1     0.01  -0.01  -0.12     0.04  -0.04  -0.04    -0.01  -0.00   0.06
                      4                      5                      6
                      A                      A                      A
 Frequencies --     45.2964                50.6940                55.7313
 Red. masses --      5.4779                 4.9770                 5.7915
 Frc consts  --      0.0066                 0.0075                 0.0106
 IR Inten    --      0.7710                 1.3932                 1.8354
  Atom  AN      X      Y      Z        X      Y      Z        X      Y      Z
     1   6    -0.05  -0.04   0.00     0.00  -0.03  -0.01    -0.02   0.06  -0.03
     2   6    -0.07  -0.07  -0.01     0.01  -0.03  -0.04    -0.05   0.03   0.01
     3   6    -0.10  -0.06  -0.02     0.02  -0.04  -0.09    -0.08   0.03   0.02
     4   6    -0.11  -0.03  -0.01     0.03  -0.04  -0.12    -0.09   0.06  -0.02
     5   6    -0.10  -0.01  -0.01     0.02  -0.04  -0.10    -0.06   0.08  -0.06
     6   6    -0.07  -0.01   0.01     0.01  -0.04  -0.05    -0.03   0.08  -0.06
     7   6    -0.03  -0.08  -0.01    -0.01  -0.02   0.04     0.01   0.01   0.02
     8   1    -0.11  -0.08  -0.03     0.02  -0.04  -0.10    -0.10   0.02   0.05
     9   1    -0.14  -0.03  -0.02     0.03  -0.05  -0.16    -0.11   0.06  -0.02
    10   1    -0.10   0.01  -0.01     0.03  -0.05  -0.13    -0.06   0.10  -0.09
    11   6    -0.03  -0.07  -0.02    -0.02   0.00   0.04     0.04  -0.05   0.04
    12   6    -0.04  -0.06  -0.04    -0.03   0.01   0.01     0.06  -0.06   0.03
    13   6    -0.05  -0.07  -0.06    -0.04   0.00   0.01     0.08  -0.05   0.02
    14   6    -0.05  -0.08  -0.07    -0.05  -0.01   0.05     0.08  -0.03   0.03
    15   6    -0.04  -0.09  -0.06    -0.04  -0.01   0.07     0.07  -0.01   0.04
    16   6    -0.03  -0.08  -0.03    -0.03  -0.01   0.06     0.04  -0.02   0.04
    17   6    -0.02  -0.04  -0.01    -0.01   0.01   0.01     0.05  -0.06   0.04
    18   1    -0.05  -0.07  -0.07    -0.05   0.01  -0.01     0.10  -0.06   0.01
    19   1    -0.05  -0.09  -0.09    -0.06  -0.01   0.06     0.10  -0.02   0.03
    20   1    -0.04  -0.11  -0.06    -0.05  -0.02   0.08     0.07   0.00   0.04
    21   7    -0.05  -0.09  -0.02    -0.00  -0.02   0.00    -0.04   0.00   0.05
    22   6    -0.02   0.03   0.03     0.01  -0.00  -0.10     0.07  -0.00  -0.02
    23   6     0.00  -0.01   0.00    -0.01   0.02   0.01     0.07  -0.03   0.03
    24   6     0.05  -0.02  -0.01    -0.04   0.03   0.12     0.11  -0.03   0.07
    25   6     0.07   0.01  -0.00    -0.04   0.03   0.14     0.14  -0.00   0.06
    26   6     0.05   0.05   0.02    -0.02   0.02   0.03     0.13   0.03   0.01
    27   6     0.01   0.07   0.04     0.00  -0.00  -0.08     0.10   0.03  -0.03
    28   1     0.06  -0.05  -0.04    -0.05   0.05   0.21     0.11  -0.06   0.11
    29   1     0.07   0.08   0.03    -0.03   0.02   0.06     0.16   0.05   0.01
    30   6     0.12  -0.00  -0.02    -0.07   0.06   0.27     0.18  -0.00   0.12
    31   1     0.14  -0.03  -0.05    -0.08   0.03   0.31     0.20  -0.05   0.11
    32   1     0.09  -0.01  -0.02    -0.05   0.15   0.29     0.15   0.04   0.13
    33   1     0.15   0.03   0.00    -0.08   0.01   0.31     0.21   0.01   0.17
    34   6    -0.01   0.11   0.05     0.02  -0.02  -0.17     0.10   0.06  -0.08
    35   1    -0.04   0.11   0.05     0.07   0.01  -0.19     0.10   0.08  -0.10
    36   1    -0.01   0.11   0.05    -0.02  -0.04  -0.20     0.06   0.05  -0.10
    37   1     0.01   0.13   0.07     0.02  -0.02  -0.18     0.12   0.08  -0.09
    38   8    -0.06   0.04   0.05     0.03  -0.02  -0.21     0.05  -0.00  -0.05
    39   7    -0.01  -0.06  -0.00    -0.02   0.01   0.04     0.04  -0.05   0.05
    40   7    -0.04  -0.04  -0.02    -0.02   0.01  -0.02     0.05  -0.06   0.02
    41   7    -0.03  -0.05   0.00    -0.01  -0.03   0.04     0.01   0.04  -0.03
    42   6    -0.04   0.02   0.02     0.01  -0.03  -0.03    -0.03   0.07  -0.07
    43   7    -0.02   0.02   0.05     0.01  -0.02   0.04    -0.06   0.07  -0.09
    44   7    -0.04   0.05  -0.01     0.02  -0.02  -0.06    -0.03   0.04  -0.04
    45   6    -0.01   0.08  -0.02     0.02   0.01  -0.02    -0.08  -0.01   0.02
    46   6     0.00   0.09   0.00     0.03   0.02   0.02    -0.12  -0.02   0.04
    47   6     0.01   0.08   0.05     0.03   0.01   0.08    -0.14   0.00   0.01
    48   6     0.01   0.06   0.07     0.02  -0.00   0.09    -0.13   0.03  -0.04
    49   6    -0.01   0.05   0.05     0.02  -0.01   0.04    -0.08   0.05  -0.06
    50   6    -0.02   0.07   0.01     0.02  -0.01  -0.02    -0.06   0.02  -0.03
    51   1     0.01   0.11  -0.02     0.03   0.03   0.02    -0.14  -0.05   0.09
    52   1     0.03   0.08   0.07     0.03   0.02   0.12    -0.17  -0.01   0.03
    53   1     0.01   0.05   0.11     0.02  -0.01   0.14    -0.15   0.05  -0.07
    54   6    -0.00   0.08  -0.05     0.02   0.02  -0.05    -0.06  -0.03   0.04
    55   1    -0.00   0.06  -0.07     0.02   0.02  -0.04    -0.07  -0.04   0.08
    56   7     0.03   0.08  -0.05     0.02   0.01  -0.06    -0.05  -0.02   0.02
    57   6     0.08   0.05  -0.03     0.01   0.02  -0.03    -0.04  -0.03   0.01
    58   6     0.06  -0.02  -0.01     0.01   0.01  -0.01    -0.04  -0.03  -0.01
    59   6     0.13   0.08  -0.01     0.03   0.04  -0.02    -0.06  -0.04  -0.00
    60   1     0.09   0.05  -0.02    -0.00  -0.00  -0.03    -0.03  -0.02   0.01
    61   6     0.11  -0.05   0.03     0.00   0.01   0.03    -0.03  -0.03  -0.03
    62   1     0.05  -0.01  -0.02     0.02   0.03  -0.02    -0.05  -0.04  -0.01
    63   1     0.02  -0.04  -0.03    -0.01  -0.00  -0.03    -0.03  -0.02   0.00
    64   6     0.18   0.04   0.04     0.02   0.04   0.02    -0.05  -0.04  -0.03
    65   1     0.13   0.08  -0.01     0.05   0.06  -0.02    -0.07  -0.05  -0.00
    66   1     0.15   0.13  -0.02     0.04   0.04  -0.03    -0.06  -0.04   0.01
    67   6     0.16  -0.02   0.05     0.02   0.04   0.04    -0.05  -0.05  -0.04
    68   1     0.09  -0.10   0.04    -0.00   0.01   0.04    -0.03  -0.03  -0.04
    69   1     0.11  -0.06   0.04    -0.01  -0.01   0.03    -0.02  -0.02  -0.03
    70   1     0.22   0.07   0.06     0.04   0.06   0.04    -0.06  -0.05  -0.03
    71   1     0.19   0.04   0.05     0.01   0.02   0.03    -0.04  -0.03  -0.03
    72   1     0.19  -0.05   0.09     0.01   0.04   0.08    -0.04  -0.05  -0.07
    73   1     0.16  -0.02   0.05     0.04   0.06   0.04    -0.06  -0.06  -0.05
    74   1     0.03   0.12  -0.03     0.02   0.01  -0.07    -0.04  -0.02  -0.00
    75   1    -0.01   0.00   0.06     0.01  -0.03   0.06    -0.08   0.10  -0.09
    76   1    -0.06  -0.11  -0.02     0.00  -0.02   0.00    -0.05  -0.03   0.07
    77   1    -0.04  -0.03  -0.02    -0.01   0.01  -0.07     0.06  -0.07   0.00
                      7                      8                      9
                      A                      A                      A
 Frequencies --     58.4465                68.4335                74.6015
 Red. masses --      4.6799                 5.3364                 4.5766
 Frc consts  --      0.0094                 0.0147                 0.0150
 IR Inten    --      1.1969                 0.1633                 1.8443
  Atom  AN      X      Y      Z        X      Y      Z        X      Y      Z
     1   6    -0.01  -0.02  -0.02    -0.01   0.01   0.02     0.00  -0.00   0.01
     2   6    -0.02  -0.02   0.02     0.00  -0.01  -0.07    -0.01   0.01   0.11
     3   6    -0.03  -0.01   0.06     0.00  -0.01  -0.12    -0.01   0.02   0.13
     4   6    -0.03  -0.01   0.06    -0.01  -0.00  -0.08     0.01  -0.00   0.03
     5   6    -0.02  -0.01   0.02    -0.02   0.01   0.00     0.02  -0.02  -0.07
     6   6    -0.01  -0.02  -0.02    -0.02   0.02   0.05     0.02  -0.02  -0.08
     7   6    -0.01  -0.02  -0.02     0.00  -0.00   0.00    -0.01   0.01   0.08
     8   1    -0.04  -0.01   0.10     0.01  -0.03  -0.19    -0.03   0.03   0.22
     9   1    -0.04  -0.00   0.08    -0.01  -0.00  -0.11     0.01  -0.00   0.04
    10   1    -0.02  -0.01   0.02    -0.02   0.02   0.02     0.04  -0.03  -0.14
    11   6    -0.03  -0.00   0.01     0.02  -0.02  -0.08     0.00   0.00  -0.02
    12   6    -0.03   0.01   0.03     0.02  -0.02  -0.08     0.01  -0.01  -0.07
    13   6    -0.04   0.00   0.03    -0.00  -0.00   0.05     0.01  -0.00  -0.06
    14   6    -0.04  -0.01   0.02    -0.02   0.01   0.18    -0.01   0.01   0.03
    15   6    -0.03  -0.01  -0.00    -0.02   0.01   0.16    -0.02   0.01   0.08
    16   6    -0.02  -0.01  -0.00     0.00  -0.01   0.02    -0.01   0.01   0.06
    17   6    -0.03   0.01   0.02     0.04  -0.03  -0.17     0.01  -0.01  -0.08
    18   1    -0.05   0.01   0.05    -0.01  -0.00   0.06     0.01  -0.01  -0.10
    19   1    -0.05  -0.01   0.02    -0.04   0.03   0.28    -0.01   0.01   0.05
    20   1    -0.03  -0.02  -0.01    -0.04   0.02   0.26    -0.03   0.02   0.14
    21   7    -0.02  -0.01   0.03     0.01  -0.02  -0.08    -0.02   0.02   0.17
    22   6    -0.02  -0.01  -0.03     0.02  -0.00  -0.05    -0.00   0.00  -0.01
    23   6    -0.03   0.00   0.01     0.03  -0.02  -0.12     0.01  -0.01  -0.06
    24   6    -0.04   0.01   0.03     0.03  -0.01  -0.08     0.00  -0.01  -0.06
    25   6    -0.04   0.00   0.02     0.01   0.01   0.05    -0.01  -0.00  -0.01
    26   6    -0.03  -0.01  -0.03    -0.02   0.03   0.15    -0.02   0.01   0.06
    27   6    -0.02  -0.01  -0.05    -0.01   0.02   0.10    -0.02   0.01   0.07
    28   1    -0.04   0.02   0.07     0.04  -0.02  -0.13     0.01  -0.01  -0.10
    29   1    -0.03  -0.01  -0.04    -0.03   0.05   0.26    -0.03   0.02   0.11
    30   6    -0.05   0.01   0.05     0.01   0.01   0.08    -0.01  -0.00  -0.04
    31   1    -0.06   0.01   0.07     0.01  -0.00   0.08    -0.01   0.00  -0.04
    32   1    -0.04   0.03   0.06     0.00   0.03   0.09    -0.00  -0.03  -0.04
    33   1    -0.06  -0.00   0.06     0.01   0.01   0.10    -0.01   0.00  -0.05
    34   6    -0.01  -0.02  -0.09    -0.02   0.03   0.19    -0.03   0.01   0.14
    35   1     0.02  -0.02  -0.10    -0.08   0.04   0.19    -0.07   0.01   0.14
    36   1    -0.03  -0.03  -0.10     0.03   0.02   0.21     0.01   0.02   0.16
    37   1    -0.01  -0.02  -0.11    -0.04   0.04   0.26    -0.04   0.01   0.18
    38   8    -0.01  -0.01  -0.05     0.02  -0.01  -0.11     0.00  -0.00  -0.04
    39   7    -0.02   0.00   0.01     0.04  -0.03  -0.15     0.00   0.00  -0.03
    40   7    -0.03   0.01   0.03     0.03  -0.03  -0.15     0.02  -0.01  -0.12
    41   7    -0.00  -0.03  -0.05    -0.01   0.01   0.06     0.00  -0.00  -0.01
    42   6     0.01  -0.00  -0.04    -0.02   0.02   0.08     0.03  -0.02  -0.13
    43   7     0.05  -0.01  -0.14    -0.02   0.02   0.04     0.03  -0.02  -0.10
    44   7    -0.02   0.03   0.06    -0.02   0.02   0.09     0.03  -0.02  -0.14
    45   6    -0.01   0.05   0.11    -0.01   0.01   0.02     0.01  -0.00   0.00
    46   6     0.02   0.06   0.07     0.00   0.01  -0.05    -0.01   0.01   0.10
    47   6     0.07   0.03  -0.07     0.01   0.00  -0.09    -0.01   0.00   0.11
    48   6     0.08   0.01  -0.16    -0.00   0.01  -0.06     0.01  -0.01   0.03
    49   6     0.05   0.01  -0.10    -0.01   0.02   0.01     0.02  -0.01  -0.05
    50   6     0.01   0.03   0.03    -0.02   0.02   0.05     0.02  -0.01  -0.08
    51   1     0.01   0.08   0.14     0.01   0.00  -0.08    -0.02   0.01   0.17
    52   1     0.09   0.04  -0.11     0.02  -0.00  -0.16    -0.02   0.01   0.19
    53   1     0.12  -0.01  -0.27     0.00   0.01  -0.09     0.01  -0.01   0.04
[...]
 ! R64   R(54,55)                0.1101                  6.4                    !
 ! R65   R(54,56)                0.0313                  1.8                    !
 ! R66   R(56,57)                0.0315                  1.8                    !
 ! R67   R(56,74)               -1.0651                 62.1                    !
 ! R76   R(59,66)                0.009                   0.5                    !
 ! A106  A(45,54,55)            -0.0066                  0.4                    !
 ! A107  A(45,54,56)            -0.0222                  1.3                    !
 ! A108  A(55,54,56)             0.0288                  1.7                    !
 ! A109  A(54,56,57)            -0.0499                  2.9                    !
 ! A111  A(57,56,74)             0.0539                  3.1                    !
 ! A112  A(56,57,58)             0.0257                  1.5                    !
 ! A113  A(56,57,59)            -0.0139                  0.8                    !
 ! A114  A(56,57,60)            -0.0141                  0.8                    !
 ! D166  D(54,56,57,59)          0.0071                  0.4                    !
 ! D167  D(54,56,57,60)         -0.0079                  0.5                    !
 ! D169  D(74,56,57,59)          0.0106                  0.6                    !
 ! D180  D(56,57,59,64)         -0.0225                  1.3                    !
 ! D181  D(56,57,59,65)         -0.0222                  1.3                    !
 ! D182  D(56,57,59,66)         -0.0226                  1.3                    !
 --------------------------------------------------------------------------------
                           ----------------------------
                           ! Normal Mode   223        !
 --------------------------                            --------------------------
 ! Name  Definition              Value          Relative Weight (%)             !
 --------------------------------------------------------------------------------
 ! R30   R(21,76)               -0.0455                  3.0                    !
 ! R49   R(42,43)                0.0433                  2.8                    !
 ! R51   R(43,49)                0.0497                  3.3                    !
 ! R52   R(43,75)               -1.0719                 70.3                    !
 ! A81   A(6,42,43)             -0.0251                  1.6                    !
 ! A83   A(43,42,44)             0.0249                  1.6                    !
 ! A84   A(42,43,49)            -0.049                   3.2                    !
 ! A86   A(49,43,75)             0.0525                  3.4                    !
 ! A100  A(43,49,48)            -0.0249                  1.6                    !
 ! A101  A(43,49,50)             0.0237                  1.6                    !
 --------------------------------------------------------------------------------
                           ----------------------------
                           ! Normal Mode   224        !
 --------------------------                            --------------------------
 ! Name  Definition              Value          Relative Weight (%)             !
 --------------------------------------------------------------------------------
 ! R5    R(2,21)                 0.0494                  3.3                    !
 ! R14   R(7,21)                 0.0438                  2.9                    !
 ! R30   R(21,76)               -1.0717                 70.9                    !
 ! R48   R(40,77)               -0.0357                  2.4                    !
 ! R52   R(43,75)                0.0457                  3.0                    !
 ! A5    A(1,2,21)               0.0235                  1.6                    !
 ! A6    A(3,2,21)              -0.0247                  1.6                    !
 ! A19   A(16,7,21)             -0.025                   1.7                    !
 ! A21   A(21,7,41)              0.0246                  1.6                    !
 ! A43   A(2,21,7)              -0.0487                  3.2                    !
 ! A44   A(2,21,76)              0.048                   3.2                    !
 --------------------------------------------------------------------------------
                           ----------------------------
                           ! Normal Mode   225        !
 --------------------------                            --------------------------
 ! Name  Definition              Value          Relative Weight (%)             !
 --------------------------------------------------------------------------------
 ! R20   R(12,40)                0.0489                  3.3                    !
 ! R29   R(17,40)                0.0423                  2.9                    !
 ! R30   R(21,76)                0.0359                  2.4                    !
 ! R48   R(40,77)               -1.0709                 72.8                    !
 ! A26   A(11,12,40)             0.0232                  1.6                    !
 ! A27   A(13,12,40)            -0.0244                  1.7                    !
 ! A41   A(23,17,40)            -0.0245                  1.7                    !
 ! A42   A(39,17,40)             0.0241                  1.6                    !
 ! A77   A(12,40,17)            -0.048                   3.3                    !
 ! A78   A(12,40,77)             0.0539                  3.7                    !
 --------------------------------------------------------------------------------
 -------------------------------------------------------------------
 Center     Atomic                   Forces (Hartrees/Bohr)
 Number     Number              X              Y              Z
 -------------------------------------------------------------------
      1        6           0.000000266    0.000000163    0.000000380
      2        6           0.000000356   -0.000000447   -0.000001961
      3        6           0.000000617   -0.000001046   -0.000004483
      4        6           0.000000173   -0.000000271   -0.000005585
      5        6          -0.000000465   -0.000000221   -0.000003597
      6        6          -0.000000357    0.000000641   -0.000000870
      7        6           0.000000775   -0.000000738    0.000002692
      8        1           0.000000169   -0.000001119   -0.000006342
      9        1           0.000000239   -0.000001215   -0.000007671
     10        1           0.000000523    0.000000250   -0.000004107
     11        6          -0.000000854   -0.000001165    0.000003844
     12        6           0.000000213   -0.000000273    0.000006065
     13        6          -0.000000580   -0.000000057    0.000008974
     14        6           0.000000136    0.000000557    0.000009416
     15        6          -0.000000737    0.000000272    0.000007451
     16        6          -0.000000161   -0.000000573    0.000004505
     17        6          -0.000000005   -0.000001491    0.000001754
     18        1          -0.000000310   -0.000000147    0.000010514
     19        1          -0.000000470    0.000000640    0.000011681
     20        1          -0.000000258    0.000000525    0.000007994
     21        7          -0.000000558   -0.000000384   -0.000000570
     22        6           0.000000065   -0.000003003    0.000000071
     23        6           0.000000775   -0.000001749    0.000000229
     24        6          -0.000000366   -0.000002628   -0.000003231
     25        6           0.000000225   -0.000003224   -0.000004863
     26        6           0.000000974   -0.000003309   -0.000004192
     27        6           0.000000061   -0.000002838   -0.000001062
     28        1           0.000000603   -0.000002220   -0.000003566
     29        1           0.000000415   -0.000003653   -0.000005836
     30        6           0.000001013   -0.000003571   -0.000008088
     31        1           0.000000396   -0.000002637   -0.000008567
     32        1           0.000000807   -0.000005808   -0.000008476
     33        1           0.000000246   -0.000002563   -0.000009326
     34        6           0.000000137   -0.000003144   -0.000001000
     35        1           0.000000337   -0.000004871    0.000001207
     36        1           0.000000073   -0.000001445    0.000000680
     37        1           0.000000549   -0.000003925   -0.000002192
     38        8           0.000000165   -0.000001874    0.000003508
     39        7           0.000000192   -0.000001300    0.000001458
     40        7           0.000000491   -0.000001167    0.000004953
     41        7          -0.000000695    0.000000113    0.000002654
     42        6          -0.000000003    0.000000475    0.000001623
     43        7          -0.000000267    0.000000491    0.000004227
     44        7           0.000000316    0.000001401    0.000000879
     45        6           0.000000187    0.000001782    0.000004488
     46        6          -0.000001171    0.000002483    0.000006845
     47        6          -0.000000343    0.000002556    0.000009237
     48        6           0.000000178    0.000002094    0.000008609
     49        6          -0.000000790    0.000001398    0.000005518
     50        6          -0.000000646    0.000001952    0.000003378
     51        1          -0.000000138    0.000002783    0.000007800
     52        1          -0.000000701    0.000002634    0.000011374
     53        1          -0.000000843    0.000001266    0.000010037
     54        6          -0.000000821    0.000002820    0.000002049
     55        1          -0.000000056    0.000002742    0.000002862
     56        7          -0.000000385    0.000002258   -0.000000498
     57        6          -0.000000409    0.000002821   -0.000002775
     58        6           0.000000153    0.000002776   -0.000002444
     59        6           0.000000045    0.000000166   -0.000005099
     60        1          -0.000000175    0.000004311   -0.000004225
     61        6          -0.000000255    0.000004027   -0.000004309
     62        1          -0.000000374    0.000001845   -0.000000060
     63        1          -0.000000411    0.000005244   -0.000000554
     64        6           0.000000566    0.000000030   -0.000007521
     65        1           0.000000125   -0.000001543   -0.000003261
     66        1           0.000000547   -0.000000582   -0.000005396
     67        6          -0.000000483    0.000001570   -0.000005569
     68        1          -0.000000081    0.000004101   -0.000003564
     69        1          -0.000000254    0.000005609   -0.000005645
     70        1           0.000000353   -0.000001461   -0.000008562
     71        1           0.000000013    0.000002295   -0.000008420
     72        1           0.000000200    0.000001558   -0.000008125
     73        1           0.000000508   -0.000000990   -0.000005709
     74        1           0.000000118    0.000001727   -0.000001093
     75        1           0.000000011    0.000000878    0.000005095
     76        1           0.000000467   -0.000001147   -0.000000950
     77        1          -0.000000360   -0.000001453    0.000005313
 -------------------------------------------------------------------
 Cartesian Forces:  Max     0.000011681 RMS     0.000003497
 FormGI is forming the generalized inverse of G from B-inverse, IUseBI=4.
 GSVD:  received Info=                   1 from GESDD.
 Leave Link  716 at Sun Dec 16 14:42:53 2018, MaxMem=  1342177280 cpu:               7.4 elap:               0.5
 (Enter /gpfs/apps/hpc/Apps/Restricted/Gaussian/Rev_A.03/g16/l9999.exe)

 ----------------------------------------------------------------------

 Electric dipole moment (input orientation):
 (Debye = 10**-18 statcoulomb cm , SI units = C m)
                  (au)            (Debye)         (10**-30 SI)
   Tot        0.833165D+01      0.211769D+02      0.706387D+02
   x          0.768365D+01      0.195299D+02      0.651447D+02
   y          0.160614D+01      0.408240D+01      0.136174D+02
   z          0.279252D+01      0.709789D+01      0.236760D+02

 Dipole polarizability, Alpha (input orientation).
 (esu units = cm**3 , SI units = C**2 m**2 J**-1)
 Alpha(0;0):
               (au)            (10**-24 esu)      (10**-40 SI)
   iso        0.762210D+03      0.112948D+03      0.125671D+03
   aniso      0.812175D+03      0.120352D+03      0.133910D+03
   xx         0.109862D+04      0.162799D+03      0.181138D+03
   yx        -0.563195D+02     -0.834569D+01     -0.928583D+01
   yy         0.903015D+03      0.133813D+03      0.148887D+03
   zx         0.169554D+03      0.251253D+02      0.279556D+02
   zy        -0.871175D+02     -0.129095D+02     -0.143637D+02
   zz         0.284994D+03      0.422318D+02      0.469892D+02

 ----------------------------------------------------------------------

 Dipole orientation:
     6         -0.71331674         -0.00205004          3.62673098
     6         -1.15041679          1.99732659          1.89875895
     6         -1.14595604          4.52383557          2.63761850
     6         -0.68696926          5.02192192          5.18764121
     6         -0.25672975          3.07740801          6.93408705
     6         -0.25796249          0.53502387          6.19961324
     6         -1.31962911         -1.73716768         -0.00953179
     1         -1.48037269          6.03315818          1.29791954
     1         -0.66239993          6.96395371          5.83554342
     1          0.09649754          3.52672011          8.89874876
     6         -2.18388113         -2.71567328         -4.54670035
     6         -2.51935922         -4.52342685         -6.50257287
     6         -2.32884650         -7.11920959         -6.08643785
     6         -1.78738561         -7.88339660         -3.62654410
     6         -1.44981814         -6.13518434         -1.65635813
     6         -1.64652913         -3.53298582         -2.05926271
     6         -2.94432916         -0.61225968         -7.95661563
     1         -2.59216218         -8.47070062         -7.60003949
     1         -1.62055979         -9.88113569         -3.21110104
     1         -1.03146312         -6.80114093          0.23227514
     7         -1.53167105          0.81399423         -0.38955240
     6         -3.84166396          0.80729121        -12.42984363
     6         -3.34898617          1.40326196         -9.76535992
     6         -3.27116147          3.90646778         -8.98957714
     6         -3.63209170          5.90000393        -10.69955455
     6         -4.10826574          5.34661756        -13.28007391
     6         -4.21521207          2.91425013        -14.17475037
     1         -2.91600933          4.31815231         -7.01541594
     1         -4.39841012          6.90871876        -14.57718354
     6         -3.46870717          8.59192229         -9.84017579
     1         -3.78895987          8.75104689         -7.81012127
     1         -1.58519180          9.35427968        -10.24590702
     1         -4.83107895          9.77521093        -10.84212116
     6         -4.71654534          2.29561027        -16.88702031
     1         -3.12281630          1.26735314        -17.71144686
     1         -6.36316185          1.05871656        -17.06107326
     1         -5.04456265          4.00912018        -17.98176810
     8         -3.95047283         -1.42943176        -13.23538601
     7         -2.45581597         -0.30718857         -5.49236811
     7         -3.00193460         -3.11128990         -8.62322008
     7         -0.82147238         -2.29998327          2.39574627
     6          0.19337697         -1.48738098          7.99203976
     7          0.30170857         -3.95701776          7.23970871
     7          0.57169327         -1.23787537         10.48440060
     6          1.40995159         -4.51106021         13.83904357
     6          1.73516246         -7.12683238         14.20165184
     6          1.57849442         -8.82239707         12.18460927
     6          1.09786268         -7.99725991          9.71647563
     6          0.78642613         -5.41415723          9.34123488
     6          0.94501644         -3.65288966         11.35103038
     1          2.09718401         -7.82487425         16.09286187
     1          1.83185478        -10.82163509         12.53648664
     1          0.96815338         -9.32438319          8.16412576
     6          1.46863484         -2.81870843         15.94575836
     1          1.81949964         -3.57399282         17.81624738
     7          1.07399976         -0.40546287         15.73517772
     6          1.00653498          1.46363454         17.79400520
     6          1.43117401          0.29514527         20.39611821
     6          2.91798070          3.57264481         17.23825008
     1         -0.89724568          2.27857054         17.72995203
     6          1.29709642          2.34287861         22.44260787
     1          3.29666885         -0.60357497         20.44225178
     1          0.02175769         -1.17092458         20.76410473
     6          2.77685901          5.61405435         19.28810136
     1          4.81360950          2.74145848         17.18888151
     1          2.54213879          4.37955020         15.37217941
     6          3.16839859          4.49224327         21.92918246
     1          1.66386504          1.48614965         24.28655704
     1         -0.62648038          3.11002472         22.50973030
     1          4.18540174          7.07605134         18.90635891
     1          0.92040346          6.53060728         19.20447166
     1          2.95938331          5.96638088         23.36309193
     1          5.10239401          3.76347918         22.08370477
     1          0.76482582          0.24824757         13.92980972
     1          0.01895657         -4.47706012          5.40361825
     1         -1.90598402          1.57076308         -2.11837139
     1         -3.34172176         -3.64192773        -10.43773456

 Electric dipole moment (dipole orientation):
 (Debye = 10**-18 statcoulomb cm , SI units = C m)
                  (au)            (Debye)         (10**-30 SI)
   Tot        0.833165D+01      0.211769D+02      0.706387D+02
   x          0.000000D+00      0.000000D+00      0.000000D+00
   y          0.000000D+00      0.000000D+00      0.000000D+00
   z          0.833165D+01      0.211769D+02      0.706387D+02

 Dipole polarizability, Alpha (dipole orientation).
 (esu units = cm**3 , SI units = C**2 m**2 J**-1)
 Alpha(0;0):
               (au)            (10**-24 esu)      (10**-40 SI)
   iso        0.762210D+03      0.112948D+03      0.125671D+03
   aniso      0.812175D+03      0.120352D+03      0.133910D+03
   xx         0.273690D+03      0.405567D+02      0.451255D+02
   yx        -0.553765D+02     -0.820595D+01     -0.913035D+01
   yy         0.939455D+03      0.139213D+03      0.154895D+03
   zx         0.155290D+03      0.230116D+02      0.256038D+02
   zy        -0.959955D+02     -0.142251D+02     -0.158275D+02
   zz         0.107349D+04      0.159074D+03      0.176994D+03

 ----------------------------------------------------------------------

 This type of calculation cannot be archived.


 WE HAVE SEEN THAT MAN ON THE AVERAGE DOES NOT LIVE ABOVE
 TWO-AND-TWENTY YEARS.  DURING THESE TWO AND TWENTY
 YEARS HE IS LIABLE TO TWO AND TWENTY THOUSAND EVILS,
 MANY OF WHICH ARE INCURABLE.  YET EVEN IN THIS DREADFUL STATE
 MEN STILL STRUT AND POSE ON THE STAGE OF LIFE.
 THEY MAKE LOVE AT THE RISK OF DESTRUCTION,
 INTRIGUE, CARRY ON WAR, AND FORM PROJECTS, JUST AS IF THEY
 WERE TO LIVE IN LUXURY AND HAPPINESS FOR A THOUSAND
 AGES.

                                              -- VOLTAIRE
 Job cpu time:       0 days  0 hours  0 minutes 20.0 seconds.
 Elapsed time:       0 days  0 hours  0 minutes  1.4 seconds.
 File lengths (MBytes):  RWF=     72 Int=      0 D2E=      0 Chk=    104 Scr=      8
 Normal termination of Gaussian 16 at Sun Dec 16 14:42:53 2018.
