 Entering Gaussian System, Link 0=g16
 Initial command:
 /gpfs/apps/hpc/Apps/Restricted/Gaussian/Rev_A.03/g16/l1.exe "/gpfs/scratch60/fas/hammes_schiffer/jg2487/c44n04/Gau-169036.inp" -scrdir="/gpfs/scratch60/fas/hammes_schiffer/jg2487/c44n04/"
 Entering Link 1 = /gpfs/apps/hpc/Apps/Restricted/Gaussian/Rev_A.03/g16/l1.exe PID=    169038.
  
 Copyright (c) 1988,1990,1992,1993,1995,1998,2003,2009,2016,
            Gaussian, Inc.  All Rights Reserved.
  
 This is part of the Gaussian(R) 16 program.  It is based on
 the Gaussian(R) 09 system (copyright 2009, Gaussian, Inc.),
 the Gaussian(R) 03 system (copyright 2003, Gaussian, Inc.),
 the Gaussian(R) 98 system (copyright 1998, Gaussian, Inc.),
 the Gaussian(R) 94 system (copyright 1995, Gaussian, Inc.),
 the Gaussian 92(TM) system (copyright 1992, Gaussian, Inc.),
 the Gaussian 90(TM) system (copyright 1990, Gaussian, Inc.),
 the Gaussian 88(TM) system (copyright 1988, Gaussian, Inc.),
 the Gaussian 86(TM) system (copyright 1986, Carnegie Mellon
 University), and the Gaussian 82(TM) system (copyright 1983,
 Carnegie Mellon University). Gaussian is a federally registered
 trademark of Gaussian, Inc.
  
 This software contains proprietary and confidential information,
 including trade secrets, belonging to Gaussian, Inc.
  
 This software is provided under written license and may be
 used, copied, transmitted, or stored only in accord with that
 written license.
  
 The following legend is applicable only to US Government
 contracts under FAR:
  
                    RESTRICTED RIGHTS LEGEND
  
 Use, reproduction and disclosure by the US Government is
 subject to restrictions as set forth in subparagraphs (a)
 and (c) of the Commercial Computer Software - Restricted
 Rights clause in FAR 52.227-19.
  
 Gaussian, Inc.
 340 Quinnipiac St., Bldg. 40, Wallingford CT 06492
  
  
 ---------------------------------------------------------------
 Warning -- This program may not be used in any manner that
 competes with the business of Gaussian, Inc. or will provide
 assistance to any competitor of Gaussian, Inc.  The licensee
 of this program is prohibited from giving any competitor of
 Gaussian, Inc. access to this program.  By using this program,
 the user acknowledges that Gaussian, Inc. is engaged in the
 business of creating and licensing software in the field of
 computational chemistry and represents and warrants to the
 licensee that it is not a competitor of Gaussian, Inc. and that
 it will not use this program in any manner prohibited above.
 ---------------------------------------------------------------
  

 Cite this work as:
 Gaussian 16, Revision A.03,
 M. J. Frisch, G. W. Trucks, H. B. Schlegel, G. E. Scuseria, 
 M. A. Robb, J. R. Cheeseman, G. Scalmani, V. Barone, 
 G. A. Petersson, H. Nakatsuji, X. Li, M. Caricato, A. V. Marenich, 
 J. Bloino, B. G. Janesko, R. Gomperts, B. Mennucci, H. P. Hratchian, 
 J. V. Ortiz, A. F. Izmaylov, J. L. Sonnenberg, D. Williams-Young, 
 F. Ding, F. Lipparini, F. Egidi, J. Goings, B. Peng, A. Petrone, 
 T. Henderson, D. Ranasinghe, V. G. Zakrzewski, J. Gao, N. Rega, 
 G. Zheng, W. Liang, M. Hada, M. Ehara, K. Toyota, R. Fukuda, 
 J. Hasegawa, M. Ishida, T. Nakajima, Y. Honda, O. Kitao, H. Nakai, 
 T. Vreven, K. Throssell, J. A. Montgomery, Jr., J. E. Peralta, 
 F. Ogliaro, M. J. Bearpark, J. J. Heyd, E. N. Brothers, K. N. Kudin, 
 V. N. Staroverov, T. A. Keith, R. Kobayashi, J. Normand, 
 K. Raghavachari, A. P. Rendell, J. C. Burant, S. S. Iyengar, 
 J. Tomasi, M. Cossi, J. M. Millam, M. Klene, C. Adamo, R. Cammi, 
 J. W. Ochterski, R. L. Martin, K. Morokuma, O. Farkas, 
 J. B. Foresman, and D. J. Fox, Gaussian, Inc., Wallingford CT, 2016.
 
 ******************************************
 Gaussian 16:  ES64L-G16RevA.03 25-Dec-2016
                20-Dec-2018 
 ******************************************
 %chk=cyclohexyl-diBIP-E0PT.chk
 %mem=10GB
 %nprocshared=16
 Will use up to   16 processors via shared memory.
 ----------------------------------------------------------------------
 #p opt=tight freq=internalmodes b3lyp/6-31g(d,p) scrf=(cpcm,solvent=di
 chloromethane,read) nosymm empiricaldispersion=gd3bj int=grid=ultrafin
 e
 ----------------------------------------------------------------------
 1/7=10,18=20,19=15,26=6,38=1,40=2/1,3;
 2/9=110,12=2,15=1,17=6,18=5,40=1/2;
 3/5=1,6=6,7=101,11=2,25=1,30=1,70=2103,71=1,72=9,74=-5,75=-5,124=41/1,2,3;
 4//1;
 5/5=2,38=5,53=9/2;
 6/7=2,8=2,9=2,10=2,28=1/1;
 7/30=1/1,2,3,16;
 1/7=10,18=20,19=15,26=6/3(2);
 2/9=110,15=1/2;
 99//99;
 2/9=110,15=1/2;
 3/5=1,6=6,7=101,11=2,25=1,30=1,70=2105,71=1,72=9,74=-5,75=-5,124=41/1,2,3;
 4/5=5,16=3,69=1/1;
 5/5=2,38=5,53=9/2;
 7/30=1/1,2,3,16;
 1/7=10,18=20,19=15,26=6/3(-5);
 2/9=110,15=1/2;
 6/7=2,8=2,9=2,10=2,19=2,28=1/1;
 99/9=1/99;
 Leave Link    1 at Thu Dec 20 18:03:40 2018, MaxMem=  1342177280 cpu:               8.1 elap:               0.5
 (Enter /gpfs/apps/hpc/Apps/Restricted/Gaussian/Rev_A.03/g16/l101.exe)
 -------------------------------------------------------------------
 cyclohexylimine diBIP oxidized, no protons transferred optimization
 -------------------------------------------------------------------
 Symbolic Z-matrix:
 Charge =  1 Multiplicity = 2
 C                     1.61432   1.14308   0.18717 
 C                     0.3991    1.86477   0.18099 
 C                     0.41941   3.26306   0.08961 
 C                     1.65894   3.89009  -0.00619 
 C                     2.85833   3.15602  -0.00775 
 C                     2.87154   1.75987   0.09116 
 C                    -0.11165  -0.23275   0.32081 
 H                    -0.50225   3.83205   0.08851 
 H                     1.70552   4.96975  -0.08262 
 H                     3.80373   3.68164  -0.08741 
 C                    -2.29314  -1.38265   0.33178 
 C                    -3.13332  -2.52941   0.3567 
 C                    -2.57102  -3.81072   0.47269 
 C                    -1.18925  -3.88954   0.55405 
 C                    -0.36171  -2.74314   0.51461 
 C                    -0.88956  -1.45783   0.3977 
 C                    -4.40667  -0.77344   0.17121 
 H                    -3.19594  -4.69369   0.49495 
 H                    -0.71876  -4.86049   0.64661 
 H                     0.71195  -2.87414   0.57998 
 N                    -0.66266   0.97912   0.26432 
 C                    -6.86124  -0.7054   -0.12574 
 C                    -5.60202   0.00867   0.02273 
 C                    -5.61156   1.39916  -0.00205 
 C                    -6.8058    2.1031   -0.18399 
 C                    -8.02618   1.3823   -0.35635 
 C                    -8.08755   0.01246  -0.33019 
 H                    -4.68656   1.94857   0.12368 
 H                    -8.93843   1.94767  -0.50963 
 C                    -6.83053   3.5954   -0.21404 
 C                    -9.35937  -0.75786  -0.50179 
 O                    -6.9137   -2.00601  -0.08182 
 H                    -5.94683  -2.37034   0.06879 
 N                    -3.12366  -0.30356   0.2217 
 N                    -4.43561  -2.11374   0.25197 
 H                    -2.75697   0.64521   0.17513 
 N                     1.25879  -0.1793    0.28119 
 H                     1.94692  -0.92372   0.28661 
 C                     4.1126    0.99258   0.08806 
 H                     5.03131   1.58095  -0.0113 
 N                     4.11921  -0.2857    0.19075 
 C                     5.43283  -0.95327   0.1593 
 C                     6.14257  -0.74628  -1.18922 
 C                     6.34018  -0.51834   1.32278 
 H                     5.23618  -2.02526   0.2746 
 C                     7.49361  -1.46785  -1.22947 
 H                     6.29852   0.3293   -1.33616 
 H                     5.49268  -1.09088  -1.99961 
 C                     7.68993  -1.24302   1.27873 
 H                     6.50707   0.5628    1.25415 
 H                     5.82963  -0.70641   2.27235 
 C                     8.39347  -1.03514  -0.06694 
 H                     7.9861   -1.27505  -2.18793 
 H                     7.32746  -2.5507   -1.16965 
 H                     8.32233  -0.89354   2.10098 
 H                     7.52881  -2.3169    1.43772 
 H                     9.33686  -1.58924  -0.09136 
 H                     8.64379   0.02709  -0.18233 
 C                    -7.27156   4.08505  -1.60592 
 H                    -8.33606   4.01446  -1.68808 
 H                    -6.9704    5.1033   -1.73776 
 H                    -6.81465   3.47761  -2.35902 
 C                    -7.86734   4.13725   0.78747 
 H                    -7.71988   5.18877   0.91965 
 H                    -8.85319   3.95985   0.41129 
 H                    -7.74931   3.63962   1.72733 
 C                    -5.45162   4.20104   0.10752 
 H                    -5.11701   3.84142   1.0581 
 H                    -4.7511    3.91465  -0.64889 
 H                    -5.52868   5.26787   0.13676 
 C                    -9.2208   -1.79958  -1.6275 
 H                    -8.94687  -2.74465  -1.20714 
 H                    -10.15415  -1.8951   -2.14192 
 H                    -8.4651   -1.48277  -2.31557 
 C                    -10.5237   0.19354  -0.83461 
 H                    -10.6653   0.88031  -0.0264 
 H                    -10.29645   0.73637  -1.72825 
 H                    -11.41835  -0.37501  -0.98042 
 C                    -9.70476  -1.5294    0.78547 
 H                    -10.76753  -1.61394   0.87634 
 H                    -9.27158  -2.50685   0.74253 
 H                    -9.31513  -1.00347   1.63193 
 
 ITRead=  0  0  0  0  0  0  0  0  0  0  0  0  0  0  0  0  0  0  0  0
 ITRead=  0  0  0  0  0  0  0  0  0  0  0  0  0  0  0  0  0  0  0  0
 ITRead=  0  0  0  0  0  0  0  0  0  0  0  0  0  0  0  0  0  0  0  0
 ITRead=  0  0  0  0  0  0  0  0  0  0  0  0  0  0  0  0  0  0  0  0
 ITRead=  0  0
 MicOpt= -1 -1 -1 -1 -1 -1 -1 -1 -1 -1 -1 -1 -1 -1 -1 -1 -1 -1 -1 -1
 MicOpt= -1 -1 -1 -1 -1 -1 -1 -1 -1 -1 -1 -1 -1 -1 -1 -1 -1 -1 -1 -1
 MicOpt= -1 -1 -1 -1 -1 -1 -1 -1 -1 -1 -1 -1 -1 -1 -1 -1 -1 -1 -1 -1
 MicOpt= -1 -1 -1 -1 -1 -1 -1 -1 -1 -1 -1 -1 -1 -1 -1 -1 -1 -1 -1 -1
 MicOpt= -1 -1
 NAtoms=     82 NQM=       82 NQMF=       0 NMMI=      0 NMMIF=      0
                NMic=       0 NMicF=      0.
                    Isotopes and Nuclear Properties:
 (Nuclear quadrupole moments (NQMom) in fm**2, nuclear magnetic moments (NMagM)
  in nuclear magnetons)

  Atom         1           2           3           4           5           6           7           8           9          10
 IAtWgt=          12          12          12          12          12          12          12           1           1           1
 AtmWgt=  12.0000000  12.0000000  12.0000000  12.0000000  12.0000000  12.0000000  12.0000000   1.0078250   1.0078250   1.0078250
 NucSpn=           0           0           0           0           0           0           0           1           1           1
 AtZEff=  -0.0000000  -0.0000000  -0.0000000  -0.0000000  -0.0000000  -0.0000000  -0.0000000  -0.0000000  -0.0000000  -0.0000000
 NQMom=    0.0000000   0.0000000   0.0000000   0.0000000   0.0000000   0.0000000   0.0000000   0.0000000   0.0000000   0.0000000
 NMagM=    0.0000000   0.0000000   0.0000000   0.0000000   0.0000000   0.0000000   0.0000000   2.7928460   2.7928460   2.7928460
 AtZNuc=   6.0000000   6.0000000   6.0000000   6.0000000   6.0000000   6.0000000   6.0000000   1.0000000   1.0000000   1.0000000

  Atom        11          12          13          14          15          16          17          18          19          20
 IAtWgt=          12          12          12          12          12          12          12           1           1           1
 AtmWgt=  12.0000000  12.0000000  12.0000000  12.0000000  12.0000000  12.0000000  12.0000000   1.0078250   1.0078250   1.0078250
 NucSpn=           0           0           0           0           0           0           0           1           1           1
 AtZEff=  -0.0000000  -0.0000000  -0.0000000  -0.0000000  -0.0000000  -0.0000000  -0.0000000  -0.0000000  -0.0000000  -0.0000000
 NQMom=    0.0000000   0.0000000   0.0000000   0.0000000   0.0000000   0.0000000   0.0000000   0.0000000   0.0000000   0.0000000
 NMagM=    0.0000000   0.0000000   0.0000000   0.0000000   0.0000000   0.0000000   0.0000000   2.7928460   2.7928460   2.7928460
 AtZNuc=   6.0000000   6.0000000   6.0000000   6.0000000   6.0000000   6.0000000   6.0000000   1.0000000   1.0000000   1.0000000

  Atom        21          22          23          24          25          26          27          28          29          30
 IAtWgt=          14          12          12          12          12          12          12           1           1          12
 AtmWgt=  14.0030740  12.0000000  12.0000000  12.0000000  12.0000000  12.0000000  12.0000000   1.0078250   1.0078250  12.0000000
 NucSpn=           2           0           0           0           0           0           0           1           1           0
 AtZEff=  -0.0000000  -0.0000000  -0.0000000  -0.0000000  -0.0000000  -0.0000000  -0.0000000  -0.0000000  -0.0000000  -0.0000000
 NQMom=    2.0440000   0.0000000   0.0000000   0.0000000   0.0000000   0.0000000   0.0000000   0.0000000   0.0000000   0.0000000
 NMagM=    0.4037610   0.0000000   0.0000000   0.0000000   0.0000000   0.0000000   0.0000000   2.7928460   2.7928460   0.0000000
 AtZNuc=   7.0000000   6.0000000   6.0000000   6.0000000   6.0000000   6.0000000   6.0000000   1.0000000   1.0000000   6.0000000

  Atom        31          32          33          34          35          36          37          38          39          40
 IAtWgt=          12          16           1          14          14           1          14           1          12           1
 AtmWgt=  12.0000000  15.9949146   1.0078250  14.0030740  14.0030740   1.0078250  14.0030740   1.0078250  12.0000000   1.0078250
 NucSpn=           0           0           1           2           2           1           2           1           0           1
 AtZEff=  -0.0000000  -0.0000000  -0.0000000  -0.0000000  -0.0000000  -0.0000000  -0.0000000  -0.0000000  -0.0000000  -0.0000000
 NQMom=    0.0000000   0.0000000   0.0000000   2.0440000   2.0440000   0.0000000   2.0440000   0.0000000   0.0000000   0.0000000
 NMagM=    0.0000000   0.0000000   2.7928460   0.4037610   0.4037610   2.7928460   0.4037610   2.7928460   0.0000000   2.7928460
 AtZNuc=   6.0000000   8.0000000   1.0000000   7.0000000   7.0000000   1.0000000   7.0000000   1.0000000   6.0000000   1.0000000

  Atom        41          42          43          44          45          46          47          48          49          50
 IAtWgt=          14          12          12          12           1          12           1           1          12           1
 AtmWgt=  14.0030740  12.0000000  12.0000000  12.0000000   1.0078250  12.0000000   1.0078250   1.0078250  12.0000000   1.0078250
 NucSpn=           2           0           0           0           1           0           1           1           0           1
 AtZEff=  -0.0000000  -0.0000000  -0.0000000  -0.0000000  -0.0000000  -0.0000000  -0.0000000  -0.0000000  -0.0000000  -0.0000000
 NQMom=    2.0440000   0.0000000   0.0000000   0.0000000   0.0000000   0.0000000   0.0000000   0.0000000   0.0000000   0.0000000
 NMagM=    0.4037610   0.0000000   0.0000000   0.0000000   2.7928460   0.0000000   2.7928460   2.7928460   0.0000000   2.7928460
 AtZNuc=   7.0000000   6.0000000   6.0000000   6.0000000   1.0000000   6.0000000   1.0000000   1.0000000   6.0000000   1.0000000

  Atom        51          52          53          54          55          56          57          58          59          60
 IAtWgt=           1          12           1           1           1           1           1           1          12           1
 AtmWgt=   1.0078250  12.0000000   1.0078250   1.0078250   1.0078250   1.0078250   1.0078250   1.0078250  12.0000000   1.0078250
 NucSpn=           1           0           1           1           1           1           1           1           0           1
 AtZEff=  -0.0000000  -0.0000000  -0.0000000  -0.0000000  -0.0000000  -0.0000000  -0.0000000  -0.0000000  -0.0000000  -0.0000000
 NQMom=    0.0000000   0.0000000   0.0000000   0.0000000   0.0000000   0.0000000   0.0000000   0.0000000   0.0000000   0.0000000
 NMagM=    2.7928460   0.0000000   2.7928460   2.7928460   2.7928460   2.7928460   2.7928460   2.7928460   0.0000000   2.7928460
 AtZNuc=   1.0000000   6.0000000   1.0000000   1.0000000   1.0000000   1.0000000   1.0000000   1.0000000   6.0000000   1.0000000

  Atom        61          62          63          64          65          66          67          68          69          70
 IAtWgt=           1           1          12           1           1           1          12           1           1           1
 AtmWgt=   1.0078250   1.0078250  12.0000000   1.0078250   1.0078250   1.0078250  12.0000000   1.0078250   1.0078250   1.0078250
 NucSpn=           1           1           0           1           1           1           0           1           1           1
 AtZEff=  -0.0000000  -0.0000000  -0.0000000  -0.0000000  -0.0000000  -0.0000000  -0.0000000  -0.0000000  -0.0000000  -0.0000000
 NQMom=    0.0000000   0.0000000   0.0000000   0.0000000   0.0000000   0.0000000   0.0000000   0.0000000   0.0000000   0.0000000
 NMagM=    2.7928460   2.7928460   0.0000000   2.7928460   2.7928460   2.7928460   0.0000000   2.7928460   2.7928460   2.7928460
 AtZNuc=   1.0000000   1.0000000   6.0000000   1.0000000   1.0000000   1.0000000   6.0000000   1.0000000   1.0000000   1.0000000

  Atom        71          72          73          74          75          76          77          78          79          80
 IAtWgt=          12           1           1           1          12           1           1           1          12           1
 AtmWgt=  12.0000000   1.0078250   1.0078250   1.0078250  12.0000000   1.0078250   1.0078250   1.0078250  12.0000000   1.0078250
 NucSpn=           0           1           1           1           0           1           1           1           0           1
 AtZEff=  -0.0000000  -0.0000000  -0.0000000  -0.0000000  -0.0000000  -0.0000000  -0.0000000  -0.0000000  -0.0000000  -0.0000000
 NQMom=    0.0000000   0.0000000   0.0000000   0.0000000   0.0000000   0.0000000   0.0000000   0.0000000   0.0000000   0.0000000
 NMagM=    0.0000000   2.7928460   2.7928460   2.7928460   0.0000000   2.7928460   2.7928460   2.7928460   0.0000000   2.7928460
 AtZNuc=   6.0000000   1.0000000   1.0000000   1.0000000   6.0000000   1.0000000   1.0000000   1.0000000   6.0000000   1.0000000

  Atom        81          82
 IAtWgt=           1           1
 AtmWgt=   1.0078250   1.0078250
 NucSpn=           1           1
 AtZEff=  -0.0000000  -0.0000000
 NQMom=    0.0000000   0.0000000
 NMagM=    2.7928460   2.7928460
 AtZNuc=   1.0000000   1.0000000
 Leave Link  101 at Thu Dec 20 18:03:40 2018, MaxMem=  1342177280 cpu:               3.9 elap:               0.3
 (Enter /gpfs/apps/hpc/Apps/Restricted/Gaussian/Rev_A.03/g16/l103.exe)

 GradGradGradGradGradGradGradGradGradGradGradGradGradGradGradGradGradGrad
 Berny optimization.
 Initialization pass.
                           ----------------------------
                           !    Initial Parameters    !
                           ! (Angstroms and Degrees)  !
 --------------------------                            --------------------------
 ! Name  Definition              Value          Derivative Info.                !
 --------------------------------------------------------------------------------
 ! R1    R(1,2)                  1.4134         estimate D2E/DX2                !
 ! R2    R(1,6)                  1.4037         estimate D2E/DX2                !
 ! R3    R(1,37)                 1.3726         estimate D2E/DX2                !
 ! R4    R(2,3)                  1.4014         estimate D2E/DX2                !
 ! R5    R(2,21)                 1.3852         estimate D2E/DX2                !
 ! R6    R(3,4)                  1.3924         estimate D2E/DX2                !
 ! R7    R(3,8)                  1.0831         estimate D2E/DX2                !
 ! R8    R(4,5)                  1.4062         estimate D2E/DX2                !
 ! R9    R(4,9)                  1.0834         estimate D2E/DX2                !
 ! R10   R(5,6)                  1.3997         estimate D2E/DX2                !
 ! R11   R(5,10)                 1.0846         estimate D2E/DX2                !
 ! R12   R(6,39)                 1.4591         estimate D2E/DX2                !
 ! R13   R(7,16)                 1.4532         estimate D2E/DX2                !
 ! R14   R(7,21)                 1.3325         estimate D2E/DX2                !
 ! R15   R(7,37)                 1.3721         estimate D2E/DX2                !
 ! R16   R(11,12)                1.4218         estimate D2E/DX2                !
 ! R17   R(11,16)                1.4071         estimate D2E/DX2                !
 ! R18   R(11,34)                1.3661         estimate D2E/DX2                !
 ! R19   R(12,13)                1.4041         estimate D2E/DX2                !
 ! R20   R(12,35)                1.371          estimate D2E/DX2                !
 ! R21   R(13,14)                1.3864         estimate D2E/DX2                !
 ! R22   R(13,18)                1.082          estimate D2E/DX2                !
 ! R23   R(14,15)                1.4144         estimate D2E/DX2                !
 ! R24   R(14,19)                1.0829         estimate D2E/DX2                !
 ! R25   R(15,16)                1.3944         estimate D2E/DX2                !
 ! R26   R(15,20)                1.0836         estimate D2E/DX2                !
 ! R27   R(17,23)                1.4362         estimate D2E/DX2                !
 ! R28   R(17,34)                1.3673         estimate D2E/DX2                !
 ! R29   R(17,35)                1.343          estimate D2E/DX2                !
 ! R30   R(22,23)                1.4552         estimate D2E/DX2                !
 ! R31   R(22,27)                1.4356         estimate D2E/DX2                !
 ! R32   R(22,32)                1.3024         estimate D2E/DX2                !
 ! R33   R(23,24)                1.3907         estimate D2E/DX2                !
 ! R34   R(24,25)                1.3982         estimate D2E/DX2                !
 ! R35   R(24,28)                1.0832         estimate D2E/DX2                !
 ! R36   R(25,26)                1.4278         estimate D2E/DX2                !
 ! R37   R(25,30)                1.4928         estimate D2E/DX2                !
 ! R38   R(26,27)                1.3715         estimate D2E/DX2                !
 ! R39   R(26,29)                1.0841         estimate D2E/DX2                !
 ! R40   R(27,31)                1.4968         estimate D2E/DX2                !
 ! R41   R(30,59)                1.54           estimate D2E/DX2                !
 ! R42   R(30,63)                1.54           estimate D2E/DX2                !
 ! R43   R(30,67)                1.54           estimate D2E/DX2                !
 ! R44   R(31,71)                1.54           estimate D2E/DX2                !
 ! R45   R(31,75)                1.54           estimate D2E/DX2                !
 ! R46   R(31,79)                1.54           estimate D2E/DX2                !
 ! R47   R(32,33)                1.0442         estimate D2E/DX2                !
 ! R48   R(34,36)                1.0182         estimate D2E/DX2                !
 ! R49   R(37,38)                1.0138         estimate D2E/DX2                !
 ! R50   R(39,40)                1.0955         estimate D2E/DX2                !
 ! R51   R(39,41)                1.2824         estimate D2E/DX2                !
 ! R52   R(41,42)                1.4738         estimate D2E/DX2                !
 ! R53   R(42,43)                1.5379         estimate D2E/DX2                !
 ! R54   R(42,44)                1.5382         estimate D2E/DX2                !
 ! R55   R(42,45)                1.096          estimate D2E/DX2                !
 ! R56   R(43,46)                1.5322         estimate D2E/DX2                !
 ! R57   R(43,47)                1.0967         estimate D2E/DX2                !
 ! R58   R(43,48)                1.0945         estimate D2E/DX2                !
 ! R59   R(44,49)                1.5326         estimate D2E/DX2                !
 ! R60   R(44,50)                1.0961         estimate D2E/DX2                !
 ! R61   R(44,51)                1.0944         estimate D2E/DX2                !
 ! R62   R(46,52)                1.5325         estimate D2E/DX2                !
 ! R63   R(46,53)                1.0947         estimate D2E/DX2                !
 ! R64   R(46,54)                1.0972         estimate D2E/DX2                !
 ! R65   R(49,52)                1.5326         estimate D2E/DX2                !
 ! R66   R(49,55)                1.0946         estimate D2E/DX2                !
 ! R67   R(49,56)                1.0975         estimate D2E/DX2                !
 ! R68   R(52,57)                1.0944         estimate D2E/DX2                !
 ! R69   R(52,58)                1.0974         estimate D2E/DX2                !
 ! R70   R(59,60)                1.07           estimate D2E/DX2                !
 ! R71   R(59,61)                1.07           estimate D2E/DX2                !
 ! R72   R(59,62)                1.07           estimate D2E/DX2                !
 ! R73   R(63,64)                1.07           estimate D2E/DX2                !
 ! R74   R(63,65)                1.07           estimate D2E/DX2                !
 ! R75   R(63,66)                1.07           estimate D2E/DX2                !
 ! R76   R(67,68)                1.07           estimate D2E/DX2                !
 ! R77   R(67,69)                1.07           estimate D2E/DX2                !
 ! R78   R(67,70)                1.07           estimate D2E/DX2                !
 ! R79   R(71,72)                1.07           estimate D2E/DX2                !
 ! R80   R(71,73)                1.07           estimate D2E/DX2                !
 ! R81   R(71,74)                1.07           estimate D2E/DX2                !
 ! R82   R(75,76)                1.07           estimate D2E/DX2                !
 ! R83   R(75,77)                1.07           estimate D2E/DX2                !
 ! R84   R(75,78)                1.07           estimate D2E/DX2                !
 ! R85   R(79,80)                1.07           estimate D2E/DX2                !
 ! R86   R(79,81)                1.07           estimate D2E/DX2                !
 ! R87   R(79,82)                1.07           estimate D2E/DX2                !
 ! A1    A(2,1,6)              123.0542         estimate D2E/DX2                !
 ! A2    A(2,1,37)             105.6364         estimate D2E/DX2                !
 ! A3    A(6,1,37)             131.3028         estimate D2E/DX2                !
 ! A4    A(1,2,3)              119.8215         estimate D2E/DX2                !
 ! A5    A(1,2,21)             109.4097         estimate D2E/DX2                !
 ! A6    A(3,2,21)             130.7672         estimate D2E/DX2                !
 ! A7    A(2,3,4)              117.8201         estimate D2E/DX2                !
 ! A8    A(2,3,8)              120.7887         estimate D2E/DX2                !
 ! A9    A(4,3,8)              121.3903         estimate D2E/DX2                !
 ! A10   A(3,4,5)              121.6206         estimate D2E/DX2                !
 ! A11   A(3,4,9)              119.4662         estimate D2E/DX2                !
 ! A12   A(5,4,9)              118.9132         estimate D2E/DX2                !
 ! A13   A(4,5,6)              121.9154         estimate D2E/DX2                !
 ! A14   A(4,5,10)             119.3771         estimate D2E/DX2                !
 ! A15   A(6,5,10)             118.7075         estimate D2E/DX2                !
 ! A16   A(1,6,5)              115.7646         estimate D2E/DX2                !
 ! A17   A(1,6,39)             122.0666         estimate D2E/DX2                !
 ! A18   A(5,6,39)             122.1681         estimate D2E/DX2                !
 ! A19   A(16,7,21)            123.2018         estimate D2E/DX2                !
 ! A20   A(16,7,37)            124.6833         estimate D2E/DX2                !
 ! A21   A(21,7,37)            112.1104         estimate D2E/DX2                !
 ! A22   A(12,11,16)           123.0599         estimate D2E/DX2                !
 ! A23   A(12,11,34)           106.2154         estimate D2E/DX2                !
 ! A24   A(16,11,34)           130.7206         estimate D2E/DX2                !
 ! A25   A(11,12,13)           120.0545         estimate D2E/DX2                !
 ! A26   A(11,12,35)           108.3866         estimate D2E/DX2                !
 ! A27   A(13,12,35)           131.5589         estimate D2E/DX2                !
 ! A28   A(12,13,14)           117.121          estimate D2E/DX2                !
 ! A29   A(12,13,18)           121.0059         estimate D2E/DX2                !
 ! A30   A(14,13,18)           121.8729         estimate D2E/DX2                !
 ! A31   A(13,14,15)           122.3711         estimate D2E/DX2                !
 ! A32   A(13,14,19)           119.2754         estimate D2E/DX2                !
 ! A33   A(15,14,19)           118.3529         estimate D2E/DX2                !
 ! A34   A(14,15,16)           121.8675         estimate D2E/DX2                !
 ! A35   A(14,15,20)           118.688          estimate D2E/DX2                !
 ! A36   A(16,15,20)           119.4443         estimate D2E/DX2                !
 ! A37   A(7,16,11)            119.1064         estimate D2E/DX2                !
 ! A38   A(7,16,15)            125.3701         estimate D2E/DX2                !
 ! A39   A(11,16,15)           115.5163         estimate D2E/DX2                !
 ! A40   A(23,17,34)           126.7039         estimate D2E/DX2                !
 ! A41   A(23,17,35)           122.1236         estimate D2E/DX2                !
 ! A42   A(34,17,35)           111.1594         estimate D2E/DX2                !
 ! A43   A(2,21,7)             105.4909         estimate D2E/DX2                !
 ! A44   A(23,22,27)           120.5531         estimate D2E/DX2                !
 ! A45   A(23,22,32)           121.4289         estimate D2E/DX2                !
 ! A46   A(27,22,32)           118.0178         estimate D2E/DX2                !
 ! A47   A(17,23,22)           117.6165         estimate D2E/DX2                !
 ! A48   A(17,23,24)           123.5062         estimate D2E/DX2                !
 ! A49   A(22,23,24)           118.8726         estimate D2E/DX2                !
 ! A50   A(23,24,25)           120.7679         estimate D2E/DX2                !
 ! A51   A(23,24,28)           119.9476         estimate D2E/DX2                !
 ! A52   A(25,24,28)           119.2843         estimate D2E/DX2                !
 ! A53   A(24,25,26)           119.446          estimate D2E/DX2                !
 ! A54   A(24,25,30)           121.3374         estimate D2E/DX2                !
 ! A55   A(26,25,30)           119.2143         estimate D2E/DX2                !
 ! A56   A(25,26,27)           122.6962         estimate D2E/DX2                !
 ! A57   A(25,26,29)           118.2298         estimate D2E/DX2                !
 ! A58   A(27,26,29)           119.0734         estimate D2E/DX2                !
 ! A59   A(22,27,26)           117.6418         estimate D2E/DX2                !
 ! A60   A(22,27,31)           118.9999         estimate D2E/DX2                !
 ! A61   A(26,27,31)           123.3583         estimate D2E/DX2                !
 ! A62   A(25,30,59)           109.9249         estimate D2E/DX2                !
 ! A63   A(25,30,63)           110.4747         estimate D2E/DX2                !
 ! A64   A(25,30,67)           111.9691         estimate D2E/DX2                !
 ! A65   A(59,30,63)           106.4455         estimate D2E/DX2                !
 ! A66   A(59,30,67)           108.6691         estimate D2E/DX2                !
 ! A67   A(63,30,67)           109.1872         estimate D2E/DX2                !
 ! A68   A(27,31,71)           110.8225         estimate D2E/DX2                !
 ! A69   A(27,31,75)           110.4419         estimate D2E/DX2                !
 ! A70   A(27,31,79)           110.6449         estimate D2E/DX2                !
 ! A71   A(71,31,75)           109.1448         estimate D2E/DX2                !
 ! A72   A(71,31,79)           106.9954         estimate D2E/DX2                !
 ! A73   A(75,31,79)           108.699          estimate D2E/DX2                !
 ! A74   A(22,32,33)           108.4216         estimate D2E/DX2                !
 ! A75   A(11,34,17)           107.5768         estimate D2E/DX2                !
 ! A76   A(11,34,36)           121.3831         estimate D2E/DX2                !
 ! A77   A(17,34,36)           131.0304         estimate D2E/DX2                !
 ! A78   A(12,35,17)           106.6597         estimate D2E/DX2                !
 ! A79   A(1,37,7)             107.3515         estimate D2E/DX2                !
 ! A80   A(1,37,38)            122.1412         estimate D2E/DX2                !
 ! A81   A(7,37,38)            130.4835         estimate D2E/DX2                !
 ! A82   A(6,39,40)            115.5356         estimate D2E/DX2                !
 ! A83   A(6,39,41)            121.8963         estimate D2E/DX2                !
 ! A84   A(40,39,41)           122.5677         estimate D2E/DX2                !
 ! A85   A(39,41,42)           117.0244         estimate D2E/DX2                !
 ! A86   A(41,42,43)           111.659          estimate D2E/DX2                !
 ! A87   A(41,42,44)           112.4288         estimate D2E/DX2                !
 ! A88   A(41,42,45)           106.3124         estimate D2E/DX2                !
 ! A89   A(43,42,44)           110.6684         estimate D2E/DX2                !
 ! A90   A(43,42,45)           107.8605         estimate D2E/DX2                !
 ! A91   A(44,42,45)           107.6274         estimate D2E/DX2                !
 ! A92   A(42,43,46)           111.5055         estimate D2E/DX2                !
 ! A93   A(42,43,47)           108.3667         estimate D2E/DX2                !
 ! A94   A(42,43,48)           109.4423         estimate D2E/DX2                !
 ! A95   A(46,43,47)           109.4489         estimate D2E/DX2                !
 ! A96   A(46,43,48)           110.8467         estimate D2E/DX2                !
 ! A97   A(47,43,48)           107.0989         estimate D2E/DX2                !
 ! A98   A(42,44,49)           111.3494         estimate D2E/DX2                !
 ! A99   A(42,44,50)           108.744          estimate D2E/DX2                !
 ! A100  A(42,44,51)           109.421          estimate D2E/DX2                !
 ! A101  A(49,44,50)           109.2989         estimate D2E/DX2                !
 ! A102  A(49,44,51)           110.7651         estimate D2E/DX2                !
 ! A103  A(50,44,51)           107.1489         estimate D2E/DX2                !
 ! A104  A(43,46,52)           111.3997         estimate D2E/DX2                !
 ! A105  A(43,46,53)           109.6793         estimate D2E/DX2                !
 ! A106  A(43,46,54)           109.2589         estimate D2E/DX2                !
 ! A107  A(52,46,53)           110.5047         estimate D2E/DX2                !
 ! A108  A(52,46,54)           109.0409         estimate D2E/DX2                !
 ! A109  A(53,46,54)           106.8394         estimate D2E/DX2                !
 ! A110  A(44,49,52)           111.4305         estimate D2E/DX2                !
 ! A111  A(44,49,55)           109.6484         estimate D2E/DX2                !
 ! A112  A(44,49,56)           109.2212         estimate D2E/DX2                !
 ! A113  A(52,49,55)           110.5506         estimate D2E/DX2                !
 ! A114  A(52,49,56)           109.1053         estimate D2E/DX2                !
 ! A115  A(55,49,56)           106.7621         estimate D2E/DX2                !
 ! A116  A(46,52,49)           110.9902         estimate D2E/DX2                !
 ! A117  A(46,52,57)           110.2608         estimate D2E/DX2                !
 ! A118  A(46,52,58)           109.1165         estimate D2E/DX2                !
 ! A119  A(49,52,57)           110.2815         estimate D2E/DX2                !
 ! A120  A(49,52,58)           109.1665         estimate D2E/DX2                !
 ! A121  A(57,52,58)           106.9246         estimate D2E/DX2                !
 ! A122  A(30,59,60)           109.4712         estimate D2E/DX2                !
 ! A123  A(30,59,61)           109.4712         estimate D2E/DX2                !
 ! A124  A(30,59,62)           109.4712         estimate D2E/DX2                !
 ! A125  A(60,59,61)           109.4713         estimate D2E/DX2                !
 ! A126  A(60,59,62)           109.4712         estimate D2E/DX2                !
 ! A127  A(61,59,62)           109.4712         estimate D2E/DX2                !
 ! A128  A(30,63,64)           109.4712         estimate D2E/DX2                !
 ! A129  A(30,63,65)           109.4712         estimate D2E/DX2                !
 ! A130  A(30,63,66)           109.4712         estimate D2E/DX2                !
 ! A131  A(64,63,65)           109.4713         estimate D2E/DX2                !
 ! A132  A(64,63,66)           109.4712         estimate D2E/DX2                !
 ! A133  A(65,63,66)           109.4712         estimate D2E/DX2                !
 ! A134  A(30,67,68)           109.4712         estimate D2E/DX2                !
 ! A135  A(30,67,69)           109.4712         estimate D2E/DX2                !
 ! A136  A(30,67,70)           109.4712         estimate D2E/DX2                !
 ! A137  A(68,67,69)           109.4713         estimate D2E/DX2                !
 ! A138  A(68,67,70)           109.4712         estimate D2E/DX2                !
 ! A139  A(69,67,70)           109.4712         estimate D2E/DX2                !
 ! A140  A(31,71,72)           109.4712         estimate D2E/DX2                !
 ! A141  A(31,71,73)           109.4712         estimate D2E/DX2                !
 ! A142  A(31,71,74)           109.4712         estimate D2E/DX2                !
 ! A143  A(72,71,73)           109.4713         estimate D2E/DX2                !
 ! A144  A(72,71,74)           109.4712         estimate D2E/DX2                !
 ! A145  A(73,71,74)           109.4712         estimate D2E/DX2                !
 ! A146  A(31,75,76)           109.4712         estimate D2E/DX2                !
 ! A147  A(31,75,77)           109.4712         estimate D2E/DX2                !
 ! A148  A(31,75,78)           109.4712         estimate D2E/DX2                !
 ! A149  A(76,75,77)           109.4713         estimate D2E/DX2                !
 ! A150  A(76,75,78)           109.4712         estimate D2E/DX2                !
 ! A151  A(77,75,78)           109.4712         estimate D2E/DX2                !
 ! A152  A(31,79,80)           109.4712         estimate D2E/DX2                !
 ! A153  A(31,79,81)           109.4712         estimate D2E/DX2                !
 ! A154  A(31,79,82)           109.4712         estimate D2E/DX2                !
 ! A155  A(80,79,81)           109.4713         estimate D2E/DX2                !
 ! A156  A(80,79,82)           109.4712         estimate D2E/DX2                !
 ! A157  A(81,79,82)           109.4712         estimate D2E/DX2                !
 ! D1    D(6,1,2,3)             -0.6786         estimate D2E/DX2                !
 ! D2    D(6,1,2,21)           178.901          estimate D2E/DX2                !
 ! D3    D(37,1,2,3)          -179.8427         estimate D2E/DX2                !
 ! D4    D(37,1,2,21)           -0.2631         estimate D2E/DX2                !
 ! D5    D(2,1,6,5)              0.246          estimate D2E/DX2                !
 ! D6    D(2,1,6,39)          -179.4603         estimate D2E/DX2                !
 ! D7    D(37,1,6,5)           179.1744         estimate D2E/DX2                !
 ! D8    D(37,1,6,39)           -0.5319         estimate D2E/DX2                !
 ! D9    D(2,1,37,7)             0.3322         estimate D2E/DX2                !
 ! D10   D(2,1,37,38)          178.7305         estimate D2E/DX2                !
 ! D11   D(6,1,37,7)          -178.7351         estimate D2E/DX2                !
 ! D12   D(6,1,37,38)           -0.3369         estimate D2E/DX2                !
 ! D13   D(1,2,3,4)              0.6352         estimate D2E/DX2                !
 ! D14   D(1,2,3,8)           -179.6936         estimate D2E/DX2                !
 ! D15   D(21,2,3,4)          -178.8413         estimate D2E/DX2                !
 ! D16   D(21,2,3,8)             0.8299         estimate D2E/DX2                !
 ! D17   D(1,2,21,7)             0.085          estimate D2E/DX2                !
 ! D18   D(3,2,21,7)           179.6034         estimate D2E/DX2                !
 ! D19   D(2,3,4,5)             -0.2091         estimate D2E/DX2                !
 ! D20   D(2,3,4,9)            179.7278         estimate D2E/DX2                !
 ! D21   D(8,3,4,5)           -179.8783         estimate D2E/DX2                !
 ! D22   D(8,3,4,9)              0.0587         estimate D2E/DX2                !
 ! D23   D(3,4,5,6)             -0.2201         estimate D2E/DX2                !
 ! D24   D(3,4,5,10)           179.7964         estimate D2E/DX2                !
 ! D25   D(9,4,5,6)            179.8426         estimate D2E/DX2                !
 ! D26   D(9,4,5,10)            -0.1409         estimate D2E/DX2                !
 ! D27   D(4,5,6,1)              0.1999         estimate D2E/DX2                !
 ! D28   D(4,5,6,39)           179.9059         estimate D2E/DX2                !
 ! D29   D(10,5,6,1)          -179.8165         estimate D2E/DX2                !
 ! D30   D(10,5,6,39)           -0.1105         estimate D2E/DX2                !
 ! D31   D(1,6,39,40)          178.8429         estimate D2E/DX2                !
 ! D32   D(1,6,39,41)           -0.9351         estimate D2E/DX2                !
 ! D33   D(5,6,39,40)           -0.8446         estimate D2E/DX2                !
 ! D34   D(5,6,39,41)          179.3773         estimate D2E/DX2                !
 ! D35   D(21,7,16,11)           3.8519         estimate D2E/DX2                !
 ! D36   D(21,7,16,15)        -177.1731         estimate D2E/DX2                !
 ! D37   D(37,7,16,11)        -175.3142         estimate D2E/DX2                !
 ! D38   D(37,7,16,15)           3.6608         estimate D2E/DX2                !
 ! D39   D(16,7,21,2)         -179.1281         estimate D2E/DX2                !
 ! D40   D(37,7,21,2)            0.1317         estimate D2E/DX2                !
 ! D41   D(16,7,37,1)          178.9449         estimate D2E/DX2                !
 ! D42   D(16,7,37,38)           0.7281         estimate D2E/DX2                !
 ! D43   D(21,7,37,1)           -0.302          estimate D2E/DX2                !
 ! D44   D(21,7,37,38)        -178.5187         estimate D2E/DX2                !
 ! D45   D(16,11,12,13)          1.0352         estimate D2E/DX2                !
 ! D46   D(16,11,12,35)       -178.9068         estimate D2E/DX2                !
 ! D47   D(34,11,12,13)       -179.6269         estimate D2E/DX2                !
 ! D48   D(34,11,12,35)          0.4312         estimate D2E/DX2                !
 ! D49   D(12,11,16,7)         177.9736         estimate D2E/DX2                !
 ! D50   D(12,11,16,15)         -1.1003         estimate D2E/DX2                !
 ! D51   D(34,11,16,7)          -1.1876         estimate D2E/DX2                !
 ! D52   D(34,11,16,15)        179.7385         estimate D2E/DX2                !
 ! D53   D(12,11,34,17)         -0.4614         estimate D2E/DX2                !
 ! D54   D(12,11,34,36)       -179.4475         estimate D2E/DX2                !
 ! D55   D(16,11,34,17)        178.8065         estimate D2E/DX2                !
 ! D56   D(16,11,34,36)         -0.1796         estimate D2E/DX2                !
 ! D57   D(11,12,13,14)         -0.2269         estimate D2E/DX2                !
 ! D58   D(11,12,13,18)        179.8903         estimate D2E/DX2                !
 ! D59   D(35,12,13,14)        179.6994         estimate D2E/DX2                !
 ! D60   D(35,12,13,18)         -0.1833         estimate D2E/DX2                !
 ! D61   D(11,12,35,17)         -0.227          estimate D2E/DX2                !
 ! D62   D(13,12,35,17)        179.8401         estimate D2E/DX2                !
 ! D63   D(12,13,14,15)         -0.4281         estimate D2E/DX2                !
 ! D64   D(12,13,14,19)        179.8662         estimate D2E/DX2                !
 ! D65   D(18,13,14,15)        179.4536         estimate D2E/DX2                !
 ! D66   D(18,13,14,19)         -0.2521         estimate D2E/DX2                !
 ! D67   D(13,14,15,16)          0.3313         estimate D2E/DX2                !
 ! D68   D(13,14,15,20)       -179.8204         estimate D2E/DX2                !
 ! D69   D(19,14,15,16)       -179.9604         estimate D2E/DX2                !
 ! D70   D(19,14,15,20)         -0.1121         estimate D2E/DX2                !
 ! D71   D(14,15,16,7)        -178.5819         estimate D2E/DX2                !
 ! D72   D(14,15,16,11)          0.4258         estimate D2E/DX2                !
 ! D73   D(20,15,16,7)           1.5709         estimate D2E/DX2                !
 ! D74   D(20,15,16,11)       -179.4214         estimate D2E/DX2                !
 ! D75   D(34,17,23,22)        174.694          estimate D2E/DX2                !
 ! D76   D(34,17,23,24)         -4.4999         estimate D2E/DX2                !
 ! D77   D(35,17,23,22)         -3.87           estimate D2E/DX2                !
 ! D78   D(35,17,23,24)        176.9361         estimate D2E/DX2                !
 ! D79   D(23,17,34,11)       -178.3541         estimate D2E/DX2                !
 ! D80   D(23,17,34,36)          0.4984         estimate D2E/DX2                !
 ! D81   D(35,17,34,11)          0.3418         estimate D2E/DX2                !
 ! D82   D(35,17,34,36)        179.1944         estimate D2E/DX2                !
 ! D83   D(23,17,35,12)        178.7003         estimate D2E/DX2                !
 ! D84   D(34,17,35,12)         -0.0652         estimate D2E/DX2                !
 ! D85   D(27,22,23,17)       -177.5809         estimate D2E/DX2                !
 ! D86   D(27,22,23,24)          1.6516         estimate D2E/DX2                !
 ! D87   D(32,22,23,17)          2.2288         estimate D2E/DX2                !
 ! D88   D(32,22,23,24)       -178.5387         estimate D2E/DX2                !
 ! D89   D(23,22,27,26)         -1.0803         estimate D2E/DX2                !
 ! D90   D(23,22,27,31)        178.9726         estimate D2E/DX2                !
 ! D91   D(32,22,27,26)        179.1037         estimate D2E/DX2                !
 ! D92   D(32,22,27,31)         -0.8435         estimate D2E/DX2                !
 ! D93   D(23,22,32,33)          0.0361         estimate D2E/DX2                !
 ! D94   D(27,22,32,33)        179.8505         estimate D2E/DX2                !
 ! D95   D(17,23,24,25)        178.3449         estimate D2E/DX2                !
 ! D96   D(17,23,24,28)         -1.8502         estimate D2E/DX2                !
 ! D97   D(22,23,24,25)         -0.8395         estimate D2E/DX2                !
 ! D98   D(22,23,24,28)        178.9654         estimate D2E/DX2                !
 ! D99   D(23,24,25,26)         -0.4871         estimate D2E/DX2                !
 ! D100  D(23,24,25,30)       -179.9377         estimate D2E/DX2                !
 ! D101  D(28,24,25,26)        179.7067         estimate D2E/DX2                !
 ! D102  D(28,24,25,30)          0.2561         estimate D2E/DX2                !
 ! D103  D(24,25,26,27)          1.0935         estimate D2E/DX2                !
 ! D104  D(24,25,26,29)       -179.1673         estimate D2E/DX2                !
 ! D105  D(30,25,26,27)       -179.4441         estimate D2E/DX2                !
 ! D106  D(30,25,26,29)          0.2951         estimate D2E/DX2                !
 ! D107  D(24,25,30,59)        115.4513         estimate D2E/DX2                !
 ! D108  D(24,25,30,63)       -127.3691         estimate D2E/DX2                !
 ! D109  D(24,25,30,67)         -5.4373         estimate D2E/DX2                !
 ! D110  D(26,25,30,59)        -64.0007         estimate D2E/DX2                !
 ! D111  D(26,25,30,63)         53.179          estimate D2E/DX2                !
 ! D112  D(26,25,30,67)        175.1107         estimate D2E/DX2                !
 ! D113  D(25,26,27,22)         -0.2852         estimate D2E/DX2                !
 ! D114  D(25,26,27,31)        179.6594         estimate D2E/DX2                !
 ! D115  D(29,26,27,22)        179.9777         estimate D2E/DX2                !
 ! D116  D(29,26,27,31)         -0.0777         estimate D2E/DX2                !
 ! D117  D(22,27,31,71)        -53.754          estimate D2E/DX2                !
 ! D118  D(22,27,31,75)       -174.8322         estimate D2E/DX2                !
 ! D119  D(22,27,31,79)         64.7663         estimate D2E/DX2                !
 ! D120  D(26,27,31,71)        126.3021         estimate D2E/DX2                !
 ! D121  D(26,27,31,75)          5.2238         estimate D2E/DX2                !
 ! D122  D(26,27,31,79)       -115.1776         estimate D2E/DX2                !
 ! D123  D(25,30,59,60)         79.5006         estimate D2E/DX2                !
 ! D124  D(25,30,59,61)       -160.4994         estimate D2E/DX2                !
 ! D125  D(25,30,59,62)        -40.4994         estimate D2E/DX2                !
 ! D126  D(63,30,59,60)        -40.1649         estimate D2E/DX2                !
 ! D127  D(63,30,59,61)         79.8351         estimate D2E/DX2                !
 ! D128  D(63,30,59,62)       -160.1649         estimate D2E/DX2                !
 ! D129  D(67,30,59,60)       -157.6451         estimate D2E/DX2                !
 ! D130  D(67,30,59,61)        -37.6451         estimate D2E/DX2                !
 ! D131  D(67,30,59,62)         82.3549         estimate D2E/DX2                !
 ! D132  D(25,30,63,64)        167.1195         estimate D2E/DX2                !
 ! D133  D(25,30,63,65)        -72.8805         estimate D2E/DX2                !
 ! D134  D(25,30,63,66)         47.1195         estimate D2E/DX2                !
 ! D135  D(59,30,63,64)        -73.5728         estimate D2E/DX2                !
 ! D136  D(59,30,63,65)         46.4272         estimate D2E/DX2                !
 ! D137  D(59,30,63,66)        166.4272         estimate D2E/DX2                !
 ! D138  D(67,30,63,64)         43.5633         estimate D2E/DX2                !
 ! D139  D(67,30,63,65)        163.5633         estimate D2E/DX2                !
 ! D140  D(67,30,63,66)        -76.4367         estimate D2E/DX2                !
 ! D141  D(25,30,67,68)        -56.4088         estimate D2E/DX2                !
 ! D142  D(25,30,67,69)         63.5913         estimate D2E/DX2                !
 ! D143  D(25,30,67,70)       -176.4088         estimate D2E/DX2                !
 ! D144  D(59,30,67,68)       -178.0219         estimate D2E/DX2                !
 ! D145  D(59,30,67,69)        -58.0219         estimate D2E/DX2                !
 ! D146  D(59,30,67,70)         61.9781         estimate D2E/DX2                !
 ! D147  D(63,30,67,68)         66.2575         estimate D2E/DX2                !
 ! D148  D(63,30,67,69)       -173.7424         estimate D2E/DX2                !
 ! D149  D(63,30,67,70)        -53.7424         estimate D2E/DX2                !
 ! D150  D(27,31,71,72)         94.7842         estimate D2E/DX2                !
 ! D151  D(27,31,71,73)       -145.2157         estimate D2E/DX2                !
 ! D152  D(27,31,71,74)        -25.2158         estimate D2E/DX2                !
 ! D153  D(75,31,71,72)       -143.3745         estimate D2E/DX2                !
 ! D154  D(75,31,71,73)        -23.3745         estimate D2E/DX2                !
 ! D155  D(75,31,71,74)         96.6255         estimate D2E/DX2                !
 ! D156  D(79,31,71,72)        -25.9248         estimate D2E/DX2                !
 ! D157  D(79,31,71,73)         94.0752         estimate D2E/DX2                !
 ! D158  D(79,31,71,74)       -145.9248         estimate D2E/DX2                !
 ! D159  D(27,31,75,76)        -61.5477         estimate D2E/DX2                !
 ! D160  D(27,31,75,77)         58.4523         estimate D2E/DX2                !
 ! D161  D(27,31,75,78)        178.4523         estimate D2E/DX2                !
 ! D162  D(71,31,75,76)        176.3813         estimate D2E/DX2                !
 ! D163  D(71,31,75,77)        -63.6187         estimate D2E/DX2                !
 ! D164  D(71,31,75,78)         56.3813         estimate D2E/DX2                !
 ! D165  D(79,31,75,76)         60.0124         estimate D2E/DX2                !
 ! D166  D(79,31,75,77)       -179.9876         estimate D2E/DX2                !
 ! D167  D(79,31,75,78)        -59.9876         estimate D2E/DX2                !
 ! D168  D(27,31,79,80)        149.1416         estimate D2E/DX2                !
 ! D169  D(27,31,79,81)        -90.8584         estimate D2E/DX2                !
 ! D170  D(27,31,79,82)         29.1416         estimate D2E/DX2                !
 ! D171  D(71,31,79,80)        -90.0365         estimate D2E/DX2                !
 ! D172  D(71,31,79,81)         29.9635         estimate D2E/DX2                !
 ! D173  D(71,31,79,82)        149.9635         estimate D2E/DX2                !
 ! D174  D(75,31,79,80)         27.7056         estimate D2E/DX2                !
 ! D175  D(75,31,79,81)        147.7056         estimate D2E/DX2                !
 ! D176  D(75,31,79,82)        -92.2944         estimate D2E/DX2                !
 ! D177  D(6,39,41,42)         179.2827         estimate D2E/DX2                !
 ! D178  D(40,39,41,42)         -0.4796         estimate D2E/DX2                !
 ! D179  D(39,41,42,43)        -63.4785         estimate D2E/DX2                !
 ! D180  D(39,41,42,44)         61.6048         estimate D2E/DX2                !
 ! D181  D(39,41,42,45)        179.1304         estimate D2E/DX2                !
 ! D182  D(41,42,43,46)       -178.7201         estimate D2E/DX2                !
 ! D183  D(41,42,43,47)         60.7552         estimate D2E/DX2                !
 ! D184  D(41,42,43,48)        -55.7151         estimate D2E/DX2                !
 ! D185  D(44,42,43,46)         55.2244         estimate D2E/DX2                !
 ! D186  D(44,42,43,47)        -65.3003         estimate D2E/DX2                !
 ! D187  D(44,42,43,48)        178.2295         estimate D2E/DX2                !
 ! D188  D(45,42,43,46)        -62.2661         estimate D2E/DX2                !
 ! D189  D(45,42,43,47)        177.2091         estimate D2E/DX2                !
 ! D190  D(45,42,43,48)         60.7389         estimate D2E/DX2                !
 ! D191  D(41,42,44,49)        179.1093         estimate D2E/DX2                !
 ! D192  D(41,42,44,50)        -60.4026         estimate D2E/DX2                !
 ! D193  D(41,42,44,51)         56.3279         estimate D2E/DX2                !
 ! D194  D(43,42,44,49)        -55.2668         estimate D2E/DX2                !
 ! D195  D(43,42,44,50)         65.2213         estimate D2E/DX2                !
 ! D196  D(43,42,44,51)       -178.0482         estimate D2E/DX2                !
 ! D197  D(45,42,44,49)         62.3667         estimate D2E/DX2                !
 ! D198  D(45,42,44,50)       -177.1452         estimate D2E/DX2                !
 ! D199  D(45,42,44,51)        -60.4147         estimate D2E/DX2                !
 ! D200  D(42,43,46,52)        -55.5555         estimate D2E/DX2                !
 ! D201  D(42,43,46,53)       -178.2199         estimate D2E/DX2                !
 ! D202  D(42,43,46,54)         64.9816         estimate D2E/DX2                !
 ! D203  D(47,43,46,52)         64.3325         estimate D2E/DX2                !
 ! D204  D(47,43,46,53)        -58.3319         estimate D2E/DX2                !
 ! D205  D(47,43,46,54)       -175.1304         estimate D2E/DX2                !
 ! D206  D(48,43,46,52)       -177.755          estimate D2E/DX2                !
 ! D207  D(48,43,46,53)         59.5807         estimate D2E/DX2                !
 ! D208  D(48,43,46,54)        -57.2179         estimate D2E/DX2                !
 ! D209  D(42,44,49,52)         55.7459         estimate D2E/DX2                !
 ! D210  D(42,44,49,55)        178.4678         estimate D2E/DX2                !
 ! D211  D(42,44,49,56)        -64.8661         estimate D2E/DX2                !
 ! D212  D(50,44,49,52)        -64.4151         estimate D2E/DX2                !
 ! D213  D(50,44,49,55)         58.3068         estimate D2E/DX2                !
 ! D214  D(50,44,49,56)        174.9729         estimate D2E/DX2                !
 ! D215  D(51,44,49,52)        177.7524         estimate D2E/DX2                !
 ! D216  D(51,44,49,55)        -59.5258         estimate D2E/DX2                !
 ! D217  D(51,44,49,56)         57.1403         estimate D2E/DX2                !
 ! D218  D(43,46,52,49)         55.3167         estimate D2E/DX2                !
 ! D219  D(43,46,52,57)        177.8222         estimate D2E/DX2                !
 ! D220  D(43,46,52,58)        -65.0248         estimate D2E/DX2                !
 ! D221  D(53,46,52,49)        177.5057         estimate D2E/DX2                !
 ! D222  D(53,46,52,57)        -59.9887         estimate D2E/DX2                !
 ! D223  D(53,46,52,58)         57.1643         estimate D2E/DX2                !
 ! D224  D(54,46,52,49)        -65.3484         estimate D2E/DX2                !
 ! D225  D(54,46,52,57)         57.1571         estimate D2E/DX2                !
 ! D226  D(54,46,52,58)        174.3101         estimate D2E/DX2                !
 ! D227  D(44,49,52,46)        -55.4652         estimate D2E/DX2                !
 ! D228  D(44,49,52,57)       -177.9588         estimate D2E/DX2                !
 ! D229  D(44,49,52,58)         64.8466         estimate D2E/DX2                !
 ! D230  D(55,49,52,46)       -177.6681         estimate D2E/DX2                !
 ! D231  D(55,49,52,57)         59.8383         estimate D2E/DX2                !
 ! D232  D(55,49,52,58)        -57.3563         estimate D2E/DX2                !
 ! D233  D(56,49,52,46)         65.2149         estimate D2E/DX2                !
 ! D234  D(56,49,52,57)        -57.2787         estimate D2E/DX2                !
 ! D235  D(56,49,52,58)       -174.4733         estimate D2E/DX2                !
 --------------------------------------------------------------------------------
 Trust Radius=3.00D-01 FncErr=5.00D-06 GrdErr=5.00D-06 EigMax=2.50D+02 EigMin=1.00D-04
 Number of steps in this run=    489 maximum allowed number of steps=    492.
 GradGradGradGradGradGradGradGradGradGradGradGradGradGradGradGradGradGrad

 Leave Link  103 at Thu Dec 20 18:03:40 2018, MaxMem=  1342177280 cpu:               0.8 elap:               0.1
 (Enter /gpfs/apps/hpc/Apps/Restricted/Gaussian/Rev_A.03/g16/l202.exe)
 Symmetry turned off by external request.
 Stoichiometry    C35H41N5O(1+,2)
 Framework group  C1[X(C35H41N5O)]
 Deg. of freedom   240
 Full point group                 C1      NOp   1
                          Input orientation:                          
 ---------------------------------------------------------------------
 Center     Atomic      Atomic             Coordinates (Angstroms)
 Number     Number       Type             X           Y           Z
 ---------------------------------------------------------------------
      1          6           0        1.614321    1.143080    0.187172
      2          6           0        0.399100    1.864767    0.180990
      3          6           0        0.419406    3.263061    0.089613
      4          6           0        1.658941    3.890085   -0.006188
      5          6           0        2.858327    3.156022   -0.007751
      6          6           0        2.871540    1.759866    0.091161
      7          6           0       -0.111646   -0.232753    0.320809
      8          1           0       -0.502251    3.832046    0.088510
      9          1           0        1.705524    4.969749   -0.082615
     10          1           0        3.803730    3.681641   -0.087410
     11          6           0       -2.293136   -1.382652    0.331783
     12          6           0       -3.133318   -2.529411    0.356695
     13          6           0       -2.571020   -3.810715    0.472692
     14          6           0       -1.189252   -3.889535    0.554046
     15          6           0       -0.361709   -2.743137    0.514611
     16          6           0       -0.889558   -1.457826    0.397701
     17          6           0       -4.406672   -0.773444    0.171208
     18          1           0       -3.195938   -4.693695    0.494948
     19          1           0       -0.718761   -4.860494    0.646606
     20          1           0        0.711945   -2.874137    0.579984
     21          7           0       -0.662663    0.979117    0.264324
     22          6           0       -6.861243   -0.705395   -0.125738
     23          6           0       -5.602023    0.008668    0.022727
     24          6           0       -5.611558    1.399157   -0.002045
     25          6           0       -6.805802    2.103103   -0.183994
     26          6           0       -8.026181    1.382297   -0.356352
     27          6           0       -8.087549    0.012462   -0.330189
     28          1           0       -4.686560    1.948571    0.123679
     29          1           0       -8.938426    1.947673   -0.509628
     30          6           0       -6.830532    3.595398   -0.214044
     31          6           0       -9.359372   -0.757856   -0.501789
     32          8           0       -6.913703   -2.006014   -0.081819
     33          1           0       -5.946829   -2.370343    0.068789
     34          7           0       -3.123659   -0.303556    0.221701
     35          7           0       -4.435614   -2.113739    0.251966
     36          1           0       -2.756970    0.645213    0.175127
     37          7           0        1.258790   -0.179301    0.281194
     38          1           0        1.946920   -0.923721    0.286611
     39          6           0        4.112597    0.992581    0.088058
     40          1           0        5.031308    1.580953   -0.011296
     41          7           0        4.119209   -0.285696    0.190749
     42          6           0        5.432825   -0.953266    0.159300
     43          6           0        6.142571   -0.746281   -1.189225
     44          6           0        6.340181   -0.518341    1.322782
     45          1           0        5.236183   -2.025256    0.274597
     46          6           0        7.493610   -1.467850   -1.229468
     47          1           0        6.298515    0.329297   -1.336157
     48          1           0        5.492684   -1.090878   -1.999614
     49          6           0        7.689927   -1.243017    1.278726
     50          1           0        6.507067    0.562796    1.254154
     51          1           0        5.829627   -0.706409    2.272348
     52          6           0        8.393469   -1.035137   -0.066939
     53          1           0        7.986104   -1.275051   -2.187927
     54          1           0        7.327462   -2.550702   -1.169649
     55          1           0        8.322327   -0.893537    2.100982
     56          1           0        7.528811   -2.316902    1.437720
     57          1           0        9.336864   -1.589244   -0.091362
     58          1           0        8.643792    0.027088   -0.182327
     59          6           0       -7.271561    4.085053   -1.605925
     60          1           0       -8.336064    4.014462   -1.688083
     61          1           0       -6.970400    5.103298   -1.737759
     62          1           0       -6.814647    3.477614   -2.359017
     63          6           0       -7.867336    4.137250    0.787472
     64          1           0       -7.719882    5.188766    0.919653
     65          1           0       -8.853195    3.959847    0.411292
     66          1           0       -7.749308    3.639617    1.727329
     67          6           0       -5.451623    4.201045    0.107518
     68          1           0       -5.117012    3.841425    1.058101
     69          1           0       -4.751104    3.914650   -0.648890
     70          1           0       -5.528679    5.267866    0.136763
     71          6           0       -9.220797   -1.799576   -1.627496
     72          1           0       -8.946866   -2.744650   -1.207141
     73          1           0      -10.154147   -1.895104   -2.141921
     74          1           0       -8.465097   -1.482768   -2.315572
     75          6           0      -10.523705    0.193543   -0.834608
     76          1           0      -10.665300    0.880310   -0.026399
     77          1           0      -10.296451    0.736368   -1.728251
     78          1           0      -11.418347   -0.375011   -0.980419
     79          6           0       -9.704755   -1.529398    0.785469
     80          1           0      -10.767532   -1.613942    0.876338
     81          1           0       -9.271578   -2.506851    0.742535
     82          1           0       -9.315129   -1.003471    1.631928
 ---------------------------------------------------------------------
 Rotational constants (GHZ):           0.1793704           0.0303286           0.0265851
 Leave Link  202 at Thu Dec 20 18:03:41 2018, MaxMem=  1342177280 cpu:               0.2 elap:               0.0
 (Enter /gpfs/apps/hpc/Apps/Restricted/Gaussian/Rev_A.03/g16/l301.exe)
 Standard basis: 6-31G(d,p) (6D, 7F)
 Ernie: Thresh=  0.10000D-02 Tol=  0.10000D-05 Strict=F.
   820 basis functions,  1435 primitive gaussians,   820 cartesian basis functions
   147 alpha electrons      146 beta electrons
       nuclear repulsion energy      4419.4659809134 Hartrees.
 IExCor=  402 DFT=T Ex+Corr=B3LYP ExCW=0 ScaHFX=  0.200000
 ScaDFX=  0.800000  0.720000  1.000000  0.810000 ScalE2=  1.000000  1.000000
 IRadAn=      5 IRanWt=     -1 IRanGd=            0 ICorTp=0 IEmpDi=141
 NAtoms=   82 NActive=   82 NUniq=   82 SFac= 1.00D+00 NAtFMM=   60 NAOKFM=T Big=T
 Integral buffers will be    131072 words long.
 Raffenetti 2 integral format.
 Two-electron integral symmetry is turned off.
 R6Disp:  Grimme-D3(BJ) Dispersion energy=       -0.1868072330 Hartrees.
 Nuclear repulsion after empirical dispersion term =     4419.2791736804 Hartrees.
 Using the following non-standard input for PCM:
 radii=bondi
 dis
 rep
 cav
 --- end of non-standard input.
 ------------------------------------------------------------------------------
 Polarizable Continuum Model (PCM)
 =================================
 Model                : C-PCM.
 Atomic radii         : Bondi.
 Polarization charges : Total charges.
 Charge compensation  : None.
 Solution method      : On-the-fly selection.
 Cavity type          : Scaled VdW (van der Waals Surface) (Alpha=1.100).
 Cavity algorithm     : GePol (No added spheres)
                        Default sphere list used, NSphG=   82.
                        Lebedev-Laikov grids with approx.  5.0 points / Ang**2.
                        Smoothing algorithm: York/Karplus (Gamma=1.0000).
                        Polarization charges: spherical gaussians, with
                                              point-specific exponents (IZeta= 3).
                        Self-potential: point-specific (ISelfS= 7).
                        Self-field    : sphere-specific E.n sum rule (ISelfD= 2).
 1st derivatives      : Analytical E(r).r(x)/FMM algorithm (CHGder, D1EAlg=3).
                        Cavity 1st derivative terms included.
 Solvent              : Dichloromethane, Eps=   8.930000 Eps(inf)=   2.028346
 ------------------------------------------------------------------------------
 GePol: Number of generator spheres                  =      82
 GePol: Total number of spheres                      =      82
 GePol: Number of exposed spheres                    =      82 (100.00%)
 GePol: Number of points                             =    5185
 GePol: Average weight of points                     =       0.12
 GePol: Minimum weight of points                     =   0.60D-10
 GePol: Maximum weight of points                     =    0.21770
 GePol: Number of points with low weight             =     346
 GePol: Fraction of low-weight points (<1% of avg)   =       6.67%
 GePol: Cavity surface area                          =    616.932 Ang**2
 GePol: Cavity volume                                =    607.977 Ang**3
 PCM non-electrostatic energy =         0.0275085829 Hartrees.
 Nuclear repulsion after PCM non-electrostatic terms =     4419.3066822633 Hartrees.
 Leave Link  301 at Thu Dec 20 18:03:41 2018, MaxMem=  1342177280 cpu:               4.0 elap:               0.3
 (Enter /gpfs/apps/hpc/Apps/Restricted/Gaussian/Rev_A.03/g16/l302.exe)
 NPDir=0 NMtPBC=     1 NCelOv=     1 NCel=       1 NClECP=     1 NCelD=      1
         NCelK=      1 NCelE2=     1 NClLst=     1 CellRange=     0.0.
 One-electron integrals computed using PRISM.
 NBasis=   820 RedAO= T EigKep=  2.77D-04  NBF=   820
 NBsUse=   820 1.00D-06 EigRej= -1.00D+00 NBFU=   820
 Precomputing XC quadrature grid using
 IXCGrd= 4 IRadAn=           5 IRanWt=          -1 IRanGd=           0 AccXCQ= 0.00D+00.
 Generated NRdTot=       0 NPtTot=           0 NUsed=           0 NTot=          32
 NSgBfM=   751   751   751   751   751 MxSgAt=    82 MxSgA2=    82.
 Leave Link  302 at Thu Dec 20 18:03:43 2018, MaxMem=  1342177280 cpu:              25.9 elap:               1.7
 (Enter /gpfs/apps/hpc/Apps/Restricted/Gaussian/Rev_A.03/g16/l303.exe)
 DipDrv:  MaxL=1.
 Leave Link  303 at Thu Dec 20 18:03:43 2018, MaxMem=  1342177280 cpu:               2.2 elap:               0.2
 (Enter /gpfs/apps/hpc/Apps/Restricted/Gaussian/Rev_A.03/g16/l401.exe)
 ExpMin= 1.61D-01 ExpMax= 5.48D+03 ExpMxC= 8.25D+02 IAcc=3 IRadAn=         5 AccDes= 0.00D+00
 Harris functional with IExCor=  402 and IRadAn=       5 diagonalized for initial guess.
 HarFok:  IExCor=  402 AccDes= 0.00D+00 IRadAn=         5 IDoV= 1 UseB2=F ITyADJ=14
 ICtDFT=  3500011 ScaDFX=  1.000000  1.000000  1.000000  1.000000
 FoFCou: FMM=F IPFlag=           0 FMFlag=      100000 FMFlg1=        2001
         NFxFlg=           0 DoJE=T BraDBF=F KetDBF=T FulRan=T
         wScrn=  0.000000 ICntrl=       500 IOpCl=  0 I1Cent=   200000004 NGrid=           0
         NMat0=    1 NMatS0=      1 NMatT0=    0 NMatD0=    1 NMtDS0=    0 NMtDT0=    0
 Symmetry not used in FoFCou.
 Harris En= -1707.46804150749    
 JPrj=0 DoOrth=F DoCkMO=F.
 Initial guess <Sx>= 0.0000 <Sy>= 0.0000 <Sz>= 0.5000 <S**2>= 0.7500 S= 0.5000
 Leave Link  401 at Thu Dec 20 18:03:48 2018, MaxMem=  1342177280 cpu:              79.4 elap:               5.0
 (Enter /gpfs/apps/hpc/Apps/Restricted/Gaussian/Rev_A.03/g16/l502.exe)
 Two-electron integral symmetry not used.
 UHF open shell SCF:
 Using DIIS extrapolation, IDIIS=  1040.
 NGot=  1342177280 LenX=  1340812546 LenY=  1340139326
 Requested convergence on RMS density matrix=1.00D-08 within 128 cycles.
 Requested convergence on MAX density matrix=1.00D-06.
 Requested convergence on             energy=1.00D-06.
 No special actions if energy rises.
 Fock matrices will be formed incrementally for  20 cycles.

 Cycle   1  Pass 1  IDiag  1:
 FoFJK:  IHMeth= 1 ICntrl=       0 DoSepK=F KAlg= 0 I1Cent=           0 FoldK=F
 IRaf= 630000000 NMat=       1 IRICut=       1 DoRegI=T DoRafI=F ISym2E= 0 IDoP0=0 IntGTp=1.
 FoFCou: FMM=T IPFlag=           0 FMFlag=      100000 FMFlg1=        2001
         NFxFlg=           0 DoJE=F BraDBF=F KetDBF=F FulRan=T
         wScrn=  0.000000 ICntrl=         0 IOpCl=  1 I1Cent=           0 NGrid=           0
         NMat0=    1 NMatS0=      1 NMatT0=    0 NMatD0=    1 NMtDS0=    0 NMtDT0=    0
 Symmetry not used in FoFCou.
 FMM levels:  10  Number of levels for PrismC:   9
 Inv3:  Mode=1 IEnd=    80652675.
 Iteration    1 A*A^-1 deviation from unit magnitude is 1.31D-14 for   1615.
 Iteration    1 A*A^-1 deviation from orthogonality  is 7.05D-15 for   5175   3534.
 Iteration    1 A^-1*A deviation from unit magnitude is 1.31D-14 for   1615.
 Iteration    1 A^-1*A deviation from orthogonality  is 4.68D-15 for   5184   2191.
 E= -1706.52670646943    
 DIIS: error= 2.97D-02 at cycle   1 NSaved=   1.
 NSaved= 1 IEnMin= 1 EnMin= -1706.52670646943     IErMin= 1 ErrMin= 2.97D-02
 ErrMax= 2.97D-02  0.00D+00 EMaxC= 1.00D-01 BMatC= 3.75D+00 BMatP= 3.75D+00
 IDIUse=3 WtCom= 7.03D-01 WtEn= 2.97D-01
 Coeff-Com:  0.100D+01
 Coeff-En:   0.100D+01
 Coeff:      0.100D+01
 Gap=     0.178 Goal=   None    Shift=    0.000
 Gap=     0.017 Goal=   None    Shift=    0.000
 GapD=    0.017 DampG=0.250 DampE=0.500 DampFc=0.2500 IDamp=-1.
 Damping current iteration by 2.50D-01
 RMSDP=2.90D-03 MaxDP=1.51D-01              OVMax= 4.04D-01

 Cycle   2  Pass 1  IDiag  1:
 RMSU=  7.01D-04    CP:  9.83D-01
 E= -1706.88253603572     Delta-E=       -0.355829566292 Rises=F Damp=T
 DIIS: error= 1.57D-02 at cycle   2 NSaved=   2.
 NSaved= 2 IEnMin= 2 EnMin= -1706.88253603572     IErMin= 2 ErrMin= 1.57D-02
 ErrMax= 1.57D-02  0.00D+00 EMaxC= 1.00D-01 BMatC= 1.01D+00 BMatP= 3.75D+00
 IDIUse=3 WtCom= 8.43D-01 WtEn= 1.57D-01
 Coeff-Com: -0.864D+00 0.186D+01
 Coeff-En:   0.000D+00 0.100D+01
 Coeff:     -0.728D+00 0.173D+01
 Gap=     0.175 Goal=   None    Shift=    0.000
 Gap=     0.040 Goal=   None    Shift=    0.000
 RMSDP=1.12D-03 MaxDP=7.45D-02 DE=-3.56D-01 OVMax= 3.24D-01

 Cycle   3  Pass 1  IDiag  1:
 RMSU=  7.80D-04    CP:  9.50D-01  2.03D+00
 E= -1707.48185187828     Delta-E=       -0.599315842560 Rises=F Damp=F
 DIIS: error= 5.33D-03 at cycle   3 NSaved=   3.
 NSaved= 3 IEnMin= 3 EnMin= -1707.48185187828     IErMin= 3 ErrMin= 5.33D-03
 ErrMax= 5.33D-03  0.00D+00 EMaxC= 1.00D-01 BMatC= 1.30D-01 BMatP= 1.01D+00
 IDIUse=3 WtCom= 9.47D-01 WtEn= 5.33D-02
 Coeff-Com: -0.341D+00 0.732D+00 0.608D+00
 Coeff-En:   0.000D+00 0.000D+00 0.100D+01
 Coeff:     -0.322D+00 0.693D+00 0.629D+00
 Gap=     0.143 Goal=   None    Shift=    0.000
 Gap=     0.036 Goal=   None    Shift=    0.000
 RMSDP=3.87D-04 MaxDP=3.70D-02 DE=-5.99D-01 OVMax= 1.33D-01

 Cycle   4  Pass 1  IDiag  1:
 RMSU=  3.09D-04    CP:  9.53D-01  2.07D+00  7.08D-01
 E= -1707.50471216535     Delta-E=       -0.022860287068 Rises=F Damp=F
 DIIS: error= 3.50D-03 at cycle   4 NSaved=   4.
 NSaved= 4 IEnMin= 4 EnMin= -1707.50471216535     IErMin= 4 ErrMin= 3.50D-03
 ErrMax= 3.50D-03  0.00D+00 EMaxC= 1.00D-01 BMatC= 4.93D-02 BMatP= 1.30D-01
 IDIUse=3 WtCom= 9.65D-01 WtEn= 3.50D-02
 Coeff-Com: -0.537D-01 0.126D+00 0.380D+00 0.548D+00
 Coeff-En:   0.000D+00 0.000D+00 0.273D+00 0.727D+00
 Coeff:     -0.518D-01 0.122D+00 0.376D+00 0.554D+00
 Gap=     0.141 Goal=   None    Shift=    0.000
 Gap=     0.036 Goal=   None    Shift=    0.000
 RMSDP=1.62D-04 MaxDP=1.64D-02 DE=-2.29D-02 OVMax= 3.75D-02

 Cycle   5  Pass 1  IDiag  1:
 RMSU=  9.58D-05    CP:  9.53D-01  2.03D+00  7.92D-01  6.45D-01
 E= -1707.51637277839     Delta-E=       -0.011660613034 Rises=F Damp=F
 DIIS: error= 6.72D-04 at cycle   5 NSaved=   5.
 NSaved= 5 IEnMin= 5 EnMin= -1707.51637277839     IErMin= 5 ErrMin= 6.72D-04
 ErrMax= 6.72D-04  0.00D+00 EMaxC= 1.00D-01 BMatC= 3.13D-03 BMatP= 4.93D-02
 IDIUse=3 WtCom= 9.93D-01 WtEn= 6.72D-03
 Coeff-Com:  0.194D-02 0.231D-02 0.147D+00 0.285D+00 0.564D+00
 Coeff-En:   0.000D+00 0.000D+00 0.000D+00 0.000D+00 0.100D+01
 Coeff:      0.193D-02 0.230D-02 0.146D+00 0.283D+00 0.567D+00
 Gap=     0.141 Goal=   None    Shift=    0.000
 Gap=     0.039 Goal=   None    Shift=    0.000
 RMSDP=5.21D-05 MaxDP=6.44D-03 DE=-1.17D-02 OVMax= 2.14D-02

 Cycle   6  Pass 1  IDiag  1:
 RMSU=  3.99D-05    CP:  9.52D-01  2.04D+00  8.00D-01  6.99D-01  7.08D-01
 E= -1707.51718338765     Delta-E=       -0.000810609263 Rises=F Damp=F
 DIIS: error= 2.73D-04 at cycle   6 NSaved=   6.
 NSaved= 6 IEnMin= 6 EnMin= -1707.51718338765     IErMin= 6 ErrMin= 2.73D-04
 ErrMax= 2.73D-04  0.00D+00 EMaxC= 1.00D-01 BMatC= 3.14D-04 BMatP= 3.13D-03
 IDIUse=3 WtCom= 9.97D-01 WtEn= 2.73D-03
 Coeff-Com:  0.518D-02-0.818D-02 0.455D-01 0.929D-01 0.294D+00 0.571D+00
 Coeff-En:   0.000D+00 0.000D+00 0.000D+00 0.000D+00 0.000D+00 0.100D+01
 Coeff:      0.516D-02-0.816D-02 0.454D-01 0.926D-01 0.293D+00 0.572D+00
 Gap=     0.141 Goal=   None    Shift=    0.000
 Gap=     0.039 Goal=   None    Shift=    0.000
 RMSDP=1.82D-05 MaxDP=1.83D-03 DE=-8.11D-04 OVMax= 1.12D-02

 Cycle   7  Pass 1  IDiag  1:
 RMSU=  1.46D-05    CP:  9.52D-01  2.04D+00  8.00D-01  7.10D-01  8.11D-01
                    CP:  1.07D+00
 E= -1707.51729644223     Delta-E=       -0.000113054583 Rises=F Damp=F
 DIIS: error= 1.57D-04 at cycle   7 NSaved=   7.
 NSaved= 7 IEnMin= 7 EnMin= -1707.51729644223     IErMin= 7 ErrMin= 1.57D-04
 ErrMax= 1.57D-04  0.00D+00 EMaxC= 1.00D-01 BMatC= 5.91D-05 BMatP= 3.14D-04
 IDIUse=3 WtCom= 9.98D-01 WtEn= 1.57D-03
 Coeff-Com:  0.257D-02-0.489D-02-0.471D-02-0.141D-01 0.458D-01 0.261D+00
 Coeff-Com:  0.714D+00
 Coeff-En:   0.000D+00 0.000D+00 0.000D+00 0.000D+00 0.000D+00 0.000D+00
 Coeff-En:   0.100D+01
 Coeff:      0.257D-02-0.488D-02-0.470D-02-0.141D-01 0.457D-01 0.261D+00
 Coeff:      0.714D+00
 Gap=     0.141 Goal=   None    Shift=    0.000
 Gap=     0.039 Goal=   None    Shift=    0.000
 RMSDP=1.49D-05 MaxDP=1.48D-03 DE=-1.13D-04 OVMax= 1.07D-02

 Cycle   8  Pass 1  IDiag  1:
 RMSU=  7.77D-06    CP:  9.52D-01  2.04D+00  8.01D-01  7.22D-01  8.66D-01
                    CP:  1.34D+00  1.17D+00
 E= -1707.51734613921     Delta-E=       -0.000049696979 Rises=F Damp=F
 DIIS: error= 1.10D-04 at cycle   8 NSaved=   8.
 NSaved= 8 IEnMin= 8 EnMin= -1707.51734613921     IErMin= 8 ErrMin= 1.10D-04
 ErrMax= 1.10D-04  0.00D+00 EMaxC= 1.00D-01 BMatC= 2.03D-05 BMatP= 5.91D-05
 IDIUse=3 WtCom= 9.99D-01 WtEn= 1.10D-03
 Coeff-Com: -0.518D-03 0.826D-03-0.164D-01-0.424D-01-0.801D-01-0.125D+00
 Coeff-Com:  0.322D+00 0.941D+00
 Coeff-En:   0.000D+00 0.000D+00 0.000D+00 0.000D+00 0.000D+00 0.000D+00
 Coeff-En:   0.000D+00 0.100D+01
 Coeff:     -0.518D-03 0.825D-03-0.164D-01-0.423D-01-0.800D-01-0.125D+00
 Coeff:      0.322D+00 0.941D+00
 Gap=     0.140 Goal=   None    Shift=    0.000
 Gap=     0.040 Goal=   None    Shift=    0.000
 RMSDP=1.52D-05 MaxDP=1.58D-03 DE=-4.97D-05 OVMax= 1.18D-02

 Cycle   9  Pass 1  IDiag  1:
 RMSU=  4.29D-06    CP:  9.52D-01  2.04D+00  8.01D-01  7.34D-01  9.26D-01
                    CP:  1.59D+00  1.70D+00  1.36D+00
 E= -1707.51737520335     Delta-E=       -0.000029064139 Rises=F Damp=F
 DIIS: error= 5.61D-05 at cycle   9 NSaved=   9.
 NSaved= 9 IEnMin= 9 EnMin= -1707.51737520335     IErMin= 9 ErrMin= 5.61D-05
 ErrMax= 5.61D-05  0.00D+00 EMaxC= 1.00D-01 BMatC= 9.10D-06 BMatP= 2.03D-05
 IDIUse=1 WtCom= 1.00D+00 WtEn= 0.00D+00
 Coeff-Com: -0.649D-03 0.125D-02-0.891D-02-0.237D-01-0.613D-01-0.154D+00
 Coeff-Com: -0.666D-02 0.597D+00 0.657D+00
 Coeff:     -0.649D-03 0.125D-02-0.891D-02-0.237D-01-0.613D-01-0.154D+00
 Coeff:     -0.666D-02 0.597D+00 0.657D+00
 Gap=     0.140 Goal=   None    Shift=    0.000
 Gap=     0.040 Goal=   None    Shift=    0.000
 RMSDP=7.49D-06 MaxDP=7.24D-04 DE=-2.91D-05 OVMax= 5.59D-03

 Cycle  10  Pass 1  IDiag  1:
 RMSU=  2.26D-06    CP:  9.52D-01  2.04D+00  8.01D-01  7.39D-01  9.51D-01
                    CP:  1.71D+00  1.92D+00  1.70D+00  1.07D+00
 E= -1707.51738345182     Delta-E=       -0.000008248468 Rises=F Damp=F
 DIIS: error= 2.51D-05 at cycle  10 NSaved=  10.
 NSaved=10 IEnMin=10 EnMin= -1707.51738345182     IErMin=10 ErrMin= 2.51D-05
[...]
   D197       1.07711  -0.00001  -0.00023  -0.00003  -0.00026   1.07685
   D198      -3.10283   0.00000  -0.00030   0.00012  -0.00018  -3.10301
   D199      -1.06555   0.00000  -0.00021   0.00009  -0.00012  -1.06567
   D200      -0.97477  -0.00000   0.00024   0.00010   0.00034  -0.97443
   D201      -3.11768   0.00000   0.00029   0.00017   0.00046  -3.11721
   D202       1.12885   0.00000   0.00031   0.00019   0.00050   1.12935
   D203       1.12182   0.00001   0.00016   0.00024   0.00040   1.12222
   D204      -1.02109   0.00001   0.00020   0.00032   0.00052  -1.02057
   D205      -3.05775   0.00001   0.00022   0.00034   0.00056  -3.05719
   D206      -3.10413  -0.00000   0.00023   0.00012   0.00035  -3.10378
   D207       1.03615   0.00000   0.00028   0.00020   0.00047   1.03662
   D208      -1.00052   0.00000   0.00030   0.00022   0.00051  -1.00000
   D209       0.97662   0.00001   0.00028  -0.00010   0.00018   0.97681
   D210       3.11944  -0.00000   0.00011  -0.00014  -0.00003   3.11941
   D211      -1.12689  -0.00000   0.00015  -0.00018  -0.00003  -1.12693
   D212      -1.12143   0.00001   0.00026  -0.00012   0.00014  -1.12129
   D213       1.02139  -0.00000   0.00009  -0.00016  -0.00007   1.02132
   D214       3.05824  -0.00000   0.00013  -0.00020  -0.00007   3.05816
   D215       3.10653   0.00000   0.00022  -0.00019   0.00003   3.10656
   D216      -1.03384  -0.00001   0.00005  -0.00023  -0.00018  -1.03402
   D217       1.00301  -0.00001   0.00009  -0.00027  -0.00018   1.00283
   D218       0.97165   0.00001  -0.00018  -0.00014  -0.00032   0.97133
   D219       3.11068  -0.00000  -0.00019  -0.00028  -0.00047   3.11021
   D220      -1.12794  -0.00001  -0.00026  -0.00029  -0.00055  -1.12849
   D221       3.10571   0.00001  -0.00016  -0.00017  -0.00033   3.10537
   D222      -1.03845   0.00000  -0.00018  -0.00030  -0.00048  -1.03893
   D223       1.00612  -0.00000  -0.00024  -0.00032  -0.00056   1.00555
   D224      -1.13346   0.00001  -0.00017  -0.00021  -0.00038  -1.13384
   D225       1.00558   0.00000  -0.00018  -0.00035  -0.00053   1.00505
   D226       3.05014  -0.00000  -0.00025  -0.00036  -0.00061   3.04953
   D227      -0.97220  -0.00001   0.00000   0.00012   0.00012  -0.97208
   D228      -3.11121   0.00001   0.00011   0.00020   0.00032  -3.11089
   D229       1.12671   0.00000   0.00013   0.00023   0.00036   1.12707
   D230      -3.10703  -0.00001   0.00018   0.00012   0.00030  -3.10673
   D231       1.03715   0.00001   0.00029   0.00021   0.00050   1.03765
   D232      -1.00812   0.00000   0.00031   0.00024   0.00055  -1.00757
   D233       1.13221  -0.00001   0.00007   0.00016   0.00022   1.13243
   D234      -1.00680   0.00001   0.00018   0.00024   0.00042  -1.00638
   D235      -3.05207   0.00000   0.00020   0.00027   0.00047  -3.05160
         Item               Value     Threshold  Converged?
 Maximum Force            0.000157     0.000015     NO 
 RMS     Force            0.000024     0.000010     NO 
 Maximum Displacement     0.020320     0.000060     NO 
 RMS     Displacement     0.004832     0.000040     NO 
 Predicted change in Energy=-8.842280D-07
 Lowest energy point so far.  Saving SCF results.
 GradGradGradGradGradGradGradGradGradGradGradGradGradGradGradGradGradGrad

 Leave Link  103 at Thu Dec 20 19:14:05 2018, MaxMem=  1342177280 cpu:               4.1 elap:               0.3
 (Enter /gpfs/apps/hpc/Apps/Restricted/Gaussian/Rev_A.03/g16/l202.exe)
 Symmetry turned off by external request.
 Stoichiometry    C35H41N5O(1+,2)
 Framework group  C1[X(C35H41N5O)]
 Deg. of freedom   240
 Full point group                 C1      NOp   1
                          Input orientation:                          
 ---------------------------------------------------------------------
 Center     Atomic      Atomic             Coordinates (Angstroms)
 Number     Number       Type             X           Y           Z
 ---------------------------------------------------------------------
      1          6           0        1.609893    1.120195   -0.014159
      2          6           0        0.387423    1.823477   -0.107101
      3          6           0        0.394445    3.214589   -0.276325
      4          6           0        1.629234    3.853683   -0.350988
      5          6           0        2.836453    3.138171   -0.254232
      6          6           0        2.862408    1.749341   -0.086424
      7          6           0       -0.103371   -0.270978    0.122489
      8          1           0       -0.534157    3.767560   -0.350622
      9          1           0        1.666986    4.928719   -0.481660
     10          1           0        3.778206    3.672485   -0.313994
     11          6           0       -2.276021   -1.433008    0.177312
     12          6           0       -3.111333   -2.583119    0.229054
     13          6           0       -2.541308   -3.860013    0.357517
     14          6           0       -1.158484   -3.930194    0.428174
     15          6           0       -0.336579   -2.780400    0.363478
     16          6           0       -0.871354   -1.499938    0.230148
     17          6           0       -4.394328   -0.832729    0.049816
     18          1           0       -3.161150   -4.745825    0.399678
     19          1           0       -0.681719   -4.896908    0.532310
     20          1           0        0.737908   -2.906610    0.421408
     21          7           0       -0.665964    0.929362   -0.014446
     22          6           0       -6.863878   -0.743785   -0.155698
     23          6           0       -5.588909   -0.044318   -0.054778
     24          6           0       -5.562561    1.346985   -0.064954
     25          6           0       -6.744444    2.077016   -0.171924
     26          6           0       -7.980197    1.366016   -0.289244
     27          6           0       -8.091099   -0.003163   -0.292230
     28          1           0       -4.611968    1.855434    0.016379
     29          1           0       -8.879808    1.956913   -0.375346
     30          6           0       -6.779579    3.595570   -0.158377
     31          6           0       -9.434860   -0.719712   -0.437696
     32          8           0       -6.895844   -2.046631   -0.124292
     33          1           0       -5.924148   -2.409431   -0.003096
     34          7           0       -3.111254   -0.358686    0.069374
     35          7           0       -4.416251   -2.172568    0.141804
     36          1           0       -2.745543    0.589440   -0.003247
     37          7           0        1.266729   -0.200727    0.131576
     38          1           0        1.964104   -0.933191    0.204474
     39          6           0        4.111842    1.001897    0.009648
     40          1           0        5.026156    1.601171   -0.060018
     41          7           0        4.127843   -0.271445    0.160018
     42          6           0        5.445336   -0.925478    0.237450
     43          6           0        6.254417   -0.751002   -1.059139
     44          6           0        6.261280   -0.455781    1.453758
     45          1           0        5.248335   -1.996251    0.364174
     46          6           0        7.601439   -1.475893   -0.974673
     47          1           0        6.425181    0.319553   -1.225311
     48          1           0        5.667600   -1.117693   -1.906570
     49          6           0        7.607755   -1.183119    1.533368
     50          1           0        6.436133    0.623193    1.367188
     51          1           0        5.680003   -0.614775    2.366850
     52          6           0        8.411075   -1.009120    0.239971
     53          1           0        8.165793   -1.315158   -1.898177
     54          1           0        7.425985   -2.556183   -0.895301
     55          1           0        8.177242   -0.815543    2.392367
     56          1           0        7.430845   -2.252424    1.705777
     57          1           0        9.354726   -1.559781    0.301809
     58          1           0        8.667759    0.050577    0.114924
     59          6           0       -7.469028    4.095089   -1.448837
     60          1           0       -8.488639    3.716480   -1.541947
     61          1           0       -7.516342    5.186353   -1.427566
     62          1           0       -6.906589    3.788972   -2.333922
     63          6           0       -7.600344    4.052313    1.071118
     64          1           0       -7.685346    5.141912    1.061122
     65          1           0       -8.608884    3.633161    1.065109
     66          1           0       -7.106522    3.752752    1.998401
     67          6           0       -5.377595    4.212080   -0.078124
     68          1           0       -4.859486    3.918042    0.838134
     69          1           0       -4.764325    3.919942   -0.934106
     70          1           0       -5.464762    5.300344   -0.079721
     71          6           0       -9.421470   -1.582713   -1.718695
     72          1           0       -8.643665   -2.345316   -1.685857
     73          1           0      -10.388407   -2.081140   -1.825002
     74          1           0       -9.262156   -0.957998   -2.601069
     75          6           0      -10.588429    0.287613   -0.552932
     76          1           0      -10.661879    0.921240    0.334451
     77          1           0      -10.481437    0.931382   -1.429600
     78          1           0      -11.526193   -0.262156   -0.654318
     79          6           0       -9.704438   -1.606976    0.798258
     80          1           0      -10.680754   -2.085259    0.685348
     81          1           0       -8.950985   -2.384297    0.913060
     82          1           0       -9.725538   -1.001844    1.707879
 ---------------------------------------------------------------------
 Rotational constants (GHZ):           0.1800847           0.0302728           0.0265316
 Leave Link  202 at Thu Dec 20 19:14:05 2018, MaxMem=  1342177280 cpu:               0.4 elap:               0.0
 (Enter /gpfs/apps/hpc/Apps/Restricted/Gaussian/Rev_A.03/g16/l301.exe)
 Standard basis: 6-31G(d,p) (6D, 7F)
 Ernie: Thresh=  0.10000D-02 Tol=  0.10000D-05 Strict=F.
   820 basis functions,  1435 primitive gaussians,   820 cartesian basis functions
   147 alpha electrons      146 beta electrons
       nuclear repulsion energy      4410.7458514063 Hartrees.
 IExCor=  402 DFT=T Ex+Corr=B3LYP ExCW=0 ScaHFX=  0.200000
 ScaDFX=  0.800000  0.720000  1.000000  0.810000 ScalE2=  1.000000  1.000000
 IRadAn=      5 IRanWt=     -1 IRanGd=            0 ICorTp=0 IEmpDi=141
 NAtoms=   82 NActive=   82 NUniq=   82 SFac= 1.00D+00 NAtFMM=   60 NAOKFM=T Big=T
 Integral buffers will be    131072 words long.
 Raffenetti 2 integral format.
 Two-electron integral symmetry is turned off.
 R6Disp:  Grimme-D3(BJ) Dispersion energy=       -0.1857139510 Hartrees.
 Nuclear repulsion after empirical dispersion term =     4410.5601374553 Hartrees.
 ------------------------------------------------------------------------------
 Polarizable Continuum Model (PCM)
 =================================
 Model                : C-PCM.
 Atomic radii         : Bondi.
 Polarization charges : Total charges.
 Charge compensation  : None.
 Solution method      : On-the-fly selection.
 Cavity type          : Scaled VdW (van der Waals Surface) (Alpha=1.100).
 Cavity algorithm     : GePol (No added spheres)
                        Default sphere list used, NSphG=   82.
                        Lebedev-Laikov grids with approx.  5.0 points / Ang**2.
                        Smoothing algorithm: York/Karplus (Gamma=1.0000).
                        Polarization charges: spherical gaussians, with
                                              point-specific exponents (IZeta= 3).
                        Self-potential: point-specific (ISelfS= 7).
                        Self-field    : sphere-specific E.n sum rule (ISelfD= 2).
 1st derivatives      : Analytical E(r).r(x)/FMM algorithm (CHGder, D1EAlg=3).
                        Cavity 1st derivative terms included.
 Solvent              : Dichloromethane, Eps=   8.930000 Eps(inf)=   2.028346
 ------------------------------------------------------------------------------
 GePol: Number of generator spheres                  =      82
 GePol: Total number of spheres                      =      82
 GePol: Number of exposed spheres                    =      82 (100.00%)
 GePol: Number of points                             =    5252
 GePol: Average weight of points                     =       0.12
 GePol: Minimum weight of points                     =   0.59D-11
 GePol: Maximum weight of points                     =    0.21770
 GePol: Number of points with low weight             =     355
 GePol: Fraction of low-weight points (<1% of avg)   =       6.76%
 GePol: Cavity surface area                          =    622.795 Ang**2
 GePol: Cavity volume                                =    611.098 Ang**3
 PCM non-electrostatic energy =         0.0283087426 Hartrees.
 Nuclear repulsion after PCM non-electrostatic terms =     4410.5884461979 Hartrees.
 Leave Link  301 at Thu Dec 20 19:14:05 2018, MaxMem=  1342177280 cpu:               3.8 elap:               0.3
 (Enter /gpfs/apps/hpc/Apps/Restricted/Gaussian/Rev_A.03/g16/l302.exe)
 NPDir=0 NMtPBC=     1 NCelOv=     1 NCel=       1 NClECP=     1 NCelD=      1
         NCelK=      1 NCelE2=     1 NClLst=     1 CellRange=     0.0.
 One-electron integrals computed using PRISM.
 NBasis=   820 RedAO= T EigKep=  2.77D-04  NBF=   820
 NBsUse=   820 1.00D-06 EigRej= -1.00D+00 NBFU=   820
 Precomputing XC quadrature grid using
 IXCGrd= 4 IRadAn=           5 IRanWt=          -1 IRanGd=           0 AccXCQ= 0.00D+00.
 Generated NRdTot=       0 NPtTot=           0 NUsed=           0 NTot=          32
 NSgBfM=   750   750   750   750   750 MxSgAt=    82 MxSgA2=    82.
 Leave Link  302 at Thu Dec 20 19:14:06 2018, MaxMem=  1342177280 cpu:              22.8 elap:               1.4
 (Enter /gpfs/apps/hpc/Apps/Restricted/Gaussian/Rev_A.03/g16/l303.exe)
 DipDrv:  MaxL=1.
 Leave Link  303 at Thu Dec 20 19:14:06 2018, MaxMem=  1342177280 cpu:               1.5 elap:               0.1
 (Enter /gpfs/apps/hpc/Apps/Restricted/Gaussian/Rev_A.03/g16/l401.exe)
 Initial guess from the checkpoint file:  "cyclohexyl-diBIP-E0PT.chk"
 B after Tr=     0.000003    0.000398    0.001895
         Rot=    1.000000    0.000034   -0.000019   -0.000005 Ang=   0.00 deg.
 Guess basis will be translated and rotated to current coordinates.
 JPrj=2 DoOrth=T DoCkMO=T.
 Initial guess <Sx>= 0.0000 <Sy>= 0.0000 <Sz>= 0.5000 <S**2>= 0.7617 S= 0.5059
 Generating alternative initial guess.
 ExpMin= 1.61D-01 ExpMax= 5.48D+03 ExpMxC= 8.25D+02 IAcc=2 IRadAn=         4 AccDes= 0.00D+00
 Harris functional with IExCor=  402 and IRadAn=       4 diagonalized for initial guess.
 HarFok:  IExCor=  402 AccDes= 0.00D+00 IRadAn=         4 IDoV= 1 UseB2=F ITyADJ=14
 ICtDFT=  3500011 ScaDFX=  1.000000  1.000000  1.000000  1.000000
 FoFCou: FMM=F IPFlag=           0 FMFlag=      100000 FMFlg1=        2001
         NFxFlg=           0 DoJE=T BraDBF=F KetDBF=T FulRan=T
         wScrn=  0.000000 ICntrl=       500 IOpCl=  0 I1Cent=   200000004 NGrid=           0
         NMat0=    1 NMatS0=      1 NMatT0=    0 NMatD0=    1 NMtDS0=    0 NMtDT0=    0
 Symmetry not used in FoFCou.
 Harris En= -1707.45574089164    
 Leave Link  401 at Thu Dec 20 19:14:11 2018, MaxMem=  1342177280 cpu:              77.4 elap:               4.9
 (Enter /gpfs/apps/hpc/Apps/Restricted/Gaussian/Rev_A.03/g16/l502.exe)
 Two-electron integral symmetry not used.
 UHF open shell SCF:
 Using DIIS extrapolation, IDIIS=  1040.
 NGot=  1342177280 LenX=  1340812546 LenY=  1340139326
 Requested convergence on RMS density matrix=1.00D-08 within 128 cycles.
 Requested convergence on MAX density matrix=1.00D-06.
 Requested convergence on             energy=1.00D-06.
 No special actions if energy rises.
 Fock matrices will be formed incrementally for  20 cycles.

 Cycle   1  Pass 1  IDiag  1:
 FoFJK:  IHMeth= 1 ICntrl=       0 DoSepK=F KAlg= 0 I1Cent=           0 FoldK=F
 IRaf= 620000000 NMat=       1 IRICut=       1 DoRegI=T DoRafI=F ISym2E= 0 IDoP0=0 IntGTp=1.
 FoFCou: FMM=T IPFlag=           0 FMFlag=      100000 FMFlg1=        2001
         NFxFlg=           0 DoJE=F BraDBF=F KetDBF=F FulRan=T
         wScrn=  0.000000 ICntrl=         0 IOpCl=  1 I1Cent=           0 NGrid=           0
         NMat0=    1 NMatS0=      1 NMatT0=    0 NMatD0=    1 NMtDS0=    0 NMtDT0=    0
 Symmetry not used in FoFCou.
 FMM levels:  10  Number of levels for PrismC:   9
 Inv3:  Mode=1 IEnd=    82750512.
 Iteration    1 A*A^-1 deviation from unit magnitude is 1.28D-14 for   2840.
 Iteration    1 A*A^-1 deviation from orthogonality  is 4.14D-15 for   5207   5173.
 Iteration    1 A^-1*A deviation from unit magnitude is 1.25D-14 for   2840.
 Iteration    1 A^-1*A deviation from orthogonality  is 3.51D-15 for   2632   1642.
 E= -1707.53803957843    
 DIIS: error= 2.90D-04 at cycle   1 NSaved=   1.
 NSaved= 1 IEnMin= 1 EnMin= -1707.53803957843     IErMin= 1 ErrMin= 2.90D-04
 ErrMax= 2.90D-04  0.00D+00 EMaxC= 1.00D-01 BMatC= 1.05D-04 BMatP= 1.05D-04
 IDIUse=3 WtCom= 9.97D-01 WtEn= 2.90D-03
 Coeff-Com:  0.100D+01
 Coeff-En:   0.100D+01
 Coeff:      0.100D+01
 Gap=     1.614 Goal=   None    Shift=    0.000
 Gap=     1.611 Goal=   None    Shift=    0.000
 RMSDP=9.24D-06 MaxDP=6.15D-04              OVMax= 1.34D-03

 Cycle   2  Pass 1  IDiag  1:
 RMSU=  9.24D-06    CP:  1.00D+00
 E= -1707.53809122211     Delta-E=       -0.000051643679 Rises=F Damp=F
 DIIS: error= 2.49D-05 at cycle   2 NSaved=   2.
 NSaved= 2 IEnMin= 2 EnMin= -1707.53809122211     IErMin= 2 ErrMin= 2.49D-05
 ErrMax= 2.49D-05  0.00D+00 EMaxC= 1.00D-01 BMatC= 9.73D-07 BMatP= 1.05D-04
 IDIUse=1 WtCom= 1.00D+00 WtEn= 0.00D+00
 Coeff-Com: -0.837D-01 0.108D+01
 Coeff:     -0.837D-01 0.108D+01
 Gap=     0.140 Goal=   None    Shift=    0.000
 Gap=     0.039 Goal=   None    Shift=    0.000
 RMSDP=1.38D-06 MaxDP=7.15D-05 DE=-5.16D-05 OVMax= 1.44D-04

 Cycle   3  Pass 1  IDiag  1:
 RMSU=  9.38D-07    CP:  1.00D+00  1.11D+00
 E= -1707.53809174106     Delta-E=       -0.000000518957 Rises=F Damp=F
 DIIS: error= 8.91D-06 at cycle   3 NSaved=   3.
 NSaved= 3 IEnMin= 3 EnMin= -1707.53809174106     IErMin= 3 ErrMin= 8.91D-06
 ErrMax= 8.91D-06  0.00D+00 EMaxC= 1.00D-01 BMatC= 2.42D-07 BMatP= 9.73D-07
 IDIUse=1 WtCom= 1.00D+00 WtEn= 0.00D+00
 Coeff-Com: -0.388D-01 0.477D+00 0.562D+00
 Coeff:     -0.388D-01 0.477D+00 0.562D+00
 Gap=     0.140 Goal=   None    Shift=    0.000
 Gap=     0.039 Goal=   None    Shift=    0.000
 RMSDP=4.64D-07 MaxDP=7.11D-05 DE=-5.19D-07 OVMax= 1.01D-04

 Cycle   4  Pass 1  IDiag  1:
 RMSU=  4.24D-07    CP:  1.00D+00  1.11D+00  8.07D-01
 E= -1707.53809177133     Delta-E=       -0.000000030271 Rises=F Damp=F
 DIIS: error= 6.39D-06 at cycle   4 NSaved=   4.
 NSaved= 4 IEnMin= 4 EnMin= -1707.53809177133     IErMin= 4 ErrMin= 6.39D-06
 ErrMax= 6.39D-06  0.00D+00 EMaxC= 1.00D-01 BMatC= 1.07D-07 BMatP= 2.42D-07
 IDIUse=1 WtCom= 1.00D+00 WtEn= 0.00D+00
 Coeff-Com: -0.587D-02 0.600D-01 0.393D+00 0.553D+00
 Coeff:     -0.587D-02 0.600D-01 0.393D+00 0.553D+00
 Gap=     0.140 Goal=   None    Shift=    0.000
 Gap=     0.039 Goal=   None    Shift=    0.000
 RMSDP=2.02D-07 MaxDP=3.15D-05 DE=-3.03D-08 OVMax= 4.37D-05

 Cycle   5  Pass 1  IDiag  1:
 RMSU=  8.50D-08    CP:  1.00D+00  1.12D+00  9.14D-01  6.41D-01
 E= -1707.53809179315     Delta-E=       -0.000000021822 Rises=F Damp=F
 DIIS: error= 7.21D-07 at cycle   5 NSaved=   5.
 NSaved= 5 IEnMin= 5 EnMin= -1707.53809179315     IErMin= 5 ErrMin= 7.21D-07
 ErrMax= 7.21D-07  0.00D+00 EMaxC= 1.00D-01 BMatC= 2.16D-09 BMatP= 1.07D-07
 IDIUse=1 WtCom= 1.00D+00 WtEn= 0.00D+00
 Coeff-Com:  0.316D-03-0.980D-02 0.113D+00 0.210D+00 0.686D+00
 Coeff:      0.316D-03-0.980D-02 0.113D+00 0.210D+00 0.686D+00
 Gap=     0.140 Goal=   None    Shift=    0.000
