 Entering Gaussian System, Link 0=g16
 Initial command:
 /gpfs/apps/hpc/Apps/Restricted/Gaussian/Rev_A.03/g16/l1.exe "/gpfs/scratch60/fas/hammes_schiffer/jg2487/c28n02/Gau-24292.inp" -scrdir="/gpfs/scratch60/fas/hammes_schiffer/jg2487/c28n02/"
 Entering Link 1 = /gpfs/apps/hpc/Apps/Restricted/Gaussian/Rev_A.03/g16/l1.exe PID=     24293.
  
 Copyright (c) 1988,1990,1992,1993,1995,1998,2003,2009,2016,
            Gaussian, Inc.  All Rights Reserved.
  
 This is part of the Gaussian(R) 16 program.  It is based on
 the Gaussian(R) 09 system (copyright 2009, Gaussian, Inc.),
 the Gaussian(R) 03 system (copyright 2003, Gaussian, Inc.),
 the Gaussian(R) 98 system (copyright 1998, Gaussian, Inc.),
 the Gaussian(R) 94 system (copyright 1995, Gaussian, Inc.),
 the Gaussian 92(TM) system (copyright 1992, Gaussian, Inc.),
 the Gaussian 90(TM) system (copyright 1990, Gaussian, Inc.),
 the Gaussian 88(TM) system (copyright 1988, Gaussian, Inc.),
 the Gaussian 86(TM) system (copyright 1986, Carnegie Mellon
 University), and the Gaussian 82(TM) system (copyright 1983,
 Carnegie Mellon University). Gaussian is a federally registered
 trademark of Gaussian, Inc.
  
 This software contains proprietary and confidential information,
 including trade secrets, belonging to Gaussian, Inc.
  
 This software is provided under written license and may be
 used, copied, transmitted, or stored only in accord with that
 written license.
  
 The following legend is applicable only to US Government
 contracts under FAR:
  
                    RESTRICTED RIGHTS LEGEND
  
 Use, reproduction and disclosure by the US Government is
 subject to restrictions as set forth in subparagraphs (a)
 and (c) of the Commercial Computer Software - Restricted
 Rights clause in FAR 52.227-19.
  
 Gaussian, Inc.
 340 Quinnipiac St., Bldg. 40, Wallingford CT 06492
  
  
 ---------------------------------------------------------------
 Warning -- This program may not be used in any manner that
 competes with the business of Gaussian, Inc. or will provide
 assistance to any competitor of Gaussian, Inc.  The licensee
 of this program is prohibited from giving any competitor of
 Gaussian, Inc. access to this program.  By using this program,
 the user acknowledges that Gaussian, Inc. is engaged in the
 business of creating and licensing software in the field of
 computational chemistry and represents and warrants to the
 licensee that it is not a competitor of Gaussian, Inc. and that
 it will not use this program in any manner prohibited above.
 ---------------------------------------------------------------
  

 Cite this work as:
 Gaussian 16, Revision A.03,
 M. J. Frisch, G. W. Trucks, H. B. Schlegel, G. E. Scuseria, 
 M. A. Robb, J. R. Cheeseman, G. Scalmani, V. Barone, 
 G. A. Petersson, H. Nakatsuji, X. Li, M. Caricato, A. V. Marenich, 
 J. Bloino, B. G. Janesko, R. Gomperts, B. Mennucci, H. P. Hratchian, 
 J. V. Ortiz, A. F. Izmaylov, J. L. Sonnenberg, D. Williams-Young, 
 F. Ding, F. Lipparini, F. Egidi, J. Goings, B. Peng, A. Petrone, 
 T. Henderson, D. Ranasinghe, V. G. Zakrzewski, J. Gao, N. Rega, 
 G. Zheng, W. Liang, M. Hada, M. Ehara, K. Toyota, R. Fukuda, 
 J. Hasegawa, M. Ishida, T. Nakajima, Y. Honda, O. Kitao, H. Nakai, 
 T. Vreven, K. Throssell, J. A. Montgomery, Jr., J. E. Peralta, 
 F. Ogliaro, M. J. Bearpark, J. J. Heyd, E. N. Brothers, K. N. Kudin, 
 V. N. Staroverov, T. A. Keith, R. Kobayashi, J. Normand, 
 K. Raghavachari, A. P. Rendell, J. C. Burant, S. S. Iyengar, 
 J. Tomasi, M. Cossi, J. M. Millam, M. Klene, C. Adamo, R. Cammi, 
 J. W. Ochterski, R. L. Martin, K. Morokuma, O. Farkas, 
 J. B. Foresman, and D. J. Fox, Gaussian, Inc., Wallingford CT, 2016.
 
 ******************************************
 Gaussian 16:  ES64L-G16RevA.03 25-Dec-2016
                14-Dec-2018 
 ******************************************
 %chk=cyclohexyl-diBIP-E0PT.chk
 %mem=10GB
 %nprocshared=16
 Will use up to   16 processors via shared memory.
 ----------------------------------------------------------------------
 #p opt=tight freq=internalmodes b3lyp/6-31g(d,p) scrf=(cpcm,solvent=di
 chloromethane,read) nosymm empiricaldispersion=gd3bj int=grid=ultrafin
 e
 ----------------------------------------------------------------------
 1/7=10,18=20,19=15,26=6,38=1,40=2/1,3;
 2/9=110,12=2,15=1,17=6,18=5,40=1/2;
 3/5=1,6=6,7=101,11=2,25=1,30=1,70=2103,71=1,72=9,74=-5,75=-5,124=41/1,2,3;
 4//1;
 5/5=2,38=5,53=9/2;
 6/7=2,8=2,9=2,10=2,28=1/1;
 7/30=1/1,2,3,16;
 1/7=10,18=20,19=15,26=6/3(2);
 2/9=110,15=1/2;
 99//99;
 2/9=110,15=1/2;
 3/5=1,6=6,7=101,11=2,25=1,30=1,70=2105,71=1,72=9,74=-5,75=-5,124=41/1,2,3;
 4/5=5,16=3,69=1/1;
 5/5=2,38=5,53=9/2;
 7/30=1/1,2,3,16;
 1/7=10,18=20,19=15,26=6/3(-5);
 2/9=110,15=1/2;
 6/7=2,8=2,9=2,10=2,19=2,28=1/1;
 99/9=1/99;
 Leave Link    1 at Fri Dec 14 10:38:10 2018, MaxMem=  1342177280 cpu:               9.0 elap:               0.6
 (Enter /gpfs/apps/hpc/Apps/Restricted/Gaussian/Rev_A.03/g16/l101.exe)
 -------------------------------------------------------------------
 cyclohexylimine diBIP oxidized, no protons transferred optimization
 -------------------------------------------------------------------
 Symbolic Z-matrix:
 Charge =  1 Multiplicity = 2
 C                     1.61432   1.14308   0.18717 
 C                     0.3991    1.86477   0.18099 
 C                     0.41941   3.26306   0.08961 
 C                     1.65894   3.89009  -0.00619 
 C                     2.85833   3.15602  -0.00775 
 C                     2.87154   1.75987   0.09116 
 C                    -0.11165  -0.23275   0.32081 
 H                    -0.50225   3.83205   0.08851 
 H                     1.70552   4.96975  -0.08262 
 H                     3.80373   3.68164  -0.08741 
 C                    -2.29314  -1.38265   0.33178 
 C                    -3.13332  -2.52941   0.3567 
 C                    -2.57102  -3.81072   0.47269 
 C                    -1.18925  -3.88954   0.55405 
 C                    -0.36171  -2.74314   0.51461 
 C                    -0.88956  -1.45783   0.3977 
 C                    -4.40667  -0.77344   0.17121 
 H                    -3.19594  -4.69369   0.49495 
 H                    -0.71876  -4.86049   0.64661 
 H                     0.71195  -2.87414   0.57998 
 N                    -0.66266   0.97912   0.26432 
 C                    -6.86124  -0.7054   -0.12574 
 C                    -5.60202   0.00867   0.02273 
 C                    -5.61156   1.39916  -0.00205 
 C                    -6.8058    2.1031   -0.18399 
 C                    -8.02618   1.3823   -0.35635 
 C                    -8.08755   0.01246  -0.33019 
 H                    -4.68656   1.94857   0.12368 
 H                    -8.93843   1.94767  -0.50963 
 C                    -6.83053   3.5954   -0.21404 
 H                    -5.85512   4.02382   0.01342 
 H                    -7.14434   3.9438   -1.20441 
 H                    -7.56734   3.98047   0.49769 
 C                    -9.35937  -0.75786  -0.50179 
 H                    -9.26103  -1.4971   -1.30063 
 H                    -9.60475  -1.306     0.41275 
 H                    -10.18295  -0.08489  -0.73721 
 O                    -6.9137   -2.00601  -0.08182 
 H                    -5.94683  -2.37034   0.06879 
 N                    -3.12366  -0.30356   0.2217 
 N                    -4.43561  -2.11374   0.25197 
 H                    -2.75697   0.64521   0.17513 
 N                     1.25879  -0.1793    0.28119 
 H                     1.94692  -0.92372   0.28661 
 C                     4.1126    0.99258   0.08806 
 H                     5.03131   1.58095  -0.0113 
 N                     4.11921  -0.2857    0.19075 
 C                     5.43283  -0.95327   0.1593 
 C                     6.14257  -0.74628  -1.18922 
 C                     6.34018  -0.51834   1.32278 
 H                     5.23618  -2.02526   0.2746 
 C                     7.49361  -1.46785  -1.22947 
 H                     6.29852   0.3293   -1.33616 
 H                     5.49268  -1.09088  -1.99961 
 C                     7.68993  -1.24302   1.27873 
 H                     6.50707   0.5628    1.25415 
 H                     5.82963  -0.70641   2.27235 
 C                     8.39347  -1.03514  -0.06694 
 H                     7.9861   -1.27505  -2.18793 
 H                     7.32746  -2.5507   -1.16965 
 H                     8.32233  -0.89354   2.10098 
 H                     7.52881  -2.3169    1.43772 
 H                     9.33686  -1.58924  -0.09136 
 H                     8.64379   0.02709  -0.18233 
 
 ITRead=  0  0  0  0  0  0  0  0  0  0  0  0  0  0  0  0  0  0  0  0
 ITRead=  0  0  0  0  0  0  0  0  0  0  0  0  0  0  0  0  0  0  0  0
 ITRead=  0  0  0  0  0  0  0  0  0  0  0  0  0  0  0  0  0  0  0  0
 ITRead=  0  0  0  0
 MicOpt= -1 -1 -1 -1 -1 -1 -1 -1 -1 -1 -1 -1 -1 -1 -1 -1 -1 -1 -1 -1
 MicOpt= -1 -1 -1 -1 -1 -1 -1 -1 -1 -1 -1 -1 -1 -1 -1 -1 -1 -1 -1 -1
 MicOpt= -1 -1 -1 -1 -1 -1 -1 -1 -1 -1 -1 -1 -1 -1 -1 -1 -1 -1 -1 -1
 MicOpt= -1 -1 -1 -1
 NAtoms=     64 NQM=       64 NQMF=       0 NMMI=      0 NMMIF=      0
                NMic=       0 NMicF=      0.
                    Isotopes and Nuclear Properties:
 (Nuclear quadrupole moments (NQMom) in fm**2, nuclear magnetic moments (NMagM)
  in nuclear magnetons)

  Atom         1           2           3           4           5           6           7           8           9          10
 IAtWgt=          12          12          12          12          12          12          12           1           1           1
 AtmWgt=  12.0000000  12.0000000  12.0000000  12.0000000  12.0000000  12.0000000  12.0000000   1.0078250   1.0078250   1.0078250
 NucSpn=           0           0           0           0           0           0           0           1           1           1
 AtZEff=  -0.0000000  -0.0000000  -0.0000000  -0.0000000  -0.0000000  -0.0000000  -0.0000000  -0.0000000  -0.0000000  -0.0000000
 NQMom=    0.0000000   0.0000000   0.0000000   0.0000000   0.0000000   0.0000000   0.0000000   0.0000000   0.0000000   0.0000000
 NMagM=    0.0000000   0.0000000   0.0000000   0.0000000   0.0000000   0.0000000   0.0000000   2.7928460   2.7928460   2.7928460
 AtZNuc=   6.0000000   6.0000000   6.0000000   6.0000000   6.0000000   6.0000000   6.0000000   1.0000000   1.0000000   1.0000000

  Atom        11          12          13          14          15          16          17          18          19          20
 IAtWgt=          12          12          12          12          12          12          12           1           1           1
 AtmWgt=  12.0000000  12.0000000  12.0000000  12.0000000  12.0000000  12.0000000  12.0000000   1.0078250   1.0078250   1.0078250
 NucSpn=           0           0           0           0           0           0           0           1           1           1
 AtZEff=  -0.0000000  -0.0000000  -0.0000000  -0.0000000  -0.0000000  -0.0000000  -0.0000000  -0.0000000  -0.0000000  -0.0000000
 NQMom=    0.0000000   0.0000000   0.0000000   0.0000000   0.0000000   0.0000000   0.0000000   0.0000000   0.0000000   0.0000000
 NMagM=    0.0000000   0.0000000   0.0000000   0.0000000   0.0000000   0.0000000   0.0000000   2.7928460   2.7928460   2.7928460
 AtZNuc=   6.0000000   6.0000000   6.0000000   6.0000000   6.0000000   6.0000000   6.0000000   1.0000000   1.0000000   1.0000000

  Atom        21          22          23          24          25          26          27          28          29          30
 IAtWgt=          14          12          12          12          12          12          12           1           1          12
 AtmWgt=  14.0030740  12.0000000  12.0000000  12.0000000  12.0000000  12.0000000  12.0000000   1.0078250   1.0078250  12.0000000
 NucSpn=           2           0           0           0           0           0           0           1           1           0
 AtZEff=  -0.0000000  -0.0000000  -0.0000000  -0.0000000  -0.0000000  -0.0000000  -0.0000000  -0.0000000  -0.0000000  -0.0000000
 NQMom=    2.0440000   0.0000000   0.0000000   0.0000000   0.0000000   0.0000000   0.0000000   0.0000000   0.0000000   0.0000000
 NMagM=    0.4037610   0.0000000   0.0000000   0.0000000   0.0000000   0.0000000   0.0000000   2.7928460   2.7928460   0.0000000
 AtZNuc=   7.0000000   6.0000000   6.0000000   6.0000000   6.0000000   6.0000000   6.0000000   1.0000000   1.0000000   6.0000000

  Atom        31          32          33          34          35          36          37          38          39          40
 IAtWgt=           1           1           1          12           1           1           1          16           1          14
 AtmWgt=   1.0078250   1.0078250   1.0078250  12.0000000   1.0078250   1.0078250   1.0078250  15.9949146   1.0078250  14.0030740
 NucSpn=           1           1           1           0           1           1           1           0           1           2
 AtZEff=  -0.0000000  -0.0000000  -0.0000000  -0.0000000  -0.0000000  -0.0000000  -0.0000000  -0.0000000  -0.0000000  -0.0000000
 NQMom=    0.0000000   0.0000000   0.0000000   0.0000000   0.0000000   0.0000000   0.0000000   0.0000000   0.0000000   2.0440000
 NMagM=    2.7928460   2.7928460   2.7928460   0.0000000   2.7928460   2.7928460   2.7928460   0.0000000   2.7928460   0.4037610
 AtZNuc=   1.0000000   1.0000000   1.0000000   6.0000000   1.0000000   1.0000000   1.0000000   8.0000000   1.0000000   7.0000000

  Atom        41          42          43          44          45          46          47          48          49          50
 IAtWgt=          14           1          14           1          12           1          14          12          12          12
 AtmWgt=  14.0030740   1.0078250  14.0030740   1.0078250  12.0000000   1.0078250  14.0030740  12.0000000  12.0000000  12.0000000
 NucSpn=           2           1           2           1           0           1           2           0           0           0
 AtZEff=  -0.0000000  -0.0000000  -0.0000000  -0.0000000  -0.0000000  -0.0000000  -0.0000000  -0.0000000  -0.0000000  -0.0000000
 NQMom=    2.0440000   0.0000000   2.0440000   0.0000000   0.0000000   0.0000000   2.0440000   0.0000000   0.0000000   0.0000000
 NMagM=    0.4037610   2.7928460   0.4037610   2.7928460   0.0000000   2.7928460   0.4037610   0.0000000   0.0000000   0.0000000
 AtZNuc=   7.0000000   1.0000000   7.0000000   1.0000000   6.0000000   1.0000000   7.0000000   6.0000000   6.0000000   6.0000000

  Atom        51          52          53          54          55          56          57          58          59          60
 IAtWgt=           1          12           1           1          12           1           1          12           1           1
 AtmWgt=   1.0078250  12.0000000   1.0078250   1.0078250  12.0000000   1.0078250   1.0078250  12.0000000   1.0078250   1.0078250
 NucSpn=           1           0           1           1           0           1           1           0           1           1
 AtZEff=  -0.0000000  -0.0000000  -0.0000000  -0.0000000  -0.0000000  -0.0000000  -0.0000000  -0.0000000  -0.0000000  -0.0000000
 NQMom=    0.0000000   0.0000000   0.0000000   0.0000000   0.0000000   0.0000000   0.0000000   0.0000000   0.0000000   0.0000000
 NMagM=    2.7928460   0.0000000   2.7928460   2.7928460   0.0000000   2.7928460   2.7928460   0.0000000   2.7928460   2.7928460
 AtZNuc=   1.0000000   6.0000000   1.0000000   1.0000000   6.0000000   1.0000000   1.0000000   6.0000000   1.0000000   1.0000000

  Atom        61          62          63          64
 IAtWgt=           1           1           1           1
 AtmWgt=   1.0078250   1.0078250   1.0078250   1.0078250
 NucSpn=           1           1           1           1
 AtZEff=  -0.0000000  -0.0000000  -0.0000000  -0.0000000
 NQMom=    0.0000000   0.0000000   0.0000000   0.0000000
 NMagM=    2.7928460   2.7928460   2.7928460   2.7928460
 AtZNuc=   1.0000000   1.0000000   1.0000000   1.0000000
 Leave Link  101 at Fri Dec 14 10:38:11 2018, MaxMem=  1342177280 cpu:               5.1 elap:               0.3
 (Enter /gpfs/apps/hpc/Apps/Restricted/Gaussian/Rev_A.03/g16/l103.exe)

 GradGradGradGradGradGradGradGradGradGradGradGradGradGradGradGradGradGrad
 Berny optimization.
 Initialization pass.
                           ----------------------------
                           !    Initial Parameters    !
                           ! (Angstroms and Degrees)  !
 --------------------------                            --------------------------
 ! Name  Definition              Value          Derivative Info.                !
 --------------------------------------------------------------------------------
 ! R1    R(1,2)                  1.4134         estimate D2E/DX2                !
 ! R2    R(1,6)                  1.4037         estimate D2E/DX2                !
 ! R3    R(1,43)                 1.3726         estimate D2E/DX2                !
 ! R4    R(2,3)                  1.4014         estimate D2E/DX2                !
 ! R5    R(2,21)                 1.3852         estimate D2E/DX2                !
 ! R6    R(3,4)                  1.3924         estimate D2E/DX2                !
 ! R7    R(3,8)                  1.0831         estimate D2E/DX2                !
 ! R8    R(4,5)                  1.4062         estimate D2E/DX2                !
 ! R9    R(4,9)                  1.0834         estimate D2E/DX2                !
 ! R10   R(5,6)                  1.3997         estimate D2E/DX2                !
 ! R11   R(5,10)                 1.0846         estimate D2E/DX2                !
 ! R12   R(6,45)                 1.4591         estimate D2E/DX2                !
 ! R13   R(7,16)                 1.4532         estimate D2E/DX2                !
 ! R14   R(7,21)                 1.3325         estimate D2E/DX2                !
 ! R15   R(7,43)                 1.3721         estimate D2E/DX2                !
 ! R16   R(11,12)                1.4218         estimate D2E/DX2                !
 ! R17   R(11,16)                1.4071         estimate D2E/DX2                !
 ! R18   R(11,40)                1.3661         estimate D2E/DX2                !
 ! R19   R(12,13)                1.4041         estimate D2E/DX2                !
 ! R20   R(12,41)                1.371          estimate D2E/DX2                !
 ! R21   R(13,14)                1.3864         estimate D2E/DX2                !
 ! R22   R(13,18)                1.082          estimate D2E/DX2                !
 ! R23   R(14,15)                1.4144         estimate D2E/DX2                !
 ! R24   R(14,19)                1.0829         estimate D2E/DX2                !
 ! R25   R(15,16)                1.3944         estimate D2E/DX2                !
 ! R26   R(15,20)                1.0836         estimate D2E/DX2                !
 ! R27   R(17,23)                1.4362         estimate D2E/DX2                !
 ! R28   R(17,40)                1.3673         estimate D2E/DX2                !
 ! R29   R(17,41)                1.343          estimate D2E/DX2                !
 ! R30   R(22,23)                1.4552         estimate D2E/DX2                !
 ! R31   R(22,27)                1.4356         estimate D2E/DX2                !
 ! R32   R(22,38)                1.3024         estimate D2E/DX2                !
 ! R33   R(23,24)                1.3907         estimate D2E/DX2                !
 ! R34   R(24,25)                1.3982         estimate D2E/DX2                !
 ! R35   R(24,28)                1.0832         estimate D2E/DX2                !
 ! R36   R(25,26)                1.4278         estimate D2E/DX2                !
 ! R37   R(25,30)                1.4928         estimate D2E/DX2                !
 ! R38   R(26,27)                1.3715         estimate D2E/DX2                !
 ! R39   R(26,29)                1.0841         estimate D2E/DX2                !
 ! R40   R(27,34)                1.4968         estimate D2E/DX2                !
 ! R41   R(30,31)                1.0894         estimate D2E/DX2                !
 ! R42   R(30,32)                1.0958         estimate D2E/DX2                !
 ! R43   R(30,33)                1.0944         estimate D2E/DX2                !
 ! R44   R(34,35)                1.0928         estimate D2E/DX2                !
 ! R45   R(34,36)                1.0941         estimate D2E/DX2                !
 ! R46   R(34,37)                1.0893         estimate D2E/DX2                !
 ! R47   R(38,39)                1.0442         estimate D2E/DX2                !
 ! R48   R(40,42)                1.0182         estimate D2E/DX2                !
 ! R49   R(43,44)                1.0138         estimate D2E/DX2                !
 ! R50   R(45,46)                1.0955         estimate D2E/DX2                !
 ! R51   R(45,47)                1.2824         estimate D2E/DX2                !
 ! R52   R(47,48)                1.4738         estimate D2E/DX2                !
 ! R53   R(48,49)                1.5379         estimate D2E/DX2                !
 ! R54   R(48,50)                1.5382         estimate D2E/DX2                !
 ! R55   R(48,51)                1.096          estimate D2E/DX2                !
 ! R56   R(49,52)                1.5322         estimate D2E/DX2                !
 ! R57   R(49,53)                1.0967         estimate D2E/DX2                !
 ! R58   R(49,54)                1.0945         estimate D2E/DX2                !
 ! R59   R(50,55)                1.5326         estimate D2E/DX2                !
 ! R60   R(50,56)                1.0961         estimate D2E/DX2                !
 ! R61   R(50,57)                1.0944         estimate D2E/DX2                !
 ! R62   R(52,58)                1.5325         estimate D2E/DX2                !
 ! R63   R(52,59)                1.0947         estimate D2E/DX2                !
 ! R64   R(52,60)                1.0972         estimate D2E/DX2                !
 ! R65   R(55,58)                1.5326         estimate D2E/DX2                !
 ! R66   R(55,61)                1.0946         estimate D2E/DX2                !
 ! R67   R(55,62)                1.0975         estimate D2E/DX2                !
 ! R68   R(58,63)                1.0944         estimate D2E/DX2                !
 ! R69   R(58,64)                1.0974         estimate D2E/DX2                !
 ! A1    A(2,1,6)              123.0542         estimate D2E/DX2                !
 ! A2    A(2,1,43)             105.6364         estimate D2E/DX2                !
 ! A3    A(6,1,43)             131.3028         estimate D2E/DX2                !
 ! A4    A(1,2,3)              119.8215         estimate D2E/DX2                !
 ! A5    A(1,2,21)             109.4097         estimate D2E/DX2                !
 ! A6    A(3,2,21)             130.7672         estimate D2E/DX2                !
 ! A7    A(2,3,4)              117.8201         estimate D2E/DX2                !
 ! A8    A(2,3,8)              120.7887         estimate D2E/DX2                !
 ! A9    A(4,3,8)              121.3903         estimate D2E/DX2                !
 ! A10   A(3,4,5)              121.6206         estimate D2E/DX2                !
 ! A11   A(3,4,9)              119.4662         estimate D2E/DX2                !
 ! A12   A(5,4,9)              118.9132         estimate D2E/DX2                !
 ! A13   A(4,5,6)              121.9154         estimate D2E/DX2                !
 ! A14   A(4,5,10)             119.3771         estimate D2E/DX2                !
 ! A15   A(6,5,10)             118.7075         estimate D2E/DX2                !
 ! A16   A(1,6,5)              115.7646         estimate D2E/DX2                !
 ! A17   A(1,6,45)             122.0666         estimate D2E/DX2                !
 ! A18   A(5,6,45)             122.1681         estimate D2E/DX2                !
 ! A19   A(16,7,21)            123.2018         estimate D2E/DX2                !
 ! A20   A(16,7,43)            124.6833         estimate D2E/DX2                !
 ! A21   A(21,7,43)            112.1104         estimate D2E/DX2                !
 ! A22   A(12,11,16)           123.0599         estimate D2E/DX2                !
 ! A23   A(12,11,40)           106.2154         estimate D2E/DX2                !
 ! A24   A(16,11,40)           130.7206         estimate D2E/DX2                !
 ! A25   A(11,12,13)           120.0545         estimate D2E/DX2                !
 ! A26   A(11,12,41)           108.3866         estimate D2E/DX2                !
 ! A27   A(13,12,41)           131.5589         estimate D2E/DX2                !
 ! A28   A(12,13,14)           117.121          estimate D2E/DX2                !
 ! A29   A(12,13,18)           121.0059         estimate D2E/DX2                !
 ! A30   A(14,13,18)           121.8729         estimate D2E/DX2                !
 ! A31   A(13,14,15)           122.3711         estimate D2E/DX2                !
 ! A32   A(13,14,19)           119.2754         estimate D2E/DX2                !
 ! A33   A(15,14,19)           118.3529         estimate D2E/DX2                !
 ! A34   A(14,15,16)           121.8675         estimate D2E/DX2                !
 ! A35   A(14,15,20)           118.688          estimate D2E/DX2                !
 ! A36   A(16,15,20)           119.4443         estimate D2E/DX2                !
 ! A37   A(7,16,11)            119.1064         estimate D2E/DX2                !
 ! A38   A(7,16,15)            125.3701         estimate D2E/DX2                !
 ! A39   A(11,16,15)           115.5163         estimate D2E/DX2                !
 ! A40   A(23,17,40)           126.7039         estimate D2E/DX2                !
 ! A41   A(23,17,41)           122.1236         estimate D2E/DX2                !
 ! A42   A(40,17,41)           111.1594         estimate D2E/DX2                !
 ! A43   A(2,21,7)             105.4909         estimate D2E/DX2                !
 ! A44   A(23,22,27)           120.5531         estimate D2E/DX2                !
 ! A45   A(23,22,38)           121.4289         estimate D2E/DX2                !
 ! A46   A(27,22,38)           118.0178         estimate D2E/DX2                !
 ! A47   A(17,23,22)           117.6165         estimate D2E/DX2                !
 ! A48   A(17,23,24)           123.5062         estimate D2E/DX2                !
 ! A49   A(22,23,24)           118.8726         estimate D2E/DX2                !
 ! A50   A(23,24,25)           120.7679         estimate D2E/DX2                !
 ! A51   A(23,24,28)           119.9476         estimate D2E/DX2                !
 ! A52   A(25,24,28)           119.2843         estimate D2E/DX2                !
 ! A53   A(24,25,26)           119.446          estimate D2E/DX2                !
 ! A54   A(24,25,30)           121.3374         estimate D2E/DX2                !
 ! A55   A(26,25,30)           119.2143         estimate D2E/DX2                !
 ! A56   A(25,26,27)           122.6962         estimate D2E/DX2                !
 ! A57   A(25,26,29)           118.2298         estimate D2E/DX2                !
 ! A58   A(27,26,29)           119.0734         estimate D2E/DX2                !
 ! A59   A(22,27,26)           117.6418         estimate D2E/DX2                !
 ! A60   A(22,27,34)           118.9999         estimate D2E/DX2                !
 ! A61   A(26,27,34)           123.3583         estimate D2E/DX2                !
 ! A62   A(25,30,31)           111.9691         estimate D2E/DX2                !
 ! A63   A(25,30,32)           109.9249         estimate D2E/DX2                !
 ! A64   A(25,30,33)           110.4747         estimate D2E/DX2                !
 ! A65   A(31,30,32)           108.6691         estimate D2E/DX2                !
 ! A66   A(31,30,33)           109.1872         estimate D2E/DX2                !
 ! A67   A(32,30,33)           106.4455         estimate D2E/DX2                !
 ! A68   A(27,34,35)           110.8225         estimate D2E/DX2                !
 ! A69   A(27,34,36)           110.6449         estimate D2E/DX2                !
 ! A70   A(27,34,37)           110.4419         estimate D2E/DX2                !
 ! A71   A(35,34,36)           106.9954         estimate D2E/DX2                !
 ! A72   A(35,34,37)           109.1448         estimate D2E/DX2                !
 ! A73   A(36,34,37)           108.699          estimate D2E/DX2                !
 ! A74   A(22,38,39)           108.4216         estimate D2E/DX2                !
 ! A75   A(11,40,17)           107.5768         estimate D2E/DX2                !
 ! A76   A(11,40,42)           121.3831         estimate D2E/DX2                !
 ! A77   A(17,40,42)           131.0304         estimate D2E/DX2                !
 ! A78   A(12,41,17)           106.6597         estimate D2E/DX2                !
 ! A79   A(1,43,7)             107.3515         estimate D2E/DX2                !
 ! A80   A(1,43,44)            122.1412         estimate D2E/DX2                !
 ! A81   A(7,43,44)            130.4835         estimate D2E/DX2                !
 ! A82   A(6,45,46)            115.5356         estimate D2E/DX2                !
 ! A83   A(6,45,47)            121.8963         estimate D2E/DX2                !
 ! A84   A(46,45,47)           122.5677         estimate D2E/DX2                !
 ! A85   A(45,47,48)           117.0244         estimate D2E/DX2                !
 ! A86   A(47,48,49)           111.659          estimate D2E/DX2                !
 ! A87   A(47,48,50)           112.4288         estimate D2E/DX2                !
 ! A88   A(47,48,51)           106.3124         estimate D2E/DX2                !
 ! A89   A(49,48,50)           110.6684         estimate D2E/DX2                !
 ! A90   A(49,48,51)           107.8605         estimate D2E/DX2                !
 ! A91   A(50,48,51)           107.6274         estimate D2E/DX2                !
 ! A92   A(48,49,52)           111.5055         estimate D2E/DX2                !
 ! A93   A(48,49,53)           108.3667         estimate D2E/DX2                !
 ! A94   A(48,49,54)           109.4423         estimate D2E/DX2                !
 ! A95   A(52,49,53)           109.4489         estimate D2E/DX2                !
 ! A96   A(52,49,54)           110.8467         estimate D2E/DX2                !
 ! A97   A(53,49,54)           107.0989         estimate D2E/DX2                !
 ! A98   A(48,50,55)           111.3494         estimate D2E/DX2                !
 ! A99   A(48,50,56)           108.744          estimate D2E/DX2                !
 ! A100  A(48,50,57)           109.421          estimate D2E/DX2                !
 ! A101  A(55,50,56)           109.2989         estimate D2E/DX2                !
 ! A102  A(55,50,57)           110.7651         estimate D2E/DX2                !
 ! A103  A(56,50,57)           107.1489         estimate D2E/DX2                !
 ! A104  A(49,52,58)           111.3997         estimate D2E/DX2                !
 ! A105  A(49,52,59)           109.6793         estimate D2E/DX2                !
 ! A106  A(49,52,60)           109.2589         estimate D2E/DX2                !
 ! A107  A(58,52,59)           110.5047         estimate D2E/DX2                !
 ! A108  A(58,52,60)           109.0409         estimate D2E/DX2                !
 ! A109  A(59,52,60)           106.8394         estimate D2E/DX2                !
 ! A110  A(50,55,58)           111.4305         estimate D2E/DX2                !
 ! A111  A(50,55,61)           109.6484         estimate D2E/DX2                !
 ! A112  A(50,55,62)           109.2212         estimate D2E/DX2                !
 ! A113  A(58,55,61)           110.5506         estimate D2E/DX2                !
 ! A114  A(58,55,62)           109.1053         estimate D2E/DX2                !
 ! A115  A(61,55,62)           106.7621         estimate D2E/DX2                !
 ! A116  A(52,58,55)           110.9902         estimate D2E/DX2                !
 ! A117  A(52,58,63)           110.2608         estimate D2E/DX2                !
 ! A118  A(52,58,64)           109.1165         estimate D2E/DX2                !
 ! A119  A(55,58,63)           110.2815         estimate D2E/DX2                !
 ! A120  A(55,58,64)           109.1665         estimate D2E/DX2                !
 ! A121  A(63,58,64)           106.9246         estimate D2E/DX2                !
 ! D1    D(6,1,2,3)             -0.6786         estimate D2E/DX2                !
 ! D2    D(6,1,2,21)           178.901          estimate D2E/DX2                !
 ! D3    D(43,1,2,3)          -179.8427         estimate D2E/DX2                !
 ! D4    D(43,1,2,21)           -0.2631         estimate D2E/DX2                !
 ! D5    D(2,1,6,5)              0.246          estimate D2E/DX2                !
 ! D6    D(2,1,6,45)          -179.4603         estimate D2E/DX2                !
 ! D7    D(43,1,6,5)           179.1744         estimate D2E/DX2                !
 ! D8    D(43,1,6,45)           -0.5319         estimate D2E/DX2                !
 ! D9    D(2,1,43,7)             0.3322         estimate D2E/DX2                !
 ! D10   D(2,1,43,44)          178.7305         estimate D2E/DX2                !
 ! D11   D(6,1,43,7)          -178.7351         estimate D2E/DX2                !
 ! D12   D(6,1,43,44)           -0.3369         estimate D2E/DX2                !
 ! D13   D(1,2,3,4)              0.6352         estimate D2E/DX2                !
 ! D14   D(1,2,3,8)           -179.6936         estimate D2E/DX2                !
 ! D15   D(21,2,3,4)          -178.8413         estimate D2E/DX2                !
 ! D16   D(21,2,3,8)             0.8299         estimate D2E/DX2                !
 ! D17   D(1,2,21,7)             0.085          estimate D2E/DX2                !
 ! D18   D(3,2,21,7)           179.6034         estimate D2E/DX2                !
 ! D19   D(2,3,4,5)             -0.2091         estimate D2E/DX2                !
 ! D20   D(2,3,4,9)            179.7278         estimate D2E/DX2                !
 ! D21   D(8,3,4,5)           -179.8783         estimate D2E/DX2                !
 ! D22   D(8,3,4,9)              0.0587         estimate D2E/DX2                !
 ! D23   D(3,4,5,6)             -0.2201         estimate D2E/DX2                !
 ! D24   D(3,4,5,10)           179.7964         estimate D2E/DX2                !
 ! D25   D(9,4,5,6)            179.8426         estimate D2E/DX2                !
 ! D26   D(9,4,5,10)            -0.1409         estimate D2E/DX2                !
 ! D27   D(4,5,6,1)              0.1999         estimate D2E/DX2                !
 ! D28   D(4,5,6,45)           179.9059         estimate D2E/DX2                !
 ! D29   D(10,5,6,1)          -179.8165         estimate D2E/DX2                !
 ! D30   D(10,5,6,45)           -0.1105         estimate D2E/DX2                !
 ! D31   D(1,6,45,46)          178.8429         estimate D2E/DX2                !
 ! D32   D(1,6,45,47)           -0.9351         estimate D2E/DX2                !
 ! D33   D(5,6,45,46)           -0.8446         estimate D2E/DX2                !
 ! D34   D(5,6,45,47)          179.3773         estimate D2E/DX2                !
 ! D35   D(21,7,16,11)           3.8519         estimate D2E/DX2                !
 ! D36   D(21,7,16,15)        -177.1731         estimate D2E/DX2                !
 ! D37   D(43,7,16,11)        -175.3142         estimate D2E/DX2                !
 ! D38   D(43,7,16,15)           3.6608         estimate D2E/DX2                !
 ! D39   D(16,7,21,2)         -179.1281         estimate D2E/DX2                !
 ! D40   D(43,7,21,2)            0.1317         estimate D2E/DX2                !
 ! D41   D(16,7,43,1)          178.9449         estimate D2E/DX2                !
 ! D42   D(16,7,43,44)           0.7281         estimate D2E/DX2                !
 ! D43   D(21,7,43,1)           -0.302          estimate D2E/DX2                !
 ! D44   D(21,7,43,44)        -178.5187         estimate D2E/DX2                !
 ! D45   D(16,11,12,13)          1.0352         estimate D2E/DX2                !
 ! D46   D(16,11,12,41)       -178.9068         estimate D2E/DX2                !
 ! D47   D(40,11,12,13)       -179.6269         estimate D2E/DX2                !
 ! D48   D(40,11,12,41)          0.4312         estimate D2E/DX2                !
 ! D49   D(12,11,16,7)         177.9736         estimate D2E/DX2                !
 ! D50   D(12,11,16,15)         -1.1003         estimate D2E/DX2                !
 ! D51   D(40,11,16,7)          -1.1876         estimate D2E/DX2                !
 ! D52   D(40,11,16,15)        179.7385         estimate D2E/DX2                !
 ! D53   D(12,11,40,17)         -0.4614         estimate D2E/DX2                !
 ! D54   D(12,11,40,42)       -179.4475         estimate D2E/DX2                !
 ! D55   D(16,11,40,17)        178.8065         estimate D2E/DX2                !
 ! D56   D(16,11,40,42)         -0.1796         estimate D2E/DX2                !
 ! D57   D(11,12,13,14)         -0.2269         estimate D2E/DX2                !
 ! D58   D(11,12,13,18)        179.8903         estimate D2E/DX2                !
 ! D59   D(41,12,13,14)        179.6994         estimate D2E/DX2                !
 ! D60   D(41,12,13,18)         -0.1833         estimate D2E/DX2                !
 ! D61   D(11,12,41,17)         -0.227          estimate D2E/DX2                !
 ! D62   D(13,12,41,17)        179.8401         estimate D2E/DX2                !
 ! D63   D(12,13,14,15)         -0.4281         estimate D2E/DX2                !
 ! D64   D(12,13,14,19)        179.8662         estimate D2E/DX2                !
 ! D65   D(18,13,14,15)        179.4536         estimate D2E/DX2                !
 ! D66   D(18,13,14,19)         -0.2521         estimate D2E/DX2                !
 ! D67   D(13,14,15,16)          0.3313         estimate D2E/DX2                !
 ! D68   D(13,14,15,20)       -179.8204         estimate D2E/DX2                !
 ! D69   D(19,14,15,16)       -179.9604         estimate D2E/DX2                !
 ! D70   D(19,14,15,20)         -0.1121         estimate D2E/DX2                !
 ! D71   D(14,15,16,7)        -178.5819         estimate D2E/DX2                !
 ! D72   D(14,15,16,11)          0.4258         estimate D2E/DX2                !
 ! D73   D(20,15,16,7)           1.5709         estimate D2E/DX2                !
 ! D74   D(20,15,16,11)       -179.4214         estimate D2E/DX2                !
 ! D75   D(40,17,23,22)        174.694          estimate D2E/DX2                !
 ! D76   D(40,17,23,24)         -4.4999         estimate D2E/DX2                !
 ! D77   D(41,17,23,22)         -3.87           estimate D2E/DX2                !
 ! D78   D(41,17,23,24)        176.9361         estimate D2E/DX2                !
 ! D79   D(23,17,40,11)       -178.3541         estimate D2E/DX2                !
 ! D80   D(23,17,40,42)          0.4984         estimate D2E/DX2                !
 ! D81   D(41,17,40,11)          0.3418         estimate D2E/DX2                !
 ! D82   D(41,17,40,42)        179.1944         estimate D2E/DX2                !
 ! D83   D(23,17,41,12)        178.7003         estimate D2E/DX2                !
 ! D84   D(40,17,41,12)         -0.0652         estimate D2E/DX2                !
 ! D85   D(27,22,23,17)       -177.5809         estimate D2E/DX2                !
 ! D86   D(27,22,23,24)          1.6516         estimate D2E/DX2                !
 ! D87   D(38,22,23,17)          2.2288         estimate D2E/DX2                !
 ! D88   D(38,22,23,24)       -178.5387         estimate D2E/DX2                !
 ! D89   D(23,22,27,26)         -1.0803         estimate D2E/DX2                !
 ! D90   D(23,22,27,34)        178.9726         estimate D2E/DX2                !
 ! D91   D(38,22,27,26)        179.1037         estimate D2E/DX2                !
 ! D92   D(38,22,27,34)         -0.8435         estimate D2E/DX2                !
 ! D93   D(23,22,38,39)          0.0361         estimate D2E/DX2                !
 ! D94   D(27,22,38,39)        179.8505         estimate D2E/DX2                !
 ! D95   D(17,23,24,25)        178.3449         estimate D2E/DX2                !
 ! D96   D(17,23,24,28)         -1.8502         estimate D2E/DX2                !
 ! D97   D(22,23,24,25)         -0.8395         estimate D2E/DX2                !
 ! D98   D(22,23,24,28)        178.9654         estimate D2E/DX2                !
 ! D99   D(23,24,25,26)         -0.4871         estimate D2E/DX2                !
 ! D100  D(23,24,25,30)       -179.9377         estimate D2E/DX2                !
 ! D101  D(28,24,25,26)        179.7067         estimate D2E/DX2                !
 ! D102  D(28,24,25,30)          0.2561         estimate D2E/DX2                !
 ! D103  D(24,25,26,27)          1.0935         estimate D2E/DX2                !
 ! D104  D(24,25,26,29)       -179.1673         estimate D2E/DX2                !
 ! D105  D(30,25,26,27)       -179.4441         estimate D2E/DX2                !
 ! D106  D(30,25,26,29)          0.2951         estimate D2E/DX2                !
 ! D107  D(24,25,30,31)         -5.4373         estimate D2E/DX2                !
 ! D108  D(24,25,30,32)        115.4513         estimate D2E/DX2                !
 ! D109  D(24,25,30,33)       -127.3691         estimate D2E/DX2                !
 ! D110  D(26,25,30,31)        175.1107         estimate D2E/DX2                !
 ! D111  D(26,25,30,32)        -64.0007         estimate D2E/DX2                !
 ! D112  D(26,25,30,33)         53.179          estimate D2E/DX2                !
 ! D113  D(25,26,27,22)         -0.2852         estimate D2E/DX2                !
 ! D114  D(25,26,27,34)        179.6594         estimate D2E/DX2                !
 ! D115  D(29,26,27,22)        179.9777         estimate D2E/DX2                !
 ! D116  D(29,26,27,34)         -0.0777         estimate D2E/DX2                !
 ! D117  D(22,27,34,35)        -53.754          estimate D2E/DX2                !
 ! D118  D(22,27,34,36)         64.7663         estimate D2E/DX2                !
 ! D119  D(22,27,34,37)       -174.8322         estimate D2E/DX2                !
 ! D120  D(26,27,34,35)        126.3021         estimate D2E/DX2                !
 ! D121  D(26,27,34,36)       -115.1776         estimate D2E/DX2                !
 ! D122  D(26,27,34,37)          5.2238         estimate D2E/DX2                !
 ! D123  D(6,45,47,48)         179.2827         estimate D2E/DX2                !
 ! D124  D(46,45,47,48)         -0.4796         estimate D2E/DX2                !
 ! D125  D(45,47,48,49)        -63.4785         estimate D2E/DX2                !
 ! D126  D(45,47,48,50)         61.6048         estimate D2E/DX2                !
 ! D127  D(45,47,48,51)        179.1304         estimate D2E/DX2                !
 ! D128  D(47,48,49,52)       -178.7201         estimate D2E/DX2                !
 ! D129  D(47,48,49,53)         60.7552         estimate D2E/DX2                !
 ! D130  D(47,48,49,54)        -55.7151         estimate D2E/DX2                !
 ! D131  D(50,48,49,52)         55.2244         estimate D2E/DX2                !
 ! D132  D(50,48,49,53)        -65.3003         estimate D2E/DX2                !
 ! D133  D(50,48,49,54)        178.2295         estimate D2E/DX2                !
 ! D134  D(51,48,49,52)        -62.2661         estimate D2E/DX2                !
 ! D135  D(51,48,49,53)        177.2091         estimate D2E/DX2                !
 ! D136  D(51,48,49,54)         60.7389         estimate D2E/DX2                !
 ! D137  D(47,48,50,55)        179.1093         estimate D2E/DX2                !
 ! D138  D(47,48,50,56)        -60.4026         estimate D2E/DX2                !
 ! D139  D(47,48,50,57)         56.3279         estimate D2E/DX2                !
 ! D140  D(49,48,50,55)        -55.2668         estimate D2E/DX2                !
 ! D141  D(49,48,50,56)         65.2213         estimate D2E/DX2                !
 ! D142  D(49,48,50,57)       -178.0482         estimate D2E/DX2                !
 ! D143  D(51,48,50,55)         62.3667         estimate D2E/DX2                !
 ! D144  D(51,48,50,56)       -177.1452         estimate D2E/DX2                !
 ! D145  D(51,48,50,57)        -60.4147         estimate D2E/DX2                !
 ! D146  D(48,49,52,58)        -55.5555         estimate D2E/DX2                !
 ! D147  D(48,49,52,59)       -178.2199         estimate D2E/DX2                !
 ! D148  D(48,49,52,60)         64.9816         estimate D2E/DX2                !
 ! D149  D(53,49,52,58)         64.3325         estimate D2E/DX2                !
 ! D150  D(53,49,52,59)        -58.3319         estimate D2E/DX2                !
 ! D151  D(53,49,52,60)       -175.1304         estimate D2E/DX2                !
 ! D152  D(54,49,52,58)       -177.755          estimate D2E/DX2                !
 ! D153  D(54,49,52,59)         59.5807         estimate D2E/DX2                !
 ! D154  D(54,49,52,60)        -57.2179         estimate D2E/DX2                !
 ! D155  D(48,50,55,58)         55.7459         estimate D2E/DX2                !
 ! D156  D(48,50,55,61)        178.4678         estimate D2E/DX2                !
 ! D157  D(48,50,55,62)        -64.8661         estimate D2E/DX2                !
 ! D158  D(56,50,55,58)        -64.4151         estimate D2E/DX2                !
 ! D159  D(56,50,55,61)         58.3068         estimate D2E/DX2                !
 ! D160  D(56,50,55,62)        174.9729         estimate D2E/DX2                !
 ! D161  D(57,50,55,58)        177.7524         estimate D2E/DX2                !
 ! D162  D(57,50,55,61)        -59.5258         estimate D2E/DX2                !
 ! D163  D(57,50,55,62)         57.1403         estimate D2E/DX2                !
 ! D164  D(49,52,58,55)         55.3167         estimate D2E/DX2                !
 ! D165  D(49,52,58,63)        177.8222         estimate D2E/DX2                !
 ! D166  D(49,52,58,64)        -65.0248         estimate D2E/DX2                !
 ! D167  D(59,52,58,55)        177.5057         estimate D2E/DX2                !
 ! D168  D(59,52,58,63)        -59.9887         estimate D2E/DX2                !
 ! D169  D(59,52,58,64)         57.1643         estimate D2E/DX2                !
 ! D170  D(60,52,58,55)        -65.3484         estimate D2E/DX2                !
 ! D171  D(60,52,58,63)         57.1571         estimate D2E/DX2                !
 ! D172  D(60,52,58,64)        174.3101         estimate D2E/DX2                !
 ! D173  D(50,55,58,52)        -55.4652         estimate D2E/DX2                !
 ! D174  D(50,55,58,63)       -177.9588         estimate D2E/DX2                !
 ! D175  D(50,55,58,64)         64.8466         estimate D2E/DX2                !
 ! D176  D(61,55,58,52)       -177.6681         estimate D2E/DX2                !
 ! D177  D(61,55,58,63)         59.8383         estimate D2E/DX2                !
 ! D178  D(61,55,58,64)        -57.3563         estimate D2E/DX2                !
 ! D179  D(62,55,58,52)         65.2149         estimate D2E/DX2                !
 ! D180  D(62,55,58,63)        -57.2787         estimate D2E/DX2                !
 ! D181  D(62,55,58,64)       -174.4733         estimate D2E/DX2                !
 --------------------------------------------------------------------------------
 Trust Radius=3.00D-01 FncErr=5.00D-06 GrdErr=5.00D-06 EigMax=2.50D+02 EigMin=1.00D-04
 Number of steps in this run=    381 maximum allowed number of steps=    384.
 GradGradGradGradGradGradGradGradGradGradGradGradGradGradGradGradGradGrad

 Leave Link  103 at Fri Dec 14 10:38:11 2018, MaxMem=  1342177280 cpu:               0.3 elap:               0.0
 (Enter /gpfs/apps/hpc/Apps/Restricted/Gaussian/Rev_A.03/g16/l202.exe)
 Symmetry turned off by external request.
 Stoichiometry    C29H29N5O(1+,2)
 Framework group  C1[X(C29H29N5O)]
 Deg. of freedom   186
 Full point group                 C1      NOp   1
                          Input orientation:                          
 ---------------------------------------------------------------------
 Center     Atomic      Atomic             Coordinates (Angstroms)
 Number     Number       Type             X           Y           Z
 ---------------------------------------------------------------------
      1          6           0        1.614321    1.143080    0.187172
      2          6           0        0.399100    1.864767    0.180990
      3          6           0        0.419406    3.263061    0.089613
      4          6           0        1.658941    3.890085   -0.006188
      5          6           0        2.858327    3.156022   -0.007751
      6          6           0        2.871540    1.759866    0.091161
      7          6           0       -0.111646   -0.232753    0.320809
      8          1           0       -0.502251    3.832046    0.088510
      9          1           0        1.705524    4.969749   -0.082615
     10          1           0        3.803730    3.681641   -0.087410
     11          6           0       -2.293136   -1.382652    0.331783
     12          6           0       -3.133318   -2.529411    0.356695
     13          6           0       -2.571020   -3.810715    0.472692
     14          6           0       -1.189252   -3.889535    0.554046
     15          6           0       -0.361709   -2.743137    0.514611
     16          6           0       -0.889558   -1.457826    0.397701
     17          6           0       -4.406672   -0.773444    0.171208
     18          1           0       -3.195938   -4.693695    0.494948
     19          1           0       -0.718761   -4.860494    0.646606
     20          1           0        0.711945   -2.874137    0.579984
     21          7           0       -0.662663    0.979117    0.264324
     22          6           0       -6.861243   -0.705395   -0.125738
     23          6           0       -5.602023    0.008668    0.022727
     24          6           0       -5.611558    1.399157   -0.002045
     25          6           0       -6.805802    2.103103   -0.183994
     26          6           0       -8.026181    1.382297   -0.356352
     27          6           0       -8.087549    0.012462   -0.330189
     28          1           0       -4.686560    1.948571    0.123679
     29          1           0       -8.938426    1.947673   -0.509628
     30          6           0       -6.830532    3.595398   -0.214044
     31          1           0       -5.855120    4.023820    0.013422
     32          1           0       -7.144337    3.943802   -1.204408
     33          1           0       -7.567341    3.980467    0.497687
     34          6           0       -9.359372   -0.757856   -0.501789
     35          1           0       -9.261034   -1.497101   -1.300634
     36          1           0       -9.604751   -1.306001    0.412749
     37          1           0      -10.182950   -0.084894   -0.737205
     38          8           0       -6.913703   -2.006014   -0.081819
     39          1           0       -5.946829   -2.370343    0.068789
     40          7           0       -3.123659   -0.303556    0.221701
     41          7           0       -4.435614   -2.113739    0.251966
     42          1           0       -2.756970    0.645213    0.175127
     43          7           0        1.258790   -0.179301    0.281194
     44          1           0        1.946920   -0.923721    0.286611
     45          6           0        4.112597    0.992581    0.088058
     46          1           0        5.031308    1.580953   -0.011296
     47          7           0        4.119209   -0.285696    0.190749
     48          6           0        5.432825   -0.953266    0.159300
     49          6           0        6.142571   -0.746281   -1.189225
     50          6           0        6.340181   -0.518341    1.322782
     51          1           0        5.236183   -2.025256    0.274597
     52          6           0        7.493610   -1.467850   -1.229468
     53          1           0        6.298515    0.329297   -1.336157
     54          1           0        5.492684   -1.090878   -1.999614
     55          6           0        7.689927   -1.243017    1.278726
     56          1           0        6.507067    0.562796    1.254154
     57          1           0        5.829627   -0.706409    2.272348
     58          6           0        8.393469   -1.035137   -0.066939
     59          1           0        7.986104   -1.275051   -2.187927
     60          1           0        7.327462   -2.550702   -1.169649
     61          1           0        8.322327   -0.893537    2.100982
     62          1           0        7.528811   -2.316902    1.437720
     63          1           0        9.336864   -1.589244   -0.091362
     64          1           0        8.643792    0.027088   -0.182327
 ---------------------------------------------------------------------
 Rotational constants (GHZ):           0.2628640           0.0417816           0.0366954
 Leave Link  202 at Fri Dec 14 10:38:11 2018, MaxMem=  1342177280 cpu:               0.2 elap:               0.0
 (Enter /gpfs/apps/hpc/Apps/Restricted/Gaussian/Rev_A.03/g16/l301.exe)
 Standard basis: 6-31G(d,p) (6D, 7F)
 Ernie: Thresh=  0.10000D-02 Tol=  0.10000D-05 Strict=F.
   670 basis functions,  1183 primitive gaussians,   670 cartesian basis functions
   123 alpha electrons      122 beta electrons
       nuclear repulsion energy      3328.9344281288 Hartrees.
 IExCor=  402 DFT=T Ex+Corr=B3LYP ExCW=0 ScaHFX=  0.200000
 ScaDFX=  0.800000  0.720000  1.000000  0.810000 ScalE2=  1.000000  1.000000
 IRadAn=      5 IRanWt=     -1 IRanGd=            0 ICorTp=0 IEmpDi=141
 NAtoms=   64 NActive=   64 NUniq=   64 SFac= 1.00D+00 NAtFMM=   60 NAOKFM=T Big=T
 Integral buffers will be    131072 words long.
 Raffenetti 2 integral format.
 Two-electron integral symmetry is turned off.
 R6Disp:  Grimme-D3(BJ) Dispersion energy=       -0.1436542350 Hartrees.
 Nuclear repulsion after empirical dispersion term =     3328.7907738938 Hartrees.
 Using the following non-standard input for PCM:
 radii=bondi
 dis
 rep
 cav
 --- end of non-standard input.
 ------------------------------------------------------------------------------
 Polarizable Continuum Model (PCM)
 =================================
 Model                : C-PCM.
 Atomic radii         : Bondi.
 Polarization charges : Total charges.
 Charge compensation  : None.
 Solution method      : On-the-fly selection.
 Cavity type          : Scaled VdW (van der Waals Surface) (Alpha=1.100).
 Cavity algorithm     : GePol (No added spheres)
                        Default sphere list used, NSphG=   64.
                        Lebedev-Laikov grids with approx.  5.0 points / Ang**2.
                        Smoothing algorithm: York/Karplus (Gamma=1.0000).
                        Polarization charges: spherical gaussians, with
                                              point-specific exponents (IZeta= 3).
                        Self-potential: point-specific (ISelfS= 7).
                        Self-field    : sphere-specific E.n sum rule (ISelfD= 2).
 1st derivatives      : Analytical E(r).r(x)/FMM algorithm (CHGder, D1EAlg=3).
                        Cavity 1st derivative terms included.
 Solvent              : Dichloromethane, Eps=   8.930000 Eps(inf)=   2.028346
 ------------------------------------------------------------------------------
 GePol: Number of generator spheres                  =      64
 GePol: Total number of spheres                      =      64
 GePol: Number of exposed spheres                    =      64 (100.00%)
 GePol: Number of points                             =    4390
 GePol: Average weight of points                     =       0.12
 GePol: Minimum weight of points                     =   0.60D-10
 GePol: Maximum weight of points                     =    0.21770
 GePol: Number of points with low weight             =     280
 GePol: Fraction of low-weight points (<1% of avg)   =       6.38%
 GePol: Cavity surface area                          =    515.722 Ang**2
 GePol: Cavity volume                                =    499.055 Ang**3
 PCM non-electrostatic energy =         0.0182311430 Hartrees.
 Nuclear repulsion after PCM non-electrostatic terms =     3328.8090050368 Hartrees.
 Leave Link  301 at Fri Dec 14 10:38:11 2018, MaxMem=  1342177280 cpu:               4.3 elap:               0.3
 (Enter /gpfs/apps/hpc/Apps/Restricted/Gaussian/Rev_A.03/g16/l302.exe)
 NPDir=0 NMtPBC=     1 NCelOv=     1 NCel=       1 NClECP=     1 NCelD=      1
         NCelK=      1 NCelE2=     1 NClLst=     1 CellRange=     0.0.
 One-electron integrals computed using PRISM.
 NBasis=   670 RedAO= T EigKep=  2.77D-04  NBF=   670
 NBsUse=   670 1.00D-06 EigRej= -1.00D+00 NBFU=   670
 Precomputing XC quadrature grid using
 IXCGrd= 4 IRadAn=           5 IRanWt=          -1 IRanGd=           0 AccXCQ= 0.00D+00.
 Generated NRdTot=       0 NPtTot=           0 NUsed=           0 NTot=          32
 NSgBfM=   618   618   618   618   618 MxSgAt=    64 MxSgA2=    64.
 Leave Link  302 at Fri Dec 14 10:38:13 2018, MaxMem=  1342177280 cpu:              20.7 elap:               1.4
 (Enter /gpfs/apps/hpc/Apps/Restricted/Gaussian/Rev_A.03/g16/l303.exe)
 DipDrv:  MaxL=1.
 Leave Link  303 at Fri Dec 14 10:38:13 2018, MaxMem=  1342177280 cpu:               1.4 elap:               0.1
 (Enter /gpfs/apps/hpc/Apps/Restricted/Gaussian/Rev_A.03/g16/l401.exe)
 ExpMin= 1.61D-01 ExpMax= 5.48D+03 ExpMxC= 8.25D+02 IAcc=3 IRadAn=         5 AccDes= 0.00D+00
 Harris functional with IExCor=  402 and IRadAn=       5 diagonalized for initial guess.
 HarFok:  IExCor=  402 AccDes= 0.00D+00 IRadAn=         5 IDoV= 1 UseB2=F ITyADJ=14
 ICtDFT=  3500011 ScaDFX=  1.000000  1.000000  1.000000  1.000000
 FoFCou: FMM=F IPFlag=           0 FMFlag=      100000 FMFlg1=        2001
         NFxFlg=           0 DoJE=T BraDBF=F KetDBF=T FulRan=T
         wScrn=  0.000000 ICntrl=       500 IOpCl=  0 I1Cent=   200000004 NGrid=           0
         NMat0=    1 NMatS0=      1 NMatT0=    0 NMatD0=    1 NMtDS0=    0 NMtDT0=    0
 Symmetry not used in FoFCou.
 Harris En= -1471.48049346872    
 JPrj=0 DoOrth=F DoCkMO=F.
 Initial guess <Sx>= 0.0000 <Sy>= 0.0000 <Sz>= 0.5000 <S**2>= 0.7500 S= 0.5000
 Leave Link  401 at Fri Dec 14 10:38:18 2018, MaxMem=  1342177280 cpu:              77.1 elap:               4.9
 (Enter /gpfs/apps/hpc/Apps/Restricted/Gaussian/Rev_A.03/g16/l502.exe)
 Two-electron integral symmetry not used.
 UHF open shell SCF:
 Using DIIS extrapolation, IDIIS=  1040.
 NGot=  1342177280 LenX=  1341263254 LenY=  1340813684
 Requested convergence on RMS density matrix=1.00D-08 within 128 cycles.
 Requested convergence on MAX density matrix=1.00D-06.
 Requested convergence on             energy=1.00D-06.
 No special actions if energy rises.
 Fock matrices will be formed incrementally for  20 cycles.

 Cycle   1  Pass 1  IDiag  1:
 FoFJK:  IHMeth= 1 ICntrl=       0 DoSepK=F KAlg= 0 I1Cent=           0 FoldK=F
 IRaf= 680000000 NMat=       1 IRICut=       1 DoRegI=T DoRafI=F ISym2E= 0 IDoP0=0 IntGTp=1.
 FoFCou: FMM=T IPFlag=           0 FMFlag=      100000 FMFlg1=        2001
         NFxFlg=           0 DoJE=F BraDBF=F KetDBF=F FulRan=T
         wScrn=  0.000000 ICntrl=         0 IOpCl=  1 I1Cent=           0 NGrid=           0
         NMat0=    1 NMatS0=      1 NMatT0=    0 NMatD0=    1 NMtDS0=    0 NMtDT0=    0
 Symmetry not used in FoFCou.
 FMM levels:  10  Number of levels for PrismC:   9
 Inv3:  Mode=1 IEnd=    57816300.
 Iteration    1 A*A^-1 deviation from unit magnitude is 1.13D-14 for    548.
 Iteration    1 A*A^-1 deviation from orthogonality  is 4.27D-15 for   4380   3122.
 Iteration    1 A^-1*A deviation from unit magnitude is 1.13D-14 for    548.
 Iteration    1 A^-1*A deviation from orthogonality  is 2.06D-15 for   4369   4295.
 E= -1470.91658673056    
 DIIS: error= 2.47D-02 at cycle   1 NSaved=   1.
 NSaved= 1 IEnMin= 1 EnMin= -1470.91658673056     IErMin= 1 ErrMin= 2.47D-02
 ErrMax= 2.47D-02  0.00D+00 EMaxC= 1.00D-01 BMatC= 2.69D+00 BMatP= 2.69D+00
 IDIUse=3 WtCom= 7.53D-01 WtEn= 2.47D-01
 Coeff-Com:  0.100D+01
 Coeff-En:   0.100D+01
 Coeff:      0.100D+01
 Gap=     0.182 Goal=   None    Shift=    0.000
 Gap=     0.016 Goal=   None    Shift=    0.000
 GapD=    0.016 DampG=0.250 DampE=0.500 DampFc=0.2500 IDamp=-1.
 Damping current iteration by 2.50D-01
 RMSDP=3.10D-03 MaxDP=1.53D-01              OVMax= 7.05D-01

 Cycle   2  Pass 1  IDiag  1:
 RMSU=  7.47D-04    CP:  9.84D-01
 E= -1471.16259065908     Delta-E=       -0.246003928526 Rises=F Damp=T
 DIIS: error= 1.38D-02 at cycle   2 NSaved=   2.
 NSaved= 2 IEnMin= 2 EnMin= -1471.16259065908     IErMin= 2 ErrMin= 1.38D-02
 ErrMax= 1.38D-02  0.00D+00 EMaxC= 1.00D-01 BMatC= 7.50D-01 BMatP= 2.69D+00
 IDIUse=3 WtCom= 8.62D-01 WtEn= 1.38D-01
 Coeff-Com: -0.857D+00 0.186D+01
 Coeff-En:   0.000D+00 0.100D+01
 Coeff:     -0.739D+00 0.174D+01
 Gap=     0.199 Goal=   None    Shift=    0.000
 Gap=    -0.004 Goal=   None    Shift=    0.000
 RMSDP=1.27D-03 MaxDP=7.17D-02 DE=-2.46D-01 OVMax= 5.96D-01

 Cycle   3  Pass 1  IDiag  1:
 RMSU=  9.48D-04    CP:  9.50D-01  1.97D+00
 E= -1471.58102427713     Delta-E=       -0.418433618050 Rises=F Damp=F
 DIIS: error= 6.30D-03 at cycle   3 NSaved=   3.
 NSaved= 3 IEnMin= 3 EnMin= -1471.58102427713     IErMin= 3 ErrMin= 6.30D-03
 ErrMax= 6.30D-03  0.00D+00 EMaxC= 1.00D-01 BMatC= 1.34D-01 BMatP= 7.50D-01
 IDIUse=3 WtCom= 9.37D-01 WtEn= 6.30D-02
 Coeff-Com: -0.404D+00 0.820D+00 0.584D+00
 Coeff-En:   0.000D+00 0.000D+00 0.100D+01
 Coeff:     -0.378D+00 0.768D+00 0.610D+00
 Gap=     0.165 Goal=   None    Shift=    0.000
 Gap=     0.031 Goal=   None    Shift=    0.000
 RMSDP=4.34D-04 MaxDP=3.61D-02 DE=-4.18D-01 OVMax= 7.17D-02

 Cycle   4  Pass 1  IDiag  1:
 RMSU=  3.54D-04    CP:  9.53D-01  2.04D+00  7.45D-01
 E= -1471.61154255219     Delta-E=       -0.030518275054 Rises=F Damp=F
 DIIS: error= 2.71D-03 at cycle   4 NSaved=   4.
 NSaved= 4 IEnMin= 4 EnMin= -1471.61154255219     IErMin= 4 ErrMin= 2.71D-03
 ErrMax= 2.71D-03  0.00D+00 EMaxC= 1.00D-01 BMatC= 2.66D-02 BMatP= 1.34D-01
 IDIUse=3 WtCom= 9.73D-01 WtEn= 2.71D-02
 Coeff-Com: -0.927D-01 0.179D+00 0.315D+00 0.599D+00
 Coeff-En:   0.000D+00 0.000D+00 0.120D+00 0.880D+00
 Coeff:     -0.901D-01 0.174D+00 0.310D+00 0.606D+00
 Gap=     0.140 Goal=   None    Shift=    0.000
 Gap=     0.035 Goal=   None    Shift=    0.000
 RMSDP=1.71D-04 MaxDP=1.42D-02 DE=-3.05D-02 OVMax= 3.98D-02

 Cycle   5  Pass 1  IDiag  1:
 RMSU=  1.26D-04    CP:  9.52D-01  2.01D+00  8.11D-01  7.35D-01
 E= -1471.61738255837     Delta-E=       -0.005840006187 Rises=F Damp=F
 DIIS: error= 1.12D-03 at cycle   5 NSaved=   5.
 NSaved= 5 IEnMin= 5 EnMin= -1471.61738255837     IErMin= 5 ErrMin= 1.12D-03
 ErrMax= 1.12D-03  0.00D+00 EMaxC= 1.00D-01 BMatC= 4.91D-03 BMatP= 2.66D-02
 IDIUse=3 WtCom= 9.89D-01 WtEn= 1.12D-02
 Coeff-Com: -0.181D-01 0.294D-01 0.120D+00 0.361D+00 0.508D+00
 Coeff-En:   0.000D+00 0.000D+00 0.000D+00 0.103D+00 0.897D+00
 Coeff:     -0.179D-01 0.291D-01 0.119D+00 0.358D+00 0.512D+00
 Gap=     0.141 Goal=   None    Shift=    0.000
 Gap=     0.037 Goal=   None    Shift=    0.000
 RMSDP=6.64D-05 MaxDP=6.00D-03 DE=-5.84D-03 OVMax= 2.03D-02

 Cycle   6  Pass 1  IDiag  1:
 RMSU=  5.09D-05    CP:  9.52D-01  2.02D+00  8.17D-01  7.84D-01  7.01D-01
 E= -1471.61858242233     Delta-E=       -0.001199863961 Rises=F Damp=F
 DIIS: error= 2.49D-04 at cycle   6 NSaved=   6.
 NSaved= 6 IEnMin= 6 EnMin= -1471.61858242233     IErMin= 6 ErrMin= 2.49D-04
 ErrMax= 2.49D-04  0.00D+00 EMaxC= 1.00D-01 BMatC= 2.70D-04 BMatP= 4.91D-03
 IDIUse=3 WtCom= 9.98D-01 WtEn= 2.49D-03
 Coeff-Com: -0.267D-02 0.269D-02 0.340D-01 0.124D+00 0.244D+00 0.598D+00
 Coeff-En:   0.000D+00 0.000D+00 0.000D+00 0.000D+00 0.000D+00 0.100D+01
 Coeff:     -0.266D-02 0.268D-02 0.339D-01 0.124D+00 0.244D+00 0.599D+00
 Gap=     0.140 Goal=   None    Shift=    0.000
 Gap=     0.038 Goal=   None    Shift=    0.000
 RMSDP=2.42D-05 MaxDP=2.17D-03 DE=-1.20D-03 OVMax= 1.10D-02

 Cycle   7  Pass 1  IDiag  1:
 RMSU=  2.08D-05    CP:  9.52D-01  2.02D+00  8.19D-01  7.95D-01  7.90D-01
                    CP:  1.05D+00
 E= -1471.61868155509     Delta-E=       -0.000099132752 Rises=F Damp=F
 DIIS: error= 1.73D-04 at cycle   7 NSaved=   7.
 NSaved= 7 IEnMin= 7 EnMin= -1471.61868155509     IErMin= 7 ErrMin= 1.73D-04
 ErrMax= 1.73D-04  0.00D+00 EMaxC= 1.00D-01 BMatC= 8.56D-05 BMatP= 2.70D-04
 IDIUse=3 WtCom= 9.98D-01 WtEn= 1.73D-03
 Coeff-Com:  0.387D-02-0.724D-02-0.923D-02-0.142D-01 0.199D-01 0.359D+00
 Coeff-Com:  0.648D+00
 Coeff-En:   0.000D+00 0.000D+00 0.000D+00 0.000D+00 0.000D+00 0.000D+00
 Coeff-En:   0.100D+01
 Coeff:      0.386D-02-0.723D-02-0.921D-02-0.142D-01 0.199D-01 0.358D+00
 Coeff:      0.649D+00
 Gap=     0.140 Goal=   None    Shift=    0.000
 Gap=     0.038 Goal=   None    Shift=    0.000
 RMSDP=1.78D-05 MaxDP=1.42D-03 DE=-9.91D-05 OVMax= 9.68D-03

 Cycle   8  Pass 1  IDiag  1:
 RMSU=  1.01D-05    CP:  9.52D-01  2.02D+00  8.22D-01  8.04D-01  8.38D-01
                    CP:  1.29D+00  1.12D+00
 E= -1471.61873407872     Delta-E=       -0.000052523638 Rises=F Damp=F
 DIIS: error= 1.16D-04 at cycle   8 NSaved=   8.
 NSaved= 8 IEnMin= 8 EnMin= -1471.61873407872     IErMin= 8 ErrMin= 1.16D-04
 ErrMax= 1.16D-04  0.00D+00 EMaxC= 1.00D-01 BMatC= 1.40D-05 BMatP= 8.56D-05
 IDIUse=3 WtCom= 9.99D-01 WtEn= 1.16D-03
 Coeff-Com:  0.200D-02-0.276D-02-0.124D-01-0.422D-01-0.686D-01-0.377D-01
 Coeff-Com:  0.224D+00 0.938D+00
 Coeff-En:   0.000D+00 0.000D+00 0.000D+00 0.000D+00 0.000D+00 0.000D+00
 Coeff-En:   0.000D+00 0.100D+01
 Coeff:      0.200D-02-0.276D-02-0.124D-01-0.421D-01-0.685D-01-0.377D-01
 Coeff:      0.223D+00 0.938D+00
 Gap=     0.140 Goal=   None    Shift=    0.000
 Gap=     0.038 Goal=   None    Shift=    0.000
 RMSDP=1.63D-05 MaxDP=1.55D-03 DE=-5.25D-05 OVMax= 1.02D-02

 Cycle   9  Pass 1  IDiag  1:
 RMSU=  5.35D-06    CP:  9.52D-01  2.02D+00  8.23D-01  8.10D-01  8.78D-01
                    CP:  1.49D+00  1.55D+00  1.47D+00
 E= -1471.61875780885     Delta-E=       -0.000023730127 Rises=F Damp=F
 DIIS: error= 5.07D-05 at cycle   9 NSaved=   9.
 NSaved= 9 IEnMin= 9 EnMin= -1471.61875780885     IErMin= 9 ErrMin= 5.07D-05
 ErrMax= 5.07D-05  0.00D+00 EMaxC= 1.00D-01 BMatC= 7.12D-06 BMatP= 1.40D-05
 IDIUse=1 WtCom= 1.00D+00 WtEn= 0.00D+00
 Coeff-Com:  0.548D-03-0.366D-03-0.488D-02-0.200D-01-0.436D-01-0.107D+00
 Coeff-Com: -0.565D-01 0.547D+00 0.685D+00
 Coeff:      0.548D-03-0.366D-03-0.488D-02-0.200D-01-0.436D-01-0.107D+00
 Coeff:     -0.565D-01 0.547D+00 0.685D+00
 Gap=     0.140 Goal=   None    Shift=    0.000
 Gap=     0.038 Goal=   None    Shift=    0.000
 RMSDP=8.52D-06 MaxDP=8.03D-04 DE=-2.37D-05 OVMax= 5.36D-03

 Cycle  10  Pass 1  IDiag  1:
 RMSU=  2.96D-06    CP:  9.52D-01  2.02D+00  8.24D-01  8.13D-01  8.97D-01
                    CP:  1.59D+00  1.75D+00  1.85D+00  1.21D+00
 E= -1471.61876562298     Delta-E=       -0.000007814126 Rises=F Damp=F
 DIIS: error= 2.75D-05 at cycle  10 NSaved=  10.
 NSaved=10 IEnMin=10 EnMin= -1471.61876562298     IErMin=10 ErrMin= 2.75D-05
 ErrMax= 2.75D-05  0.00D+00 EMaxC= 1.00D-01 BMatC= 1.72D-06 BMatP= 7.12D-06
 IDIUse=1 WtCom= 1.00D+00 WtEn= 0.00D+00
 Coeff-Com: -0.285D-03 0.479D-03 0.228D-02 0.715D-02 0.767D-02-0.217D-01
 Coeff-Com: -0.109D+00-0.106D+00 0.276D+00 0.944D+00
 Coeff:     -0.285D-03 0.479D-03 0.228D-02 0.715D-02 0.767D-02-0.217D-01
 Coeff:     -0.109D+00-0.106D+00 0.276D+00 0.944D+00
 Gap=     0.140 Goal=   None    Shift=    0.000
 Gap=     0.038 Goal=   None    Shift=    0.000
 RMSDP=5.99D-06 MaxDP=5.16D-04 DE=-7.81D-06 OVMax= 3.50D-03

 Cycle  11  Pass 1  IDiag  1:
 RMSU=  1.74D-06    CP:  9.52D-01  2.02D+00  8.24D-01  8.14D-01  9.08D-01
                    CP:  1.64D+00  1.88D+00  2.14D+00  1.65D+00  1.34D+00
 E= -1471.61876862735     Delta-E=       -0.000003004371 Rises=F Damp=F
 DIIS: error= 2.02D-05 at cycle  11 NSaved=  11.
 NSaved=11 IEnMin=11 EnMin= -1471.61876862735     IErMin=11 ErrMin= 2.02D-05
 ErrMax= 2.02D-05  0.00D+00 EMaxC= 1.00D-01 BMatC= 7.57D-07 BMatP= 1.72D-06
 IDIUse=1 WtCom= 1.00D+00 WtEn= 0.00D+00
 Coeff-Com: -0.355D-03 0.414D-03 0.292D-02 0.108D-01 0.193D-01 0.253D-01
 Coeff-Com: -0.473D-01-0.243D+00-0.531D-01 0.558D+00 0.727D+00
 Coeff:     -0.355D-03 0.414D-03 0.292D-02 0.108D-01 0.193D-01 0.253D-01
 Coeff:     -0.473D-01-0.243D+00-0.531D-01 0.558D+00 0.727D+00
 Gap=     0.140 Goal=   None    Shift=    0.000
 Gap=     0.038 Goal=   None    Shift=    0.000
 RMSDP=3.04D-06 MaxDP=3.36D-04 DE=-3.00D-06 OVMax= 1.76D-03

 Cycle  12  Pass 1  IDiag  1:
 RMSU=  9.20D-07    CP:  9.52D-01  2.02D+00  8.24D-01  8.15D-01  9.12D-01
                    CP:  1.67D+00  1.94D+00  2.28D+00  1.88D+00  1.75D+00
                    CP:  1.08D+00
 E= -1471.61876948633     Delta-E=       -0.000000858982 Rises=F Damp=F
 DIIS: error= 7.92D-06 at cycle  12 NSaved=  12.
 NSaved=12 IEnMin=12 EnMin= -1471.61876948633     IErMin=12 ErrMin= 7.92D-06
 ErrMax= 7.92D-06  0.00D+00 EMaxC= 1.00D-01 BMatC= 1.73D-07 BMatP= 7.57D-07
 IDIUse=1 WtCom= 1.00D+00 WtEn= 0.00D+00
 Coeff-Com: -0.348D-04-0.170D-04 0.196D-03 0.120D-02 0.430D-02 0.173D-01
 Coeff-Com:  0.202D-01-0.534D-01-0.110D+00-0.137D+00 0.318D+00 0.940D+00
 Coeff:     -0.348D-04-0.170D-04 0.196D-03 0.120D-02 0.430D-02 0.173D-01
 Coeff:      0.202D-01-0.534D-01-0.110D+00-0.137D+00 0.318D+00 0.940D+00
 Gap=     0.140 Goal=   None    Shift=    0.000
 Gap=     0.038 Goal=   None    Shift=    0.000
 RMSDP=1.67D-06 MaxDP=2.13D-04 DE=-8.59D-07 OVMax= 8.35D-04

 Cycle  13  Pass 1  IDiag  1:
 RMSU=  4.89D-07    CP:  9.52D-01  2.02D+00  8.24D-01  8.15D-01  9.14D-01
                    CP:  1.68D+00  1.97D+00  2.35D+00  2.01D+00  1.95D+00
                    CP:  1.46D+00  1.17D+00
 E= -1471.61876970595     Delta-E=       -0.000000219615 Rises=F Damp=F
 DIIS: error= 4.29D-06 at cycle  13 NSaved=  13.
 NSaved=13 IEnMin=13 EnMin= -1471.61876970595     IErMin=13 ErrMin= 4.29D-06
 ErrMax= 4.29D-06  0.00D+00 EMaxC= 1.00D-01 BMatC= 5.65D-08 BMatP= 1.73D-07
 IDIUse=1 WtCom= 1.00D+00 WtEn= 0.00D+00
 Coeff-Com:  0.322D-04-0.680D-04-0.340D-03-0.110D-02-0.699D-03 0.601D-02
 Coeff-Com:  0.196D-01 0.115D-01-0.507D-01-0.175D+00 0.555D-01 0.523D+00
 Coeff-Com:  0.612D+00
 Coeff:      0.322D-04-0.680D-04-0.340D-03-0.110D-02-0.699D-03 0.601D-02
 Coeff:      0.196D-01 0.115D-01-0.507D-01-0.175D+00 0.555D-01 0.523D+00
 Coeff:      0.612D+00
 Gap=     0.140 Goal=   None    Shift=    0.000
 Gap=     0.038 Goal=   None    Shift=    0.000
 RMSDP=4.41D-07 MaxDP=5.83D-05 DE=-2.20D-07 OVMax= 2.00D-04

 Cycle  14  Pass 1  IDiag  1:
 RMSU=  2.55D-07    CP:  9.52D-01  2.02D+00  8.24D-01  8.15D-01  9.14D-01
                    CP:  1.68D+00  1.98D+00  2.36D+00  2.03D+00  2.00D+00
                    CP:  1.53D+00  1.38D+00  1.03D+00
 E= -1471.61876973854     Delta-E=       -0.000000032599 Rises=F Damp=F
 DIIS: error= 2.05D-06 at cycle  14 NSaved=  14.
 NSaved=14 IEnMin=14 EnMin= -1471.61876973854     IErMin=14 ErrMin= 2.05D-06
 ErrMax= 2.05D-06  0.00D+00 EMaxC= 1.00D-01 BMatC= 1.30D-08 BMatP= 5.65D-08
 IDIUse=1 WtCom= 1.00D+00 WtEn= 0.00D+00
 Coeff-Com:  0.230D-04-0.195D-04-0.205D-03-0.899D-03-0.161D-02-0.245D-02
 Coeff-Com:  0.296D-02 0.215D-01 0.112D-01-0.465D-01-0.735D-01-0.394D-01
 Coeff-Com:  0.326D+00 0.803D+00
 Coeff:      0.230D-04-0.195D-04-0.205D-03-0.899D-03-0.161D-02-0.245D-02
 Coeff:      0.296D-02 0.215D-01 0.112D-01-0.465D-01-0.735D-01-0.394D-01
 Coeff:      0.326D+00 0.803D+00
 Gap=     0.140 Goal=   None    Shift=    0.000
 Gap=     0.038 Goal=   None    Shift=    0.000
 RMSDP=2.83D-07 MaxDP=3.27D-05 DE=-3.26D-08 OVMax= 1.27D-04

 Cycle  15  Pass 1  IDiag  1:
 RMSU=  1.15D-07    CP:  9.52D-01  2.02D+00  8.24D-01  8.15D-01  9.15D-01
                    CP:  1.68D+00  1.98D+00  2.37D+00  2.04D+00  2.02D+00
                    CP:  1.58D+00  1.50D+00  1.36D+00  1.15D+00
 E= -1471.61876975026     Delta-E=       -0.000000011720 Rises=F Damp=F
 DIIS: error= 8.96D-07 at cycle  15 NSaved=  15.
 NSaved=15 IEnMin=15 EnMin= -1471.61876975026     IErMin=15 ErrMin= 8.96D-07
 ErrMax= 8.96D-07  0.00D+00 EMaxC= 1.00D-01 BMatC= 3.06D-09 BMatP= 1.30D-08
 IDIUse=1 WtCom= 1.00D+00 WtEn= 0.00D+00
 Coeff-Com:  0.538D-05 0.292D-05-0.180D-04-0.182D-03-0.578D-03-0.239D-02
 Coeff-Com: -0.275D-02 0.708D-02 0.168D-01 0.160D-01-0.439D-01-0.127D+00
 Coeff-Com:  0.196D-01 0.349D+00 0.768D+00
 Coeff:      0.538D-05 0.292D-05-0.180D-04-0.182D-03-0.578D-03-0.239D-02
 Coeff:     -0.275D-02 0.708D-02 0.168D-01 0.160D-01-0.439D-01-0.127D+00
 Coeff:      0.196D-01 0.349D+00 0.768D+00
 Gap=     0.140 Goal=   None    Shift=    0.000
 Gap=     0.038 Goal=   None    Shift=    0.000
 RMSDP=1.29D-07 MaxDP=1.67D-05 DE=-1.17D-08 OVMax= 4.44D-05

 Cycle  16  Pass 1  IDiag  1:
 RMSU=  6.35D-08    CP:  9.52D-01  2.02D+00  8.24D-01  8.15D-01  9.15D-01
                    CP:  1.68D+00  1.98D+00  2.37D+00  2.04D+00  2.03D+00
                    CP:  1.59D+00  1.55D+00  1.49D+00  1.42D+00  1.20D+00
 E= -1471.61876975315     Delta-E=       -0.000000002883 Rises=F Damp=F
 DIIS: error= 5.33D-07 at cycle  16 NSaved=  16.
 NSaved=16 IEnMin=16 EnMin= -1471.61876975315     IErMin=16 ErrMin= 5.33D-07
 ErrMax= 5.33D-07  0.00D+00 EMaxC= 1.00D-01 BMatC= 1.04D-09 BMatP= 3.06D-09
 IDIUse=1 WtCom= 1.00D+00 WtEn= 0.00D+00
 Coeff-Com: -0.617D-05 0.950D-05 0.748D-04 0.268D-03 0.367D-03-0.253D-03
 Coeff-Com: -0.246D-02-0.501D-02 0.449D-02 0.249D-01 0.365D-02-0.525D-01
 Coeff-Com: -0.107D+00-0.121D+00 0.409D+00 0.846D+00
 Coeff:     -0.617D-05 0.950D-05 0.748D-04 0.268D-03 0.367D-03-0.253D-03
 Coeff:     -0.246D-02-0.501D-02 0.449D-02 0.249D-01 0.365D-02-0.525D-01
 Coeff:     -0.107D+00-0.121D+00 0.409D+00 0.846D+00
 Gap=     0.140 Goal=   None    Shift=    0.000
 Gap=     0.038 Goal=   None    Shift=    0.000
 RMSDP=1.06D-07 MaxDP=1.46D-05 DE=-2.88D-09 OVMax= 5.86D-05

 Cycle  17  Pass 1  IDiag  1:
 RMSU=  3.95D-08    CP:  9.52D-01  2.02D+00  8.24D-01  8.15D-01  9.15D-01
                    CP:  1.68D+00  1.98D+00  2.37D+00  2.05D+00  2.03D+00
                    CP:  1.60D+00  1.58D+00  1.58D+00  1.60D+00  1.67D+00
                    CP:  1.22D+00
 E= -1471.61876975451     Delta-E=       -0.000000001364 Rises=F Damp=F
 DIIS: error= 3.97D-07 at cycle  17 NSaved=  17.
 NSaved=17 IEnMin=17 EnMin= -1471.61876975451     IErMin=17 ErrMin= 3.97D-07
 ErrMax= 3.97D-07  0.00D+00 EMaxC= 1.00D-01 BMatC= 2.42D-10 BMatP= 1.04D-09
 IDIUse=1 WtCom= 1.00D+00 WtEn= 0.00D+00
 Coeff-Com: -0.426D-05 0.421D-05 0.313D-04 0.132D-03 0.257D-03 0.396D-03
 Coeff-Com: -0.137D-03-0.309D-02-0.215D-02 0.444D-02 0.100D-01 0.941D-02
 Coeff-Com: -0.342D-01-0.110D+00-0.460D-01 0.300D+00 0.871D+00
 Coeff:     -0.426D-05 0.421D-05 0.313D-04 0.132D-03 0.257D-03 0.396D-03
 Coeff:     -0.137D-03-0.309D-02-0.215D-02 0.444D-02 0.100D-01 0.941D-02
 Coeff:     -0.342D-01-0.110D+00-0.460D-01 0.300D+00 0.871D+00
 Gap=     0.140 Goal=   None    Shift=    0.000
 Gap=     0.038 Goal=   None    Shift=    0.000
 RMSDP=4.89D-08 MaxDP=5.87D-06 DE=-1.36D-09 OVMax= 2.31D-05

 Cycle  18  Pass 1  IDiag  1:
 RMSU=  1.95D-08    CP:  9.52D-01  2.02D+00  8.24D-01  8.15D-01  9.15D-01
                    CP:  1.68D+00  1.98D+00  2.37D+00  2.05D+00  2.03D+00
                    CP:  1.61D+00  1.59D+00  1.62D+00  1.66D+00  1.88D+00
                    CP:  1.57D+00  1.36D+00
 E= -1471.61876975481     Delta-E=       -0.000000000301 Rises=F Damp=F
 DIIS: error= 2.15D-07 at cycle  18 NSaved=  18.
 NSaved=18 IEnMin=18 EnMin= -1471.61876975481     IErMin=18 ErrMin= 2.15D-07
 ErrMax= 2.15D-07  0.00D+00 EMaxC= 1.00D-01 BMatC= 1.18D-10 BMatP= 2.42D-10
 IDIUse=1 WtCom= 1.00D+00 WtEn= 0.00D+00
 Coeff-Com:  0.959D-07-0.173D-05-0.922D-05-0.181D-04 0.311D-04 0.316D-03
 Coeff-Com:  0.832D-03-0.732D-04-0.308D-02-0.598D-02 0.509D-02 0.248D-01
 Coeff-Com:  0.173D-01-0.293D-01-0.188D+00-0.894D-01 0.553D+00 0.714D+00
 Coeff:      0.959D-07-0.173D-05-0.922D-05-0.181D-04 0.311D-04 0.316D-03
 Coeff:      0.832D-03-0.732D-04-0.308D-02-0.598D-02 0.509D-02 0.248D-01
 Coeff:      0.173D-01-0.293D-01-0.188D+00-0.894D-01 0.553D+00 0.714D+00
 Gap=     0.140 Goal=   None    Shift=    0.000
 Gap=     0.038 Goal=   None    Shift=    0.000
 RMSDP=3.38D-08 MaxDP=3.90D-06 DE=-3.01D-10 OVMax= 1.85D-05

 Cycle  19  Pass 1  IDiag  1:
 RMSU=  1.19D-08    CP:  9.52D-01  2.02D+00  8.24D-01  8.15D-01  9.15D-01
                    CP:  1.68D+00  1.98D+00  2.37D+00  2.05D+00  2.04D+00
                    CP:  1.61D+00  1.60D+00  1.63D+00  1.70D+00  2.02D+00
                    CP:  1.79D+00  1.81D+00  1.07D+00
 E= -1471.61876975505     Delta-E=       -0.000000000236 Rises=F Damp=F
 DIIS: error= 1.30D-07 at cycle  19 NSaved=  19.
 NSaved=19 IEnMin=19 EnMin= -1471.61876975505     IErMin=19 ErrMin= 1.30D-07
 ErrMax= 1.30D-07  0.00D+00 EMaxC= 1.00D-01 BMatC= 3.26D-11 BMatP= 1.18D-10
 IDIUse=1 WtCom= 1.00D+00 WtEn= 0.00D+00
 Coeff-Com:  0.747D-06-0.111D-05-0.120D-04-0.442D-04-0.520D-04 0.543D-05
 Coeff-Com:  0.419D-03 0.867D-03-0.854D-03-0.377D-02-0.786D-03 0.763D-02
 Coeff-Com:  0.181D-01 0.203D-01-0.736D-01-0.114D+00-0.590D-01 0.338D+00
 Coeff-Com:  0.867D+00
 Coeff:      0.747D-06-0.111D-05-0.120D-04-0.442D-04-0.520D-04 0.543D-05
 Coeff:      0.419D-03 0.867D-03-0.854D-03-0.377D-02-0.786D-03 0.763D-02
 Coeff:      0.181D-01 0.203D-01-0.736D-01-0.114D+00-0.590D-01 0.338D+00
 Coeff:      0.867D+00
 Gap=     0.140 Goal=   None    Shift=    0.000
 Gap=     0.038 Goal=   None    Shift=    0.000
 RMSDP=2.11D-08 MaxDP=2.30D-06 DE=-2.36D-10 OVMax= 1.13D-05

 Cycle  20  Pass 1  IDiag  1:
 RMSU=  6.37D-09    CP:  9.52D-01  2.02D+00  8.24D-01  8.15D-01  9.15D-01
                    CP:  1.68D+00  1.98D+00  2.37D+00  2.05D+00  2.04D+00
                    CP:  1.61D+00  1.60D+00  1.64D+00  1.72D+00  2.10D+00
                    CP:  1.92D+00  2.09D+00  1.49D+00  1.27D+00
 E= -1471.61876975504     Delta-E=        0.000000000012 Rises=F Damp=F
 DIIS: error= 8.81D-08 at cycle  20 NSaved=  20.
 NSaved=20 IEnMin=19 EnMin= -1471.61876975505     IErMin=20 ErrMin= 8.81D-08
 ErrMax= 8.81D-08  0.00D+00 EMaxC= 1.00D-01 BMatC= 1.46D-11 BMatP= 3.26D-11
 IDIUse=1 WtCom= 1.00D+00 WtEn= 0.00D+00
 Coeff-Com:  0.429D-06-0.789D-07-0.466D-05-0.230D-04-0.430D-04-0.119D-03
 Coeff-Com: -0.401D-05 0.658D-03 0.560D-03-0.302D-03-0.255D-02-0.441D-02
 Coeff-Com:  0.664D-02 0.264D-01 0.192D-01-0.386D-01-0.273D+00-0.210D-01
 Coeff-Com:  0.601D+00 0.686D+00
 Coeff:      0.429D-06-0.789D-07-0.466D-05-0.230D-04-0.430D-04-0.119D-03
 Coeff:     -0.401D-05 0.658D-03 0.560D-03-0.302D-03-0.255D-02-0.441D-02
 Coeff:      0.664D-02 0.264D-01 0.192D-01-0.386D-01-0.273D+00-0.210D-01
 Coeff:      0.601D+00 0.686D+00
 Gap=     0.140 Goal=   None    Shift=    0.000
 Gap=     0.038 Goal=   None    Shift=    0.000
 RMSDP=1.22D-08 MaxDP=1.30D-06 DE= 1.18D-11 OVMax= 6.00D-06

 Cycle  21  Pass 1  IDiag  1:
 Restarting incremental Fock formation.
 E= -1471.61876975512     Delta-E=       -0.000000000080 Rises=F Damp=F
 DIIS: error= 3.38D-08 at cycle  21 NSaved=  20.
 NSaved=20 IEnMin=20 EnMin= -1471.61876975512     IErMin=20 ErrMin= 3.38D-08
 ErrMax= 3.38D-08  0.00D+00 EMaxC= 1.00D-01 BMatC= 1.76D-12 BMatP= 1.46D-11
 IDIUse=1 WtCom= 1.00D+00 WtEn= 0.00D+00
 Coeff-Com:  0.155D-06 0.109D-05 0.284D-05-0.103D-05-0.531D-04-0.104D-03
 Coeff-Com:  0.374D-05 0.388D-03 0.827D-03-0.708D-03-0.340D-02-0.171D-02
 Coeff-Com:  0.434D-02 0.220D-01 0.180D-01-0.919D-01-0.758D-01-0.368D-02
 Coeff-Com:  0.245D+00 0.887D+00
 Coeff:      0.155D-06 0.109D-05 0.284D-05-0.103D-05-0.531D-04-0.104D-03
 Coeff:      0.374D-05 0.388D-03 0.827D-03-0.708D-03-0.340D-02-0.171D-02
 Coeff:      0.434D-02 0.220D-01 0.180D-01-0.919D-01-0.758D-01-0.368D-02
 Coeff:      0.245D+00 0.887D+00
 Gap=     0.140 Goal=   None    Shift=    0.000
 Gap=     0.038 Goal=   None    Shift=    0.000
 RMSDP=5.56D-09 MaxDP=5.13D-07 DE=-8.00D-11 OVMax= 3.26D-06

 Error on total polarization charges =  0.04427
 SCF Done:  E(UB3LYP) =  -1471.61876976     A.U. after   21 cycles
            NFock= 21  Conv=0.56D-08     -V/T= 2.0096
 <Sx>= 0.0000 <Sy>= 0.0000 <Sz>= 0.5000 <S**2>= 0.7621 S= 0.5061
 <L.S>= 0.000000000000E+00
 KE= 1.457620290350D+03 PE=-1.004533110768D+04 EE= 3.787283042538D+03
 Annihilation of the first spin contaminant:
[...]
 0274,0.00000124,-0.00003355,0.00000234,0.00003652,0.00000523,-0.000003
 90,0.00000072,0.00003656,0.00000377,0.00003003,0.00004554,0.00000639,-
 0.00002473,0.00000477,0.00000212,0.00000227,-0.00000098,0.00000039,0.0
 0000211,-0.00000433,-0.00000030,-0.00000358,0.00000679,-0.00000004,0.0
 0000572,0.00000232,0.00000004,-0.00000136,0.00000591,-0.00000028,0.000
 00531,0.00000094,0.00000009,-0.00000040,-0.00000486,0.00000029,0.00000
 488,-0.00000068,-0.00000036,-0.00001346,-0.00000449,-0.00000031,-0.000
 00135,0.00000002,0.,0.00000059,0.,0.00000011,0.00000040,0.00000219,0.0
 0000008,-0.00000107,-0.00000357,0.00000084,0.00002154,-0.00000548,0.00
 000012,0.00000069,-0.00000490,0.00000041,0.00000070,0.00000087,0.00000
 023,0.00000120,-0.00000231,0.00000014,-0.00000175,0.00000010,-0.000000
 20,-0.00000013,0.00000015,-0.00000005,-0.00000233,0.00000072,-0.000000
 30,-0.00000011,-0.00000006,0.00000005,0.00000008,-0.00000013,0.0000000
 3,-0.00000015,0.00000004,-0.00000008,0.00000006,0.,0.00000010,-0.00000
 009,-0.00000011,0.00000008,0.00000006,-0.00000009,-0.00000006,0.000000
 04,0.00000032,-0.00000010,0.00000019,0.00000001,0.00000016,0.00000026,
 0.00000004,-0.00000005,0.00000014,0.00000001,0.00000006,0.00000016,0.0
 0000432,-0.00000032,-0.00000119,-0.00000109,0.00000001,0.00000305,0.00
 000494,-0.00000023,0.00000406,0.00000197,-0.00000013,-0.00000766,-0.00
 000383,0.,0.00004505,0.00003086,-0.00000464,-0.00003420,-0.00001878,0.
 00000332,-0.00019116,0.00008413,0.00010029,0.00004604,0.00009904,-0.00
 005108,0.00030908,0.00022563,-0.00014434,-0.00123963,0.00005515,-0.000
 56013,0.00006764,0.00016677,0.00003148,-0.00148131,-0.01641898,0.00182
 689,0.00028899,0.00009450,0.00048905,0.00017358,0.00046589,-0.00059652
 ,-0.00009627,-0.00003982,-0.00010352,0.00003668,-0.00004955,0.00010139
 ,-0.03753622,-0.29075239,0.03368689,0.00345883,-0.00058277,-0.00006897
 ,0.00010684,0.00088483,-0.00057328,-0.00133067,-0.00503135,0.00086076,
 0.00005626,0.00026630,0.00014306,0.00026156,0.00031931,0.00021606,-0.0
 0169735,-0.01009013,0.00105865,0.03953813,0.31872960,-0.00000137,-0.00
 001699,0.00000050,-0.00000172,0.00000158,0.00000225,0.00000161,-0.0000
 0931,0.00000037,0.00000989,0.00000112,-0.00000052,0.00000519,0.0000123
 4,0.00000246,0.00001420,-0.00000952,-0.00002530,-0.00001082,0.00000283
 ,0.00000113,0.00000067,-0.00000031,-0.00000005,0.00000094,-0.00000183,
 -0.00000007,-0.00000154,0.00000107,-0.00000075,0.00000026,-0.00000213,
 0.00000024,0.00000295,0.00000201,0.00000014,-0.00000014,0.00000143,-0.
 00000022,0.00000318,0.00000071,-0.00000004,-0.00000071,-0.00000281,-0.
 00000019,-0.00000280,0.00000013,-0.00000007,0.00000327,-0.00000287,0.0
 0000050,0.00000007,-0.00000007,0.00000012,-0.00000015,-0.00000001,0.00
 000033,0.00000011,-0.00000050,0.00000101,0.00000586,-0.00000388,-0.000
 00035,0.00000094,-0.00000290,0.00000025,-0.00000139,0.00000478,-0.0000
 0020,0.00000391,-0.00000612,0.00000068,-0.00000470,0.00000250,-0.00000
 072,-0.00000049,0.00000025,-0.00000010,-0.00000240,0.00000087,-0.00000
 033,-0.00000010,0.00000004,0.00000003,0.00000018,-0.00000007,0.0000000
 5,0.00000076,-0.00000070,0.00000034,-0.00000006,-0.00000006,-0.0000000
 3,-0.00000020,-0.00000022,-0.00000008,-0.00000018,-0.00000022,-0.00000
 010,0.00000005,0.00000041,-0.00000012,0.00000013,0.00000001,0.00000004
 ,0.00000018,0.00000005,0.00000006,0.00000016,-0.00000002,0.00000005,0.
 00000006,0.00000302,-0.00000015,0.00000010,-0.00000035,0.00000017,-0.0
 0000052,0.00000112,-0.00000034,-0.00000082,0.00000278,-0.00000030,-0.0
 0000208,-0.00000064,0.00000014,0.00001384,0.00000964,-0.00000191,-0.00
 000887,-0.00000213,0.00000078,-0.00009621,-0.00005835,0.00000561,0.000
 03759,0.00000627,0.00002720,-0.00002736,0.00000216,-0.00006061,0.00012
 823,0.00074426,0.00010815,0.00000570,-0.00014671,-0.00013872,-0.000143
 11,-0.00172185,-0.00052881,-0.00017286,-0.00001944,0.00005478,0.000178
 54,0.00107112,0.00166062,0.00003367,-0.00009725,0.00003606,-0.00007732
 ,0.00001898,-0.00000477,0.00265878,0.03300892,-0.05514918,0.00064165,-
 0.00013940,0.00106399,-0.00065537,-0.00049252,0.00072996,0.00521496,0.
 02965425,-0.00566341,0.00011242,-0.00034188,0.00024425,-0.00023606,-0.
 00085134,-0.00005594,-0.00302189,-0.02361419,0.00372650,-0.00701936,-0
 .03755185,0.05785890,0.00000367,0.00006985,-0.00000449,0.00001074,-0.0
 0001085,0.00000073,-0.00000323,0.00004652,-0.00000301,-0.00005042,-0.0
 0000406,0.00000252,-0.00002033,-0.00005573,0.00000559,-0.00002846,0.00
 005468,-0.00000857,0.00005228,-0.00000935,-0.00000076,-0.00000312,0.00
 000138,-0.00000004,-0.00000418,0.00000779,-0.00000027,0.00000589,-0.00
 000500,0.00000008,-0.00000355,0.00000769,-0.00000072,-0.00001099,-0.00
 001004,-0.00000004,-0.00000136,-0.00000600,0.00000048,-0.00001168,-0.0
 0000014,-0.00000066,0.00000081,0.00001135,-0.00000005,0.00001711,0.000
 00132,0.00000056,-0.00001110,0.00001150,-0.00000171,-0.00000057,0.0000
 0033,-0.00000010,0.00000026,-0.00000088,-0.00000002,-0.00000016,0.0000
 0354,-0.00000074,-0.00002917,0.00001720,-0.00000086,-0.00000382,0.0000
 1388,-0.00000094,0.00000499,-0.00001873,0.00000072,-0.00001541,0.00002
 458,-0.00000279,0.00001894,-0.00000961,0.00000296,0.00000192,-0.000001
 27,0.00000036,0.00001048,-0.00000346,0.00000140,0.00000039,-0.00000017
 ,0.00000002,-0.00000078,0.00000034,-0.00000016,-0.00000277,0.00000272,
 -0.00000129,0.00000014,0.00000015,0.00000008,0.00000082,0.00000093,0.0
 0000020,0.00000069,0.00000087,0.00000049,-0.00000027,-0.00000180,0.000
 00058,-0.00000062,-0.00000010,-0.00000025,-0.00000082,-0.00000021,-0.0
 0000018,-0.00000071,0.00000007,-0.00000022,-0.00000063,-0.00001402,0.0
 0000045,0.00000050,0.00000197,-0.00000014,0.00000100,-0.00000731,0.000
 00099,0.00000147,-0.00001219,0.00000072,0.00001122,0.00000441,0.000000
 10,-0.00006731,-0.00003780,0.00000424,0.00004839,0.00001392,-0.0000027
 9,0.00006030,-0.00016170,0.00001993,0.00000268,-0.00002808,0.00000722,
 -0.00005893,0.00015670,0.00001738,0.00089161,0.00006139,-0.00013473,-0
 .00061920,-0.00254265,-0.00366739,0.00025246,-0.00150934,0.00325857,-0
 .00007153,-0.00007124,0.00002058,-0.01634943,0.00993246,0.00079638,0.0
 0012221,0.00015183,0.00003265,-0.00126461,0.00065223,0.00008834,-0.012
 31909,0.00735947,-0.00016258,0.00006805,0.00014526,-0.00007564,-0.0009
 7370,0.00054397,-0.00001843,-0.23757066,0.11497159,0.00466963,0.000630
 63,0.00012640,-0.00002806,0.00063375,-0.00026924,0.00060352,0.00060715
 ,-0.00001963,0.00010804,0.00031294,-0.00019913,-0.00038479,0.25918541,
 0.00000140,-0.00000039,-0.00000004,0.00000059,0.00000093,-0.00000008,-
 0.00000049,-0.00000159,0.00000011,0.00000271,0.00000157,0.00000016,-0.
 00000402,0.00000129,0.00000036,0.00000538,0.00000432,-0.00000596,-0.00
 000455,0.00000070,0.00000017,0.00000036,-0.00000001,-0.00000006,-0.000
 00023,-0.00000012,0.,0.00000008,0.00000181,-0.00000019,0.00000069,-0.0
 0000344,0.00000027,0.00000378,0.00000199,0.00000010,-0.00000046,0.0000
 0146,-0.00000016,0.00000335,0.00000102,0.00000012,-0.00000122,-0.00000
 327,0.00000008,-0.00000340,0.00000026,-0.00000012,0.00000365,-0.000003
 36,0.00000054,0.,-0.00000014,0.00000001,-0.00000021,-0.00000011,0.,0.0
 0000006,-0.00000027,0.00000001,0.00000282,-0.00000135,0.00000015,0.000
 00113,-0.00000352,0.00000026,-0.00000156,0.00000532,-0.00000026,0.0000
 0427,-0.00000698,0.00000079,-0.00000558,0.00000263,-0.00000089,-0.0000
 0036,0.00000063,-0.00000008,-0.00000302,0.00000078,-0.00000040,-0.0000
 0007,0.00000003,0.,0.00000022,-0.00000010,0.00000005,0.00000072,-0.000
 00078,0.00000038,0.,-0.00000002,-0.00000001,-0.00000024,-0.00000024,-0
 .00000006,-0.00000018,-0.00000024,-0.00000016,0.00000012,0.00000057,-0
 .00000017,0.00000016,0.00000002,0.00000005,0.00000021,0.00000005,0.000
 00007,0.00000019,-0.00000003,0.00000006,-0.00000005,0.00000383,-0.0000
 0013,0.00000038,-0.00000051,0.00000008,-0.00000145,0.00000172,-0.00000
 029,-0.00000146,0.00000333,-0.00000024,-0.00000173,-0.00000079,-0.0000
 0005,0.00000260,-0.00000059,0.00000008,-0.00000314,0.00000020,-0.00000
 045,-0.00000981,-0.00001311,0.00001198,-0.00001330,0.00000574,0.000001
 92,0.00002016,0.00002968,0.00002700,0.00013251,-0.00014394,-0.00007530
 ,-0.00095490,0.00009093,-0.00139144,-0.00043468,0.00072887,0.00053816,
 -0.00001608,-0.00002535,0.00001503,-0.01026353,0.00496415,0.00032684,-
 0.00024420,0.00032528,-0.00003918,-0.00032962,0.00035521,-0.00015321,-
 0.00592101,0.00204142,0.00064525,-0.00029303,0.00034564,0.00002253,0.0
 0003476,0.00026448,0.00011826,0.11665309,-0.11916141,-0.00271906,0.000
 47885,0.00005122,0.00046903,0.00023508,0.00094373,0.00060070,0.0001884
 7,0.00000223,-0.00029767,0.00018072,0.00045340,-0.00062263,-0.12591892
 ,0.12443890,-0.00000075,-0.00000443,0.00000003,-0.00000044,0.00000085,
 0.00000073,0.00000026,-0.00000281,-0.00000008,0.00000316,0.00000021,0.
 00000404,0.00000212,0.00000369,0.00000308,-0.00000054,-0.00000875,-0.0
 0005778,-0.00000306,0.00000050,0.00000179,0.00000017,-0.00000013,-0.00
 000050,0.00000033,-0.00000051,-0.00000010,-0.00000051,0.00000016,-0.00
 000159,0.00000027,-0.00000037,-0.00000019,0.00000055,0.00000067,-0.000
 00015,0.00000022,0.00000031,0.00000008,0.00000056,-0.00000007,0.000000
 35,-0.00000011,-0.00000048,0.00000066,-0.00000101,-0.00000015,-0.00000
 038,0.00000068,-0.00000044,-0.00000018,0.00000005,-0.00000003,-0.00000
 011,0.,0.00000007,-0.00000027,-0.00000001,-0.00000036,-0.00000102,0.00
 000209,-0.00000120,0.00000025,0.00000026,-0.00000077,-0.00000007,-0.00
 000012,0.00000093,-0.00000009,0.00000075,-0.00000130,0.00000024,-0.000
 00105,0.00000037,-0.00000018,-0.00000002,0.00000008,0.,-0.00000061,0.0
 0000024,-0.00000012,0.,0.,-0.00000010,0.00000004,-0.00000002,0.,0.0000
 0009,-0.00000005,0.00000005,0.,-0.00000002,-0.00000007,0.00000003,-0.0
 0000005,0.,-0.00000006,-0.00000004,-0.00000002,0.,0.00000006,-0.000000
 06,0.00000003,0.00000004,0.00000002,0.00000004,0.,0.,0.00000005,0.,0.,
 -0.00000013,0.00000081,0.00000018,0.00000011,-0.00000016,-0.00000013,-
 0.00000008,0.00000043,0.00000031,-0.00000004,0.00000056,0.00000031,-0.
 00000065,-0.00000033,-0.00000057,0.00000578,0.00000244,0.00000090,-0.0
 0000447,-0.00000188,-0.00000578,0.00000136,0.00002142,0.00010114,-0.00
 000185,0.00000651,0.00001189,0.00004006,0.00001843,0.00034889,-0.00016
 303,-0.00007623,-0.00087668,-0.00235374,-0.00287250,-0.00412344,0.0017
 4747,0.00223054,-0.00562611,0.00001743,0.00001984,0.00012265,-0.022412
 58,0.01477585,0.00093219,0.00031750,-0.00006665,-0.00002503,-0.0017916
 6,0.00056932,0.00009049,0.02607302,-0.01644006,-0.00053715,-0.00028953
 ,-0.00000917,0.00002334,0.00199306,-0.00072327,-0.00011459,0.00435878,
 -0.00257200,-0.04708570,0.00101624,0.00051709,0.00072406,0.00083544,-0
 .00017083,0.00096616,-0.00085986,-0.00029860,0.00101462,-0.00069900,0.
 00019986,0.00122047,-0.00490621,0.00324602,0.05334322,0.00000238,-0.00
 000285,0.00000020,0.00000034,0.00000130,-0.00000015,-0.00000130,-0.000
 00067,0.00000009,0.00000268,0.00000198,-0.00000022,-0.00000548,0.00000
 010,0.00000016,0.00000741,0.00001574,-0.00000346,0.00000009,-0.0000002
 2,0.00000007,0.00000036,0.00000004,-0.00000002,-0.00000049,0.00000040,
 0.00000003,0.00000045,0.00000210,-0.00000001,0.00000150,-0.00000002,0.
 00000005,-0.00000035,0.00000113,-0.00000009,0.00000112,0.00000005,0.00
 000006,-0.00000011,-0.00000113,0.00000012,0.00000088,0.,0.00000005,-0.
 00000289,-0.00000089,-0.00000005,-0.00000055,-0.00000007,-0.00000003,0
 .00000015,0.,0.,0.00000010,0.00000042,-0.00000007,0.00000004,-0.000000
 67,-0.00000003,0.00000148,0.00000155,-0.00000006,0.00000011,-0.0000011
 6,0.00000008,0.00000028,0.00000003,0.00000005,0.00000010,-0.00000041,0
 .00000001,-0.00000034,-0.00000013,-0.00000003,0.00000006,0.00000012,0.
 ,-0.00000057,0.00000009,-0.00000008,-0.00000001,-0.00000002,0.00000001
 ,0.,-0.00000003,0.,-0.00000013,0.00000007,-0.00000005,0.00000004,0.,0.
 00000004,-0.00000002,0.,0.00000003,0.00000003,0.,-0.00000002,0.,0.0000
 0010,-0.00000004,0.00000005,0.,0.00000004,0.00000007,0.,0.,0.00000004,
 0.,0.00000002,0.00000010,0.00000104,-0.00000004,-0.00000031,-0.0000002
 9,-0.00000003,0.00000031,0.00000131,-0.00000005,0.00000090,0.00000046,
 0.00000002,-0.00000127,-0.00000087,0.,-0.00000046,0.00000013,-0.000000
 19,0.00000108,-0.00000098,0.00000003,-0.00004384,-0.00004432,0.0000087
 8,-0.00004977,-0.00003281,0.00000720,-0.00002972,0.00004558,0.00000906
 ,-0.00003838,0.00009673,-0.00003278,0.00086895,-0.00103826,0.00062002,
 0.00058971,-0.00105787,-0.00040639,0.00009167,0.00011551,-0.00002085,-
 0.00521517,-0.01913427,0.00137959,-0.00036445,0.00017660,-0.00009222,0
 .00021125,0.00021888,-0.00004637,-0.00417418,-0.01480790,0.00209555,-0
 .00012619,0.00035925,0.00010457,0.00016504,0.00019235,-0.00003114,-0.0
 6160322,-0.05233075,0.00633587,0.00054102,0.00053931,0.00031252,-0.001
 70142,-0.00139829,-0.00311450,0.00048475,0.00056367,-0.00032053,-0.000
 62244,-0.00064814,0.00279531,0.00653978,0.02647396,-0.00292686,0.06446
 873,0.00000271,0.00001836,-0.00000122,0.00000255,-0.00000224,0.0000000
 6,-0.00000289,0.00001375,-0.00000081,-0.00001286,0.00000089,0.00000043
 ,-0.00001456,-0.00001880,0.00000197,-0.00000234,0.00003029,-0.00000436
 ,0.00002099,-0.00000329,-0.00000023,-0.00000087,0.00000053,-0.00000003
 ,-0.00000221,0.00000371,-0.00000009,0.00000508,0.00000089,-0.00000014,
 0.00000118,0.00000509,-0.00000036,-0.00000703,-0.00000287,-0.00000023,
 0.00000211,-0.00000277,0.00000037,-0.00000651,-0.00000300,-0.00000006,
 0.00000249,0.00000629,-0.00000008,0.00000261,-0.00000140,0.00000017,-0
 .00000788,0.00000623,-0.00000109,0.00000011,0.00000011,-0.00000003,0.0
 0000045,0.00000052,-0.00000012,-0.00000015,-0.00000018,-0.00000023,-0.
 00000967,0.00000971,-0.00000052,-0.00000201,0.00000450,-0.00000033,0.0
 0000365,-0.00001065,0.00000058,-0.00000864,0.00001333,-0.00000160,0.00
 001027,-0.00000590,0.00000165,0.00000119,-0.00000044,0.00000019,0.0000
 0449,-0.00000179,0.00000060,0.00000019,-0.00000014,0.00000007,-0.00000
 045,0.00000011,-0.00000008,-0.00000194,0.00000163,-0.00000082,0.000000
 29,0.00000013,0.00000017,0.00000038,0.00000054,0.00000010,0.00000044,0
 .00000049,0.00000025,-0.00000008,-0.00000072,0.00000025,-0.00000022,-0
 .00000009,-0.00000006,-0.00000029,-0.00000014,-0.00000010,-0.00000034,
 0.00000006,-0.00000010,-0.00000001,-0.00000507,0.00000015,-0.00000063,
 0.00000034,-0.00000011,0.00000231,-0.00000080,0.00000045,0.00000321,-0
 .00000558,0.00000043,0.00000245,0.00000015,0.00000010,-0.00002605,-0.0
 0000916,0.00000100,0.00002080,0.00000196,-0.00000052,-0.00003394,-0.00
 012805,0.00001583,-0.00023639,-0.00009673,0.00004177,-0.00012863,0.000
 09610,0.00001300,0.00013378,0.00020551,-0.00005290,0.00067800,0.000551
 20,0.00048011,0.00039218,0.00054209,-0.00049389,0.00008582,-0.00010810
 ,-0.00000198,-0.00199698,-0.01005569,0.00028451,-0.00070314,0.00006559
 ,0.00007070,-0.00006159,0.00029089,-0.00012711,-0.00080712,-0.00525749
 ,0.00103167,-0.00046356,0.00004503,-0.00013013,-0.00010182,0.00027275,
 0.00007663,-0.05337342,-0.28619136,0.02552314,0.00011012,0.00043571,-0
 .00029364,-0.00140126,0.00057788,-0.00196198,0.00014555,0.00052496,0.0
 0042103,-0.00044327,0.00110745,0.00116644,-0.00346964,-0.01570368,0.00
 163641,0.06169301,0.31278136,-0.00000061,-0.00000078,0.00000039,-0.000
 00007,0.00000008,0.00000003,0.00000029,-0.00000085,-0.00000004,0.00000
 064,-0.00000023,0.00000098,0.00000155,0.00000143,-0.00000006,-0.000001
 13,-0.00000497,-0.00001453,-0.00000170,0.00000018,0.00000039,0.0000000
 2,-0.00000004,-0.00000007,0.00000023,-0.00000029,0.00000022,-0.0000004
 3,-0.00000020,0.00000094,-0.00000016,-0.00000047,-0.00000007,0.0000006
 2,0.00000018,-0.00000007,-0.00000021,0.00000020,0.00000006,0.00000051,
 0.00000031,0.00000022,-0.00000036,-0.00000048,0.00000036,-0.00000002,0
 .00000019,-0.00000007,0.00000072,-0.00000046,0.,0.,-0.00000002,-0.0000
 0009,-0.00000004,-0.00000008,-0.00000026,0.,0.00000001,-0.00000057,0.0
 0000068,-0.00000097,0.00000007,0.00000019,-0.00000032,-0.00000002,-0.0
 0000027,0.00000083,-0.00000007,0.00000067,-0.00000106,0.00000015,-0.00
 000086,0.00000042,-0.00000014,-0.00000005,0.00000005,0.,-0.00000037,0.
 00000015,-0.00000006,0.,0.00000001,-0.00000002,0.00000004,-0.00000001,
 0.,0.00000014,-0.00000009,0.00000006,-0.00000003,-0.00000001,-0.000000
 02,-0.00000001,-0.00000005,0.,-0.00000003,-0.00000003,-0.00000002,0.,0
 .00000004,-0.00000003,0.00000002,0.00000002,0.,0.00000002,0.,0.,0.0000
 0003,0.,0.,-0.00000009,0.00000041,0.00000008,0.00000016,-0.00000004,-0
 .00000007,-0.00000026,0.00000001,0.00000007,-0.00000034,0.00000041,0.0
 0000013,-0.00000010,0.00000002,-0.00000016,0.00000243,0.00000049,0.000
 00009,-0.00000211,-0.00000034,-0.00000096,0.00000783,0.00001697,0.0000
 2598,0.00002025,0.00000965,-0.00000592,0.00002487,0.00000012,0.0001249
 3,-0.00003125,-0.00005624,-0.00028117,0.00118069,-0.00028931,0.0008891
 5,-0.00121038,0.00054544,0.00117647,-0.00001927,-0.00000535,-0.0000519
 3,-0.00652969,-0.02648200,0.00092072,-0.00005884,0.00054643,0.00006877
 ,0.00030937,0.00015529,-0.00009721,0.00719417,0.03029805,-0.00552537,0
 .00021155,-0.00065714,0.00010356,-0.00034019,-0.00025243,-0.00002659,0
 .00639265,0.02538840,-0.04912456,0.00092842,0.00037009,0.00105420,-0.0
 0405554,-0.00171318,-0.00350265,-0.00082465,-0.00038430,0.00124296,0.0
 0371045,0.00092949,-0.00511478,-0.00023684,-0.00071834,-0.00045392,-0.
 00667329,-0.02769531,0.05859051\\0.00000010,-0.00000198,0.00000717,0.0
 0000211,-0.00000047,0.00001128,0.00000219,-0.00000069,0.00001978,0.000
 00282,-0.00000066,0.00002354,0.00000135,-0.00000229,0.00001959,0.00000
 121,-0.00000197,0.00001127,-0.00000049,-0.00000141,-0.00000144,0.00000
 247,-0.00000005,0.00002295,0.00000325,-0.00000062,0.00003008,0.0000028
 7,-0.00000149,0.00002275,-0.00000136,0.00000023,-0.00000852,-0.0000017
 3,0.00000041,-0.00001510,-0.00000327,-0.00000174,-0.00002256,-0.000002
 01,-0.00000218,-0.00002283,-0.00000164,-0.00000260,-0.00001605,-0.0000
 0121,-0.00000167,-0.00000834,-0.00000012,0.00000248,-0.00000484,-0.000
 00276,-0.00000016,-0.00002804,-0.00000324,-0.00000332,-0.00002868,-0.0
 0000211,-0.00000377,-0.00001656,0.00000028,-0.00000156,0.00000635,-0.0
 0000083,0.00000494,-0.00000506,-0.00000061,0.00000364,-0.00000055,0.00
 000135,0.00000399,0.00000761,0.00000178,0.00000549,0.00001184,0.000000
 22,0.00000742,0.00000718,0.00000040,0.00000716,-0.00000085,0.00000108,
 0.00000242,0.00001123,0.00000172,0.00000881,0.00001059,0.00000274,0.00
 000626,0.00002102,0.00000257,0.00000392,0.00002311,0.00000265,0.000011
 98,0.00002265,0.00000248,0.00000214,0.00002241,-0.00000003,0.00000972,
 -0.00000553,-0.00000070,0.00001380,-0.00001023,-0.00000092,0.00000388,
 -0.00000871,-0.00000003,0.00001112,-0.00000182,-0.00000166,0.00000604,
 -0.00001258,-0.00000114,0.00000334,-0.00001476,0.00000033,0.00000030,-
 0.00000191,-0.00000099,0.00000149,-0.00001290,0.00000018,0.00000072,0.
 00000368,0.00000059,-0.00000223,-0.00000031,-0.00000073,-0.00000280,-0
 .00000487,0.00000096,-0.00000265,0.00000671,0.00000095,-0.00000313,0.0
 0001058,-0.00000029,-0.00000395,-0.00000089,-0.00000056,-0.00000383,-0
 .00000470,-0.00000057,0.00000285,-0.00000301,-0.00000040,-0.00001186,-
 0.00000174,-0.00000131,-0.00000491,-0.00001084,-0.00000073,0.00000257,
 -0.00000696,0.00000052,0.00000411,0.00000321,-0.00000028,0.00000863,-0
 .00000513,-0.00000136,-0.00001263,-0.00000585,0.00000020,-0.00001143,0
 .00000474,-0.00000065,-0.00001703,-0.00000301,-0.00000094,-0.00000441,
 -0.00000455,-0.00000034,0.00000805,-0.00000617,-0.00000148,0.00000230,
 -0.00001369,-0.00000065,-0.00001759,-0.00000360,-0.00000164,-0.0000131
 8,-0.00001230,-0.00000071,-0.00000547,-0.00000766,0.00000012,-0.000004
 50,0.00000184\\\@


 LEARN FROM YESTERDAY,
 LIVE FOR TODAY,
 LOOK TO TOMORROW,
 REST THIS AFTERNOON.

           -- SNOOPY
 Job cpu time:       0 days 16 hours 57 minutes 13.7 seconds.
 Elapsed time:       0 days  1 hours  3 minutes 44.5 seconds.
 File lengths (MBytes):  RWF=   5668 Int=      0 D2E=      0 Chk=     76 Scr=      8
 Normal termination of Gaussian 16 at Fri Dec 14 11:48:30 2018.
