 Entering Gaussian System, Link 0=g16
 Initial command:
 /gpfs/apps/hpc/Apps/Restricted/Gaussian/Rev_A.03/g16/l1.exe "/gpfs/scratch60/fas/hammes_schiffer/jg2487/c42n04/Gau-376707.inp" -scrdir="/gpfs/scratch60/fas/hammes_schiffer/jg2487/c42n04/"
 Entering Link 1 = /gpfs/apps/hpc/Apps/Restricted/Gaussian/Rev_A.03/g16/l1.exe PID=    376708.
  
 Copyright (c) 1988,1990,1992,1993,1995,1998,2003,2009,2016,
            Gaussian, Inc.  All Rights Reserved.
  
 This is part of the Gaussian(R) 16 program.  It is based on
 the Gaussian(R) 09 system (copyright 2009, Gaussian, Inc.),
 the Gaussian(R) 03 system (copyright 2003, Gaussian, Inc.),
 the Gaussian(R) 98 system (copyright 1998, Gaussian, Inc.),
 the Gaussian(R) 94 system (copyright 1995, Gaussian, Inc.),
 the Gaussian 92(TM) system (copyright 1992, Gaussian, Inc.),
 the Gaussian 90(TM) system (copyright 1990, Gaussian, Inc.),
 the Gaussian 88(TM) system (copyright 1988, Gaussian, Inc.),
 the Gaussian 86(TM) system (copyright 1986, Carnegie Mellon
 University), and the Gaussian 82(TM) system (copyright 1983,
 Carnegie Mellon University). Gaussian is a federally registered
 trademark of Gaussian, Inc.
  
 This software contains proprietary and confidential information,
 including trade secrets, belonging to Gaussian, Inc.
  
 This software is provided under written license and may be
 used, copied, transmitted, or stored only in accord with that
 written license.
  
 The following legend is applicable only to US Government
 contracts under FAR:
  
                    RESTRICTED RIGHTS LEGEND
  
 Use, reproduction and disclosure by the US Government is
 subject to restrictions as set forth in subparagraphs (a)
 and (c) of the Commercial Computer Software - Restricted
 Rights clause in FAR 52.227-19.
  
 Gaussian, Inc.
 340 Quinnipiac St., Bldg. 40, Wallingford CT 06492
  
  
 ---------------------------------------------------------------
 Warning -- This program may not be used in any manner that
 competes with the business of Gaussian, Inc. or will provide
 assistance to any competitor of Gaussian, Inc.  The licensee
 of this program is prohibited from giving any competitor of
 Gaussian, Inc. access to this program.  By using this program,
 the user acknowledges that Gaussian, Inc. is engaged in the
 business of creating and licensing software in the field of
 computational chemistry and represents and warrants to the
 licensee that it is not a competitor of Gaussian, Inc. and that
 it will not use this program in any manner prohibited above.
 ---------------------------------------------------------------
  

 Cite this work as:
 Gaussian 16, Revision A.03,
 M. J. Frisch, G. W. Trucks, H. B. Schlegel, G. E. Scuseria, 
 M. A. Robb, J. R. Cheeseman, G. Scalmani, V. Barone, 
 G. A. Petersson, H. Nakatsuji, X. Li, M. Caricato, A. V. Marenich, 
 J. Bloino, B. G. Janesko, R. Gomperts, B. Mennucci, H. P. Hratchian, 
 J. V. Ortiz, A. F. Izmaylov, J. L. Sonnenberg, D. Williams-Young, 
 F. Ding, F. Lipparini, F. Egidi, J. Goings, B. Peng, A. Petrone, 
 T. Henderson, D. Ranasinghe, V. G. Zakrzewski, J. Gao, N. Rega, 
 G. Zheng, W. Liang, M. Hada, M. Ehara, K. Toyota, R. Fukuda, 
 J. Hasegawa, M. Ishida, T. Nakajima, Y. Honda, O. Kitao, H. Nakai, 
 T. Vreven, K. Throssell, J. A. Montgomery, Jr., J. E. Peralta, 
 F. Ogliaro, M. J. Bearpark, J. J. Heyd, E. N. Brothers, K. N. Kudin, 
 V. N. Staroverov, T. A. Keith, R. Kobayashi, J. Normand, 
 K. Raghavachari, A. P. Rendell, J. C. Burant, S. S. Iyengar, 
 J. Tomasi, M. Cossi, J. M. Millam, M. Klene, C. Adamo, R. Cammi, 
 J. W. Ochterski, R. L. Martin, K. Morokuma, O. Farkas, 
 J. B. Foresman, and D. J. Fox, Gaussian, Inc., Wallingford CT, 2016.
 
 ******************************************
 Gaussian 16:  ES64L-G16RevA.03 25-Dec-2016
                21-Dec-2018 
 ******************************************
 %chk=cyclohexyl-diBIP-E0PT.chk
 %mem=10GB
 %nprocshared=16
 Will use up to   16 processors via shared memory.
 ----------------------------------------------------------------------
 #p opt=tight freq=internalmodes b3lyp/6-31g(d,p) scrf=(cpcm,solvent=di
 chloromethane,read) nosymm empiricaldispersion=gd3bj int=grid=ultrafin
 e
 ----------------------------------------------------------------------
 1/7=10,18=20,19=15,26=6,38=1,40=2/1,3;
 2/9=110,12=2,15=1,17=6,18=5,40=1/2;
 3/5=1,6=6,7=101,11=2,25=1,30=1,70=2103,71=1,72=9,74=-5,75=-5,124=41/1,2,3;
 4//1;
 5/5=2,38=5,53=9/2;
 6/7=2,8=2,9=2,10=2,28=1/1;
 7/30=1/1,2,3,16;
 1/7=10,18=20,19=15,26=6/3(2);
 2/9=110,15=1/2;
 99//99;
 2/9=110,15=1/2;
 3/5=1,6=6,7=101,11=2,25=1,30=1,70=2105,71=1,72=9,74=-5,75=-5,124=41/1,2,3;
 4/5=5,16=3,69=1/1;
 5/5=2,38=5,53=9/2;
 7/30=1/1,2,3,16;
 1/7=10,18=20,19=15,26=6/3(-5);
 2/9=110,15=1/2;
 6/7=2,8=2,9=2,10=2,19=2,28=1/1;
 99/9=1/99;
 Leave Link    1 at Fri Dec 21 14:00:25 2018, MaxMem=  1342177280 cpu:               7.5 elap:               0.5
 (Enter /gpfs/apps/hpc/Apps/Restricted/Gaussian/Rev_A.03/g16/l101.exe)
 -------------------------------------------------------------------
 cyclohexylimine diBIP oxidized, no protons transferred optimization
 -------------------------------------------------------------------
 Symbolic Z-matrix:
 Charge =  1 Multiplicity = 2
 C                     1.6101    1.11989  -0.01659 
 C                     0.38765   1.8231   -0.11029 
 C                     0.39471   3.21421  -0.27963 
 C                     1.62951   3.85336  -0.35353 
 C                     2.83671   3.13792  -0.25587 
 C                     2.86262   1.74911  -0.08801 
 C                    -0.10313  -0.27139   0.11937 
 H                    -0.53387   3.76714  -0.35451 
 H                     1.6673    4.92838  -0.48428 
 H                     3.77846   3.6723   -0.31493 
 C                    -2.27585  -1.43334   0.17428 
 C                    -3.11121  -2.58334   0.22582 
 C                    -2.54132  -3.86029   0.35404 
 C                    -1.15846  -3.9306    0.4245 
 C                    -0.33648  -2.7809    0.35991 
 C                    -0.87118  -1.50034   0.22693 
 C                    -4.39412  -0.83271   0.04723 
 H                    -3.1612   -4.74608   0.39608 
 H                    -0.68179  -4.8974    0.52832 
 H                     0.738    -2.90723   0.41762 
 N                    -0.66571   0.92893  -0.018 
 C                    -6.86389  -0.74378  -0.15666 
 C                    -5.58883  -0.04426  -0.0566 
 C                    -5.56256   1.34698  -0.0665 
 C                    -6.74458   2.07709  -0.17247 
 C                    -7.98036   1.36613  -0.28926 
 C                    -8.09122  -0.00305  -0.29226 
 H                    -4.61198   1.85548   0.0144 
 H                    -8.88007   1.95697  -0.37477 
 C                    -6.7797    3.59564  -0.15812 
 C                    -9.43519  -0.71951  -0.43607 
 O                    -6.89587  -2.04652  -0.12493 
 H                    -5.9236   -2.4093   -0.00471 
 N                    -3.11104  -0.35884   0.06685 
 N                    -4.41614  -2.17256   0.13884 
 H                    -2.74496   0.58911  -0.00637 
 N                     1.26695  -0.20107   0.12889 
 H                     1.96444  -0.93331   0.20327 
 C                     4.112     1.00179   0.00939 
 H                     5.02633   1.60108  -0.05986 
 N                     4.12794  -0.27148   0.16037 
 C                     5.44543  -0.92536   0.23899 
 C                     6.25535  -0.75121  -1.05713 
 C                     6.26057  -0.4552    1.45569 
 H                     5.24843  -1.99611   0.36596 
 C                     7.60235  -1.47599  -0.97153 
 H                     6.42612   0.31932  -1.22356 
 H                     5.66917  -1.11826  -1.90483 
 C                     7.60701  -1.18246   1.53639 
 H                     6.43545   0.62375   1.36888 
 H                     5.67868  -0.61392   2.36844 
 C                     8.41114  -1.00875   0.24347 
 H                     8.16731  -1.3155   -1.8947 
 H                     7.42691  -2.55625  -0.89192 
 H                     8.17597  -0.81461   2.39562 
 H                     7.43004  -2.25173   1.709 
 H                     9.35482  -1.5593    0.30602 
 H                     8.66779   0.05093   0.11828 
 C                    -7.47052   4.09568  -1.44768 
 H                    -8.49029   3.71723  -1.53975 
 H                    -7.51772   5.18694  -1.42598 
 H                    -6.90916   3.78981  -2.33354 
 C                    -7.59915   4.05185   1.07245 
 H                    -7.68439   5.14144   1.06282 
 H                    -8.6076    3.63247   1.06769 
 H                    -7.10402   3.75223   1.99903 
 C                    -5.37768   4.21221  -0.07902 
 H                    -4.85861   3.91774   0.83656 
 H                    -4.7652    3.92062  -0.93577 
 H                    -5.4649    5.30048  -0.07991 
 C                    -9.42387  -1.58264  -1.71697 
 H                    -8.64553  -2.34477  -1.6857 
 H                    -10.39078  -2.08155  -1.82114 
 H                    -9.26668  -0.95809  -2.59985 
 C                    -10.58878   0.28792  -0.54962 
 H                    -10.66096   0.92166   0.33779 
 H                    -10.4829   0.93158  -1.42651 
 H                    -11.52675  -0.26177  -0.64955 
 C                    -9.70291  -1.6068    0.80033 
 H                    -10.67938  -2.08515   0.68889 
 H                    -8.94935  -2.3842    0.91387 
 H                    -9.72263  -1.00178   1.71005 
 
 ITRead=  0  0  0  0  0  0  0  0  0  0  0  0  0  0  0  0  0  0  0  0
 ITRead=  0  0  0  0  0  0  0  0  0  0  0  0  0  0  0  0  0  0  0  0
 ITRead=  0  0  0  0  0  0  0  0  0  0  0  0  0  0  0  0  0  0  0  0
 ITRead=  0  0  0  0  0  0  0  0  0  0  0  0  0  0  0  0  0  0  0  0
 ITRead=  0  0
 MicOpt= -1 -1 -1 -1 -1 -1 -1 -1 -1 -1 -1 -1 -1 -1 -1 -1 -1 -1 -1 -1
 MicOpt= -1 -1 -1 -1 -1 -1 -1 -1 -1 -1 -1 -1 -1 -1 -1 -1 -1 -1 -1 -1
 MicOpt= -1 -1 -1 -1 -1 -1 -1 -1 -1 -1 -1 -1 -1 -1 -1 -1 -1 -1 -1 -1
 MicOpt= -1 -1 -1 -1 -1 -1 -1 -1 -1 -1 -1 -1 -1 -1 -1 -1 -1 -1 -1 -1
 MicOpt= -1 -1
 NAtoms=     82 NQM=       82 NQMF=       0 NMMI=      0 NMMIF=      0
                NMic=       0 NMicF=      0.
                    Isotopes and Nuclear Properties:
 (Nuclear quadrupole moments (NQMom) in fm**2, nuclear magnetic moments (NMagM)
  in nuclear magnetons)

  Atom         1           2           3           4           5           6           7           8           9          10
 IAtWgt=          12          12          12          12          12          12          12           1           1           1
 AtmWgt=  12.0000000  12.0000000  12.0000000  12.0000000  12.0000000  12.0000000  12.0000000   1.0078250   1.0078250   1.0078250
 NucSpn=           0           0           0           0           0           0           0           1           1           1
 AtZEff=  -0.0000000  -0.0000000  -0.0000000  -0.0000000  -0.0000000  -0.0000000  -0.0000000  -0.0000000  -0.0000000  -0.0000000
 NQMom=    0.0000000   0.0000000   0.0000000   0.0000000   0.0000000   0.0000000   0.0000000   0.0000000   0.0000000   0.0000000
 NMagM=    0.0000000   0.0000000   0.0000000   0.0000000   0.0000000   0.0000000   0.0000000   2.7928460   2.7928460   2.7928460
 AtZNuc=   6.0000000   6.0000000   6.0000000   6.0000000   6.0000000   6.0000000   6.0000000   1.0000000   1.0000000   1.0000000

  Atom        11          12          13          14          15          16          17          18          19          20
 IAtWgt=          12          12          12          12          12          12          12           1           1           1
 AtmWgt=  12.0000000  12.0000000  12.0000000  12.0000000  12.0000000  12.0000000  12.0000000   1.0078250   1.0078250   1.0078250
 NucSpn=           0           0           0           0           0           0           0           1           1           1
 AtZEff=  -0.0000000  -0.0000000  -0.0000000  -0.0000000  -0.0000000  -0.0000000  -0.0000000  -0.0000000  -0.0000000  -0.0000000
 NQMom=    0.0000000   0.0000000   0.0000000   0.0000000   0.0000000   0.0000000   0.0000000   0.0000000   0.0000000   0.0000000
 NMagM=    0.0000000   0.0000000   0.0000000   0.0000000   0.0000000   0.0000000   0.0000000   2.7928460   2.7928460   2.7928460
 AtZNuc=   6.0000000   6.0000000   6.0000000   6.0000000   6.0000000   6.0000000   6.0000000   1.0000000   1.0000000   1.0000000

  Atom        21          22          23          24          25          26          27          28          29          30
 IAtWgt=          14          12          12          12          12          12          12           1           1          12
 AtmWgt=  14.0030740  12.0000000  12.0000000  12.0000000  12.0000000  12.0000000  12.0000000   1.0078250   1.0078250  12.0000000
 NucSpn=           2           0           0           0           0           0           0           1           1           0
 AtZEff=  -0.0000000  -0.0000000  -0.0000000  -0.0000000  -0.0000000  -0.0000000  -0.0000000  -0.0000000  -0.0000000  -0.0000000
 NQMom=    2.0440000   0.0000000   0.0000000   0.0000000   0.0000000   0.0000000   0.0000000   0.0000000   0.0000000   0.0000000
 NMagM=    0.4037610   0.0000000   0.0000000   0.0000000   0.0000000   0.0000000   0.0000000   2.7928460   2.7928460   0.0000000
 AtZNuc=   7.0000000   6.0000000   6.0000000   6.0000000   6.0000000   6.0000000   6.0000000   1.0000000   1.0000000   6.0000000

  Atom        31          32          33          34          35          36          37          38          39          40
 IAtWgt=          12          16           1          14          14           1          14           1          12           1
 AtmWgt=  12.0000000  15.9949146   1.0078250  14.0030740  14.0030740   1.0078250  14.0030740   1.0078250  12.0000000   1.0078250
 NucSpn=           0           0           1           2           2           1           2           1           0           1
 AtZEff=  -0.0000000  -0.0000000  -0.0000000  -0.0000000  -0.0000000  -0.0000000  -0.0000000  -0.0000000  -0.0000000  -0.0000000
 NQMom=    0.0000000   0.0000000   0.0000000   2.0440000   2.0440000   0.0000000   2.0440000   0.0000000   0.0000000   0.0000000
 NMagM=    0.0000000   0.0000000   2.7928460   0.4037610   0.4037610   2.7928460   0.4037610   2.7928460   0.0000000   2.7928460
 AtZNuc=   6.0000000   8.0000000   1.0000000   7.0000000   7.0000000   1.0000000   7.0000000   1.0000000   6.0000000   1.0000000

  Atom        41          42          43          44          45          46          47          48          49          50
 IAtWgt=          14          12          12          12           1          12           1           1          12           1
 AtmWgt=  14.0030740  12.0000000  12.0000000  12.0000000   1.0078250  12.0000000   1.0078250   1.0078250  12.0000000   1.0078250
 NucSpn=           2           0           0           0           1           0           1           1           0           1
 AtZEff=  -0.0000000  -0.0000000  -0.0000000  -0.0000000  -0.0000000  -0.0000000  -0.0000000  -0.0000000  -0.0000000  -0.0000000
 NQMom=    2.0440000   0.0000000   0.0000000   0.0000000   0.0000000   0.0000000   0.0000000   0.0000000   0.0000000   0.0000000
 NMagM=    0.4037610   0.0000000   0.0000000   0.0000000   2.7928460   0.0000000   2.7928460   2.7928460   0.0000000   2.7928460
 AtZNuc=   7.0000000   6.0000000   6.0000000   6.0000000   1.0000000   6.0000000   1.0000000   1.0000000   6.0000000   1.0000000

  Atom        51          52          53          54          55          56          57          58          59          60
 IAtWgt=           1          12           1           1           1           1           1           1          12           1
 AtmWgt=   1.0078250  12.0000000   1.0078250   1.0078250   1.0078250   1.0078250   1.0078250   1.0078250  12.0000000   1.0078250
 NucSpn=           1           0           1           1           1           1           1           1           0           1
 AtZEff=  -0.0000000  -0.0000000  -0.0000000  -0.0000000  -0.0000000  -0.0000000  -0.0000000  -0.0000000  -0.0000000  -0.0000000
 NQMom=    0.0000000   0.0000000   0.0000000   0.0000000   0.0000000   0.0000000   0.0000000   0.0000000   0.0000000   0.0000000
 NMagM=    2.7928460   0.0000000   2.7928460   2.7928460   2.7928460   2.7928460   2.7928460   2.7928460   0.0000000   2.7928460
 AtZNuc=   1.0000000   6.0000000   1.0000000   1.0000000   1.0000000   1.0000000   1.0000000   1.0000000   6.0000000   1.0000000

  Atom        61          62          63          64          65          66          67          68          69          70
 IAtWgt=           1           1          12           1           1           1          12           1           1           1
 AtmWgt=   1.0078250   1.0078250  12.0000000   1.0078250   1.0078250   1.0078250  12.0000000   1.0078250   1.0078250   1.0078250
 NucSpn=           1           1           0           1           1           1           0           1           1           1
 AtZEff=  -0.0000000  -0.0000000  -0.0000000  -0.0000000  -0.0000000  -0.0000000  -0.0000000  -0.0000000  -0.0000000  -0.0000000
 NQMom=    0.0000000   0.0000000   0.0000000   0.0000000   0.0000000   0.0000000   0.0000000   0.0000000   0.0000000   0.0000000
 NMagM=    2.7928460   2.7928460   0.0000000   2.7928460   2.7928460   2.7928460   0.0000000   2.7928460   2.7928460   2.7928460
 AtZNuc=   1.0000000   1.0000000   6.0000000   1.0000000   1.0000000   1.0000000   6.0000000   1.0000000   1.0000000   1.0000000

  Atom        71          72          73          74          75          76          77          78          79          80
 IAtWgt=          12           1           1           1          12           1           1           1          12           1
 AtmWgt=  12.0000000   1.0078250   1.0078250   1.0078250  12.0000000   1.0078250   1.0078250   1.0078250  12.0000000   1.0078250
 NucSpn=           0           1           1           1           0           1           1           1           0           1
 AtZEff=  -0.0000000  -0.0000000  -0.0000000  -0.0000000  -0.0000000  -0.0000000  -0.0000000  -0.0000000  -0.0000000  -0.0000000
 NQMom=    0.0000000   0.0000000   0.0000000   0.0000000   0.0000000   0.0000000   0.0000000   0.0000000   0.0000000   0.0000000
 NMagM=    0.0000000   2.7928460   2.7928460   2.7928460   0.0000000   2.7928460   2.7928460   2.7928460   0.0000000   2.7928460
 AtZNuc=   6.0000000   1.0000000   1.0000000   1.0000000   6.0000000   1.0000000   1.0000000   1.0000000   6.0000000   1.0000000

  Atom        81          82
 IAtWgt=           1           1
 AtmWgt=   1.0078250   1.0078250
 NucSpn=           1           1
 AtZEff=  -0.0000000  -0.0000000
 NQMom=    0.0000000   0.0000000
 NMagM=    2.7928460   2.7928460
 AtZNuc=   1.0000000   1.0000000
 Leave Link  101 at Fri Dec 21 14:00:25 2018, MaxMem=  1342177280 cpu:               7.7 elap:               0.5
 (Enter /gpfs/apps/hpc/Apps/Restricted/Gaussian/Rev_A.03/g16/l103.exe)

 GradGradGradGradGradGradGradGradGradGradGradGradGradGradGradGradGradGrad
 Berny optimization.
 Initialization pass.
                           ----------------------------
                           !    Initial Parameters    !
                           ! (Angstroms and Degrees)  !
 --------------------------                            --------------------------
 ! Name  Definition              Value          Derivative Info.                !
 --------------------------------------------------------------------------------
 ! R1    R(1,2)                  1.4134         estimate D2E/DX2                !
 ! R2    R(1,6)                  1.4035         estimate D2E/DX2                !
 ! R3    R(1,37)                 1.3725         estimate D2E/DX2                !
 ! R4    R(2,3)                  1.4014         estimate D2E/DX2                !
 ! R5    R(2,21)                 1.3848         estimate D2E/DX2                !
 ! R6    R(3,4)                  1.3924         estimate D2E/DX2                !
 ! R7    R(3,8)                  1.0833         estimate D2E/DX2                !
 ! R8    R(4,5)                  1.4067         estimate D2E/DX2                !
 ! R9    R(4,9)                  1.0836         estimate D2E/DX2                !
 ! R10   R(5,6)                  1.3992         estimate D2E/DX2                !
 ! R11   R(5,10)                 1.0844         estimate D2E/DX2                !
 ! R12   R(6,39)                 1.4591         estimate D2E/DX2                !
 ! R13   R(7,16)                 1.4532         estimate D2E/DX2                !
 ! R14   R(7,21)                 1.3327         estimate D2E/DX2                !
 ! R15   R(7,37)                 1.3719         estimate D2E/DX2                !
 ! R16   R(11,12)                1.4223         estimate D2E/DX2                !
 ! R17   R(11,16)                1.4072         estimate D2E/DX2                !
 ! R18   R(11,34)                1.3652         estimate D2E/DX2                !
 ! R19   R(12,13)                1.4042         estimate D2E/DX2                !
 ! R20   R(12,35)                1.3708         estimate D2E/DX2                !
 ! R21   R(13,14)                1.3864         estimate D2E/DX2                !
 ! R22   R(13,18)                1.082          estimate D2E/DX2                !
 ! R23   R(14,15)                1.4148         estimate D2E/DX2                !
 ! R24   R(14,19)                1.0829         estimate D2E/DX2                !
 ! R25   R(15,16)                1.3941         estimate D2E/DX2                !
 ! R26   R(15,20)                1.0834         estimate D2E/DX2                !
 ! R27   R(17,23)                1.4352         estimate D2E/DX2                !
 ! R28   R(17,34)                1.3679         estimate D2E/DX2                !
 ! R29   R(17,35)                1.3432         estimate D2E/DX2                !
 ! R30   R(22,23)                1.4578         estimate D2E/DX2                !
 ! R31   R(22,27)                1.4399         estimate D2E/DX2                !
 ! R32   R(22,32)                1.3035         estimate D2E/DX2                !
 ! R33   R(23,24)                1.3915         estimate D2E/DX2                !
 ! R34   R(24,25)                1.3934         estimate D2E/DX2                !
 ! R35   R(24,28)                1.0811         estimate D2E/DX2                !
 ! R36   R(25,26)                1.4305         estimate D2E/DX2                !
 ! R37   R(25,30)                1.519          estimate D2E/DX2                !
 ! R38   R(26,27)                1.3737         estimate D2E/DX2                !
 ! R39   R(26,29)                1.0798         estimate D2E/DX2                !
 ! R40   R(27,31)                1.5298         estimate D2E/DX2                !
 ! R41   R(30,59)                1.546          estimate D2E/DX2                !
 ! R42   R(30,63)                1.5472         estimate D2E/DX2                !
 ! R43   R(30,67)                1.5336         estimate D2E/DX2                !
 ! R44   R(31,71)                1.5446         estimate D2E/DX2                !
 ! R45   R(31,75)                1.5358         estimate D2E/DX2                !
 ! R46   R(31,79)                1.5452         estimate D2E/DX2                !
 ! R47   R(32,33)                1.0447         estimate D2E/DX2                !
 ! R48   R(34,36)                1.0188         estimate D2E/DX2                !
 ! R49   R(37,38)                1.014          estimate D2E/DX2                !
 ! R50   R(39,40)                1.0954         estimate D2E/DX2                !
 ! R51   R(39,41)                1.2823         estimate D2E/DX2                !
 ! R52   R(41,42)                1.4729         estimate D2E/DX2                !
 ! R53   R(42,43)                1.5383         estimate D2E/DX2                !
 ! R54   R(42,44)                1.5381         estimate D2E/DX2                !
 ! R55   R(42,45)                1.0961         estimate D2E/DX2                !
 ! R56   R(43,46)                1.532          estimate D2E/DX2                !
 ! R57   R(43,47)                1.0968         estimate D2E/DX2                !
 ! R58   R(43,48)                1.094          estimate D2E/DX2                !
 ! R59   R(44,49)                1.5324         estimate D2E/DX2                !
 ! R60   R(44,50)                1.0965         estimate D2E/DX2                !
 ! R61   R(44,51)                1.094          estimate D2E/DX2                !
 ! R62   R(46,52)                1.5325         estimate D2E/DX2                !
 ! R63   R(46,53)                1.0942         estimate D2E/DX2                !
 ! R64   R(46,54)                1.0973         estimate D2E/DX2                !
 ! R65   R(49,52)                1.5325         estimate D2E/DX2                !
 ! R66   R(49,55)                1.0942         estimate D2E/DX2                !
 ! R67   R(49,56)                1.0975         estimate D2E/DX2                !
 ! R68   R(52,57)                1.0943         estimate D2E/DX2                !
 ! R69   R(52,58)                1.0975         estimate D2E/DX2                !
 ! R70   R(59,60)                1.0916         estimate D2E/DX2                !
 ! R71   R(59,61)                1.0925         estimate D2E/DX2                !
 ! R72   R(59,62)                1.0924         estimate D2E/DX2                !
 ! R73   R(63,64)                1.093          estimate D2E/DX2                !
 ! R74   R(63,65)                1.0922         estimate D2E/DX2                !
 ! R75   R(63,66)                1.0925         estimate D2E/DX2                !
 ! R76   R(67,68)                1.0929         estimate D2E/DX2                !
 ! R77   R(67,69)                1.0928         estimate D2E/DX2                !
 ! R78   R(67,70)                1.0918         estimate D2E/DX2                !
 ! R79   R(71,72)                1.0898         estimate D2E/DX2                !
 ! R80   R(71,73)                1.093          estimate D2E/DX2                !
 ! R81   R(71,74)                1.0928         estimate D2E/DX2                !
 ! R82   R(75,76)                1.0929         estimate D2E/DX2                !
 ! R83   R(75,77)                1.0929         estimate D2E/DX2                !
 ! R84   R(75,78)                1.0918         estimate D2E/DX2                !
 ! R85   R(79,80)                1.093          estimate D2E/DX2                !
 ! R86   R(79,81)                1.0886         estimate D2E/DX2                !
 ! R87   R(79,82)                1.0927         estimate D2E/DX2                !
 ! A1    A(2,1,6)              123.0539         estimate D2E/DX2                !
 ! A2    A(2,1,37)             105.6424         estimate D2E/DX2                !
 ! A3    A(6,1,37)             131.2989         estimate D2E/DX2                !
 ! A4    A(1,2,3)              119.8375         estimate D2E/DX2                !
 ! A5    A(1,2,21)             109.4036         estimate D2E/DX2                !
 ! A6    A(3,2,21)             130.7572         estimate D2E/DX2                !
 ! A7    A(2,3,4)              117.8102         estimate D2E/DX2                !
 ! A8    A(2,3,8)              120.71           estimate D2E/DX2                !
 ! A9    A(4,3,8)              121.4791         estimate D2E/DX2                !
 ! A10   A(3,4,5)              121.5958         estimate D2E/DX2                !
 ! A11   A(3,4,9)              119.5203         estimate D2E/DX2                !
 ! A12   A(5,4,9)              118.8831         estimate D2E/DX2                !
 ! A13   A(4,5,6)              121.9423         estimate D2E/DX2                !
 ! A14   A(4,5,10)             119.3987         estimate D2E/DX2                !
 ! A15   A(6,5,10)             118.6588         estimate D2E/DX2                !
 ! A16   A(1,6,5)              115.759          estimate D2E/DX2                !
 ! A17   A(1,6,39)             122.0821         estimate D2E/DX2                !
 ! A18   A(5,6,39)             122.1588         estimate D2E/DX2                !
 ! A19   A(16,7,21)            123.1065         estimate D2E/DX2                !
 ! A20   A(16,7,37)            124.7958         estimate D2E/DX2                !
 ! A21   A(21,7,37)            112.0929         estimate D2E/DX2                !
 ! A22   A(12,11,16)           123.1198         estimate D2E/DX2                !
 ! A23   A(12,11,34)           106.2558         estimate D2E/DX2                !
 ! A24   A(16,11,34)           130.6241         estimate D2E/DX2                !
 ! A25   A(11,12,13)           120.0136         estimate D2E/DX2                !
 ! A26   A(11,12,35)           108.3307         estimate D2E/DX2                !
 ! A27   A(13,12,35)           131.6547         estimate D2E/DX2                !
 ! A28   A(12,13,14)           117.101          estimate D2E/DX2                !
 ! A29   A(12,13,18)           121.0317         estimate D2E/DX2                !
 ! A30   A(14,13,18)           121.8673         estimate D2E/DX2                !
 ! A31   A(13,14,15)           122.4089         estimate D2E/DX2                !
 ! A32   A(13,14,19)           119.2873         estimate D2E/DX2                !
 ! A33   A(15,14,19)           118.3033         estimate D2E/DX2                !
 ! A34   A(14,15,16)           121.8686         estimate D2E/DX2                !
 ! A35   A(14,15,20)           118.6205         estimate D2E/DX2                !
 ! A36   A(16,15,20)           119.5107         estimate D2E/DX2                !
 ! A37   A(7,16,11)            118.9809         estimate D2E/DX2                !
 ! A38   A(7,16,15)            125.5326         estimate D2E/DX2                !
 ! A39   A(11,16,15)           115.4779         estimate D2E/DX2                !
 ! A40   A(23,17,34)           126.2662         estimate D2E/DX2                !
 ! A41   A(23,17,35)           122.6364         estimate D2E/DX2                !
 ! A42   A(34,17,35)           111.0974         estimate D2E/DX2                !
 ! A43   A(2,21,7)             105.5059         estimate D2E/DX2                !
 ! A44   A(23,22,27)           120.34           estimate D2E/DX2                !
 ! A45   A(23,22,32)           119.9572         estimate D2E/DX2                !
 ! A46   A(27,22,32)           119.7028         estimate D2E/DX2                !
 ! A47   A(17,23,22)           117.9987         estimate D2E/DX2                !
 ! A48   A(17,23,24)           122.2799         estimate D2E/DX2                !
 ! A49   A(22,23,24)           119.7212         estimate D2E/DX2                !
 ! A50   A(23,24,25)           120.5579         estimate D2E/DX2                !
 ! A51   A(23,24,28)           119.0997         estimate D2E/DX2                !
 ! A52   A(25,24,28)           120.3417         estimate D2E/DX2                !
 ! A53   A(24,25,26)           118.5968         estimate D2E/DX2                !
 ! A54   A(24,25,30)           122.869          estimate D2E/DX2                !
 ! A55   A(26,25,30)           118.5323         estimate D2E/DX2                !
 ! A56   A(25,26,27)           124.4221         estimate D2E/DX2                !
 ! A57   A(25,26,29)           117.0228         estimate D2E/DX2                !
 ! A58   A(27,26,29)           118.5543         estimate D2E/DX2                !
 ! A59   A(22,27,26)           116.3435         estimate D2E/DX2                !
 ! A60   A(22,27,31)           121.1141         estimate D2E/DX2                !
 ! A61   A(26,27,31)           122.5419         estimate D2E/DX2                !
 ! A62   A(25,30,59)           109.0131         estimate D2E/DX2                !
 ! A63   A(25,30,63)           108.332          estimate D2E/DX2                !
 ! A64   A(25,30,67)           112.4115         estimate D2E/DX2                !
 ! A65   A(59,30,63)           109.3523         estimate D2E/DX2                !
 ! A66   A(59,30,67)           108.752          estimate D2E/DX2                !
 ! A67   A(63,30,67)           108.9415         estimate D2E/DX2                !
 ! A68   A(27,31,71)           109.465          estimate D2E/DX2                !
 ! A69   A(27,31,75)           111.0781         estimate D2E/DX2                !
 ! A70   A(27,31,79)           110.2386         estimate D2E/DX2                !
 ! A71   A(71,31,75)           108.1041         estimate D2E/DX2                !
 ! A72   A(71,31,79)           110.1168         estimate D2E/DX2                !
 ! A73   A(75,31,79)           107.8001         estimate D2E/DX2                !
 ! A74   A(22,32,33)           109.0881         estimate D2E/DX2                !
 ! A75   A(11,34,17)           107.5968         estimate D2E/DX2                !
 ! A76   A(11,34,36)           121.2093         estimate D2E/DX2                !
 ! A77   A(17,34,36)           131.1721         estimate D2E/DX2                !
 ! A78   A(12,35,17)           106.7175         estimate D2E/DX2                !
 ! A79   A(1,37,7)             107.354          estimate D2E/DX2                !
 ! A80   A(1,37,38)            122.0595         estimate D2E/DX2                !
 ! A81   A(7,37,38)            130.5739         estimate D2E/DX2                !
 ! A82   A(6,39,40)            115.4855         estimate D2E/DX2                !
 ! A83   A(6,39,41)            121.8092         estimate D2E/DX2                !
 ! A84   A(40,39,41)           122.7047         estimate D2E/DX2                !
 ! A85   A(39,41,42)           117.2719         estimate D2E/DX2                !
 ! A86   A(41,42,43)           112.0689         estimate D2E/DX2                !
 ! A87   A(41,42,44)           112.3679         estimate D2E/DX2                !
 ! A88   A(41,42,45)           106.2054         estimate D2E/DX2                !
 ! A89   A(43,42,44)           110.6636         estimate D2E/DX2                !
 ! A90   A(43,42,45)           107.6274         estimate D2E/DX2                !
 ! A91   A(44,42,45)           107.5907         estimate D2E/DX2                !
 ! A92   A(42,43,46)           111.2414         estimate D2E/DX2                !
 ! A93   A(42,43,47)           108.6833         estimate D2E/DX2                !
 ! A94   A(42,43,48)           109.4378         estimate D2E/DX2                !
 ! A95   A(46,43,47)           109.4724         estimate D2E/DX2                !
 ! A96   A(46,43,48)           110.8344         estimate D2E/DX2                !
 ! A97   A(47,43,48)           107.0567         estimate D2E/DX2                !
 ! A98   A(42,44,49)           111.2369         estimate D2E/DX2                !
 ! A99   A(42,44,50)           108.8254         estimate D2E/DX2                !
 ! A100  A(42,44,51)           109.4958         estimate D2E/DX2                !
 ! A101  A(49,44,50)           109.3309         estimate D2E/DX2                !
 ! A102  A(49,44,51)           110.7652         estimate D2E/DX2                !
 ! A103  A(50,44,51)           107.0764         estimate D2E/DX2                !
 ! A104  A(43,46,52)           111.3509         estimate D2E/DX2                !
 ! A105  A(43,46,53)           109.7219         estimate D2E/DX2                !
 ! A106  A(43,46,54)           109.221          estimate D2E/DX2                !
 ! A107  A(52,46,53)           110.591          estimate D2E/DX2                !
 ! A108  A(52,46,54)           109.0871         estimate D2E/DX2                !
 ! A109  A(53,46,54)           106.7482         estimate D2E/DX2                !
 ! A110  A(44,49,52)           111.2733         estimate D2E/DX2                !
 ! A111  A(44,49,55)           109.7959         estimate D2E/DX2                !
 ! A112  A(44,49,56)           109.2072         estimate D2E/DX2                !
 ! A113  A(52,49,55)           110.5827         estimate D2E/DX2                !
 ! A114  A(52,49,56)           109.1322         estimate D2E/DX2                !
 ! A115  A(55,49,56)           106.7313         estimate D2E/DX2                !
 ! A116  A(46,52,49)           110.9404         estimate D2E/DX2                !
 ! A117  A(46,52,57)           110.3054         estimate D2E/DX2                !
 ! A118  A(46,52,58)           109.1085         estimate D2E/DX2                !
 ! A119  A(49,52,57)           110.3186         estimate D2E/DX2                !
 ! A120  A(49,52,58)           109.1718         estimate D2E/DX2                !
 ! A121  A(57,52,58)           106.8955         estimate D2E/DX2                !
 ! A122  A(30,59,60)           112.064          estimate D2E/DX2                !
 ! A123  A(30,59,61)           109.0144         estimate D2E/DX2                !
 ! A124  A(30,59,62)           110.8678         estimate D2E/DX2                !
 ! A125  A(60,59,61)           107.9151         estimate D2E/DX2                !
 ! A126  A(60,59,62)           108.3352         estimate D2E/DX2                !
 ! A127  A(61,59,62)           108.5406         estimate D2E/DX2                !
 ! A128  A(30,63,64)           109.1622         estimate D2E/DX2                !
 ! A129  A(30,63,65)           111.8595         estimate D2E/DX2                !
 ! A130  A(30,63,66)           110.7119         estimate D2E/DX2                !
 ! A131  A(64,63,65)           108.1041         estimate D2E/DX2                !
 ! A132  A(64,63,66)           108.4353         estimate D2E/DX2                !
 ! A133  A(65,63,66)           108.4731         estimate D2E/DX2                !
 ! A134  A(30,67,68)           111.6586         estimate D2E/DX2                !
 ! A135  A(30,67,69)           111.3865         estimate D2E/DX2                !
 ! A136  A(30,67,70)           109.1275         estimate D2E/DX2                !
 ! A137  A(68,67,69)           108.585          estimate D2E/DX2                !
 ! A138  A(68,67,70)           107.891          estimate D2E/DX2                !
 ! A139  A(69,67,70)           108.0659         estimate D2E/DX2                !
 ! A140  A(31,71,72)           111.8529         estimate D2E/DX2                !
 ! A141  A(31,71,73)           109.1244         estimate D2E/DX2                !
 ! A142  A(31,71,74)           110.589          estimate D2E/DX2                !
 ! A143  A(72,71,73)           108.3809         estimate D2E/DX2                !
 ! A144  A(72,71,74)           108.6704         estimate D2E/DX2                !
 ! A145  A(73,71,74)           108.1263         estimate D2E/DX2                !
 ! A146  A(31,75,76)           111.7134         estimate D2E/DX2                !
 ! A147  A(31,75,77)           111.8936         estimate D2E/DX2                !
 ! A148  A(31,75,78)           108.7735         estimate D2E/DX2                !
 ! A149  A(76,75,77)           108.4452         estimate D2E/DX2                !
 ! A150  A(76,75,78)           108.0319         estimate D2E/DX2                !
 ! A151  A(77,75,78)           107.8382         estimate D2E/DX2                !
 ! A152  A(31,79,80)           108.9358         estimate D2E/DX2                !
 ! A153  A(31,79,81)           111.9364         estimate D2E/DX2                !
 ! A154  A(31,79,82)           110.5691         estimate D2E/DX2                !
 ! A155  A(80,79,81)           108.452          estimate D2E/DX2                !
 ! A156  A(80,79,82)           108.1238         estimate D2E/DX2                !
 ! A157  A(81,79,82)           108.7268         estimate D2E/DX2                !
 ! D1    D(6,1,2,3)             -0.1484         estimate D2E/DX2                !
 ! D2    D(6,1,2,21)           179.432          estimate D2E/DX2                !
 ! D3    D(37,1,2,3)          -179.4362         estimate D2E/DX2                !
 ! D4    D(37,1,2,21)            0.1442         estimate D2E/DX2                !
 ! D5    D(2,1,6,5)              0.2047         estimate D2E/DX2                !
 ! D6    D(2,1,6,39)          -179.9121         estimate D2E/DX2                !
 ! D7    D(37,1,6,5)           179.2919         estimate D2E/DX2                !
 ! D8    D(37,1,6,39)           -0.825          estimate D2E/DX2                !
 ! D9    D(2,1,37,7)             0.0708         estimate D2E/DX2                !
 ! D10   D(2,1,37,38)          178.9051         estimate D2E/DX2                !
 ! D11   D(6,1,37,7)          -179.1346         estimate D2E/DX2                !
 ! D12   D(6,1,37,38)           -0.3004         estimate D2E/DX2                !
 ! D13   D(1,2,3,4)              0.1952         estimate D2E/DX2                !
 ! D14   D(1,2,3,8)            179.9134         estimate D2E/DX2                !
 ! D15   D(21,2,3,4)          -179.2823         estimate D2E/DX2                !
 ! D16   D(21,2,3,8)             0.4359         estimate D2E/DX2                !
 ! D17   D(1,2,21,7)            -0.3045         estimate D2E/DX2                !
 ! D18   D(3,2,21,7)           179.215          estimate D2E/DX2                !
 ! D19   D(2,3,4,5)             -0.3193         estimate D2E/DX2                !
 ! D20   D(2,3,4,9)           -179.9995         estimate D2E/DX2                !
 ! D21   D(8,3,4,5)            179.9648         estimate D2E/DX2                !
 ! D22   D(8,3,4,9)              0.2846         estimate D2E/DX2                !
 ! D23   D(3,4,5,6)              0.3992         estimate D2E/DX2                !
 ! D24   D(3,4,5,10)          -179.8045         estimate D2E/DX2                !
 ! D25   D(9,4,5,6)           -179.9186         estimate D2E/DX2                !
 ! D26   D(9,4,5,10)            -0.1223         estimate D2E/DX2                !
 ! D27   D(4,5,6,1)             -0.3241         estimate D2E/DX2                !
 ! D28   D(4,5,6,39)           179.7928         estimate D2E/DX2                !
 ! D29   D(10,5,6,1)           179.8781         estimate D2E/DX2                !
 ! D30   D(10,5,6,39)           -0.005          estimate D2E/DX2                !
 ! D31   D(1,6,39,40)         -179.9974         estimate D2E/DX2                !
 ! D32   D(1,6,39,41)            0.2744         estimate D2E/DX2                !
 ! D33   D(5,6,39,40)           -0.1218         estimate D2E/DX2                !
 ! D34   D(5,6,39,41)         -179.8499         estimate D2E/DX2                !
 ! D35   D(21,7,16,11)           0.5175         estimate D2E/DX2                !
 ! D36   D(21,7,16,15)         179.3993         estimate D2E/DX2                !
 ! D37   D(37,7,16,11)        -178.6242         estimate D2E/DX2                !
 ! D38   D(37,7,16,15)           0.2576         estimate D2E/DX2                !
 ! D39   D(16,7,21,2)         -178.8812         estimate D2E/DX2                !
 ! D40   D(37,7,21,2)            0.3582         estimate D2E/DX2                !
 ! D41   D(16,7,37,1)          178.948          estimate D2E/DX2                !
 ! D42   D(16,7,37,38)           0.2487         estimate D2E/DX2                !
 ! D43   D(21,7,37,1)           -0.2761         estimate D2E/DX2                !
 ! D44   D(21,7,37,38)        -178.9755         estimate D2E/DX2                !
 ! D45   D(16,11,12,13)          0.9312         estimate D2E/DX2                !
 ! D46   D(16,11,12,35)       -179.3943         estimate D2E/DX2                !
 ! D47   D(34,11,12,13)       -179.2462         estimate D2E/DX2                !
 ! D48   D(34,11,12,35)          0.4283         estimate D2E/DX2                !
 ! D49   D(12,11,16,7)         177.8328         estimate D2E/DX2                !
 ! D50   D(12,11,16,15)         -1.1592         estimate D2E/DX2                !
 ! D51   D(34,11,16,7)          -1.9428         estimate D2E/DX2                !
 ! D52   D(34,11,16,15)        179.0652         estimate D2E/DX2                !
 ! D53   D(12,11,34,17)         -0.281          estimate D2E/DX2                !
 ! D54   D(12,11,34,36)       -178.7616         estimate D2E/DX2                !
 ! D55   D(16,11,34,17)        179.5232         estimate D2E/DX2                !
 ! D56   D(16,11,34,36)          1.0426         estimate D2E/DX2                !
 ! D57   D(11,12,13,14)         -0.0302         estimate D2E/DX2                !
 ! D58   D(11,12,13,18)        179.9249         estimate D2E/DX2                !
 ! D59   D(35,12,13,14)       -179.6167         estimate D2E/DX2                !
 ! D60   D(35,12,13,18)          0.3383         estimate D2E/DX2                !
 ! D61   D(11,12,35,17)         -0.4053         estimate D2E/DX2                !
 ! D62   D(13,12,35,17)        179.2176         estimate D2E/DX2                !
 ! D63   D(12,13,14,15)         -0.5631         estimate D2E/DX2                !
 ! D64   D(12,13,14,19)        179.7204         estimate D2E/DX2                !
 ! D65   D(18,13,14,15)        179.4822         estimate D2E/DX2                !
 ! D66   D(18,13,14,19)         -0.2343         estimate D2E/DX2                !
 ! D67   D(13,14,15,16)          0.302          estimate D2E/DX2                !
 ! D68   D(13,14,15,20)       -179.7935         estimate D2E/DX2                !
 ! D69   D(19,14,15,16)       -179.9789         estimate D2E/DX2                !
 ! D70   D(19,14,15,20)         -0.0743         estimate D2E/DX2                !
 ! D71   D(14,15,16,7)        -178.3667         estimate D2E/DX2                !
 ! D72   D(14,15,16,11)          0.5498         estimate D2E/DX2                !
 ! D73   D(20,15,16,7)           1.7296         estimate D2E/DX2                !
 ! D74   D(20,15,16,11)       -179.3539         estimate D2E/DX2                !
 ! D75   D(34,17,23,22)        175.7154         estimate D2E/DX2                !
 ! D76   D(34,17,23,24)         -4.1701         estimate D2E/DX2                !
 ! D77   D(35,17,23,22)         -4.2482         estimate D2E/DX2                !
 ! D78   D(35,17,23,24)        175.8663         estimate D2E/DX2                !
 ! D79   D(23,17,34,11)       -179.9312         estimate D2E/DX2                !
 ! D80   D(23,17,34,36)         -1.6576         estimate D2E/DX2                !
 ! D81   D(35,17,34,11)          0.0359         estimate D2E/DX2                !
 ! D82   D(35,17,34,36)        178.3095         estimate D2E/DX2                !
 ! D83   D(23,17,35,12)       -179.7965         estimate D2E/DX2                !
 ! D84   D(34,17,35,12)          0.235          estimate D2E/DX2                !
 ! D85   D(27,22,23,17)       -178.6481         estimate D2E/DX2                !
 ! D86   D(27,22,23,24)          1.2405         estimate D2E/DX2                !
 ! D87   D(32,22,23,17)          1.2778         estimate D2E/DX2                !
 ! D88   D(32,22,23,24)       -178.8336         estimate D2E/DX2                !
 ! D89   D(23,22,27,26)         -1.4197         estimate D2E/DX2                !
 ! D90   D(23,22,27,31)        178.3556         estimate D2E/DX2                !
 ! D91   D(32,22,27,26)        178.6543         estimate D2E/DX2                !
 ! D92   D(32,22,27,31)         -1.5705         estimate D2E/DX2                !
 ! D93   D(23,22,32,33)          1.1584         estimate D2E/DX2                !
 ! D94   D(27,22,32,33)       -178.9152         estimate D2E/DX2                !
 ! D95   D(17,23,24,25)        179.8247         estimate D2E/DX2                !
 ! D96   D(17,23,24,28)         -0.4902         estimate D2E/DX2                !
 ! D97   D(22,23,24,25)         -0.0589         estimate D2E/DX2                !
 ! D98   D(22,23,24,28)        179.6262         estimate D2E/DX2                !
 ! D99   D(23,24,25,26)         -0.8559         estimate D2E/DX2                !
 ! D100  D(23,24,25,30)        178.6335         estimate D2E/DX2                !
 ! D101  D(28,24,25,26)        179.4629         estimate D2E/DX2                !
 ! D102  D(28,24,25,30)         -1.0476         estimate D2E/DX2                !
 ! D103  D(24,25,26,27)          0.6437         estimate D2E/DX2                !
 ! D104  D(24,25,26,29)       -179.7042         estimate D2E/DX2                !
 ! D105  D(30,25,26,27)       -178.8682         estimate D2E/DX2                !
 ! D106  D(30,25,26,29)          0.7838         estimate D2E/DX2                !
 ! D107  D(24,25,30,59)        123.23           estimate D2E/DX2                !
 ! D108  D(24,25,30,63)       -117.8616         estimate D2E/DX2                !
 ! D109  D(24,25,30,67)          2.5721         estimate D2E/DX2                !
 ! D110  D(26,25,30,59)        -57.2802         estimate D2E/DX2                !
 ! D111  D(26,25,30,63)         61.6282         estimate D2E/DX2                !
 ! D112  D(26,25,30,67)       -177.9381         estimate D2E/DX2                !
 ! D113  D(25,26,27,22)          0.5003         estimate D2E/DX2                !
 ! D114  D(25,26,27,31)       -179.2715         estimate D2E/DX2                !
 ! D115  D(29,26,27,22)       -179.1468         estimate D2E/DX2                !
 ! D116  D(29,26,27,31)          1.0814         estimate D2E/DX2                !
 ! D117  D(22,27,31,71)        -61.2865         estimate D2E/DX2                !
 ! D118  D(22,27,31,75)        179.4099         estimate D2E/DX2                !
 ! D119  D(22,27,31,79)         59.9851         estimate D2E/DX2                !
 ! D120  D(26,27,31,71)        118.4746         estimate D2E/DX2                !
 ! D121  D(26,27,31,75)         -0.829          estimate D2E/DX2                !
 ! D122  D(26,27,31,79)       -120.2538         estimate D2E/DX2                !
 ! D123  D(25,30,59,60)         59.238          estimate D2E/DX2                !
 ! D124  D(25,30,59,61)        178.6279         estimate D2E/DX2                !
 ! D125  D(25,30,59,62)        -61.9454         estimate D2E/DX2                !
 ! D126  D(63,30,59,60)        -59.0314         estimate D2E/DX2                !
 ! D127  D(63,30,59,61)         60.3584         estimate D2E/DX2                !
 ! D128  D(63,30,59,62)        179.7851         estimate D2E/DX2                !
 ! D129  D(67,30,59,60)       -177.8845         estimate D2E/DX2                !
 ! D130  D(67,30,59,61)        -58.4946         estimate D2E/DX2                !
 ! D131  D(67,30,59,62)         60.9321         estimate D2E/DX2                !
 ! D132  D(25,30,63,64)       -176.6078         estimate D2E/DX2                !
 ! D133  D(25,30,63,65)        -57.0129         estimate D2E/DX2                !
 ! D134  D(25,30,63,66)         64.0971         estimate D2E/DX2                !
 ! D135  D(59,30,63,64)        -57.9141         estimate D2E/DX2                !
 ! D136  D(59,30,63,65)         61.6808         estimate D2E/DX2                !
 ! D137  D(59,30,63,66)       -177.2091         estimate D2E/DX2                !
 ! D138  D(67,30,63,64)         60.8212         estimate D2E/DX2                !
 ! D139  D(67,30,63,65)       -179.5838         estimate D2E/DX2                !
 ! D140  D(67,30,63,66)        -58.4738         estimate D2E/DX2                !
 ! D141  D(25,30,67,68)        -61.2601         estimate D2E/DX2                !
 ! D142  D(25,30,67,69)         60.3273         estimate D2E/DX2                !
 ! D143  D(25,30,67,70)        179.5579         estimate D2E/DX2                !
 ! D144  D(59,30,67,68)        177.9317         estimate D2E/DX2                !
 ! D145  D(59,30,67,69)        -60.4809         estimate D2E/DX2                !
 ! D146  D(59,30,67,70)         58.7498         estimate D2E/DX2                !
 ! D147  D(63,30,67,68)         58.8212         estimate D2E/DX2                !
 ! D148  D(63,30,67,69)       -179.5914         estimate D2E/DX2                !
 ! D149  D(63,30,67,70)        -60.3607         estimate D2E/DX2                !
 ! D150  D(27,31,71,72)         60.8192         estimate D2E/DX2                !
 ! D151  D(27,31,71,73)       -179.2695         estimate D2E/DX2                !
 ! D152  D(27,31,71,74)        -60.4524         estimate D2E/DX2                !
 ! D153  D(75,31,71,72)       -178.0592         estimate D2E/DX2                !
 ! D154  D(75,31,71,73)        -58.1479         estimate D2E/DX2                !
 ! D155  D(75,31,71,74)         60.6692         estimate D2E/DX2                !
 ! D156  D(79,31,71,72)        -60.5259         estimate D2E/DX2                !
 ! D157  D(79,31,71,73)         59.3853         estimate D2E/DX2                !
 ! D158  D(79,31,71,74)        178.2024         estimate D2E/DX2                !
 ! D159  D(27,31,75,76)        -60.7975         estimate D2E/DX2                !
 ! D160  D(27,31,75,77)         61.0098         estimate D2E/DX2                !
 ! D161  D(27,31,75,78)       -179.9587         estimate D2E/DX2                !
 ! D162  D(71,31,75,76)        179.0876         estimate D2E/DX2                !
 ! D163  D(71,31,75,77)        -59.105          estimate D2E/DX2                !
 ! D164  D(71,31,75,78)         59.9264         estimate D2E/DX2                !
 ! D165  D(79,31,75,76)         60.0746         estimate D2E/DX2                !
 ! D166  D(79,31,75,77)       -178.1181         estimate D2E/DX2                !
 ! D167  D(79,31,75,78)        -59.0866         estimate D2E/DX2                !
 ! D168  D(27,31,79,80)        178.3807         estimate D2E/DX2                !
 ! D169  D(27,31,79,81)        -61.6917         estimate D2E/DX2                !
 ! D170  D(27,31,79,82)         59.6951         estimate D2E/DX2                !
 ! D171  D(71,31,79,80)        -60.7368         estimate D2E/DX2                !
 ! D172  D(71,31,79,81)         59.1907         estimate D2E/DX2                !
 ! D173  D(71,31,79,82)       -179.4225         estimate D2E/DX2                !
 ! D174  D(75,31,79,80)         56.9846         estimate D2E/DX2                !
 ! D175  D(75,31,79,81)        176.9122         estimate D2E/DX2                !
 ! D176  D(75,31,79,82)        -61.701          estimate D2E/DX2                !
 ! D177  D(6,39,41,42)         179.6441         estimate D2E/DX2                !
 ! D178  D(40,39,41,42)         -0.0643         estimate D2E/DX2                !
 ! D179  D(39,41,42,43)        -62.7441         estimate D2E/DX2                !
 ! D180  D(39,41,42,44)         62.6081         estimate D2E/DX2                !
 ! D181  D(39,41,42,45)        179.9903         estimate D2E/DX2                !
 ! D182  D(41,42,43,46)       -178.1713         estimate D2E/DX2                !
 ! D183  D(41,42,43,47)         61.2321         estimate D2E/DX2                !
 ! D184  D(41,42,43,48)        -55.363          estimate D2E/DX2                !
 ! D185  D(44,42,43,46)         55.5455         estimate D2E/DX2                !
 ! D186  D(44,42,43,47)        -65.051          estimate D2E/DX2                !
 ! D187  D(44,42,43,48)        178.3539         estimate D2E/DX2                !
 ! D188  D(45,42,43,46)        -61.7605         estimate D2E/DX2                !
 ! D189  D(45,42,43,47)        177.643          estimate D2E/DX2                !
 ! D190  D(45,42,43,48)         61.0478         estimate D2E/DX2                !
 ! D191  D(41,42,44,49)        178.2531         estimate D2E/DX2                !
 ! D192  D(41,42,44,50)        -61.2362         estimate D2E/DX2                !
 ! D193  D(41,42,44,51)         55.4954         estimate D2E/DX2                !
 ! D194  D(43,42,44,49)        -55.6306         estimate D2E/DX2                !
 ! D195  D(43,42,44,50)         64.8801         estimate D2E/DX2                !
 ! D196  D(43,42,44,51)       -178.3884         estimate D2E/DX2                !
 ! D197  D(45,42,44,49)         61.698          estimate D2E/DX2                !
 ! D198  D(45,42,44,50)       -177.7913         estimate D2E/DX2                !
 ! D199  D(45,42,44,51)        -61.0598         estimate D2E/DX2                !
 ! D200  D(42,43,46,52)        -55.8325         estimate D2E/DX2                !
 ! D201  D(42,43,46,53)       -178.603          estimate D2E/DX2                !
 ! D202  D(42,43,46,54)         64.706          estimate D2E/DX2                !
 ! D203  D(47,43,46,52)         64.2982         estimate D2E/DX2                !
 ! D204  D(47,43,46,53)        -58.4723         estimate D2E/DX2                !
 ! D205  D(47,43,46,54)       -175.1633         estimate D2E/DX2                !
 ! D206  D(48,43,46,52)       -177.834          estimate D2E/DX2                !
 ! D207  D(48,43,46,53)         59.3955         estimate D2E/DX2                !
 ! D208  D(48,43,46,54)        -57.2955         estimate D2E/DX2                !
 ! D209  D(42,44,49,52)         55.9707         estimate D2E/DX2                !
 ! D210  D(42,44,49,55)        178.7293         estimate D2E/DX2                !
 ! D211  D(42,44,49,56)        -64.5658         estimate D2E/DX2                !
 ! D212  D(50,44,49,52)        -64.2416         estimate D2E/DX2                !
 ! D213  D(50,44,49,55)         58.517          estimate D2E/DX2                !
 ! D214  D(50,44,49,56)        175.2219         estimate D2E/DX2                !
 ! D215  D(51,44,49,52)        177.9949         estimate D2E/DX2                !
 ! D216  D(51,44,49,55)        -59.2465         estimate D2E/DX2                !
 ! D217  D(51,44,49,56)         57.4584         estimate D2E/DX2                !
 ! D218  D(43,46,52,49)         55.6579         estimate D2E/DX2                !
 ! D219  D(43,46,52,57)        178.2073         estimate D2E/DX2                !
 ! D220  D(43,46,52,58)        -64.6539         estimate D2E/DX2                !
 ! D221  D(53,46,52,49)        177.928          estimate D2E/DX2                !
 ! D222  D(53,46,52,57)        -59.5226         estimate D2E/DX2                !
 ! D223  D(53,46,52,58)         57.6162         estimate D2E/DX2                !
 ! D224  D(54,46,52,49)        -64.9594         estimate D2E/DX2                !
 ! D225  D(54,46,52,57)         57.5901         estimate D2E/DX2                !
 ! D226  D(54,46,52,58)        174.7289         estimate D2E/DX2                !
 ! D227  D(44,49,52,46)        -55.7016         estimate D2E/DX2                !
 ! D228  D(44,49,52,57)       -178.2434         estimate D2E/DX2                !
 ! D229  D(44,49,52,58)         64.5726         estimate D2E/DX2                !
 ! D230  D(55,49,52,46)       -178.0067         estimate D2E/DX2                !
 ! D231  D(55,49,52,57)         59.4516         estimate D2E/DX2                !
 ! D232  D(55,49,52,58)        -57.7325         estimate D2E/DX2                !
 ! D233  D(56,49,52,46)         64.879          estimate D2E/DX2                !
 ! D234  D(56,49,52,57)        -57.6628         estimate D2E/DX2                !
 ! D235  D(56,49,52,58)       -174.8468         estimate D2E/DX2                !
 --------------------------------------------------------------------------------
 Trust Radius=3.00D-01 FncErr=5.00D-06 GrdErr=5.00D-06 EigMax=2.50D+02 EigMin=1.00D-04
 Number of steps in this run=    489 maximum allowed number of steps=    492.
 GradGradGradGradGradGradGradGradGradGradGradGradGradGradGradGradGradGrad

 Leave Link  103 at Fri Dec 21 14:00:25 2018, MaxMem=  1342177280 cpu:               0.7 elap:               0.1
 (Enter /gpfs/apps/hpc/Apps/Restricted/Gaussian/Rev_A.03/g16/l202.exe)
 Symmetry turned off by external request.
 Stoichiometry    C35H41N5O(1+,2)
 Framework group  C1[X(C35H41N5O)]
 Deg. of freedom   240
 Full point group                 C1      NOp   1
                          Input orientation:                          
 ---------------------------------------------------------------------
 Center     Atomic      Atomic             Coordinates (Angstroms)
 Number     Number       Type             X           Y           Z
 ---------------------------------------------------------------------
      1          6           0        1.610100    1.119887   -0.016592
      2          6           0        0.387654    1.823100   -0.110289
      3          6           0        0.394709    3.214206   -0.279630
      4          6           0        1.629508    3.853355   -0.353530
      5          6           0        2.836705    3.137920   -0.255874
      6          6           0        2.862617    1.749113   -0.088009
      7          6           0       -0.103131   -0.271394    0.119367
      8          1           0       -0.533870    3.767141   -0.354507
      9          1           0        1.667298    4.928384   -0.484284
     10          1           0        3.778459    3.672304   -0.314934
     11          6           0       -2.275850   -1.433338    0.174275
     12          6           0       -3.111214   -2.583344    0.225822
     13          6           0       -2.541317   -3.860290    0.354036
     14          6           0       -1.158457   -3.930603    0.424500
     15          6           0       -0.336477   -2.780900    0.359908
     16          6           0       -0.871184   -1.500344    0.226928
     17          6           0       -4.394123   -0.832707    0.047231
     18          1           0       -3.161202   -4.746076    0.396077
     19          1           0       -0.681788   -4.897399    0.528322
     20          1           0        0.737999   -2.907232    0.417620
     21          7           0       -0.665706    0.928927   -0.018002
     22          6           0       -6.863891   -0.743784   -0.156657
     23          6           0       -5.588833   -0.044262   -0.056596
     24          6           0       -5.562564    1.346981   -0.066497
     25          6           0       -6.744582    2.077086   -0.172472
     26          6           0       -7.980358    1.366127   -0.289258
     27          6           0       -8.091216   -0.003049   -0.292255
     28          1           0       -4.611976    1.855476    0.014399
     29          1           0       -8.880069    1.956967   -0.374766
     30          6           0       -6.779701    3.595637   -0.158121
     31          6           0       -9.435185   -0.719511   -0.436066
     32          8           0       -6.895866   -2.046520   -0.124931
     33          1           0       -5.923596   -2.409296   -0.004706
     34          7           0       -3.111043   -0.358838    0.066845
     35          7           0       -4.416137   -2.172558    0.138838
     36          1           0       -2.744957    0.589114   -0.006368
     37          7           0        1.266953   -0.201069    0.128886
     38          1           0        1.964436   -0.933305    0.203268
     39          6           0        4.111996    1.001786    0.009392
     40          1           0        5.026328    1.601084   -0.059864
     41          7           0        4.127940   -0.271477    0.160371
     42          6           0        5.445435   -0.925355    0.238992
     43          6           0        6.255350   -0.751212   -1.057128
     44          6           0        6.260566   -0.455198    1.455691
     45          1           0        5.248432   -1.996105    0.365963
     46          6           0        7.602352   -1.475986   -0.971527
     47          1           0        6.426117    0.319320   -1.223555
     48          1           0        5.669167   -1.118258   -1.904829
     49          6           0        7.607014   -1.182463    1.536392
     50          1           0        6.435454    0.623745    1.368884
     51          1           0        5.678678   -0.613918    2.368436
     52          6           0        8.411139   -1.008749    0.243470
     53          1           0        8.167311   -1.315501   -1.894699
     54          1           0        7.426905   -2.556250   -0.891917
     55          1           0        8.175968   -0.814614    2.395621
     56          1           0        7.430043   -2.251728    1.708998
     57          1           0        9.354816   -1.559302    0.306018
     58          1           0        8.667790    0.050929    0.118281
     59          6           0       -7.470518    4.095679   -1.447677
     60          1           0       -8.490285    3.717232   -1.539746
     61          1           0       -7.517719    5.186939   -1.425976
     62          1           0       -6.909157    3.789810   -2.333545
     63          6           0       -7.599146    4.051847    1.072447
     64          1           0       -7.684387    5.141441    1.062816
     65          1           0       -8.607600    3.632470    1.067687
     66          1           0       -7.104020    3.752229    1.999028
     67          6           0       -5.377680    4.212208   -0.079018
     68          1           0       -4.858607    3.917738    0.836557
     69          1           0       -4.765202    3.920617   -0.935774
     70          1           0       -5.464897    5.300477   -0.079913
     71          6           0       -9.423871   -1.582640   -1.716967
     72          1           0       -8.645529   -2.344770   -1.685695
     73          1           0      -10.390781   -2.081550   -1.821137
     74          1           0       -9.266680   -0.958090   -2.599853
     75          6           0      -10.588784    0.287924   -0.549624
     76          1           0      -10.660964    0.921659    0.337787
     77          1           0      -10.482900    0.931575   -1.426512
     78          1           0      -11.526753   -0.261770   -0.649545
     79          6           0       -9.702910   -1.606803    0.800330
     80          1           0      -10.679375   -2.085149    0.688894
     81          1           0       -8.949345   -2.384203    0.913867
     82          1           0       -9.722625   -1.001779    1.710051
 ---------------------------------------------------------------------
 Rotational constants (GHZ):           0.1800950           0.0302716           0.0265305
 Leave Link  202 at Fri Dec 21 14:00:25 2018, MaxMem=  1342177280 cpu:               1.0 elap:               0.1
 (Enter /gpfs/apps/hpc/Apps/Restricted/Gaussian/Rev_A.03/g16/l301.exe)
 Standard basis: 6-31G(d,p) (6D, 7F)
 Ernie: Thresh=  0.10000D-02 Tol=  0.10000D-05 Strict=F.
   820 basis functions,  1435 primitive gaussians,   820 cartesian basis functions
   147 alpha electrons      146 beta electrons
       nuclear repulsion energy      4410.7202978722 Hartrees.
 IExCor=  402 DFT=T Ex+Corr=B3LYP ExCW=0 ScaHFX=  0.200000
 ScaDFX=  0.800000  0.720000  1.000000  0.810000 ScalE2=  1.000000  1.000000
 IRadAn=      5 IRanWt=     -1 IRanGd=            0 ICorTp=0 IEmpDi=141
 NAtoms=   82 NActive=   82 NUniq=   82 SFac= 1.00D+00 NAtFMM=   60 NAOKFM=T Big=T
 Integral buffers will be    131072 words long.
 Raffenetti 2 integral format.
 Two-electron integral symmetry is turned off.
 R6Disp:  Grimme-D3(BJ) Dispersion energy=       -0.1857130776 Hartrees.
 Nuclear repulsion after empirical dispersion term =     4410.5345847945 Hartrees.
 Using the following non-standard input for PCM:
 radii=bondi
 dis
 rep
 cav
 --- end of non-standard input.
 ------------------------------------------------------------------------------
 Polarizable Continuum Model (PCM)
 =================================
 Model                : C-PCM.
 Atomic radii         : Bondi.
 Polarization charges : Total charges.
 Charge compensation  : None.
 Solution method      : On-the-fly selection.
 Cavity type          : Scaled VdW (van der Waals Surface) (Alpha=1.100).
 Cavity algorithm     : GePol (No added spheres)
                        Default sphere list used, NSphG=   82.
                        Lebedev-Laikov grids with approx.  5.0 points / Ang**2.
                        Smoothing algorithm: York/Karplus (Gamma=1.0000).
                        Polarization charges: spherical gaussians, with
                                              point-specific exponents (IZeta= 3).
                        Self-potential: point-specific (ISelfS= 7).
                        Self-field    : sphere-specific E.n sum rule (ISelfD= 2).
 1st derivatives      : Analytical E(r).r(x)/FMM algorithm (CHGder, D1EAlg=3).
                        Cavity 1st derivative terms included.
 Solvent              : Dichloromethane, Eps=   8.930000 Eps(inf)=   2.028346
 ------------------------------------------------------------------------------
 GePol: Number of generator spheres                  =      82
 GePol: Total number of spheres                      =      82
 GePol: Number of exposed spheres                    =      82 (100.00%)
 GePol: Number of points                             =    5252
 GePol: Average weight of points                     =       0.12
 GePol: Minimum weight of points                     =   0.27D-11
 GePol: Maximum weight of points                     =    0.21770
 GePol: Number of points with low weight             =     358
 GePol: Fraction of low-weight points (<1% of avg)   =       6.82%
 GePol: Cavity surface area                          =    622.793 Ang**2
 GePol: Cavity volume                                =    611.120 Ang**3
 PCM non-electrostatic energy =         0.0283078979 Hartrees.
 Nuclear repulsion after PCM non-electrostatic terms =     4410.5628926924 Hartrees.
 Leave Link  301 at Fri Dec 21 14:00:26 2018, MaxMem=  1342177280 cpu:               5.5 elap:               0.5
 (Enter /gpfs/apps/hpc/Apps/Restricted/Gaussian/Rev_A.03/g16/l302.exe)
 NPDir=0 NMtPBC=     1 NCelOv=     1 NCel=       1 NClECP=     1 NCelD=      1
         NCelK=      1 NCelE2=     1 NClLst=     1 CellRange=     0.0.
 One-electron integrals computed using PRISM.
 NBasis=   820 RedAO= T EigKep=  2.77D-04  NBF=   820
 NBsUse=   820 1.00D-06 EigRej= -1.00D+00 NBFU=   820
 Precomputing XC quadrature grid using
 IXCGrd= 4 IRadAn=           5 IRanWt=          -1 IRanGd=           0 AccXCQ= 0.00D+00.
 Generated NRdTot=       0 NPtTot=           0 NUsed=           0 NTot=          32
 NSgBfM=   750   750   750   750   750 MxSgAt=    82 MxSgA2=    82.
 Leave Link  302 at Fri Dec 21 14:00:28 2018, MaxMem=  1342177280 cpu:              26.6 elap:               1.7
 (Enter /gpfs/apps/hpc/Apps/Restricted/Gaussian/Rev_A.03/g16/l303.exe)
 DipDrv:  MaxL=1.
 Leave Link  303 at Fri Dec 21 14:00:28 2018, MaxMem=  1342177280 cpu:               2.4 elap:               0.2
 (Enter /gpfs/apps/hpc/Apps/Restricted/Gaussian/Rev_A.03/g16/l401.exe)
 ExpMin= 1.61D-01 ExpMax= 5.48D+03 ExpMxC= 8.25D+02 IAcc=3 IRadAn=         5 AccDes= 0.00D+00
 Harris functional with IExCor=  402 and IRadAn=       5 diagonalized for initial guess.
 HarFok:  IExCor=  402 AccDes= 0.00D+00 IRadAn=         5 IDoV= 1 UseB2=F ITyADJ=14
 ICtDFT=  3500011 ScaDFX=  1.000000  1.000000  1.000000  1.000000
 FoFCou: FMM=F IPFlag=           0 FMFlag=      100000 FMFlg1=        2001
         NFxFlg=           0 DoJE=T BraDBF=F KetDBF=T FulRan=T
         wScrn=  0.000000 ICntrl=       500 IOpCl=  0 I1Cent=   200000004 NGrid=           0
         NMat0=    1 NMatS0=      1 NMatT0=    0 NMatD0=    1 NMtDS0=    0 NMtDT0=    0
 Symmetry not used in FoFCou.
 Harris En= -1707.45546485306    
 JPrj=0 DoOrth=F DoCkMO=F.
 Initial guess <Sx>= 0.0000 <Sy>= 0.0000 <Sz>= 0.5000 <S**2>= 0.7500 S= 0.5000
 Leave Link  401 at Fri Dec 21 14:00:33 2018, MaxMem=  1342177280 cpu:              78.9 elap:               5.0
 (Enter /gpfs/apps/hpc/Apps/Restricted/Gaussian/Rev_A.03/g16/l502.exe)
 Two-electron integral symmetry not used.
 UHF open shell SCF:
 Using DIIS extrapolation, IDIIS=  1040.
 NGot=  1342177280 LenX=  1340812546 LenY=  1340139326
 Requested convergence on RMS density matrix=1.00D-08 within 128 cycles.
 Requested convergence on MAX density matrix=1.00D-06.
 Requested convergence on             energy=1.00D-06.
 No special actions if energy rises.
 Fock matrices will be formed incrementally for  20 cycles.

 Cycle   1  Pass 1  IDiag  1:
 FoFJK:  IHMeth= 1 ICntrl=       0 DoSepK=F KAlg= 0 I1Cent=           0 FoldK=F
 IRaf= 620000000 NMat=       1 IRICut=       1 DoRegI=T DoRafI=F ISym2E= 0 IDoP0=0 IntGTp=1.
 FoFCou: FMM=T IPFlag=           0 FMFlag=      100000 FMFlg1=        2001
         NFxFlg=           0 DoJE=F BraDBF=F KetDBF=F FulRan=T
         wScrn=  0.000000 ICntrl=         0 IOpCl=  1 I1Cent=           0 NGrid=           0
         NMat0=    1 NMatS0=      1 NMatT0=    0 NMatD0=    1 NMtDS0=    0 NMtDT0=    0
 Symmetry not used in FoFCou.
 FMM levels:  10  Number of levels for PrismC:   9
 Inv3:  Mode=1 IEnd=    82750512.
 Iteration    1 A*A^-1 deviation from unit magnitude is 1.78D-14 for    657.
 Iteration    1 A*A^-1 deviation from orthogonality  is 4.76D-15 for   4485    313.
 Iteration    1 A^-1*A deviation from unit magnitude is 1.78D-14 for    657.
 Iteration    1 A^-1*A deviation from orthogonality  is 2.80D-15 for   1476    845.
 E= -1706.57928507513    
 DIIS: error= 2.92D-02 at cycle   1 NSaved=   1.
 NSaved= 1 IEnMin= 1 EnMin= -1706.57928507513     IErMin= 1 ErrMin= 2.92D-02
 ErrMax= 2.92D-02  0.00D+00 EMaxC= 1.00D-01 BMatC= 3.63D+00 BMatP= 3.63D+00
 IDIUse=3 WtCom= 7.08D-01 WtEn= 2.92D-01
 Coeff-Com:  0.100D+01
 Coeff-En:   0.100D+01
 Coeff:      0.100D+01
 Gap=     0.180 Goal=   None    Shift=    0.000
 Gap=     0.016 Goal=   None    Shift=    0.000
 GapD=    0.016 DampG=0.250 DampE=0.500 DampFc=0.2500 IDamp=-1.
 Damping current iteration by 2.50D-01
 RMSDP=2.84D-03 MaxDP=1.51D-01              OVMax= 3.10D-01

 Cycle   2  Pass 1  IDiag  1:
 RMSU=  6.86D-04    CP:  9.84D-01
 E= -1706.92406159763     Delta-E=       -0.344776522501 Rises=F Damp=T
 DIIS: error= 1.71D-02 at cycle   2 NSaved=   2.
 NSaved= 2 IEnMin= 2 EnMin= -1706.92406159763     IErMin= 2 ErrMin= 1.71D-02
 ErrMax= 1.71D-02  0.00D+00 EMaxC= 1.00D-01 BMatC= 9.77D-01 BMatP= 3.63D+00
 IDIUse=3 WtCom= 8.29D-01 WtEn= 1.71D-01
 Coeff-Com: -0.860D+00 0.186D+01
 Coeff-En:   0.000D+00 0.100D+01
 Coeff:     -0.712D+00 0.171D+01
 Gap=     0.173 Goal=   None    Shift=    0.000
 Gap=     0.042 Goal=   None    Shift=    0.000
 RMSDP=1.11D-03 MaxDP=7.47D-02 DE=-3.45D-01 OVMax= 2.92D-01

 Cycle   3  Pass 1  IDiag  1:
 RMSU=  7.65D-04    CP:  9.51D-01  2.05D+00
 E= -1707.50519628881     Delta-E=       -0.581134691180 Rises=F Damp=F
 DIIS: error= 4.81D-03 at cycle   3 NSaved=   3.
 NSaved= 3 IEnMin= 3 EnMin= -1707.50519628881     IErMin= 3 ErrMin= 4.81D-03
 ErrMax= 4.81D-03  0.00D+00 EMaxC= 1.00D-01 BMatC= 1.20D-01 BMatP= 9.77D-01
 IDIUse=3 WtCom= 9.52D-01 WtEn= 4.81D-02
 Coeff-Com: -0.320D+00 0.701D+00 0.619D+00
 Coeff-En:   0.000D+00 0.000D+00 0.100D+01
 Coeff:     -0.305D+00 0.667D+00 0.638D+00
 Gap=     0.143 Goal=   None    Shift=    0.000
 Gap=     0.036 Goal=   None    Shift=    0.000
 RMSDP=3.75D-04 MaxDP=3.56D-02 DE=-5.81D-01 OVMax= 1.21D-01

 Cycle   4  Pass 1  IDiag  1:
 RMSU=  3.02D-04    CP:  9.54D-01  2.08D+00  7.14D-01
 E= -1707.52559230198     Delta-E=       -0.020396013165 Rises=F Damp=F
 DIIS: error= 3.49D-03 at cycle   4 NSaved=   4.
 NSaved= 4 IEnMin= 4 EnMin= -1707.52559230198     IErMin= 4 ErrMin= 3.49D-03
 ErrMax= 3.49D-03  0.00D+00 EMaxC= 1.00D-01 BMatC= 4.82D-02 BMatP= 1.20D-01
 IDIUse=3 WtCom= 9.65D-01 WtEn= 3.49D-02
 Coeff-Com: -0.459D-01 0.116D+00 0.386D+00 0.544D+00
 Coeff-En:   0.000D+00 0.000D+00 0.286D+00 0.714D+00
 Coeff:     -0.443D-01 0.112D+00 0.383D+00 0.550D+00
 Gap=     0.141 Goal=   None    Shift=    0.000
 Gap=     0.036 Goal=   None    Shift=    0.000
 RMSDP=1.61D-04 MaxDP=1.75D-02 DE=-2.04D-02 OVMax= 3.74D-02

 Cycle   5  Pass 1  IDiag  1:
 RMSU=  9.16D-05    CP:  9.53D-01  2.04D+00  7.99D-01  6.28D-01
 E= -1707.53712972911     Delta-E=       -0.011537427130 Rises=F Damp=F
 DIIS: error= 7.58D-04 at cycle   5 NSaved=   5.
 NSaved= 5 IEnMin= 5 EnMin= -1707.53712972911     IErMin= 5 ErrMin= 7.58D-04
 ErrMax= 7.58D-04  0.00D+00 EMaxC= 1.00D-01 BMatC= 3.05D-03 BMatP= 4.82D-02
 IDIUse=3 WtCom= 9.92D-01 WtEn= 7.58D-03
 Coeff-Com:  0.421D-02-0.513D-03 0.150D+00 0.285D+00 0.562D+00
 Coeff-En:   0.000D+00 0.000D+00 0.000D+00 0.000D+00 0.100D+01
 Coeff:      0.418D-02-0.509D-03 0.149D+00 0.282D+00 0.565D+00
 Gap=     0.141 Goal=   None    Shift=    0.000
 Gap=     0.038 Goal=   None    Shift=    0.000
 RMSDP=5.08D-05 MaxDP=6.34D-03 DE=-1.15D-02 OVMax= 2.06D-02

 Cycle   6  Pass 1  IDiag  1:
 RMSU=  3.77D-05    CP:  9.53D-01  2.05D+00  8.07D-01  6.81D-01  6.84D-01
 E= -1707.53790960769     Delta-E=       -0.000779878584 Rises=F Damp=F
 DIIS: error= 2.20D-04 at cycle   6 NSaved=   6.
 NSaved= 6 IEnMin= 6 EnMin= -1707.53790960769     IErMin= 6 ErrMin= 2.20D-04
 ErrMax= 2.20D-04  0.00D+00 EMaxC= 1.00D-01 BMatC= 2.97D-04 BMatP= 3.05D-03
 IDIUse=3 WtCom= 9.98D-01 WtEn= 2.20D-03
 Coeff-Com:  0.556D-02-0.847D-02 0.482D-01 0.971D-01 0.296D+00 0.562D+00
 Coeff-En:   0.000D+00 0.000D+00 0.000D+00 0.000D+00 0.000D+00 0.100D+01
 Coeff:      0.555D-02-0.845D-02 0.481D-01 0.969D-01 0.295D+00 0.563D+00
 Gap=     0.141 Goal=   None    Shift=    0.000
 Gap=     0.038 Goal=   None    Shift=    0.000
 RMSDP=1.71D-05 MaxDP=1.71D-03 DE=-7.80D-04 OVMax= 1.05D-02

 Cycle   7  Pass 1  IDiag  1:
 RMSU=  1.40D-05    CP:  9.53D-01  2.05D+00  8.07D-01  6.91D-01  7.83D-01
                    CP:  1.05D+00
 E= -1707.53801166787     Delta-E=       -0.000102060177 Rises=F Damp=F
 DIIS: error= 1.61D-04 at cycle   7 NSaved=   7.
 NSaved= 7 IEnMin= 7 EnMin= -1707.53801166787     IErMin= 7 ErrMin= 1.61D-04
 ErrMax= 1.61D-04  0.00D+00 EMaxC= 1.00D-01 BMatC= 5.20D-05 BMatP= 2.97D-04
 IDIUse=3 WtCom= 9.98D-01 WtEn= 1.61D-03
 Coeff-Com:  0.230D-02-0.441D-02-0.231D-02-0.798D-02 0.527D-01 0.259D+00
 Coeff-Com:  0.701D+00
 Coeff-En:   0.000D+00 0.000D+00 0.000D+00 0.000D+00 0.000D+00 0.000D+00
 Coeff-En:   0.100D+01
 Coeff:      0.229D-02-0.440D-02-0.231D-02-0.797D-02 0.526D-01 0.259D+00
 Coeff:      0.701D+00
 Gap=     0.141 Goal=   None    Shift=    0.000
 Gap=     0.039 Goal=   None    Shift=    0.000
 RMSDP=1.36D-05 MaxDP=1.38D-03 DE=-1.02D-04 OVMax= 1.03D-02

 Cycle   8  Pass 1  IDiag  1:
 RMSU=  7.34D-06    CP:  9.53D-01  2.05D+00  8.08D-01  7.02D-01  8.31D-01
                    CP:  1.30D+00  1.17D+00
 E= -1707.53805419676     Delta-E=       -0.000042528891 Rises=F Damp=F
 DIIS: error= 1.11D-04 at cycle   8 NSaved=   8.
 NSaved= 8 IEnMin= 8 EnMin= -1707.53805419676     IErMin= 8 ErrMin= 1.11D-04
 ErrMax= 1.11D-04  0.00D+00 EMaxC= 1.00D-01 BMatC= 1.79D-05 BMatP= 5.20D-05
 IDIUse=3 WtCom= 9.99D-01 WtEn= 1.11D-03
 Coeff-Com: -0.785D-03 0.111D-02-0.165D-01-0.410D-01-0.789D-01-0.128D+00
 Coeff-Com:  0.305D+00 0.959D+00
 Coeff-En:   0.000D+00 0.000D+00 0.000D+00 0.000D+00 0.000D+00 0.000D+00
 Coeff-En:   0.000D+00 0.100D+01
 Coeff:     -0.785D-03 0.111D-02-0.165D-01-0.410D-01-0.788D-01-0.128D+00
 Coeff:      0.304D+00 0.959D+00
 Gap=     0.141 Goal=   None    Shift=    0.000
 Gap=     0.039 Goal=   None    Shift=    0.000
 RMSDP=1.45D-05 MaxDP=1.55D-03 DE=-4.25D-05 OVMax= 1.21D-02

 Cycle   9  Pass 1  IDiag  1:
 RMSU=  4.03D-06    CP:  9.53D-01  2.05D+00  8.08D-01  7.13D-01  8.87D-01
                    CP:  1.56D+00  1.71D+00  1.41D+00
 E= -1707.53808059617     Delta-E=       -0.000026399409 Rises=F Damp=F
 DIIS: error= 5.02D-05 at cycle   9 NSaved=   9.
 NSaved= 9 IEnMin= 9 EnMin= -1707.53808059617     IErMin= 9 ErrMin= 5.02D-05
 ErrMax= 5.02D-05  0.00D+00 EMaxC= 1.00D-01 BMatC= 8.37D-06 BMatP= 1.79D-05
 IDIUse=1 WtCom= 1.00D+00 WtEn= 0.00D+00
 Coeff-Com: -0.816D-03 0.143D-02-0.967D-02-0.247D-01-0.636D-01-0.162D+00
 Coeff-Com: -0.177D-01 0.619D+00 0.657D+00
 Coeff:     -0.816D-03 0.143D-02-0.967D-02-0.247D-01-0.636D-01-0.162D+00
 Coeff:     -0.177D-01 0.619D+00 0.657D+00
 Gap=     0.140 Goal=   None    Shift=    0.000
 Gap=     0.039 Goal=   None    Shift=    0.000
 RMSDP=7.48D-06 MaxDP=7.21D-04 DE=-2.64D-05 OVMax= 6.10D-03

 Cycle  10  Pass 1  IDiag  1:
 RMSU=  2.14D-06    CP:  9.53D-01  2.05D+00  8.08D-01  7.17D-01  9.13D-01
                    CP:  1.69D+00  1.95D+00  1.77D+00  1.08D+00
 E= -1707.53808857928     Delta-E=       -0.000007983112 Rises=F Damp=F
 DIIS: error= 2.80D-05 at cycle  10 NSaved=  10.
 NSaved=10 IEnMin=10 EnMin= -1707.53808857928     IErMin=10 ErrMin= 2.80D-05
[...]
 2450,-0.00001270,-0.00000089,-0.00000135,0.00000035,-0.00000015,0.0000
 0060,0.00000149,-0.00000014,0.00000102,0.00000083,-0.00000013,0.000041
 16,-0.00020479,0.00000064,0.00021247,0.00008549,-0.00002991,-0.0000431
 4,0.00007111,-0.00000353,0.00013440,0.00006436,0.00000063,-0.00001791,
 -0.00014054,0.00001003,-0.00009581,0.00001635,0.00000253,0.00009972,-0
 .00011749,0.00003210,-0.00000485,-0.00000845,-0.00000055,0.00000489,-0
 .00000419,0.00000076,0.00000620,-0.00000086,0.00000060,0.00000823,-0.0
 0000054,0.00000158,-0.00029435,-0.00167935,0.00039357,0.00005892,0.000
 29389,-0.00020039,0.00018602,-0.00024261,0.00005710,-0.00019488,0.0000
 6327,0.00000891,-0.00003503,-0.00006938,-0.00001734,0.00022246,0.00038
 453,-0.00043414,0.00000484,0.00000595,0.00001168,0.00002043,0.00001232
 ,-0.00000841,-0.00000234,-0.00001058,0.00001132,0.00468734,-0.00609777
 ,0.00067594,-0.00456226,-0.00000132,0.00282010,-0.00046082,0.00019107,
 -0.00002063,-0.00010219,0.00006394,0.00000476,-0.00004980,0.00011490,0
 .00004293,-0.00002021,-0.00002460,-0.00000152,0.00001193,0.00000482,-0
 .00000031,-0.00000764,0.00000066,-0.00000019,-0.00000808,0.00000531,-0
 .00000074,0.00000191,0.00000035,-0.00000006,0.00000479,-0.00000559,0.0
 0000081,-0.00000181,0.00000328,-0.00000042,0.00000065,-0.00000093,0.00
 000131,0.00000067,-0.00000124,-0.00000113,0.00000047,-0.00000065,0.000
 00008,-0.00000016,0.00000053,-0.00000069,-0.00000008,0.00000004,-0.000
 00002,-0.00000013,0.00000003,0.00000006,-0.00000018,0.00000072,0.00000
 052,-0.00000009,0.00000004,0.00000001,-0.00000014,0.00000002,0.,-0.000
 00017,-0.00000027,0.,0.00000056,-0.00000016,-0.00000017,0.00000001,-0.
 00000014,0.00000011,0.00000059,-0.00000011,0.00000025,0.,-0.00000019,-
 0.00000008,0.00000045,-0.00000012,0.00000003,-0.00000005,0.00000011,0.
 ,0.00000261,0.00000242,0.00000852,0.00000244,-0.00000261,0.00000302,0.
 00000096,0.00000339,-0.00000369,0.00000051,0.00000042,-0.00000202,0.00
 000131,0.00000542,-0.00000787,0.00000074,0.00000330,0.00000447,0.00000
 485,-0.00000219,-0.00000325,0.00000093,0.00000081,0.00000259,-0.000002
 04,0.00000984,-0.00000006,0.00000053,-0.00000066,-0.00000145,0.0000012
 2,0.00000007,0.00000079,0.00000248,0.00000370,-0.00000087,0.00010599,0
 .00002973,-0.00033334,0.00008867,0.00002502,-0.00010504,-0.00003664,0.
 00003436,0.00001207,0.00000638,-0.00010237,-0.00009418,0.00036843,-0.0
 0045892,0.00048391,-0.00014420,-0.00000414,0.00010822,0.00045334,-0.00
 014010,0.00030075,0.00040342,-0.00000845,0.00014084,-0.18430607,0.1398
 4440,-0.02087870,-0.01757316,0.02026834,-0.00199238,0.20018463,0.00000
 757,0.00000743,-0.00000060,0.00000844,0.00000762,-0.00000058,-0.000002
 66,-0.00001609,0.00000185,0.00001822,0.00000076,-0.00000001,-0.0000034
 7,0.00001421,-0.00000176,-0.00000361,-0.00000484,0.00000049,-0.0000205
 1,-0.00001518,0.00000026,-0.00000120,0.00000017,0.00000005,0.00000064,
 0.00000150,-0.00000007,0.00000096,0.00000074,-0.00000003,0.00004014,-0
 .00011459,0.00001386,0.00012661,0.00013597,0.00000873,-0.00002073,0.00
 004613,-0.00000681,0.00008906,0.00003974,-0.00000049,-0.00000900,-0.00
 008920,0.00000609,-0.00005627,0.00001335,-0.00000336,0.00001078,-0.000
 16515,0.00000918,-0.00000063,-0.00000601,0.00000103,0.00000460,-0.0000
 0336,0.00000081,0.00000534,-0.00000077,-0.00000008,0.00000903,0.000002
 84,-0.00000066,-0.00053760,-0.00237394,0.00040747,-0.00008161,0.000159
 49,0.00019713,-0.00000343,0.00002988,0.00000086,0.00013067,0.00001810,
 0.00001159,-0.00015762,-0.00026237,-0.00010401,0.00070778,0.00061126,-
 0.00036251,0.00000180,0.00002186,-0.00002962,0.00006227,0.00009939,0.0
 0003557,-0.00003609,0.00000602,0.00001157,0.01229960,-0.01324979,0.000
 67413,0.00171575,0.00163726,-0.00143226,-0.00039080,0.00046060,-0.0002
 3519,-0.00001079,0.00006271,-0.00001773,0.00027491,0.00003899,0.000040
 37,-0.00001457,-0.00002395,0.00000307,0.00001222,0.00000669,-0.0000003
 6,-0.00000697,0.00000051,0.00000024,-0.00000692,0.00000391,-0.00000052
 ,0.00000176,0.00000040,-0.00000001,0.00000453,-0.00000411,0.00000038,-
 0.00000174,0.00000255,-0.00000026,0.00000050,-0.00000088,0.00000115,0.
 00000044,-0.00000105,-0.00000077,0.00000040,-0.00000038,0.00000004,-0.
 00000021,0.00000040,-0.00000055,-0.00000002,0.00000013,-0.00000002,-0.
 00000010,0.,0.00000008,-0.00000021,0.00000045,0.00000046,-0.00000006,0
 .00000012,0.,-0.00000005,-0.00000001,-0.00000018,-0.00000014,-0.000000
 31,0.00000009,0.00000056,-0.00000014,-0.00000025,0.,-0.00000002,0.0000
 0011,0.00000050,-0.00000010,0.00000021,0.00000001,-0.00000001,-0.00000
 009,0.00000040,-0.00000013,-0.00000001,-0.00000002,0.00000019,-0.00000
 003,0.00002219,0.00000719,0.00001871,-0.00000785,-0.00000010,-0.000001
 29,-0.00000589,0.00000183,-0.00000722,-0.00000041,-0.00000005,-0.00000
 171,0.00001941,0.00001720,-0.00001343,-0.00000550,0.00000243,0.0000075
 3,-0.00000311,0.00000030,0.00000084,-0.00000097,-0.00000089,0.00000114
 ,-0.00000397,0.00000215,0.00000113,-0.00000087,-0.00000194,-0.00000269
 ,-0.00000054,-0.00000093,0.00000205,-0.00000010,0.00000313,-0.00000013
 ,-0.00012264,0.00069387,-0.00123678,-0.00002417,0.00006646,0.00015542,
 -0.00003933,0.00001260,0.00010746,-0.00022237,-0.00002026,-0.00004281,
 -0.00193988,-0.00157508,0.00365008,-0.00027792,0.00025442,-0.00005914,
 0.00112007,-0.00065202,0.00034481,0.00016144,0.00022393,-0.00006253,0.
 13629059,-0.18924634,0.01958362,-0.01051326,0.01207247,-0.00151819,-0.
 15045200,0.20282745,-0.00000377,-0.00000469,0.00000070,-0.00000567,-0.
 00000457,0.00000078,0.00000145,0.00000873,-0.00000122,-0.00000985,-0.0
 0000042,-0.00000013,0.00000194,-0.00000752,0.00000085,0.00000198,0.000
 00234,-0.00000038,0.00000965,0.00000816,0.00000061,0.00000063,-0.00000
 019,0.00000018,-0.00000034,-0.00000075,0.00000012,-0.00000047,-0.00000
 038,0.00000011,-0.00002981,0.00006033,0.00000355,-0.00005912,-0.000095
 47,0.00001638,0.00000591,-0.00001968,-0.00000069,-0.00004352,-0.000018
 40,-0.00000049,0.00000531,0.00004655,-0.00000370,0.00003081,-0.0000106
 8,0.00000025,0.00003077,0.00010003,0.00000422,0.00000129,0.00000432,0.
 00000203,-0.00000262,0.00000187,0.00000002,-0.00000298,0.00000039,-0.0
 0000010,-0.00000412,-0.00000109,-0.00000130,0.00009992,0.00193453,-0.0
 0040938,0.00007658,-0.00019382,-0.00000646,-0.00000647,-0.00005113,-0.
 00000622,-0.00013184,-0.00003109,-0.00003064,0.00011788,0.00027270,0.0
 0008188,-0.00037793,-0.00109129,0.00056518,0.00000286,-0.00001953,0.00
 000832,-0.00006261,-0.00008633,-0.00002707,0.00002122,-0.00000345,-0.0
 0001401,-0.01939263,0.01752310,-0.00293896,0.00113310,-0.00083875,-0.0
 0098013,0.00044787,-0.00039033,0.00018627,-0.00000061,-0.00004338,-0.0
 0000415,-0.00022209,0.00000426,-0.00007242,0.00000688,0.00001387,0.000
 00222,-0.00000591,-0.00000338,0.,0.00000345,-0.00000023,0.00000043,0.0
 0000340,-0.00000207,0.00000033,-0.00000087,-0.00000016,0.00000009,-0.0
 0000215,0.00000212,-0.00000057,0.00000079,-0.00000124,0.00000027,-0.00
 000024,0.00000046,-0.00000046,-0.00000028,0.00000050,0.00000052,-0.000
 00020,0.00000021,0.,0.00000010,-0.00000017,0.00000027,0.00000002,-0.00
 000006,0.,0.,-0.00000002,-0.00000011,0.00000007,-0.00000024,-0.0000002
 3,0.00000002,-0.00000006,0.,0.00000008,0.00000002,-0.00000005,0.000000
 06,0.00000014,0.00000003,-0.00000021,0.00000007,0.00000005,0.,0.,-0.00
 000002,-0.00000028,0.00000003,-0.00000014,0.,0.00000003,0.00000006,-0.
 00000017,0.00000005,-0.00000002,0.,-0.00000008,0.,-0.00001505,-0.00000
 201,-0.00000812,0.00000604,-0.00000200,0.00000125,0.00000437,0.0000001
 2,0.00000291,0.00000071,0.00000021,0.00000091,-0.00000853,-0.00000742,
 0.00000828,0.00000331,-0.00000096,-0.00000335,0.00000245,-0.00000062,-
 0.00000301,0.00000100,-0.00000030,0.00000089,0.00000091,0.00000058,0.0
 0000167,0.00000111,0.00000090,0.00000154,0.,0.00000072,-0.00000133,0.0
 0000102,-0.00000087,0.00000039,-0.00069690,0.00038513,0.00160914,0.000
 16959,-0.00078710,-0.00039109,-0.00000828,-0.00006351,-0.00006997,0.00
 015570,-0.00004215,0.00024197,0.00178558,0.00286358,-0.00440475,0.0000
 3594,0.00019048,0.00023834,-0.00116341,0.00155487,-0.00007054,0.000283
 24,-0.00025707,-0.00004678,-0.01787693,0.01703560,-0.05135397,-0.00259
 203,0.00292356,-0.00120111,0.01887355,-0.02273812,0.05529493,0.0000003
 5,-0.00000002,0.00000010,-0.00000044,-0.00000026,0.00000012,-0.0000004
 4,-0.00000094,-0.00000002,0.00000147,-0.00000015,-0.00000006,-0.000000
 38,0.00000129,-0.00000020,0.00000004,-0.00000077,0.00000012,-0.0000027
 5,0.00000194,0.00000007,-0.00000012,-0.00000024,0.00000019,0.,0.000000
 13,0.00000005,0.00000017,0.00000006,0.00000003,-0.00000499,-0.00000646
 ,-0.00000034,0.00000305,-0.00001752,-0.00000199,-0.00000160,0.00000244
 ,-0.00000026,0.00000403,0.00000227,-0.00000022,-0.00000056,-0.00000553
 ,0.00000026,-0.00000667,-0.00000047,0.00000116,0.00001207,0.00001191,0
 .00000417,-0.00000014,0.00000043,0.00000049,-0.00000011,-0.00000004,0.
 00000020,0.00000011,0.00000002,0.00000010,0.00000137,-0.00000105,-0.00
 000075,0.00006031,0.00035426,0.00008135,-0.00000228,0.00004109,-0.0000
 1508,0.00005117,-0.00005775,0.00002334,-0.00008118,-0.00000581,-0.0000
 1214,0.00015232,-0.00003956,-0.00012686,0.00043972,0.00078249,0.000713
 48,0.00000075,-0.00000515,-0.00000549,0.00002337,0.00000902,0.00000166
 ,0.00000675,-0.00000484,-0.00000032,-0.00211532,0.00352005,0.00554142,
 -0.00055944,-0.00021623,-0.00001310,0.00009283,-0.00010862,0.00004080,
 -0.00001501,-0.00000370,-0.00000125,-0.00007832,0.00001542,-0.00001196
 ,-0.00000314,0.00000024,0.00000178,0.00000157,-0.00000032,-0.00000033,
 -0.00000076,0.00000021,0.00000033,-0.00000126,0.00000061,-0.00000002,0
 .00000026,0.00000011,0.00000005,0.00000081,-0.00000070,-0.00000017,-0.
 00000038,0.00000048,0.00000003,0.00000007,-0.00000015,0.00000024,0.000
 00004,-0.00000019,-0.00000007,0.00000006,-0.00000006,0.00000001,-0.000
 00005,0.00000011,-0.00000011,0.,0.00000002,0.,-0.00000003,0.,0.,-0.000
 00009,0.00000010,0.00000006,-0.00000002,0.00000001,0.,0.00000002,0.000
 00001,-0.00000011,-0.00000004,-0.00000007,0.00000005,0.00000013,-0.000
 00003,-0.00000008,0.,-0.00000002,0.00000004,0.00000010,-0.00000002,0.0
 0000005,0.,0.,-0.00000001,0.00000013,-0.00000005,-0.00000002,-0.000000
 01,0.00000005,-0.00000001,-0.00000083,-0.00000026,0.00000023,0.0000009
 0,-0.00000144,0.00000102,0.00000108,0.00000102,-0.00000022,-0.00000011
 ,0.,-0.00000050,0.00000740,0.00001741,-0.00001366,0.00000128,0.0000015
 7,-0.00000139,-0.00001237,-0.00003858,-0.00000555,0.00001067,0.0000228
 7,-0.00002988,0.00000103,0.00000331,0.00000088,-0.00000104,-0.00000025
 ,-0.00000070,-0.00000020,-0.00000008,0.00000026,0.00000051,0.00000133,
 0.00000003,0.00009171,-0.00102631,0.00077008,0.00003858,-0.00021197,-0
 .00022105,0.00021954,0.00021916,0.00018086,0.00049933,0.00023244,0.000
 41076,-0.00003120,-0.00004725,-0.00074294,0.00051164,-0.00025485,-0.00
 023911,-0.00012802,-0.00005206,0.00006279,0.00002753,-0.00006479,-0.00
 003729,-0.04888033,0.00277107,0.00303415,0.00186087,-0.01579967,-0.024
 40797,0.00062065,0.01183851,0.01939931,0.04718385,0.00000363,0.0000052
 0,-0.00000070,0.00000579,0.00000524,-0.00000066,-0.00000150,-0.0000086
 6,0.00000124,0.00000990,0.00000042,0.00000017,-0.00000200,0.00000762,-
 0.00000083,-0.00000210,-0.00000252,0.00000025,-0.00001088,-0.00000774,
 -0.00000022,-0.00000069,0.00000025,-0.00000025,0.00000030,0.00000070,-
 0.00000016,0.00000045,0.00000037,-0.00000011,0.00002275,-0.00010426,0.
 00001084,0.00011438,0.00003879,0.00000753,-0.00002531,0.00003648,-0.00
 000491,0.00006755,0.00003277,0.00000016,-0.00000799,-0.00006793,0.0000
 0477,-0.00004480,0.00000809,-0.00000247,0.00007612,-0.00010252,0.00001
 211,-0.00000174,-0.00000378,-0.00000037,0.00000215,-0.00000203,0.00000
 005,0.00000303,-0.00000036,-0.00000015,0.00000337,0.00000081,0.0000012
 1,0.00013796,-0.00037330,-0.00003133,-0.00006093,0.00019526,0.00000171
 ,0.00014880,-0.00017601,0.00002246,-0.00024282,-0.00000014,0.00005372,
 0.00023535,-0.00009539,-0.00026993,0.00030847,0.00129920,0.00041888,0.
 00000443,-0.00000120,-0.00000260,-0.00000098,-0.00000431,-0.00002958,0
 .00000779,-0.00000331,-0.00000989,-0.00013219,0.01002794,0.01654687,0.
 00042337,0.00022651,-0.00019374,-0.00004047,0.00008111,-0.00002620,-0.
 00006218,0.00003388,-0.00000710,-0.00000911,0.00007461,-0.00000380,-0.
 00000900,-0.00001084,-0.00000101,0.00000505,0.00000269,0.00000044,-0.0
 0000355,0.00000003,-0.00000043,-0.00000338,0.00000218,-0.00000032,0.00
 000086,0.00000015,-0.00000008,0.00000207,-0.00000220,0.00000057,-0.000
 00074,0.00000120,-0.00000028,0.00000024,-0.00000043,0.00000045,0.00000
 032,-0.00000051,-0.00000059,0.00000020,-0.00000022,0.,-0.00000007,0.00
 000017,-0.00000029,-0.00000003,0.00000005,0.,0.,0.00000003,0.00000012,
 -0.00000008,0.00000025,0.00000021,-0.00000002,0.00000007,0.,-0.0000001
 2,-0.00000003,0.00000011,-0.00000008,-0.00000013,-0.00000006,0.0000001
 8,-0.00000007,0.,0.00000001,0.,0.00000002,0.00000030,-0.00000002,0.000
 00017,0.,-0.00000005,-0.00000006,0.00000017,-0.00000005,0.00000003,0.,
 0.00000007,0.,-0.00000396,0.00000896,0.00000253,0.00000585,-0.00000172
 ,0.00000321,0.00000262,0.00000245,-0.00000287,0.00000067,0.00000032,-0
 .00000114,0.00002467,0.00006020,-0.00005195,0.00000185,0.00000155,0.00
 000215,-0.00007998,-0.00010028,0.00005645,0.00003185,0.00005182,-0.000
 05094,-0.00000171,0.00000882,-0.00000340,0.00000063,-0.00000039,0.0000
 0002,0.00000099,0.00000040,0.00000074,0.00000253,0.00000265,-0.0000004
 6,-0.00054731,-0.00193053,0.00302681,-0.00011241,-0.00002205,0.0000196
 4,0.00015270,-0.00006172,0.00002152,-0.00000326,0.00074884,0.00104068,
 -0.00036492,0.00109281,0.00047035,-0.00037610,0.00007833,0.00018618,-0
 .00015131,0.00021196,-0.00014710,0.00009535,-0.00004700,-0.00000398,0.
 00273459,-0.13484727,-0.12599156,0.00137885,-0.00764679,-0.01028000,-0
 .00183514,-0.01178679,-0.01811779,-0.00187926,0.14306132,0.00000316,0.
 00000481,-0.00000085,0.00000536,0.00000452,-0.00000084,-0.00000110,-0.
 00000769,0.00000131,0.00000852,0.00000042,0.00000027,-0.00000176,0.000
 00662,-0.00000066,-0.00000230,-0.00000219,0.00000035,-0.00000867,-0.00
 000681,-0.00000043,-0.00000058,0.00000026,-0.00000044,0.00000033,0.000
 00065,-0.00000023,0.00000036,0.00000029,-0.00000017,0.00002818,-0.0000
 8580,0.00000236,0.00009128,0.00002887,-0.00000895,-0.00001965,0.000030
 10,-0.00000120,0.00005509,0.00002538,0.00000083,-0.00000594,-0.0000577
 9,0.00000452,-0.00004214,0.00000784,0.00000139,0.00007251,-0.00004630,
 -0.00000649,-0.00000140,-0.00000325,-0.00000105,0.00000174,-0.00000156
 ,0.,0.00000252,-0.00000056,-0.00000047,0.00000231,0.00000144,0.0000020
 1,0.00021893,-0.00029874,0.00048549,0.00001940,0.00005873,0.00001427,0
 .00011181,-0.00019046,0.00001207,-0.00030177,0.00003158,-0.00015285,0.
 00029072,0.00042500,-0.00000657,-0.00145038,-0.00124282,0.00018812,0.0
 0000619,-0.00000023,0.00000490,-0.00000072,0.00000340,0.00005679,0.000
 00434,-0.00000275,0.00001089,0.00049942,-0.01398399,-0.02049975,0.0001
 7657,0.00013290,-0.00002905,-0.00006046,0.00005920,-0.00003446,-0.0000
 4577,0.00002382,-0.00000045,-0.00001624,0.00005392,0.00002829,-0.00000
 777,-0.00001139,-0.00000319,0.00000332,0.00000228,0.00000030,-0.000002
 85,-0.00000013,-0.00000063,-0.00000239,0.00000137,-0.00000026,0.000000
 68,0.00000011,-0.00000012,0.00000162,-0.00000134,0.00000063,-0.0000005
 7,0.00000077,-0.00000029,0.00000014,-0.00000035,0.00000023,0.00000024,
 -0.00000040,-0.00000049,0.00000014,-0.00000011,0.,-0.00000008,0.000000
 08,-0.00000018,-0.00000002,0.00000007,-0.00000001,0.00000004,0.0000000
 3,0.00000016,-0.00000006,0.00000017,0.00000012,0.00000001,0.00000010,-
 0.00000002,-0.00000012,-0.00000005,0.00000015,-0.00000008,-0.00000013,
 -0.00000008,0.00000011,-0.00000006,0.00000002,0.00000001,0.00000004,0.
 ,0.00000025,0.,0.00000018,-0.00000002,-0.00000002,-0.00000005,0.000000
 12,-0.00000004,0.00000005,0.,0.00000009,0.,0.00000519,0.00000082,0.000
 01215,0.00000203,-0.00000579,0.00000147,0.00000074,0.00000397,-0.00000
 358,-0.00000201,-0.00000078,0.00000076,-0.00000010,0.00001754,-0.00000
 578,-0.00000099,0.00000087,0.00000965,-0.00001396,-0.00005170,0.000017
 71,0.00003753,0.00006728,-0.00004320,-0.00000608,0.00001359,0.00000517
 ,0.00000274,-0.00000018,0.00000072,-0.00000131,-0.00000078,0.00000153,
 0.00000450,0.00000348,0.00000066,0.00127508,0.00476429,-0.00357335,0.0
 0005872,-0.00002236,0.00020768,-0.00009334,0.00014394,0.00040049,0.000
 08722,-0.00096748,-0.00160085,0.00056648,-0.00144571,0.00067704,-0.000
 48288,0.00091815,0.00000270,0.00013264,0.00017291,0.00031553,-0.000044
 42,0.00006894,-0.00002808,0.00297803,-0.12342829,-0.22851640,0.0001136
 2,-0.00112082,-0.00211213,0.00012888,0.00258322,0.00377516,-0.00438089
 ,0.13332497,0.25038943\\0.00000021,-0.00000109,0.00000492,0.00000031,-
 0.00000021,0.00000932,0.00000063,0.00000082,0.00001807,0.00000087,0.00
 000108,0.00002198,0.00000066,0.,0.00001749,0.00000042,-0.00000084,0.00
 000879,-0.00000020,-0.00000157,-0.00000374,0.00000082,0.00000158,0.000
 02162,0.00000107,0.00000184,0.00002877,0.00000076,0.00000030,0.0000207
 4,-0.00000036,-0.00000139,-0.00001078,-0.00000058,-0.00000132,-0.00001
 818,-0.00000092,-0.00000254,-0.00002617,-0.00000100,-0.00000313,-0.000
 02668,-0.00000074,-0.00000307,-0.00001950,-0.00000050,-0.00000195,-0.0
 0001142,-0.00000006,-0.00000020,-0.00000693,-0.00000118,-0.00000250,-0
 .00003167,-0.00000120,-0.00000396,-0.00003275,-0.00000070,-0.00000357,
 -0.00002037,0.00000017,-0.00000046,0.00000380,-0.00000012,0.00000179,-
 0.00000631,-0.00000019,0.00000111,-0.00000200,0.00000014,0.00000098,0.
 00000670,0.00000051,0.00000192,0.00001143,0.00000014,0.00000306,0.0000
 0709,-0.00000022,0.00000301,-0.00000159,0.00000039,0.00000025,0.000009
 86,0.00000042,0.00000357,0.00001073,0.00000080,0.00000163,0.00002073,-
 0.00000016,0.00000424,-0.00000618,-0.00000023,0.00000138,-0.00001446,-
 0.00000090,0.00000103,-0.00001678,-0.00000018,-0.00000028,-0.00000426,
 -0.00000076,-0.00000075,-0.00001548,0.00000004,-0.00000018,0.00000173,
 -0.00000005,-0.00000178,-0.00000341,-0.00000027,-0.00000260,-0.0000081
 0,0.00000016,-0.00000161,0.00000377,0.00000028,-0.00000167,0.00000772,
 -0.00000023,-0.00000281,-0.00000390,-0.00000018,-0.00000375,-0.0000083
 7,-0.00000041,0.00000451,-0.00000721,-0.00000001,-0.00001146,-0.000005
 25,-0.00000054,-0.00000430,-0.00001490,-0.00000039,0.00000346,-0.00001
 171,-0.00000009,0.00000528,-0.00000045,-0.00000042,0.00000978,-0.00000
 942,-0.00000027,-0.00001220,-0.00000995,0.00000014,-0.00001087,0.00000
 142,-0.00000010,-0.00001700,-0.00000626,-0.00000036,-0.00000429,-0.000
 00891,-0.00000050,0.00000917,-0.00001084,-0.00000073,0.00000307,-0.000
 01855,-0.00000012,-0.00001776,-0.00000769,-0.00000048,-0.00001329,-0.0
 0001664,-0.00000040,-0.00000495,-0.00001243,-0.00000003,-0.00000359,-0
 .00000228,0.00000093,0.00001018,0.00002412,0.00000073,0.00001095,0.000
 02173,0.00000106,0.00000994,0.00003092,0.00000064,0.00001546,0.0000221
 5,0.00000077,-0.00000579,0.00002393,0.00000123,-0.00000559,0.00003070,
 0.00000093,-0.00000538,0.00002127,0.00000100,-0.00001156,0.00002189,0.
 00000086,0.00000095,0.00002464,0.00000094,-0.00000493,0.00002282,0.000
 00080,0.00000621,0.00002287,0.00000118,0.00000098,0.00003154,-0.000000
 61,0.00001214,-0.00001132,-0.00000087,0.00001180,-0.00001624,-0.000000
 73,0.00001325,-0.00001459,-0.00000031,0.00001773,-0.00000755,-0.000000
 13,0.00000514,0.00000039,0.00000017,-0.00000039,0.00000434,0.00000009,
 0.00001063,0.00000440,-0.00000015,0.00000603,-0.00000295,-0.00000037,-
 0.00000342,-0.00001140,-0.00000052,-0.00000261,-0.00001454,-0.00000062
 ,-0.00000444,-0.00001652,-0.00000016,-0.00000921,-0.00000779\\\@


 THE REASON MAN'S BEST FRIEND IS A DOG IS BECAUSE
 HE WAGS HIS TAIL INSTEAD OF HIS TONGUE.
 Job cpu time:       0 days 21 hours 24 minutes  4.7 seconds.
 Elapsed time:       0 days  1 hours 20 minutes 36.2 seconds.
 File lengths (MBytes):  RWF=  10696 Int=      0 D2E=      0 Chk=    104 Scr=      8
 Normal termination of Gaussian 16 at Fri Dec 21 15:45:10 2018.
