 Entering Gaussian System, Link 0=g16
 Initial command:
 /gpfs/apps/hpc/Apps/Restricted/Gaussian/g16/Rev_B.01-AVX/g16/l1.exe "/gpfs/scratch60/fas/hammes_schiffer/jg2487/c25n04/Gau-52813.inp" -scrdir="/gpfs/scratch60/fas/hammes_schiffer/jg2487/c25n04/"
 Entering Link 1 = /gpfs/apps/hpc/Apps/Restricted/Gaussian/g16/Rev_B.01-AVX/g16/l1.exe PID=     52814.
  
 Copyright (c) 1988-2017, Gaussian, Inc.  All Rights Reserved.
  
 This is part of the Gaussian(R) 16 program.  It is based on
 the Gaussian(R) 09 system (copyright 2009, Gaussian, Inc.),
 the Gaussian(R) 03 system (copyright 2003, Gaussian, Inc.),
 the Gaussian(R) 98 system (copyright 1998, Gaussian, Inc.),
 the Gaussian(R) 94 system (copyright 1995, Gaussian, Inc.),
 the Gaussian 92(TM) system (copyright 1992, Gaussian, Inc.),
 the Gaussian 90(TM) system (copyright 1990, Gaussian, Inc.),
 the Gaussian 88(TM) system (copyright 1988, Gaussian, Inc.),
 the Gaussian 86(TM) system (copyright 1986, Carnegie Mellon
 University), and the Gaussian 82(TM) system (copyright 1983,
 Carnegie Mellon University). Gaussian is a federally registered
 trademark of Gaussian, Inc.
  
 This software contains proprietary and confidential information,
 including trade secrets, belonging to Gaussian, Inc.
  
 This software is provided under written license and may be
 used, copied, transmitted, or stored only in accord with that
 written license.
  
 The following legend is applicable only to US Government
 contracts under FAR:
  
                    RESTRICTED RIGHTS LEGEND
  
 Use, reproduction and disclosure by the US Government is
 subject to restrictions as set forth in subparagraphs (a)
 and (c) of the Commercial Computer Software - Restricted
 Rights clause in FAR 52.227-19.
  
 Gaussian, Inc.
 340 Quinnipiac St., Bldg. 40, Wallingford CT 06492
  
  
 ---------------------------------------------------------------
 Warning -- This program may not be used in any manner that
 competes with the business of Gaussian, Inc. or will provide
 assistance to any competitor of Gaussian, Inc.  The licensee
 of this program is prohibited from giving any competitor of
 Gaussian, Inc. access to this program.  By using this program,
 the user acknowledges that Gaussian, Inc. is engaged in the
 business of creating and licensing software in the field of
 computational chemistry and represents and warrants to the
 licensee that it is not a competitor of Gaussian, Inc. and that
 it will not use this program in any manner prohibited above.
 ---------------------------------------------------------------
  

 Cite this work as:
 Gaussian 16, Revision B.01,
 M. J. Frisch, G. W. Trucks, H. B. Schlegel, G. E. Scuseria, 
 M. A. Robb, J. R. Cheeseman, G. Scalmani, V. Barone, 
 G. A. Petersson, H. Nakatsuji, X. Li, M. Caricato, A. V. Marenich, 
 J. Bloino, B. G. Janesko, R. Gomperts, B. Mennucci, H. P. Hratchian, 
 J. V. Ortiz, A. F. Izmaylov, J. L. Sonnenberg, D. Williams-Young, 
 F. Ding, F. Lipparini, F. Egidi, J. Goings, B. Peng, A. Petrone, 
 T. Henderson, D. Ranasinghe, V. G. Zakrzewski, J. Gao, N. Rega, 
 G. Zheng, W. Liang, M. Hada, M. Ehara, K. Toyota, R. Fukuda, 
 J. Hasegawa, M. Ishida, T. Nakajima, Y. Honda, O. Kitao, H. Nakai, 
 T. Vreven, K. Throssell, J. A. Montgomery, Jr., J. E. Peralta, 
 F. Ogliaro, M. J. Bearpark, J. J. Heyd, E. N. Brothers, K. N. Kudin, 
 V. N. Staroverov, T. A. Keith, R. Kobayashi, J. Normand, 
 K. Raghavachari, A. P. Rendell, J. C. Burant, S. S. Iyengar, 
 J. Tomasi, M. Cossi, J. M. Millam, M. Klene, C. Adamo, R. Cammi, 
 J. W. Ochterski, R. L. Martin, K. Morokuma, O. Farkas, 
 J. B. Foresman, and D. J. Fox, Gaussian, Inc., Wallingford CT, 2016.
 
 ******************************************
 Gaussian 16:  ES64L-G16RevB.01 20-Dec-2017
                 6-Mar-2019 
 ******************************************
 %chk=unsub-monoBIP-neutral.chk
 %mem=10GB
 %nprocshared=16
 Will use up to   16 processors via shared memory.
 ----------------------------------------------------------------
 #p freq(ReadFC,InternalModes) Geom(AllCheck) NoSymm scale=0.9631
 ----------------------------------------------------------------
 1/18=20,29=7,38=1,114=963100/1,3;
 2/9=110,12=2,15=1,40=1/2;
 7/8=21,25=11,30=1/16;
 99/5=2/99;
 Leave Link    1 at Wed Mar  6 12:51:43 2019, MaxMem=  1342177280 cpu:               8.3 elap:               0.6
 (Enter /gpfs/apps/hpc/Apps/Restricted/Gaussian/g16/Rev_B.01-AVX/g16/l101.exe)
 Structure from the checkpoint file:  "unsub-monoBIP-neutral.chk"
 -----------------------------------------
 Simple unsub-monoBIP neutral optimization
 -----------------------------------------
 Charge =  0 Multiplicity = 1
 Redundant internal coordinates found in file.  (old form).
 C,0,-0.4718019531,2.7227233008,0.4433103029
 C,0,-1.8717674924,2.8994586673,0.3174718351
 C,0,-2.408151675,4.1867993564,0.2041212882
 C,0,-1.522447013,5.2608329211,0.2189353622
 C,0,-0.1328525878,5.0687953129,0.3458616158
 C,0,0.4192389547,3.7945681908,0.4620944638
 C,0,-1.5179358077,0.754491644,0.4401441785
 H,0,-3.4767108971,4.3338621164,0.1040434793
 H,0,-1.909695143,6.2696662714,0.1320422543
 H,0,0.5225681083,5.9321321085,0.3539757127
 N,0,-2.4902604817,1.6585280473,0.3212002383
 C,0,-3.0631649626,-1.1874239804,0.3611807726
 C,0,-1.7389268153,-0.6838647584,0.4584709709
 C,0,-0.6597582751,-1.5747949883,0.5446699858
 C,0,-0.8493610697,-2.9513036513,0.5406398918
 C,0,-2.1686566138,-3.4178115416,0.4480741831
 C,0,-3.2862121941,-2.5835831205,0.3593844981
 H,0,0.3487041763,-1.1822832592,0.6098384113
 H,0,-2.3336565159,-4.4838860627,0.4431629592
 C,0,0.362441558,-3.8874090626,0.6060040711
 C,0,-4.7054908481,-3.1655355376,0.2596307583
 O,0,-4.1160506473,-0.3441821067,0.2662604177
 H,0,-3.764876459,0.5937341601,0.2651457606
 N,0,-0.2873881016,1.354581448,0.5223001652
 H,0,0.5970625219,0.8786393245,0.6099423516
 C,0,1.2456272151,-3.6454204999,-0.6351102588
 H,0,1.5740783395,-2.6045144668,-0.6860491757
 H,0,2.1349369772,-4.2817533918,-0.600644258
 H,0,0.6971737811,-3.873580372,-1.5530699703
 C,0,1.1846720659,-3.5822154306,1.873652457
 H,0,0.5921465836,-3.7585619142,2.7752993928
 H,0,2.0681693807,-4.2260218617,1.9136913966
 H,0,1.5241137731,-2.5435575834,1.8879366893
 C,0,-0.046683248,-5.366237506,0.6350296466
 H,0,-0.660110868,-5.5979530112,1.5099919298
 H,0,-0.6066550111,-5.6471174493,-0.2611857308
 H,0,0.8487505704,-5.9911586127,0.6788035097
 C,0,-5.3603507785,-2.72821514,-1.0677917155
 H,0,-6.3741317377,-3.1346466269,-1.1324891205
 H,0,-5.4154698084,-1.6432240578,-1.1460114639
 H,0,-4.7880988858,-3.1082996988,-1.9188072683
 C,0,-5.5562277679,-2.6823204931,1.4536339143
 H,0,-5.6568139934,-1.5979399927,1.4562615237
 H,0,-6.555380854,-3.1254077923,1.4027990991
 H,0,-5.0954903644,-2.9880329521,2.3971974576
 C,0,-4.6948617459,-4.7028928331,0.2875512914
 H,0,-4.1286307048,-5.1203753321,-0.5492759366
 H,0,-4.2675271728,-5.0898822429,1.2164599757
 H,0,-5.7223199745,-5.0669824259,0.2127878875
 H,0,1.487329643,3.6446579069,0.5611678986
 Recover connectivity data from disk.
 ITRead=  0  0  0  0  0  0  0  0  0  0  0  0  0  0  0  0  0  0  0  0
 ITRead=  0  0  0  0  0  0  0  0  0  0  0  0  0  0  0  0  0  0  0  0
 ITRead=  0  0  0  0  0  0  0  0  0  0
 MicOpt= -1 -1 -1 -1 -1 -1 -1 -1 -1 -1 -1 -1 -1 -1 -1 -1 -1 -1 -1 -1
 MicOpt= -1 -1 -1 -1 -1 -1 -1 -1 -1 -1 -1 -1 -1 -1 -1 -1 -1 -1 -1 -1
 MicOpt= -1 -1 -1 -1 -1 -1 -1 -1 -1 -1
 NAtoms=     50 NQM=       50 NQMF=       0 NMMI=      0 NMMIF=      0
                NMic=       0 NMicF=      0.
                    Isotopes and Nuclear Properties:
 (Nuclear quadrupole moments (NQMom) in fm**2, nuclear magnetic moments (NMagM)
  in nuclear magnetons)

  Atom         1           2           3           4           5           6           7           8           9          10
 IAtWgt=          12          12          12          12          12          12          12           1           1           1
 AtmWgt=  12.0000000  12.0000000  12.0000000  12.0000000  12.0000000  12.0000000  12.0000000   1.0078250   1.0078250   1.0078250
 NucSpn=           0           0           0           0           0           0           0           1           1           1
 AtZEff=   3.6000000   3.6000000   3.6000000   3.6000000   3.6000000   3.6000000   3.6000000   1.0000000   1.0000000   1.0000000
 NQMom=    0.0000000   0.0000000   0.0000000   0.0000000   0.0000000   0.0000000   0.0000000   0.0000000   0.0000000   0.0000000
 NMagM=    0.0000000   0.0000000   0.0000000   0.0000000   0.0000000   0.0000000   0.0000000   2.7928460   2.7928460   2.7928460
 AtZNuc=   6.0000000   6.0000000   6.0000000   6.0000000   6.0000000   6.0000000   6.0000000   1.0000000   1.0000000   1.0000000

  Atom        11          12          13          14          15          16          17          18          19          20
 IAtWgt=          14          12          12          12          12          12          12           1           1          12
 AtmWgt=  14.0030740  12.0000000  12.0000000  12.0000000  12.0000000  12.0000000  12.0000000   1.0078250   1.0078250  12.0000000
 NucSpn=           2           0           0           0           0           0           0           1           1           0
 AtZEff=   4.5500000   3.6000000   3.6000000   3.6000000   3.6000000   3.6000000   3.6000000   1.0000000   1.0000000   3.6000000
 NQMom=    2.0440000   0.0000000   0.0000000   0.0000000   0.0000000   0.0000000   0.0000000   0.0000000   0.0000000   0.0000000
 NMagM=    0.4037610   0.0000000   0.0000000   0.0000000   0.0000000   0.0000000   0.0000000   2.7928460   2.7928460   0.0000000
 AtZNuc=   7.0000000   6.0000000   6.0000000   6.0000000   6.0000000   6.0000000   6.0000000   1.0000000   1.0000000   6.0000000

  Atom        21          22          23          24          25          26          27          28          29          30
 IAtWgt=          12          16           1          14           1          12           1           1           1          12
 AtmWgt=  12.0000000  15.9949146   1.0078250  14.0030740   1.0078250  12.0000000   1.0078250   1.0078250   1.0078250  12.0000000
 NucSpn=           0           0           1           2           1           0           1           1           1           0
 AtZEff=   3.6000000   5.6000000   1.0000000   4.5500000   1.0000000   3.6000000   1.0000000   1.0000000   1.0000000   3.6000000
 NQMom=    0.0000000   0.0000000   0.0000000   2.0440000   0.0000000   0.0000000   0.0000000   0.0000000   0.0000000   0.0000000
 NMagM=    0.0000000   0.0000000   2.7928460   0.4037610   2.7928460   0.0000000   2.7928460   2.7928460   2.7928460   0.0000000
 AtZNuc=   6.0000000   8.0000000   1.0000000   7.0000000   1.0000000   6.0000000   1.0000000   1.0000000   1.0000000   6.0000000

  Atom        31          32          33          34          35          36          37          38          39          40
 IAtWgt=           1           1           1          12           1           1           1          12           1           1
 AtmWgt=   1.0078250   1.0078250   1.0078250  12.0000000   1.0078250   1.0078250   1.0078250  12.0000000   1.0078250   1.0078250
 NucSpn=           1           1           1           0           1           1           1           0           1           1
 AtZEff=   1.0000000   1.0000000   1.0000000   3.6000000   1.0000000   1.0000000   1.0000000   3.6000000   1.0000000   1.0000000
 NQMom=    0.0000000   0.0000000   0.0000000   0.0000000   0.0000000   0.0000000   0.0000000   0.0000000   0.0000000   0.0000000
 NMagM=    2.7928460   2.7928460   2.7928460   0.0000000   2.7928460   2.7928460   2.7928460   0.0000000   2.7928460   2.7928460
 AtZNuc=   1.0000000   1.0000000   1.0000000   6.0000000   1.0000000   1.0000000   1.0000000   6.0000000   1.0000000   1.0000000

  Atom        41          42          43          44          45          46          47          48          49          50
 IAtWgt=           1          12           1           1           1          12           1           1           1           1
 AtmWgt=   1.0078250  12.0000000   1.0078250   1.0078250   1.0078250  12.0000000   1.0078250   1.0078250   1.0078250   1.0078250
 NucSpn=           1           0           1           1           1           0           1           1           1           1
 AtZEff=   1.0000000   3.6000000   1.0000000   1.0000000   1.0000000   3.6000000   1.0000000   1.0000000   1.0000000   1.0000000
 NQMom=    0.0000000   0.0000000   0.0000000   0.0000000   0.0000000   0.0000000   0.0000000   0.0000000   0.0000000   0.0000000
 NMagM=    2.7928460   0.0000000   2.7928460   2.7928460   2.7928460   0.0000000   2.7928460   2.7928460   2.7928460   2.7928460
 AtZNuc=   1.0000000   6.0000000   1.0000000   1.0000000   1.0000000   6.0000000   1.0000000   1.0000000   1.0000000   1.0000000
 Leave Link  101 at Wed Mar  6 12:51:43 2019, MaxMem=  1342177280 cpu:               4.3 elap:               0.3
 (Enter /gpfs/apps/hpc/Apps/Restricted/Gaussian/g16/Rev_B.01-AVX/g16/l103.exe)

 GradGradGradGradGradGradGradGradGradGradGradGradGradGradGradGradGradGrad
 Berny optimization.
 Initialization pass.
                           ----------------------------
                           !    Initial Parameters    !
                           ! (Angstroms and Degrees)  !
 --------------------------                            --------------------------
 ! Name  Definition              Value          Derivative Info.                !
 --------------------------------------------------------------------------------
 ! R1    R(1,2)                  1.4167         estimate D2E/DX2                !
 ! R2    R(1,6)                  1.394          estimate D2E/DX2                !
 ! R3    R(1,24)                 1.3828         estimate D2E/DX2                !
 ! R4    R(2,3)                  1.3992         estimate D2E/DX2                !
 ! R5    R(2,11)                 1.3865         estimate D2E/DX2                !
 ! R6    R(3,4)                  1.3922         estimate D2E/DX2                !
 ! R7    R(3,8)                  1.0833         estimate D2E/DX2                !
 ! R8    R(4,5)                  1.4085         estimate D2E/DX2                !
 ! R9    R(4,9)                  1.0841         estimate D2E/DX2                !
 ! R10   R(5,6)                  1.3935         estimate D2E/DX2                !
 ! R11   R(5,10)                 1.084          estimate D2E/DX2                !
 ! R12   R(6,50)                 1.0831         estimate D2E/DX2                !
 ! R13   R(7,11)                 1.333          estimate D2E/DX2                !
 ! R14   R(7,13)                 1.4553         estimate D2E/DX2                !
 ! R15   R(7,24)                 1.3715         estimate D2E/DX2                !
 ! R16   R(12,13)                1.4201         estimate D2E/DX2                !
 ! R17   R(12,17)                1.4139         estimate D2E/DX2                !
 ! R18   R(12,22)                1.3523         estimate D2E/DX2                !
 ! R19   R(13,14)                1.4021         estimate D2E/DX2                !
 ! R20   R(14,15)                1.3895         estimate D2E/DX2                !
 ! R21   R(14,18)                1.0841         estimate D2E/DX2                !
 ! R22   R(15,16)                1.4024         estimate D2E/DX2                !
 ! R23   R(15,20)                1.5327         estimate D2E/DX2                !
 ! R24   R(16,17)                1.3974         estimate D2E/DX2                !
 ! R25   R(16,19)                1.0788         estimate D2E/DX2                !
 ! R26   R(17,21)                1.5372         estimate D2E/DX2                !
 ! R27   R(20,26)                1.5424         estimate D2E/DX2                !
 ! R28   R(20,30)                1.5415         estimate D2E/DX2                !
 ! R29   R(20,34)                1.5347         estimate D2E/DX2                !
 ! R30   R(21,38)                1.5434         estimate D2E/DX2                !
 ! R31   R(21,42)                1.5437         estimate D2E/DX2                !
 ! R32   R(21,46)                1.5376         estimate D2E/DX2                !
 ! R33   R(22,23)                1.0015         estimate D2E/DX2                !
 ! R34   R(24,25)                1.0082         estimate D2E/DX2                !
 ! R35   R(26,27)                1.0927         estimate D2E/DX2                !
 ! R36   R(26,28)                1.0941         estimate D2E/DX2                !
 ! R37   R(26,29)                1.0934         estimate D2E/DX2                !
 ! R38   R(30,31)                1.0932         estimate D2E/DX2                !
 ! R39   R(30,32)                1.0939         estimate D2E/DX2                !
 ! R40   R(30,33)                1.0928         estimate D2E/DX2                !
 ! R41   R(34,35)                1.0934         estimate D2E/DX2                !
 ! R42   R(34,36)                1.0935         estimate D2E/DX2                !
 ! R43   R(34,37)                1.0928         estimate D2E/DX2                !
 ! R44   R(38,39)                1.0941         estimate D2E/DX2                !
 ! R45   R(38,40)                1.0892         estimate D2E/DX2                !
 ! R46   R(38,41)                1.0937         estimate D2E/DX2                !
 ! R47   R(42,43)                1.089          estimate D2E/DX2                !
 ! R48   R(42,44)                1.0942         estimate D2E/DX2                !
 ! R49   R(42,45)                1.0936         estimate D2E/DX2                !
 ! R50   R(46,47)                1.0932         estimate D2E/DX2                !
 ! R51   R(46,48)                1.0933         estimate D2E/DX2                !
 ! R52   R(46,49)                1.0926         estimate D2E/DX2                !
 ! A1    A(2,1,6)              122.4757         estimate D2E/DX2                !
 ! A2    A(2,1,24)             105.0878         estimate D2E/DX2                !
 ! A3    A(6,1,24)             132.4355         estimate D2E/DX2                !
 ! A4    A(1,2,3)              120.0529         estimate D2E/DX2                !
 ! A5    A(1,2,11)             109.2032         estimate D2E/DX2                !
 ! A6    A(3,2,11)             130.7417         estimate D2E/DX2                !
 ! A7    A(2,3,4)              117.7126         estimate D2E/DX2                !
 ! A8    A(2,3,8)              120.6992         estimate D2E/DX2                !
 ! A9    A(4,3,8)              121.5876         estimate D2E/DX2                !
 ! A10   A(3,4,5)              121.5615         estimate D2E/DX2                !
 ! A11   A(3,4,9)              119.3275         estimate D2E/DX2                !
 ! A12   A(5,4,9)              119.111          estimate D2E/DX2                !
 ! A13   A(4,5,6)              121.5359         estimate D2E/DX2                !
 ! A14   A(4,5,10)             119.2489         estimate D2E/DX2                !
 ! A15   A(6,5,10)             119.2152         estimate D2E/DX2                !
 ! A16   A(1,6,5)              116.6612         estimate D2E/DX2                !
 ! A17   A(1,6,50)             121.679          estimate D2E/DX2                !
 ! A18   A(5,6,50)             121.6598         estimate D2E/DX2                !
 ! A19   A(11,7,13)            124.1006         estimate D2E/DX2                !
 ! A20   A(11,7,24)            111.2883         estimate D2E/DX2                !
 ! A21   A(13,7,24)            124.6044         estimate D2E/DX2                !
 ! A22   A(2,11,7)             106.3705         estimate D2E/DX2                !
 ! A23   A(13,12,17)           119.8251         estimate D2E/DX2                !
 ! A24   A(13,12,22)           120.6469         estimate D2E/DX2                !
 ! A25   A(17,12,22)           119.5278         estimate D2E/DX2                !
 ! A26   A(7,13,12)            119.419          estimate D2E/DX2                !
 ! A27   A(7,13,14)            120.7917         estimate D2E/DX2                !
 ! A28   A(12,13,14)           119.7776         estimate D2E/DX2                !
 ! A29   A(13,14,15)           121.6204         estimate D2E/DX2                !
 ! A30   A(13,14,18)           119.3153         estimate D2E/DX2                !
 ! A31   A(15,14,18)           119.0632         estimate D2E/DX2                !
 ! A32   A(14,15,16)           117.2642         estimate D2E/DX2                !
 ! A33   A(14,15,20)           119.8048         estimate D2E/DX2                !
 ! A34   A(16,15,20)           122.9183         estimate D2E/DX2                !
 ! A35   A(15,16,17)           123.9139         estimate D2E/DX2                !
 ! A36   A(15,16,19)           118.2239         estimate D2E/DX2                !
 ! A37   A(17,16,19)           117.8621         estimate D2E/DX2                !
 ! A38   A(12,17,16)           117.5979         estimate D2E/DX2                !
 ! A39   A(12,17,21)           121.3039         estimate D2E/DX2                !
 ! A40   A(16,17,21)           121.0979         estimate D2E/DX2                !
 ! A41   A(15,20,26)           108.82           estimate D2E/DX2                !
 ! A42   A(15,20,30)           109.6264         estimate D2E/DX2                !
 ! A43   A(15,20,34)           112.2458         estimate D2E/DX2                !
 ! A44   A(26,20,30)           108.9799         estimate D2E/DX2                !
 ! A45   A(26,20,34)           108.606          estimate D2E/DX2                !
 ! A46   A(30,20,34)           108.5078         estimate D2E/DX2                !
 ! A47   A(17,21,38)           109.8944         estimate D2E/DX2                !
 ! A48   A(17,21,42)           109.8853         estimate D2E/DX2                !
 ! A49   A(17,21,46)           111.7741         estimate D2E/DX2                !
 ! A50   A(38,21,42)           110.0421         estimate D2E/DX2                !
 ! A51   A(38,21,46)           107.5682         estimate D2E/DX2                !
 ! A52   A(42,21,46)           107.6221         estimate D2E/DX2                !
 ! A53   A(12,22,23)           108.1222         estimate D2E/DX2                !
 ! A54   A(1,24,7)             108.0487         estimate D2E/DX2                !
 ! A55   A(1,24,25)            126.089          estimate D2E/DX2                !
 ! A56   A(7,24,25)            125.8556         estimate D2E/DX2                !
 ! A57   A(20,26,27)           111.0445         estimate D2E/DX2                !
 ! A58   A(20,26,28)           110.4167         estimate D2E/DX2                !
 ! A59   A(20,26,29)           110.8302         estimate D2E/DX2                !
 ! A60   A(27,26,28)           108.1312         estimate D2E/DX2                !
 ! A61   A(27,26,29)           108.0847         estimate D2E/DX2                !
 ! A62   A(28,26,29)           108.2287         estimate D2E/DX2                !
 ! A63   A(20,30,31)           110.9287         estimate D2E/DX2                !
 ! A64   A(20,30,32)           110.1439         estimate D2E/DX2                !
 ! A65   A(20,30,33)           111.3836         estimate D2E/DX2                !
 ! A66   A(31,30,32)           108.217          estimate D2E/DX2                !
 ! A67   A(31,30,33)           108.1126         estimate D2E/DX2                !
 ! A68   A(32,30,33)           107.9402         estimate D2E/DX2                !
 ! A69   A(20,34,35)           111.6484         estimate D2E/DX2                !
 ! A70   A(20,34,36)           111.6262         estimate D2E/DX2                !
 ! A71   A(20,34,37)           109.4729         estimate D2E/DX2                !
 ! A72   A(35,34,36)           108.308          estimate D2E/DX2                !
 ! A73   A(35,34,37)           107.8456         estimate D2E/DX2                !
 ! A74   A(36,34,37)           107.7914         estimate D2E/DX2                !
 ! A75   A(21,38,39)           109.7999         estimate D2E/DX2                !
 ! A76   A(21,38,40)           111.4374         estimate D2E/DX2                !
 ! A77   A(21,38,41)           110.4107         estimate D2E/DX2                !
 ! A78   A(39,38,40)           108.596          estimate D2E/DX2                !
 ! A79   A(39,38,41)           108.0412         estimate D2E/DX2                !
 ! A80   A(40,38,41)           108.4683         estimate D2E/DX2                !
 ! A81   A(21,42,43)           111.3744         estimate D2E/DX2                !
 ! A82   A(21,42,44)           109.9108         estimate D2E/DX2                !
 ! A83   A(21,42,45)           110.3443         estimate D2E/DX2                !
 ! A84   A(43,42,44)           108.6018         estimate D2E/DX2                !
 ! A85   A(43,42,45)           108.3711         estimate D2E/DX2                !
 ! A86   A(44,42,45)           108.1549         estimate D2E/DX2                !
 ! A87   A(21,46,47)           111.8071         estimate D2E/DX2                !
 ! A88   A(21,46,48)           111.8413         estimate D2E/DX2                !
 ! A89   A(21,46,49)           108.991          estimate D2E/DX2                !
 ! A90   A(47,46,48)           108.225          estimate D2E/DX2                !
 ! A91   A(47,46,49)           107.9038         estimate D2E/DX2                !
 ! A92   A(48,46,49)           107.9237         estimate D2E/DX2                !
 ! D1    D(6,1,2,3)              0.0942         estimate D2E/DX2                !
 ! D2    D(6,1,2,11)           179.6099         estimate D2E/DX2                !
 ! D3    D(24,1,2,3)          -179.5981         estimate D2E/DX2                !
 ! D4    D(24,1,2,11)           -0.0824         estimate D2E/DX2                !
 ! D5    D(2,1,6,5)             -0.1947         estimate D2E/DX2                !
 ! D6    D(2,1,6,50)           179.8586         estimate D2E/DX2                !
 ! D7    D(24,1,6,5)           179.4027         estimate D2E/DX2                !
 ! D8    D(24,1,6,50)           -0.544          estimate D2E/DX2                !
 ! D9    D(2,1,24,7)             0.2889         estimate D2E/DX2                !
 ! D10   D(2,1,24,25)          179.3864         estimate D2E/DX2                !
 ! D11   D(6,1,24,7)          -179.3594         estimate D2E/DX2                !
 ! D12   D(6,1,24,25)           -0.2618         estimate D2E/DX2                !
 ! D13   D(1,2,3,4)              0.0678         estimate D2E/DX2                !
 ! D14   D(1,2,3,8)            179.7932         estimate D2E/DX2                !
 ! D15   D(11,2,3,4)          -179.3285         estimate D2E/DX2                !
 ! D16   D(11,2,3,8)             0.3968         estimate D2E/DX2                !
 ! D17   D(1,2,11,7)            -0.1603         estimate D2E/DX2                !
 ! D18   D(3,2,11,7)           179.2864         estimate D2E/DX2                !
 ! D19   D(2,3,4,5)             -0.1223         estimate D2E/DX2                !
 ! D20   D(2,3,4,9)            179.9529         estimate D2E/DX2                !
 ! D21   D(8,3,4,5)           -179.845          estimate D2E/DX2                !
 ! D22   D(8,3,4,9)              0.2302         estimate D2E/DX2                !
 ! D23   D(3,4,5,6)              0.0175         estimate D2E/DX2                !
 ! D24   D(3,4,5,10)          -179.9434         estimate D2E/DX2                !
 ! D25   D(9,4,5,6)            179.9425         estimate D2E/DX2                !
 ! D26   D(9,4,5,10)            -0.0185         estimate D2E/DX2                !
 ! D27   D(4,5,6,1)              0.1391         estimate D2E/DX2                !
 ! D28   D(4,5,6,50)          -179.9142         estimate D2E/DX2                !
 ! D29   D(10,5,6,1)          -179.9            estimate D2E/DX2                !
 ! D30   D(10,5,6,50)            0.0467         estimate D2E/DX2                !
 ! D31   D(13,7,11,2)         -178.7453         estimate D2E/DX2                !
 ! D32   D(24,7,11,2)            0.3515         estimate D2E/DX2                !
 ! D33   D(11,7,13,12)          -0.7758         estimate D2E/DX2                !
 ! D34   D(11,7,13,14)         177.9779         estimate D2E/DX2                !
 ! D35   D(24,7,13,12)        -179.7533         estimate D2E/DX2                !
 ! D36   D(24,7,13,14)          -0.9997         estimate D2E/DX2                !
 ! D37   D(11,7,24,1)           -0.413          estimate D2E/DX2                !
 ! D38   D(11,7,24,25)        -179.5132         estimate D2E/DX2                !
 ! D39   D(13,7,24,1)          178.6784         estimate D2E/DX2                !
 ! D40   D(13,7,24,25)          -0.4219         estimate D2E/DX2                !
 ! D41   D(17,12,13,7)         179.1216         estimate D2E/DX2                !
 ! D42   D(17,12,13,14)          0.3551         estimate D2E/DX2                !
 ! D43   D(22,12,13,7)          -0.6953         estimate D2E/DX2                !
 ! D44   D(22,12,13,14)       -179.4618         estimate D2E/DX2                !
 ! D45   D(13,12,17,16)         -0.3425         estimate D2E/DX2                !
 ! D46   D(13,12,17,21)        179.8239         estimate D2E/DX2                !
 ! D47   D(22,12,17,16)        179.4764         estimate D2E/DX2                !
 ! D48   D(22,12,17,21)         -0.3571         estimate D2E/DX2                !
 ! D49   D(13,12,22,23)          0.9333         estimate D2E/DX2                !
 ! D50   D(17,12,22,23)       -178.8842         estimate D2E/DX2                !
 ! D51   D(7,13,14,15)        -178.8926         estimate D2E/DX2                !
 ! D52   D(7,13,14,18)           0.7144         estimate D2E/DX2                !
 ! D53   D(12,13,14,15)         -0.1434         estimate D2E/DX2                !
 ! D54   D(12,13,14,18)        179.4636         estimate D2E/DX2                !
 ! D55   D(13,14,15,16)         -0.0704         estimate D2E/DX2                !
 ! D56   D(13,14,15,20)        178.6696         estimate D2E/DX2                !
 ! D57   D(18,14,15,16)       -179.6783         estimate D2E/DX2                !
 ! D58   D(18,14,15,20)         -0.9384         estimate D2E/DX2                !
 ! D59   D(14,15,16,17)          0.0775         estimate D2E/DX2                !
 ! D60   D(14,15,16,19)        179.9717         estimate D2E/DX2                !
 ! D61   D(20,15,16,17)       -178.62           estimate D2E/DX2                !
 ! D62   D(20,15,16,19)          1.2742         estimate D2E/DX2                !
 ! D63   D(14,15,20,26)        -61.5266         estimate D2E/DX2                !
 ! D64   D(14,15,20,30)         57.5735         estimate D2E/DX2                !
 ! D65   D(14,15,20,34)        178.2356         estimate D2E/DX2                !
 ! D66   D(16,15,20,26)        117.1391         estimate D2E/DX2                !
 ! D67   D(16,15,20,30)       -123.7608         estimate D2E/DX2                !
 ! D68   D(16,15,20,34)         -3.0987         estimate D2E/DX2                !
 ! D69   D(15,16,17,12)          0.1295         estimate D2E/DX2                !
 ! D70   D(15,16,17,21)        179.9634         estimate D2E/DX2                !
 ! D71   D(19,16,17,12)       -179.7651         estimate D2E/DX2                !
 ! D72   D(19,16,17,21)          0.0689         estimate D2E/DX2                !
 ! D73   D(12,17,21,38)         61.0764         estimate D2E/DX2                !
 ! D74   D(12,17,21,42)        -60.153          estimate D2E/DX2                !
 ! D75   D(12,17,21,46)       -179.569          estimate D2E/DX2                !
 ! D76   D(16,17,21,38)       -118.7514         estimate D2E/DX2                !
 ! D77   D(16,17,21,42)        120.0193         estimate D2E/DX2                !
 ! D78   D(16,17,21,46)          0.6032         estimate D2E/DX2                !
 ! D79   D(15,20,26,27)         58.4681         estimate D2E/DX2                !
 ! D80   D(15,20,26,28)        178.402          estimate D2E/DX2                !
 ! D81   D(15,20,26,29)        -61.6812         estimate D2E/DX2                !
 ! D82   D(30,20,26,27)        -61.0355         estimate D2E/DX2                !
 ! D83   D(30,20,26,28)         58.8984         estimate D2E/DX2                !
 ! D84   D(30,20,26,29)        178.8152         estimate D2E/DX2                !
 ! D85   D(34,20,26,27)       -179.0687         estimate D2E/DX2                !
 ! D86   D(34,20,26,28)        -59.1347         estimate D2E/DX2                !
 ! D87   D(34,20,26,29)         60.7821         estimate D2E/DX2                !
 ! D88   D(15,20,30,31)         61.8676         estimate D2E/DX2                !
 ! D89   D(15,20,30,32)       -178.3444         estimate D2E/DX2                !
 ! D90   D(15,20,30,33)        -58.6099         estimate D2E/DX2                !
 ! D91   D(26,20,30,31)       -179.1308         estimate D2E/DX2                !
 ! D92   D(26,20,30,32)        -59.3429         estimate D2E/DX2                !
 ! D93   D(26,20,30,33)         60.3916         estimate D2E/DX2                !
 ! D94   D(34,20,30,31)        -61.0359         estimate D2E/DX2                !
 ! D95   D(34,20,30,32)         58.7521         estimate D2E/DX2                !
 ! D96   D(34,20,30,33)        178.4866         estimate D2E/DX2                !
 ! D97   D(15,20,34,35)        -60.8017         estimate D2E/DX2                !
 ! D98   D(15,20,34,36)         60.5916         estimate D2E/DX2                !
 ! D99   D(15,20,34,37)        179.8542         estimate D2E/DX2                !
 ! D100  D(26,20,34,35)        178.8366         estimate D2E/DX2                !
 ! D101  D(26,20,34,36)        -59.7702         estimate D2E/DX2                !
 ! D102  D(26,20,34,37)         59.4924         estimate D2E/DX2                !
 ! D103  D(30,20,34,35)         60.5044         estimate D2E/DX2                !
 ! D104  D(30,20,34,36)       -178.1023         estimate D2E/DX2                !
 ! D105  D(30,20,34,37)        -58.8397         estimate D2E/DX2                !
 ! D106  D(17,21,38,39)       -179.4163         estimate D2E/DX2                !
 ! D107  D(17,21,38,40)        -59.0529         estimate D2E/DX2                !
 ! D108  D(17,21,38,41)         61.5596         estimate D2E/DX2                !
 ! D109  D(42,21,38,39)        -58.2811         estimate D2E/DX2                !
 ! D110  D(42,21,38,40)         62.0823         estimate D2E/DX2                !
 ! D111  D(42,21,38,41)       -177.3051         estimate D2E/DX2                !
 ! D112  D(46,21,38,39)         58.6885         estimate D2E/DX2                !
 ! D113  D(46,21,38,40)        179.0519         estimate D2E/DX2                !
 ! D114  D(46,21,38,41)        -60.3355         estimate D2E/DX2                !
 ! D115  D(17,21,42,43)         61.6516         estimate D2E/DX2                !
 ! D116  D(17,21,42,44)       -177.9446         estimate D2E/DX2                !
 ! D117  D(17,21,42,45)        -58.7519         estimate D2E/DX2                !
 ! D118  D(38,21,42,43)        -59.489          estimate D2E/DX2                !
 ! D119  D(38,21,42,44)         60.9147         estimate D2E/DX2                !
 ! D120  D(38,21,42,45)       -179.8926         estimate D2E/DX2                !
 ! D121  D(46,21,42,43)       -176.4251         estimate D2E/DX2                !
 ! D122  D(46,21,42,44)        -56.0213         estimate D2E/DX2                !
 ! D123  D(46,21,42,45)         63.1714         estimate D2E/DX2                !
 ! D124  D(17,21,46,47)        -60.7139         estimate D2E/DX2                !
 ! D125  D(17,21,46,48)         60.8383         estimate D2E/DX2                !
 ! D126  D(17,21,46,49)       -179.9148         estimate D2E/DX2                !
 ! D127  D(38,21,46,47)         60.0051         estimate D2E/DX2                !
 ! D128  D(38,21,46,48)       -178.4428         estimate D2E/DX2                !
 ! D129  D(38,21,46,49)        -59.1959         estimate D2E/DX2                !
 ! D130  D(42,21,46,47)        178.5433         estimate D2E/DX2                !
 ! D131  D(42,21,46,48)        -59.9046         estimate D2E/DX2                !
 ! D132  D(42,21,46,49)         59.3423         estimate D2E/DX2                !
 --------------------------------------------------------------------------------
 Trust Radius=3.00D-01 FncErr=1.00D-07 GrdErr=1.00D-07 EigMax=2.50D+02 EigMin=1.00D-04
 Number of steps in this run=    286 maximum allowed number of steps=    300.
 GradGradGradGradGradGradGradGradGradGradGradGradGradGradGradGradGradGrad

 Leave Link  103 at Wed Mar  6 12:51:44 2019, MaxMem=  1342177280 cpu:               0.8 elap:               0.1
 (Enter /gpfs/apps/hpc/Apps/Restricted/Gaussian/g16/Rev_B.01-AVX/g16/l202.exe)
                          Input orientation:                          
 ---------------------------------------------------------------------
 Center     Atomic      Atomic             Coordinates (Angstroms)
 Number     Number       Type             X           Y           Z
 ---------------------------------------------------------------------
      1          6           0       -0.471802    2.722723    0.443310
      2          6           0       -1.871767    2.899459    0.317472
      3          6           0       -2.408152    4.186799    0.204121
      4          6           0       -1.522447    5.260833    0.218935
      5          6           0       -0.132853    5.068795    0.345862
      6          6           0        0.419239    3.794568    0.462094
      7          6           0       -1.517936    0.754492    0.440144
      8          1           0       -3.476711    4.333862    0.104043
      9          1           0       -1.909695    6.269666    0.132042
     10          1           0        0.522568    5.932132    0.353976
     11          7           0       -2.490260    1.658528    0.321200
     12          6           0       -3.063165   -1.187424    0.361181
     13          6           0       -1.738927   -0.683865    0.458471
     14          6           0       -0.659758   -1.574795    0.544670
     15          6           0       -0.849361   -2.951304    0.540640
     16          6           0       -2.168657   -3.417812    0.448074
     17          6           0       -3.286212   -2.583583    0.359384
     18          1           0        0.348704   -1.182283    0.609838
     19          1           0       -2.333657   -4.483886    0.443163
     20          6           0        0.362442   -3.887409    0.606004
     21          6           0       -4.705491   -3.165536    0.259631
     22          8           0       -4.116051   -0.344182    0.266260
     23          1           0       -3.764876    0.593734    0.265146
     24          7           0       -0.287388    1.354581    0.522300
     25          1           0        0.597063    0.878639    0.609942
     26          6           0        1.245627   -3.645420   -0.635110
     27          1           0        1.574078   -2.604514   -0.686049
     28          1           0        2.134937   -4.281753   -0.600644
     29          1           0        0.697174   -3.873580   -1.553070
     30          6           0        1.184672   -3.582215    1.873652
     31          1           0        0.592147   -3.758562    2.775299
     32          1           0        2.068169   -4.226022    1.913691
     33          1           0        1.524114   -2.543558    1.887937
     34          6           0       -0.046683   -5.366238    0.635030
     35          1           0       -0.660111   -5.597953    1.509992
     36          1           0       -0.606655   -5.647117   -0.261186
     37          1           0        0.848751   -5.991159    0.678804
     38          6           0       -5.360351   -2.728215   -1.067792
     39          1           0       -6.374132   -3.134647   -1.132489
     40          1           0       -5.415470   -1.643224   -1.146011
     41          1           0       -4.788099   -3.108300   -1.918807
     42          6           0       -5.556228   -2.682320    1.453634
     43          1           0       -5.656814   -1.597940    1.456262
     44          1           0       -6.555381   -3.125408    1.402799
     45          1           0       -5.095490   -2.988033    2.397197
     46          6           0       -4.694862   -4.702893    0.287551
     47          1           0       -4.128631   -5.120375   -0.549276
     48          1           0       -4.267527   -5.089882    1.216460
     49          1           0       -5.722320   -5.066982    0.212788
     50          1           0        1.487330    3.644658    0.561168
 ---------------------------------------------------------------------
                    Distance matrix (angstroms):
                    1          2          3          4          5
     1  C    0.000000
     2  C    1.416677   0.000000
     3  C    2.439299   1.399215   0.000000
     4  C    2.756120   2.389105   1.392207   0.000000
     5  C    2.372433   2.780405   2.444380   1.408532   0.000000
     6  C    1.393972   2.463909   2.866101   2.445241   1.393546
     7  C    2.228978   2.177413   3.553720   4.511770   4.532170
     8  H    3.426419   2.163078   1.083264   2.166015   3.432199
     9  H    3.839952   3.375518   2.142893   1.084092   2.155221
    10  H    3.361110   3.864102   3.414346   2.156610   1.083971
    11  N    2.285081   1.386527   2.532312   3.731450   4.145830
    12  C    4.691605   4.257223   5.416271   6.631294   6.908491
    13  C    3.634650   3.588556   4.923000   5.953459   5.973714
    14  C    4.302821   4.641070   6.030657   6.897546   6.667417
    15  C    5.687408   5.943613   7.314068   8.245952   8.054397
    16  C    6.370676   6.325591   7.612291   8.705686   8.727969
    17  C    6.007066   5.662699   6.828849   8.041483   8.276639
    18  H    3.993750   4.655812   6.049125   6.720696   6.275154
    19  H    7.443233   7.398846   8.674300   9.780996   9.803404
    20  C    6.664554   7.150980   8.545791   9.348420   8.973661
    21  C    7.254616   6.694586   7.703095   9.007614   9.419165
    22  O    4.766320   3.944697   4.842579   6.176181   6.721051
    23  H    3.925389   2.983784   3.841164   5.178073   5.764051
    24  N    1.382773   2.222354   3.552511   4.108065   3.721612
    25  H    2.137962   3.203806   4.487753   4.883526   4.261446
    26  C    6.683248   7.311703   8.683207   9.365521   8.876940
    27  H    5.817262   6.570740   7.922910   8.501244   7.928312
    28  H    7.546365   8.274444   9.643842  10.252274   9.668066
    29  H    6.990226   7.481473   8.814788   9.565784   9.179377
    30  C    6.673982   7.333186   8.720855   9.395003   8.883130
    31  H    6.969736   7.512724   8.873641   9.610202   9.184227
    32  H    7.543112   8.297198   9.681717  10.284218   9.679680
    33  H    5.814150   6.604907   7.974688   8.542576   7.941754
    34  C    8.102393   8.470744   9.850012  10.737115  10.439394
    35  H    8.390883   8.665808  10.025085  10.969215  10.743031
    36  H    8.400520   8.659060  10.008388  10.956850  10.743546
    37  H    8.816522   9.304561  10.696895  11.508317  11.108419
    38  C    7.476234   6.764605   7.625659   8.956007   9.493078
    39  H    8.463417   7.667079   8.433214   9.790264  10.413239
    40  H    6.784342   5.944373   6.697462   8.042680   8.670809
    41  H    7.629603   7.042662   7.961749   9.234544   9.678064
    42  C    7.489101   6.783979   7.658751   8.993862   9.524702
    43  H    6.824848   5.987488   6.751657   8.103501   8.728831
    44  H    8.493008   7.707995   8.491449   9.851954  10.464748
    45  H    7.603217   7.027105   7.969290   9.249608   9.682367
    46  C    8.543902   8.109655   9.179468  10.456804  10.784304
    47  H    8.710443   8.376301   9.494796  10.730882  10.981198
    48  H    8.720212   8.389125   9.515195  10.754898  11.002373
    49  H    9.396840   8.848836   9.829357  11.149114  11.575571
    50  H    2.168421   3.449383   3.949199   3.433351   2.167836
                    6          7          8          9         10
     6  C    0.000000
     7  C    3.604885   0.000000
     8  H    3.949362   4.094100   0.000000
     9  H    3.414525   5.537649   2.490715   0.000000
    10  H    2.142789   5.565882   4.314066   2.465581   0.000000
    11  N    3.612161   1.332983   2.859660   4.651390   5.228948
    12  C    6.079274   2.482943   5.542720   7.549251   7.971550
    13  C    4.971323   1.455349   5.321945   6.963283   6.992617
    14  C    5.477327   2.484546   6.560610   7.954130   7.601856
    15  C    6.864569   3.766963   7.756753   9.290724   8.990688
    16  C    7.662625   4.222750   7.868787   9.696090   9.730005
    17  C    7.377109   3.778368   6.924777   8.962506   9.328678
    18  H    4.979544   2.695225   6.731827   7.801295   7.121138
    19  H    8.724196   5.301510   8.897992  10.766403  10.800898
    20  C    7.683535   5.011045   9.087373  10.418897   9.824080
    21  C    8.645628   5.055661   7.600992   9.841534  10.493286
    22  O    6.143001   2.826220   4.724317   6.973450   7.804909
    23  H    5.271712   2.259471   3.754670   5.972907   6.847522
    24  N    2.540961   1.371534   4.384385   5.190592   4.651702
    25  H    2.925085   2.125432   5.365643   5.964511   5.060520
    26  C    7.565726   5.305910   9.301386  10.433289   9.655600
    27  H    6.603041   4.702317   8.618340   9.568544   8.663813
    28  H    8.324662   6.307970  10.306115  11.323795  10.384339
    29  H    7.933388   5.504422   9.355718  10.607583   9.990961
    30  C    7.549525   5.307171   9.355442  10.472244   9.657671
    31  H    7.901303   5.502095   9.443439  10.668242   9.988854
    32  H    8.316007   6.311656  10.358192  11.364733  10.392771
    33  H    6.589811   4.714583   8.688465   9.620142   8.671415
    34  C    9.174277   6.298086  10.302377  11.794832  11.316192
    35  H    9.512231   6.498768  10.418775  12.012518  11.648089
    36  H    9.524758   6.504068  10.391851  11.994260  11.650433
    37  H    9.797545   7.152759  11.209194  12.579181  11.932174
    38  C    8.848215   5.400673   7.402313   9.711256  10.565594
    39  H    9.833951   6.417259   8.105719  10.486722  11.488278
    40  H    8.136302   4.843109   6.406792   8.748583   9.741472
    41  H    8.968536   5.583885   7.822879  10.021848  10.728380
    42  C    8.867888   5.398763   7.441277   9.756120  10.600462
    43  H    8.184493   4.867930   6.462787   8.814402   9.803152
    44  H    9.869970   6.430877   8.173474  10.557681  11.542808
    45  H    8.953242   5.534929   7.841502  10.049140  10.738095
    46  C    9.919241   6.316580   9.120335  11.321590  11.846086
    47  H   10.058937   6.504517   9.499181  11.624152  12.025283
    48  H   10.073148   6.505354   9.522070  11.652239  12.048805
    49  H   10.784618   7.184574   9.665943  11.960862  12.649074
    50  H    1.083100   4.171250   5.032461   4.314463   2.491231
                   11         12         13         14         15
    11  N    0.000000
    12  C    2.903319   0.000000
    13  C    2.463767   1.420086   0.000000
    14  C    3.722238   2.441329   1.402067   0.000000
    15  C    4.898087   2.836266   2.437080   1.389511   0.000000
    16  C    5.088099   2.404646   2.767533   2.383866   1.402405
    17  C    4.316307   1.413865   2.452109   2.819618   2.471096
    18  H    4.026567   3.420922   2.151636   1.084117   2.137658
    19  H    6.145620   3.377213   3.846310   3.357834   2.135754
    20  C    6.243111   4.368597   3.834085   2.529197   1.532655
    21  C    5.308731   2.573028   3.872819   4.356565   3.872286
    22  O    2.580128   1.352270   2.408951   3.679385   4.188511
    23  H    1.661798   1.916806   2.402937   3.797685   4.598197
    24  N    2.232817   3.767318   2.503258   2.953033   4.342441
    25  H    3.197368   4.210435   2.814464   2.757390   4.094558
    26  C    6.557687   5.059647   4.344456   3.051207   2.500632
    27  H    5.975528   4.960732   3.996852   2.750458   2.738264
    28  H    7.584800   6.125377   5.391971   4.055822   3.461020
    29  H    6.654085   5.001994   4.489451   3.395025   2.761519
    30  C    6.586397   5.105557   4.353229   3.032796   2.512422
    31  H    6.698410   5.079372   4.500595   3.363304   2.779085
    32  H    7.612046   6.162301   5.399863   4.042872   3.467299
    33  H    6.018919   5.021276   4.018615   2.740833   2.759501
    34  C    7.444252   5.161069   4.981915   3.841752   2.546587
    35  H    7.577545   5.152398   5.139825   4.137348   2.824927
    36  H    7.567007   5.129391   5.141383   4.151630   2.822985
    37  H    8.354315   6.203212   5.908637   4.668818   3.484737
    38  C    5.423120   3.113368   4.429849   5.101566   4.794356
    39  H    6.338154   4.121314   5.479289   6.156303   5.775471
    40  H    4.648777   2.830675   4.124525   5.047760   5.040359
    41  H    5.746333   3.444344   4.563637   5.046142   4.646201
    42  C    5.433740   3.105404   4.422212   5.101788   4.802135
    43  H    4.681881   2.845126   4.144992   5.079577   5.077555
    44  H    6.370330   4.127508   5.481890   6.156229   5.773413
    45  H    5.717300   3.393804   4.509365   5.010471   4.634411
    46  C    6.732687   3.876387   4.991929   5.112061   4.233201
    47  H    7.028194   4.175195   5.138956   5.079462   4.080000
    48  H    7.035710   4.172670   5.136279   5.081647   4.088289
    49  H    7.462604   4.705752   5.927858   6.159144   5.322529
    50  H    4.452361   6.640483   5.399573   5.643842   6.997661
                   16         17         18         19         20
    16  C    0.000000
    17  C    1.397402   0.000000
    18  H    3.370587   3.903714   0.000000
    19  H    1.078779   2.127330   4.257161   0.000000
    20  C    2.579132   3.882455   2.705163   2.766089   0.000000
    21  C    2.556302   1.537196   5.440664   2.719803   5.130791
    22  O    3.643158   2.390025   4.555710   4.510584   5.720732
    23  H    4.321328   3.214552   4.493840   5.278476   6.101769
    24  N    5.130343   4.952638   2.616860   6.187179   5.282779
    25  H    5.112230   5.208607   2.075833   6.113396   4.771821
    26  C    3.589210   4.759631   2.901967   3.831053   1.542381
    27  H    3.994465   4.971498   2.281142   4.480798   2.187072
    28  H    4.512995   5.761449   3.776587   4.593334   2.180194
    29  H    3.524952   4.603144   3.470257   3.680129   2.184911
    30  C    3.647481   4.824840   2.838264   3.903581   1.541473
    31  H    3.626861   4.717932   3.374270   3.811204   2.185225
    32  H    4.555429   5.812304   3.731077   4.648120   2.175824
    33  H    4.058827   5.047505   2.206398   4.553530   2.190610
    34  C    2.886882   4.279450   4.202670   2.458781   1.534653
    35  H    2.855941   4.160136   4.618022   2.275967   2.188325
    36  H    2.812953   4.117084   4.648240   2.198124   2.188090
    37  H    3.972417   5.367636   4.835296   3.529180   2.160453
    38  C    3.600042   2.521865   6.147980   3.811331   6.074181
    39  H    4.501598   3.473414   7.214149   4.541868   6.997888
    40  H    4.028904   2.772044   6.043275   4.482456   6.441287
    41  H    3.543925   2.778696   6.040723   3.673612   5.788761
    42  C    3.609395   2.521924   6.150636   3.827748   6.099292
    43  H    4.061480   2.791842   6.079100   4.516462   6.495848
    44  H    4.498928   3.474155   7.216018   4.537546   7.005126
    45  H    3.542619   2.754950   6.007881   3.699129   5.814316
    46  C    2.838823   2.545767   6.159230   2.376440   5.132518
    47  H    2.781174   2.823234   6.074425   2.147553   4.798396
    48  H    2.791325   2.824729   6.078397   2.169119   4.822365
    49  H    3.924748   3.481865   7.218440   3.446174   6.210502
    50  H    7.953458   7.849739   4.959657   8.982599   7.615735
                   21         22         23         24         25
    21  C    0.000000
    22  O    2.882277   0.000000
    23  H    3.875164   1.001505   0.000000
    24  N    6.326143   4.196428   3.569025   0.000000
    25  H    6.677959   4.881275   4.384811   1.008194   0.000000
    26  C    6.037107   6.360679   6.624654   5.356282   4.736867
    27  H    6.375111   6.196254   6.295872   4.538679   3.842722
    28  H    6.984087   7.438470   7.702452   6.236741   5.519079
    29  H    5.742473   6.239691   6.570594   5.710534   5.222283
    30  C    6.121496   6.416092   6.672622   5.325887   4.673486
    31  H    5.894509   6.334066   6.650339   5.656308   5.117854
    32  H    7.052873   7.485138   7.744170   6.215123   5.470053
    33  H    6.468865   6.267259   6.359990   4.510210   3.768836
    34  C    5.166092   6.474317   7.034418   6.726073   6.278019
    35  H    4.883150   6.410343   7.037485   7.032225   6.658590
    36  H    4.819746   6.380845   7.014244   7.052629   6.692780
    37  H    6.245755   7.530457   8.050930   7.434729   6.874752
    38  C    1.543419   3.001931   3.918878   6.703176   7.163446
    39  H    2.173319   3.852548   4.760506   7.742089   8.230436
    40  H    2.190281   2.317437   3.117660   6.169872   6.752312
    41  H    2.180755   3.586993   4.418336   6.792107   7.161719
    42  C    1.543662   2.991798   3.918415   6.702584   7.159276
    43  H    2.189588   2.315591   3.130754   6.198419   6.779430
    44  H    2.174980   3.870048   4.786772   7.754567   8.235196
    45  H    2.180091   3.534140   4.375527   6.744730   7.109894
    46  C    1.537648   4.397026   5.377698   7.494927   7.698175
    47  H    2.192828   4.845336   5.783308   7.604504   7.724257
    48  H    2.193273   4.842261   5.784562   7.606213   7.723687
    49  H    2.156765   4.988768   5.989828   8.418478   8.685778
    50  H    9.209815   6.884452   6.081236   2.897513   2.906168
                   26         27         28         29         30
    26  C    0.000000
    27  H    1.092685   0.000000
    28  H    1.094065   1.770589   0.000000
    29  H    1.093393   1.769524   1.772254   0.000000
    30  C    2.510299   2.767600   2.741259   3.473467   0.000000
    31  H    3.474296   3.778485   3.748457   4.331171   1.093230
    32  H    2.740449   3.103557   2.515839   3.744633   1.093918
    33  H    2.767205   2.575192   3.096363   3.780650   1.092811
    34  C    2.498906   3.463991   2.731751   2.751205   2.496629
    35  H    3.470689   4.332998   3.741585   3.768027   2.756569
    36  H    2.752737   3.767431   3.081522   2.552326   3.468459
    37  H    2.717787   3.722671   2.492655   3.080320   2.709892
    38  C    6.683369   6.946030   7.668836   6.183928   7.226253
    39  H    7.653039   7.978370   8.602498   7.122238   8.146945
    40  H    6.974240   7.070320   8.016727   6.519555   7.512651
    41  H    6.192110   6.500061   7.144436   5.550463   7.090934
    42  C    7.180226   7.444835   8.119868   7.040199   6.813660
    43  H    7.497313   7.608449   8.493827   7.389707   7.135650
    44  H    8.079555   8.409680   8.992916   7.867431   7.767805
    45  H    7.059520   7.357761   7.933464   7.067090   6.329897
    46  C    6.104012   6.682118   6.900174   5.757577   6.191975
    47  H    5.573644   6.234513   6.319668   5.084338   6.038850
    48  H    5.992466   6.627288   6.704214   5.813600   5.694861
    49  H    7.161847   7.753005   7.938183   6.764049   7.257379
    50  H    7.391532   6.373008   8.037238   7.849730   7.351321
                   31         32         33         34         35
    31  H    0.000000
    32  H    1.771872   0.000000
    33  H    1.769805   1.768430   0.000000
    34  C    2.751995   2.721703   3.464780   0.000000
    35  H    2.559787   3.080370   3.773991   1.093410   0.000000
    36  H    3.771473   3.728845   4.334857   1.093464   1.772666
    37  H    3.073374   2.475407   3.715383   1.092815   1.766960
    38  C    7.159832   8.143438   7.494417   6.172020   6.080511
    39  H    8.011811   9.041170   8.476712   6.938352   6.760223
    40  H    7.479491   8.487490   7.627140   6.771765   6.731098
    41  H    7.169695   7.933837   7.392852   5.839639   5.915684
    42  C    6.380251   7.792695   7.095006   6.182928   5.698776
    43  H    6.742229   8.172602   7.255774   6.807941   6.400784
    44  H    7.305600   8.708500   8.114933   6.926322   6.393683
    45  H    5.752034   7.285905   6.654026   5.852482   5.222203
    46  C    5.918877   6.972111   6.774926   4.708113   4.309839
    47  H    5.932375   6.728031   6.673344   4.257385   4.061932
    48  H    5.274355   6.432219   6.362213   4.269655   3.654825
    49  H    6.939086   8.018230   7.853954   5.699184   5.252678
    50  H    7.778907   8.007140   6.328956   9.140836   9.536122
                   36         37         38         39         40
    36  H    0.000000
    37  H    1.766394   0.000000
    38  C    5.636331   7.228439   0.000000
    39  H    6.351021   7.975617   1.094132   0.000000
    40  H    6.319713   7.840596   1.089202   1.773008   0.000000
    41  H    5.165053   6.843430   1.093693   1.770449   1.771230
    42  C    6.019045   7.250691   2.529439   2.749836   2.803157
    43  H    6.696982   7.888421   2.781413   3.094777   2.613833
    44  H    6.671972   7.972318   2.773027   2.541776   3.161123
    45  H    5.855542   6.877910   3.484796   3.757008   3.803318
    46  C    4.231561   5.704765   2.485796   2.701085   3.454845
    47  H    3.572781   5.200074   2.740150   3.053773   3.755347
    48  H    3.986970   5.222803   3.462592   3.711912   4.333416
    49  H    5.170226   6.652085   2.690862   2.443062   3.696297
    50  H    9.560237   9.657670   9.495143  10.518081   8.861422
                   41         42         43         44         45
    41  H    0.000000
    42  C    3.484945   0.000000
    43  H    3.798281   1.089039   0.000000
    44  H    3.762532   1.094174   1.772974   0.000000
    45  H    4.328608   1.093641   1.769973   1.771717   0.000000
    46  C    2.723865   2.486848   3.454268   2.682120   2.748064
    47  H    2.521698   3.463206   4.331867   3.698596   3.763430
    48  H    3.745339   2.741050   3.765804   3.021284   2.549007
    49  H    3.041859   2.693306   3.685753   2.424836   3.080031
    50  H    9.546398   9.509934   8.906448  10.546437   9.523503
                   46         47         48         49         50
    46  C    0.000000
    47  H    1.093247   0.000000
    48  H    1.093274   1.771453   0.000000
    49  H    1.092621   1.767325   1.767570   0.000000
    50  H   10.391148  10.468902  10.480457  11.313403   0.000000
 Symmetry turned off by external request.
 Stoichiometry    C21H26N2O
 Framework group  C1[X(C21H26N2O)]
 Deg. of freedom   144
 Full point group                 C1      NOp   1
 Rotational constants (GHZ):           0.3502427           0.1442267           0.1069948
 Leave Link  202 at Wed Mar  6 12:51:44 2019, MaxMem=  1342177280 cpu:               1.0 elap:               0.1
 (Enter /gpfs/apps/hpc/Apps/Restricted/Gaussian/g16/Rev_B.01-AVX/g16/l716.exe)
 Electric field and nuclear coordinate derivatives read from checkpoint file.
 Dipole        = 2.22042605D+00-1.66988688D-01 1.57990289D-01
 Polarizability= 3.69126487D+02 2.15669961D+01 4.97957128D+02
                 1.38477269D+01-8.26255094D+00 1.79107581D+02
 Full mass-weighted force constant matrix:
 Low frequencies ---   -9.0169   -0.0009    0.0009    0.0023   11.0861   25.7373
 Low frequencies ---   44.0733   53.2505   59.0546
 Diagonal vibrational polarizability:
       21.3503692      36.2205889      61.1451595
 Harmonic frequencies (cm**-1), IR intensities (KM/Mole), Raman scattering
 activities (A**4/AMU), depolarization ratios for plane and unpolarized
 incident light, reduced masses (AMU), force constants (mDyne/A),
 and normal coordinates:
                      1                      2                      3
                      A                      A                      A
 Frequencies --     42.9006                52.4834                59.0028
 Red. masses --      3.7369                 2.9460                 3.2808
 Frc consts  --      0.0041                 0.0048                 0.0067
 IR Inten    --      0.7783                 0.2239                 0.5201
  Atom  AN      X      Y      Z        X      Y      Z        X      Y      Z
     1   6     0.00   0.00   0.03    -0.00   0.00   0.02    -0.00   0.00  -0.01
     2   6     0.00   0.00  -0.01    -0.00   0.00   0.02    -0.00  -0.00  -0.02
     3   6     0.00   0.01   0.03    -0.00   0.00   0.00    -0.02  -0.00   0.03
     4   6    -0.00   0.01   0.11     0.00   0.00  -0.03    -0.03   0.01   0.09
     5   6    -0.00   0.01   0.14     0.00   0.00  -0.03    -0.03   0.01   0.09
     6   6    -0.00   0.01   0.10     0.00   0.00  -0.01    -0.01   0.01   0.04
     7   6     0.01   0.00  -0.08    -0.01   0.00   0.05     0.01  -0.00  -0.08
     8   1     0.01   0.01   0.00    -0.00   0.00   0.00    -0.02  -0.01   0.04
     9   1    -0.00   0.01   0.14     0.00  -0.00  -0.04    -0.03   0.01   0.13
    10   1    -0.01   0.01   0.20     0.00  -0.00  -0.05    -0.03   0.02   0.14
    11   7     0.01   0.00  -0.08    -0.00   0.00   0.05     0.01  -0.01  -0.06
    12   6     0.01   0.00  -0.09    -0.00   0.00   0.04     0.01  -0.00  -0.08
    13   6     0.01   0.00  -0.09    -0.01   0.00   0.06     0.01  -0.00  -0.09
    14   6     0.00   0.00  -0.06    -0.00   0.01   0.06     0.01  -0.01  -0.06
    15   6     0.00   0.00  -0.02     0.00   0.01   0.04     0.01  -0.01  -0.01
    16   6    -0.00   0.00   0.02     0.00   0.01   0.03     0.00  -0.00  -0.02
    17   6    -0.00   0.00  -0.01     0.00   0.00   0.02     0.01  -0.00  -0.06
    18   1     0.00   0.00  -0.07    -0.01   0.01   0.06     0.01  -0.00  -0.06
    19   1    -0.00   0.00   0.08     0.00   0.01   0.02    -0.00  -0.00   0.02
    20   6    -0.00  -0.00  -0.02    -0.00  -0.00  -0.01    -0.00  -0.01   0.05
    21   6    -0.01  -0.01   0.05     0.01  -0.00  -0.04     0.00   0.01  -0.00
    22   8     0.01   0.00  -0.17    -0.00   0.00   0.04     0.01  -0.00  -0.07
    23   1     0.01   0.00  -0.16    -0.00   0.00   0.04     0.01  -0.00  -0.07
    24   7     0.00   0.00  -0.02    -0.00   0.00   0.04     0.01   0.00  -0.06
    25   1    -0.00   0.00   0.01    -0.00   0.00   0.04     0.01   0.01  -0.05
    26   6    -0.01  -0.02  -0.03    -0.14  -0.12  -0.13    -0.03  -0.14   0.00
    27   1    -0.01  -0.03  -0.05    -0.15  -0.12  -0.26    -0.04  -0.14  -0.11
    28   1    -0.01  -0.03  -0.03    -0.13  -0.11  -0.16    -0.02  -0.13   0.05
    29   1    -0.02  -0.04  -0.02    -0.23  -0.20  -0.05    -0.05  -0.23   0.04
    30   6     0.01   0.02  -0.03     0.15   0.08  -0.13     0.04   0.09  -0.00
    31   1     0.02   0.03  -0.02     0.25   0.18  -0.04     0.06   0.19   0.03
    32   1     0.01   0.02  -0.03     0.13   0.06  -0.17     0.02   0.08   0.03
    33   1     0.01   0.02  -0.05     0.19   0.07  -0.26     0.06   0.09  -0.11
    34   6    -0.01   0.00   0.01    -0.02   0.00   0.15    -0.01  -0.01   0.19
    35   1     0.00   0.02   0.02     0.05   0.09   0.22    -0.01   0.08   0.22
    36   1    -0.02  -0.01   0.02    -0.09  -0.07   0.22    -0.03  -0.09   0.23
    37   1    -0.01  -0.00   0.01    -0.02  -0.00   0.14    -0.02  -0.01   0.24
    38   6     0.01  -0.18  -0.01     0.09  -0.03  -0.09    -0.11   0.10   0.08
    39   1     0.02  -0.20   0.02     0.09  -0.02  -0.14    -0.11   0.10   0.14
    40   1    -0.00  -0.19  -0.14     0.10  -0.03  -0.11    -0.11   0.11   0.17
    41   1     0.03  -0.27   0.04     0.14  -0.04  -0.05    -0.18   0.16   0.01
    42   6    -0.03   0.14  -0.02    -0.07   0.01  -0.10     0.11  -0.06   0.11
    43   1    -0.01   0.14  -0.14    -0.08   0.01  -0.13     0.13  -0.06   0.19
    44   1    -0.03   0.16  -0.01    -0.06   0.00  -0.16     0.10  -0.04   0.17
    45   1    -0.06   0.23   0.02    -0.13   0.04  -0.07     0.19  -0.13   0.04
    46   6    -0.01  -0.00   0.26     0.01  -0.00  -0.01    -0.00   0.01  -0.12
    47   1    -0.01  -0.12   0.32     0.05  -0.02   0.03    -0.04   0.08  -0.17
    48   1    -0.00   0.13   0.32    -0.04   0.02   0.02     0.03  -0.07  -0.17
    49   1    -0.01  -0.02   0.32     0.01  -0.01  -0.05    -0.01   0.02  -0.10
    50   1    -0.01   0.01   0.13     0.00   0.00  -0.01    -0.01   0.02   0.05
                      4                      5                      6
                      A                      A                      A
 Frequencies --     73.0638                78.9392               109.5303
 Red. masses --      4.2206                 4.4505                 5.4620
 Frc consts  --      0.0133                 0.0163                 0.0386
 IR Inten    --      2.9174                 2.3948                 0.0128
  Atom  AN      X      Y      Z        X      Y      Z        X      Y      Z
     1   6     0.01  -0.01  -0.14     0.02  -0.05   0.01     0.01  -0.01  -0.06
     2   6    -0.01   0.01   0.09     0.02   0.02  -0.00     0.01  -0.01  -0.13
     3   6    -0.02   0.02   0.25     0.11   0.06   0.00     0.01  -0.01  -0.08
     4   6    -0.01   0.01   0.18     0.18   0.00   0.01    -0.01   0.00   0.07
     5   6     0.01  -0.00  -0.05     0.17  -0.08   0.02    -0.02   0.01   0.16
     6   6     0.02  -0.01  -0.22     0.09  -0.11   0.02    -0.01   0.01   0.09
     7   6     0.00   0.00  -0.04    -0.08   0.01  -0.01     0.02  -0.01  -0.15
     8   1    -0.03   0.03   0.42     0.12   0.13  -0.00     0.01  -0.02  -0.13
     9   1    -0.02   0.02   0.30     0.25   0.03   0.02    -0.02   0.00   0.13
    10   1     0.02  -0.01  -0.11     0.22  -0.12   0.03    -0.03   0.02   0.29
    11   7    -0.01   0.01   0.14    -0.05   0.05  -0.01     0.02  -0.01  -0.20
    12   6    -0.00  -0.00  -0.00    -0.08  -0.02  -0.01    -0.01  -0.00   0.13
    13   6    -0.00   0.00  -0.03    -0.10   0.01  -0.02     0.01  -0.01  -0.08
    14   6    -0.00   0.00  -0.03    -0.08   0.04  -0.02     0.01  -0.01  -0.17
    15   6    -0.00   0.00  -0.00    -0.04   0.04  -0.01    -0.00  -0.01  -0.04
    16   6    -0.00   0.00   0.00    -0.02  -0.00  -0.01    -0.01  -0.01   0.08
    17   6    -0.00  -0.00  -0.01    -0.05  -0.03  -0.01    -0.01  -0.00   0.13
    18   1    -0.00  -0.00  -0.03    -0.09   0.05  -0.03     0.02  -0.02  -0.33
    19   1    -0.00   0.00   0.01     0.01  -0.01  -0.00    -0.02  -0.01   0.12
    20   6    -0.00   0.00   0.04     0.02   0.11   0.00     0.00   0.00  -0.01
    21   6     0.00  -0.00  -0.03    -0.03  -0.08  -0.00    -0.01   0.01   0.03
    22   8    -0.00   0.00   0.02    -0.10  -0.03  -0.00    -0.02   0.00   0.30
    23   1    -0.01   0.00   0.09    -0.12  -0.03  -0.01    -0.01  -0.00   0.14
    24   7     0.02  -0.01  -0.23    -0.06  -0.06   0.00     0.01  -0.01  -0.10
    25   1     0.03  -0.02  -0.37    -0.08  -0.09   0.01     0.00  -0.00  -0.00
    26   6     0.03  -0.02   0.07    -0.00   0.14  -0.01     0.04  -0.02   0.01
    27   1     0.03  -0.01   0.06    -0.08   0.17  -0.03     0.03  -0.01   0.00
    28   1     0.04  -0.01   0.10     0.05   0.21   0.01     0.05  -0.00   0.06
    29   1     0.06  -0.03   0.05     0.01   0.08   0.00     0.08  -0.05  -0.00
    30   6    -0.04   0.02   0.06     0.01   0.19  -0.01    -0.04   0.04   0.01
    31   1    -0.07   0.03   0.05     0.03   0.18   0.00    -0.06   0.04  -0.01
    32   1    -0.04   0.03   0.10     0.05   0.24  -0.00    -0.02   0.07   0.04
    33   1    -0.05   0.02   0.06    -0.05   0.21  -0.04    -0.08   0.06  -0.00
    34   6    -0.00   0.00   0.06     0.11   0.09   0.04     0.02  -0.00   0.01
    35   1    -0.02   0.02   0.04     0.13   0.07   0.05     0.02   0.01   0.01
    36   1     0.02  -0.01   0.05     0.11   0.04   0.05     0.01  -0.02   0.02
    37   1    -0.00   0.00   0.09     0.14   0.14   0.04     0.02   0.00   0.02
    38   6     0.05  -0.04  -0.06    -0.07  -0.09   0.01     0.14   0.06  -0.02
    39   1     0.05  -0.03  -0.09    -0.05  -0.13   0.03     0.14   0.10  -0.14
    40   1     0.06  -0.04  -0.10    -0.11  -0.09   0.02     0.18   0.07  -0.00
    41   1     0.08  -0.06  -0.03    -0.07  -0.06  -0.00     0.22   0.07   0.03
    42   6    -0.05   0.02  -0.07    -0.02  -0.12   0.02    -0.14  -0.04  -0.05
    43   1    -0.05   0.02  -0.10    -0.05  -0.12   0.03    -0.15  -0.04  -0.03
    44   1    -0.04   0.01  -0.10    -0.01  -0.15   0.03    -0.13  -0.05  -0.17
    45   1    -0.08   0.04  -0.05    -0.00  -0.12   0.01    -0.24  -0.05  -0.00
    46   6     0.00  -0.00   0.01     0.02  -0.08  -0.02    -0.02   0.01  -0.02
    47   1     0.03  -0.03   0.04     0.02  -0.05  -0.04     0.05   0.03   0.01
    48   1    -0.02   0.02   0.03     0.05  -0.08  -0.03    -0.10  -0.03   0.00
    49   1     0.01  -0.01  -0.01     0.03  -0.11  -0.01    -0.01   0.01  -0.12
    50   1     0.03  -0.02  -0.38     0.08  -0.19   0.03    -0.01   0.01   0.16
                      7                      8                      9
                      A                      A                      A
 Frequencies --    127.1519               135.5045               190.8496
 Red. masses --      3.7508                 3.6832                 3.8242
 Frc consts  --      0.0357                 0.0398                 0.0821
 IR Inten    --      0.3400                 2.1111                 0.0228
  Atom  AN      X      Y      Z        X      Y      Z        X      Y      Z
     1   6     0.00  -0.03  -0.07    -0.00  -0.05   0.04     0.02  -0.01  -0.12
     2   6     0.00  -0.03  -0.06    -0.01  -0.07   0.05     0.02  -0.02  -0.12
     3   6    -0.01  -0.03   0.01    -0.03  -0.08   0.01     0.00  -0.03  -0.07
     4   6    -0.02  -0.02   0.08    -0.04  -0.07  -0.04    -0.02  -0.01   0.07
     5   6    -0.01  -0.02   0.06    -0.04  -0.05  -0.04    -0.02   0.00   0.11
     6   6    -0.00  -0.02  -0.02    -0.02  -0.04   0.00     0.00   0.00  -0.01
     7   6     0.01  -0.02  -0.06     0.02  -0.06   0.04     0.02  -0.01   0.00
     8   1    -0.01  -0.03   0.03    -0.03  -0.10   0.01     0.00  -0.04  -0.07
     9   1    -0.02  -0.02   0.15    -0.05  -0.08  -0.07    -0.04  -0.01   0.16
    10   1    -0.02  -0.01   0.12    -0.05  -0.04  -0.08    -0.04   0.02   0.23
    11   7     0.01  -0.03  -0.07     0.01  -0.07   0.05     0.02  -0.02  -0.06
    12   6     0.00  -0.02  -0.01     0.01  -0.03  -0.01    -0.00   0.01   0.05
    13   6    -0.00  -0.02   0.03     0.01  -0.05  -0.01    -0.00  -0.00   0.12
    14   6    -0.01  -0.02   0.13    -0.00  -0.05  -0.05    -0.02  -0.00   0.20
    15   6    -0.02  -0.01   0.17    -0.00  -0.05  -0.06    -0.01  -0.00   0.03
    16   6    -0.02  -0.02   0.18    -0.01  -0.06  -0.05     0.01   0.00  -0.19
    17   6    -0.01  -0.01   0.07    -0.01  -0.03  -0.02     0.00   0.01  -0.12
    18   1    -0.01  -0.02   0.13    -0.00  -0.06  -0.07    -0.03  -0.00   0.35
    19   1    -0.02  -0.02   0.22    -0.03  -0.06  -0.06     0.02  -0.00  -0.38
    20   6     0.01   0.02   0.04     0.06   0.04  -0.01     0.00   0.01   0.02
    21   6    -0.02   0.02   0.01    -0.05   0.08  -0.01    -0.01   0.01  -0.07
    22   8     0.02  -0.02  -0.14     0.02  -0.02   0.01    -0.00   0.02   0.15
    23   1     0.02  -0.02  -0.13     0.04  -0.02   0.02     0.01   0.01   0.11
    24   7     0.01  -0.03  -0.09     0.01  -0.05   0.05     0.03  -0.01  -0.08
    25   1     0.01  -0.02  -0.08     0.01  -0.04   0.04     0.02  -0.01  -0.05
    26   6    -0.11   0.17  -0.02     0.08   0.07   0.01    -0.03   0.04   0.00
    27   1    -0.10   0.17   0.08    -0.03   0.10  -0.04    -0.03   0.04   0.03
    28   1    -0.11   0.15  -0.19     0.16   0.17   0.08    -0.03   0.04  -0.05
    29   1    -0.20   0.28   0.00     0.15  -0.05  -0.00    -0.07   0.08   0.02
    30   6     0.13  -0.06  -0.02     0.02   0.15  -0.01     0.04  -0.00   0.01
    31   1     0.24  -0.20   0.03     0.01   0.17  -0.01     0.06  -0.00   0.02
    32   1     0.18   0.00  -0.18     0.05   0.20   0.05     0.02  -0.02  -0.02
    33   1     0.06  -0.04   0.06    -0.03   0.17  -0.05     0.07  -0.01   0.01
    34   6     0.07   0.00  -0.06     0.18   0.01   0.04     0.02   0.01   0.02
    35   1     0.15  -0.10  -0.03     0.18   0.01   0.04    -0.04   0.02  -0.02
    36   1    -0.00   0.07  -0.04     0.20  -0.05   0.04     0.09  -0.02  -0.01
    37   1     0.09   0.03  -0.20     0.22   0.07   0.07     0.03   0.02   0.09
    38   6     0.03   0.10   0.01    -0.02   0.12  -0.01    -0.12  -0.07  -0.04
    39   1     0.02   0.12  -0.03    -0.06   0.23   0.00    -0.15  -0.03   0.10
    40   1     0.06   0.11   0.07     0.11   0.13  -0.03    -0.08  -0.07  -0.13
    41   1     0.04   0.13   0.01    -0.06   0.04  -0.01    -0.23  -0.17  -0.07
    42   6    -0.03   0.00   0.01    -0.03   0.17  -0.02     0.08   0.07  -0.03
    43   1     0.02   0.01   0.05     0.03   0.17  -0.04    -0.00   0.06  -0.12
    44   1    -0.05   0.06  -0.04    -0.05   0.22  -0.01     0.11  -0.02   0.13
    45   1    -0.07  -0.06   0.01    -0.05   0.16  -0.01     0.21   0.19  -0.05
    46   6    -0.05   0.02  -0.07    -0.18   0.08   0.03    -0.02   0.01   0.04
    47   1    -0.01   0.06  -0.06    -0.21   0.01   0.04    -0.10  -0.06   0.01
    48   1    -0.12  -0.05  -0.07    -0.20   0.08   0.04     0.08   0.08   0.02
    49   1    -0.06   0.05  -0.15    -0.20   0.15   0.05    -0.02   0.01   0.16
    50   1    -0.00  -0.02  -0.03    -0.02  -0.02  -0.01     0.00   0.02   0.02
                     10                     11                     12
                      A                      A                      A
 Frequencies --    212.5180               225.8333               241.0964
 Red. masses --      3.8357                 1.3818                 1.1605
 Frc consts  --      0.1021                 0.0415                 0.0397
 IR Inten    --      0.4344                 0.4125                 0.1461
  Atom  AN      X      Y      Z        X      Y      Z        X      Y      Z
     1   6     0.11   0.02   0.03     0.01  -0.00  -0.04     0.01   0.01   0.01
     2   6     0.11  -0.04   0.04     0.01  -0.00  -0.04     0.01   0.00   0.01
     3   6     0.00  -0.09   0.01     0.00  -0.00  -0.02     0.00   0.00   0.01
     4   6    -0.09  -0.02  -0.02    -0.00  -0.00   0.03    -0.00   0.01  -0.01
     5   6    -0.08   0.06  -0.03    -0.00   0.00   0.03    -0.00   0.01  -0.01
     6   6     0.03   0.10   0.00     0.00  -0.00  -0.02     0.00   0.01   0.00
     7   6     0.14  -0.02   0.01    -0.00  -0.00   0.02     0.01   0.00  -0.01
     8   1    -0.01  -0.19   0.02     0.00  -0.01  -0.01     0.00  -0.01   0.01
     9   1    -0.16  -0.05  -0.05    -0.01   0.00   0.06    -0.01   0.00  -0.01
    10   1    -0.13   0.10  -0.06    -0.01   0.00   0.07    -0.01   0.01  -0.02
    11   7     0.14  -0.04   0.03     0.00  -0.00  -0.00     0.01   0.00   0.00
    12   6     0.00   0.03  -0.01    -0.00   0.00   0.02     0.00  -0.00  -0.01
    13   6     0.04  -0.01  -0.03    -0.01   0.00   0.07     0.00   0.00  -0.01
    14   6    -0.00  -0.04  -0.05    -0.01   0.00   0.07    -0.00  -0.00  -0.02
    15   6    -0.06  -0.02   0.01     0.00   0.00  -0.02    -0.01  -0.00   0.02
    16   6    -0.06   0.01   0.04     0.00   0.00  -0.01    -0.01  -0.01   0.04
    17   6    -0.05   0.03  -0.00    -0.00   0.00   0.04     0.00  -0.01  -0.01
    18   1     0.01  -0.07  -0.10    -0.01   0.00   0.11     0.00  -0.01  -0.03
    19   1    -0.07   0.01   0.08     0.00   0.00  -0.05    -0.01  -0.01   0.08
    20   6    -0.04   0.02   0.01     0.00   0.00  -0.03    -0.02   0.00   0.00
    21   6    -0.05  -0.03  -0.01     0.00   0.00   0.03     0.01  -0.02  -0.01
    22   8     0.03   0.07   0.00     0.00   0.00  -0.06    -0.00  -0.00   0.01
    23   1     0.09   0.05   0.01     0.01   0.00  -0.05     0.00  -0.00   0.01
    24   7     0.15   0.01   0.02     0.00  -0.00  -0.01     0.01   0.00   0.00
    25   1     0.16   0.02   0.02     0.00  -0.00  -0.00     0.01   0.00   0.00
    26   6    -0.09   0.10  -0.01     0.03  -0.02  -0.01    -0.05   0.03  -0.01
    27   1    -0.18   0.13  -0.01    -0.24   0.05  -0.21    -0.23   0.08  -0.11
    28   1    -0.03   0.18  -0.04     0.20   0.22   0.18     0.07   0.19   0.06
    29   1    -0.09   0.06   0.00     0.16  -0.36  -0.01    -0.00  -0.15   0.01
    30   6    -0.06   0.08   0.01    -0.04   0.02  -0.01    -0.03   0.00   0.01
    31   1    -0.05   0.06   0.00    -0.19   0.37  -0.04    -0.09   0.14  -0.00
    32   1    -0.03   0.13   0.02    -0.23  -0.21   0.21    -0.11  -0.09   0.10
    33   1    -0.11   0.10  -0.00     0.24  -0.07  -0.18     0.08  -0.03  -0.06
    34   6     0.02   0.01   0.01     0.00  -0.00  -0.04    -0.01  -0.00  -0.01
    35   1     0.07  -0.02   0.04     0.06  -0.02  -0.00     0.07  -0.04   0.03
    36   1    -0.00  -0.01   0.04    -0.05   0.02  -0.01    -0.08   0.02   0.02
    37   1     0.05   0.04  -0.02     0.01   0.00  -0.11     0.00   0.00  -0.11
    38   6    -0.13  -0.11   0.01     0.03   0.02   0.02     0.02  -0.02  -0.02
    39   1    -0.04  -0.33   0.01     0.08  -0.10  -0.07    -0.14   0.35   0.16
    40   1    -0.39  -0.11   0.05    -0.10   0.02   0.10     0.43  -0.01  -0.20
    41   1    -0.06   0.06  -0.02     0.12   0.15   0.03    -0.20  -0.38  -0.00
    42   6    -0.10  -0.09  -0.03    -0.03  -0.02   0.01     0.05  -0.01   0.01
    43   1    -0.14  -0.09  -0.03     0.03  -0.01   0.07    -0.06  -0.02  -0.07
    44   1    -0.09  -0.12  -0.08    -0.06   0.05  -0.07     0.09  -0.12   0.14
    45   1    -0.13  -0.08  -0.01    -0.11  -0.10   0.02     0.17   0.12  -0.01
    46   6     0.05  -0.04  -0.03     0.01  -0.00   0.00    -0.00  -0.02  -0.01
    47   1     0.05   0.01  -0.05    -0.03   0.02  -0.03     0.12  -0.02   0.07
    48   1     0.09  -0.03  -0.04     0.06  -0.01  -0.02    -0.16  -0.03   0.05
    49   1     0.06  -0.09  -0.01     0.01  -0.01   0.05     0.00  -0.00  -0.17
    50   1     0.04   0.20  -0.01     0.00   0.00  -0.01     0.00   0.02   0.00
                     13                     14                     15
                      A                      A                      A
 Frequencies --    246.0716               263.0572               266.5303
 Red. masses --      3.5599                 1.7003                 1.6523
 Frc consts  --      0.1270                 0.0693                 0.0692
 IR Inten    --      0.1604                 0.6091                 0.3983
  Atom  AN      X      Y      Z        X      Y      Z        X      Y      Z
     1   6     0.00   0.09  -0.00     0.03   0.01  -0.04    -0.01  -0.02   0.01
     2   6     0.00   0.09  -0.00     0.03   0.00  -0.04    -0.01  -0.02   0.01
     3   6     0.03   0.12  -0.00     0.01  -0.01  -0.02    -0.01  -0.02   0.01
     4   6     0.03   0.12  -0.00    -0.01   0.01   0.03    -0.00  -0.03  -0.00
     5   6     0.03   0.11  -0.00    -0.01   0.03   0.02    -0.00  -0.03  -0.00
     6   6     0.01   0.10  -0.00     0.01   0.03  -0.03    -0.00  -0.03   0.00
     7   6    -0.00   0.06   0.00     0.02   0.00   0.04    -0.00  -0.01  -0.01
     8   1     0.03   0.14  -0.00     0.01  -0.03  -0.01    -0.01  -0.02   0.01
     9   1     0.03   0.12  -0.01    -0.03   0.01   0.07     0.00  -0.03  -0.00
    10   1     0.05   0.10  -0.00    -0.02   0.04   0.05    -0.00  -0.03  -0.01
    11   7    -0.00   0.07  -0.00     0.03   0.00   0.01    -0.01  -0.01  -0.00
    12   6     0.01  -0.04   0.00    -0.01  -0.01   0.02    -0.00   0.01  -0.00
    13   6     0.01   0.00   0.01    -0.01   0.00   0.06     0.00   0.00  -0.01
    14   6    -0.00  -0.04   0.01    -0.01  -0.00   0.04     0.02   0.02  -0.01
    15   6     0.01  -0.06   0.01    -0.01  -0.00  -0.04     0.03   0.02   0.01
    16   6    -0.01  -0.07   0.01    -0.01  -0.01  -0.04     0.01   0.03   0.05
    17   6    -0.02  -0.06  -0.00    -0.01  -0.02   0.04    -0.01   0.02   0.01
    18   1    -0.00  -0.04   0.02    -0.02   0.00   0.07     0.02   0.02  -0.02
    19   1    -0.01  -0.07   0.01    -0.00  -0.01  -0.08     0.01   0.03   0.09
    20   6     0.05  -0.07   0.01    -0.00   0.02  -0.04     0.04   0.01   0.00
    21   6    -0.07  -0.04  -0.01    -0.01  -0.03   0.03    -0.02   0.01  -0.01
    22   8     0.00  -0.05   0.01     0.00  -0.01  -0.08     0.00   0.02   0.00
[...]
 ! A14   A(4,5,10)              -0.041                   1.7                    !
 ! A15   A(6,5,10)              -0.0224                  1.0                    !
 ! A16   A(1,6,5)               -0.0293                  1.2                    !
 ! A18   A(5,6,50)               0.0272                  1.2                    !
 --------------------------------------------------------------------------------
                           ----------------------------
                           ! Normal Mode   139        !
 --------------------------                            --------------------------
 ! Name  Definition              Value          Relative Weight (%)             !
 --------------------------------------------------------------------------------
 ! R19   R(13,14)               -0.044                   2.7                    !
 ! R20   R(14,15)               -0.0447                  2.8                    !
 ! R21   R(14,18)                1.0804                 66.7                    !
 ! R33   R(22,23)               -0.0105                  0.7                    !
 ! R35   R(26,27)                0.0201                  1.2                    !
 ! R38   R(30,31)               -0.0136                  0.8                    !
 ! R40   R(30,33)                0.0426                  2.6                    !
 ! A27   A(7,13,14)              0.029                   1.8                    !
 ! A28   A(12,13,14)            -0.0269                  1.7                    !
 ! A29   A(13,14,15)             0.0558                  3.4                    !
 ! A30   A(13,14,18)            -0.0324                  2.0                    !
 ! A31   A(15,14,18)            -0.0234                  1.4                    !
 ! A32   A(14,15,16)            -0.0264                  1.6                    !
 ! A33   A(14,15,20)             0.0286                  1.8                    !
 --------------------------------------------------------------------------------
                           ----------------------------
                           ! Normal Mode   140        !
 --------------------------                            --------------------------
 ! Name  Definition              Value          Relative Weight (%)             !
 --------------------------------------------------------------------------------
 ! R7    R(3,8)                 -0.5165                 20.8                    !
 ! R8    R(4,5)                 -0.0545                  2.2                    !
 ! R9    R(4,9)                  0.6624                 26.6                    !
 ! R11   R(5,10)                 0.6395                 25.7                    !
 ! R12   R(6,50)                -0.2405                  9.7                    !
 ! A7    A(2,3,4)               -0.0442                  1.8                    !
 ! A9    A(4,3,8)                0.0357                  1.4                    !
 ! A10   A(3,4,5)                0.0319                  1.3                    !
 ! A11   A(3,4,9)               -0.0335                  1.3                    !
 --------------------------------------------------------------------------------
                           ----------------------------
                           ! Normal Mode   141        !
 --------------------------                            --------------------------
 ! Name  Definition              Value          Relative Weight (%)             !
 --------------------------------------------------------------------------------
 ! R2    R(1,6)                 -0.0185                  0.8                    !
 ! R4    R(2,3)                  0.0397                  1.8                    !
 ! R6    R(3,4)                  0.061                   2.7                    !
 ! R7    R(3,8)                 -0.884                  39.3                    !
 ! R8    R(4,5)                  0.0222                  1.0                    !
 ! R9    R(4,9)                 -0.4882                 21.7                    !
 ! R10   R(5,6)                 -0.016                   0.7                    !
 ! R11   R(5,10)                -0.0611                  2.7                    !
 ! R12   R(6,50)                 0.3915                 17.4                    !
 ! A4    A(1,2,3)                0.0219                  1.0                    !
 ! A6    A(3,2,11)              -0.0246                  1.1                    !
 ! A7    A(2,3,4)               -0.0338                  1.5                    !
 ! A8    A(2,3,8)                0.0221                  1.0                    !
 ! A12   A(5,4,9)                0.0155                  0.7                    !
 ! A14   A(4,5,10)              -0.0158                  0.7                    !
 ! A15   A(6,5,10)               0.0156                  0.7                    !
 ! A16   A(1,6,5)                0.0226                  1.0                    !
 ! A18   A(5,6,50)              -0.0141                  0.6                    !
 --------------------------------------------------------------------------------
                           ----------------------------
                           ! Normal Mode   142        !
 --------------------------                            --------------------------
 ! Name  Definition              Value          Relative Weight (%)             !
 --------------------------------------------------------------------------------
 ! R2    R(1,6)                 -0.0445                  2.0                    !
 ! R6    R(3,4)                 -0.0216                  1.0                    !
 ! R7    R(3,8)                  0.2727                 12.3                    !
 ! R8    R(4,5)                 -0.0226                  1.0                    !
 ! R9    R(4,9)                  0.2387                 10.8                    !
 ! R10   R(5,6)                 -0.0578                  2.6                    !
 ! R11   R(5,10)                 0.3361                 15.2                    !
 ! R12   R(6,50)                 0.9658                 43.5                    !
 ! A1    A(2,1,6)               -0.0243                  1.1                    !
 ! A3    A(6,1,24)               0.0262                  1.2                    !
 ! A15   A(6,5,10)               0.0188                  0.8                    !
 ! A16   A(1,6,5)                0.0412                  1.9                    !
 ! A17   A(1,6,50)              -0.0232                  1.0                    !
 ! A18   A(5,6,50)              -0.018                   0.8                    !
 --------------------------------------------------------------------------------
                           ----------------------------
                           ! Normal Mode   143        !
 --------------------------                            --------------------------
 ! Name  Definition              Value          Relative Weight (%)             !
 --------------------------------------------------------------------------------
 ! R22   R(15,16)                0.0423                  2.7                    !
 ! R24   R(16,17)                0.0419                  2.6                    !
 ! R25   R(16,19)               -1.0806                 68.3                    !
 ! R42   R(34,36)               -0.0169                  1.1                    !
 ! R50   R(46,47)               -0.0174                  1.1                    !
 ! R51   R(46,48)               -0.0209                  1.3                    !
 ! A32   A(14,15,16)             0.0273                  1.7                    !
 ! A34   A(16,15,20)            -0.0287                  1.8                    !
 ! A35   A(15,16,17)            -0.0563                  3.6                    !
 ! A36   A(15,16,19)             0.0259                  1.6                    !
 ! A37   A(17,16,19)             0.0305                  1.9                    !
 ! A38   A(12,17,16)             0.0276                  1.7                    !
 ! A40   A(16,17,21)            -0.0291                  1.8                    !
 --------------------------------------------------------------------------------
                           ----------------------------
                           ! Normal Mode   144        !
 --------------------------                            --------------------------
 ! Name  Definition              Value          Relative Weight (%)             !
 --------------------------------------------------------------------------------
 ! R3    R(1,24)                -0.0462                  3.3                    !
 ! R15   R(7,24)                -0.0455                  3.3                    !
 ! R34   R(24,25)                1.0723                 76.8                    !
 ! A2    A(2,1,24)              -0.0227                  1.6                    !
 ! A3    A(6,1,24)               0.0239                  1.7                    !
 ! A20   A(11,7,24)             -0.0229                  1.6                    !
 ! A21   A(13,7,24)              0.0238                  1.7                    !
 ! A54   A(1,24,7)               0.0467                  3.3                    !
 ! A55   A(1,24,25)             -0.0212                  1.5                    !
 ! A56   A(7,24,25)             -0.0255                  1.8                    !
 --------------------------------------------------------------------------------
 Max01P=     45 Av01P=   25.76 Stan. Dev.=    7.59
 Max05P=     11 Av05P=    1.45 Stan. Dev.=    2.41
 Max10P=      6 Av10P=    0.53 Stan. Dev.=    1.16
 MaxNDP=     94 AvNDP=   68.80 Stan. Dev.=   14.85
 -------------------------------------------------------------------
 Center     Atomic                   Forces (Hartrees/Bohr)
 Number     Number              X              Y              Z
 -------------------------------------------------------------------
      1        6           0.000011422   -0.000003650    0.000000891
      2        6           0.000011621   -0.000000005    0.000000347
      3        6           0.000015336    0.000001550    0.000000111
      4        6           0.000018240   -0.000000831    0.000000484
      5        6           0.000017856   -0.000004594    0.000000914
      6        6           0.000013799   -0.000006111    0.000001055
      7        6           0.000005459   -0.000001122    0.000000596
      8        1           0.000015774    0.000004484   -0.000000355
      9        1           0.000021071    0.000000198    0.000000344
     10        1           0.000020009   -0.000006471    0.000001305
     11        7           0.000008736    0.000001805   -0.000000334
     12        6           0.000000404    0.000003293   -0.000000248
     13        6           0.000001712   -0.000000029    0.000000010
     14        6          -0.000000435   -0.000003443    0.000000429
     15        6          -0.000004532   -0.000002855    0.000000318
     16        6          -0.000005574    0.000001020   -0.000000128
     17        6          -0.000003191    0.000003922   -0.000000601
     18        1           0.000000366   -0.000006039    0.000000805
     19        1          -0.000008484    0.000001299   -0.000000406
     20        6          -0.000006916   -0.000006061    0.000000690
     21        6          -0.000004889    0.000008031   -0.000001476
     22        8           0.000002919    0.000006005   -0.000001063
     23        1           0.000005361    0.000005535   -0.000000593
     24        7           0.000007303   -0.000004366    0.000000380
     25        1           0.000006157   -0.000006543    0.000001153
     26        6          -0.000005806   -0.000008440    0.000001093
     27        1          -0.000002967   -0.000009300    0.000001308
     28        1          -0.000007628   -0.000010855    0.000001425
     29        1          -0.000006152   -0.000006885    0.000000857
     30        6          -0.000006607   -0.000008363    0.000001189
     31        1          -0.000007491   -0.000006796    0.000000814
     32        1          -0.000008481   -0.000010813    0.000001395
     33        1          -0.000003854   -0.000009348    0.000001267
     34        6          -0.000011034   -0.000004842    0.000000417
     35        1          -0.000012085   -0.000003316    0.000000283
     36        1          -0.000011551   -0.000003311    0.000000366
     37        1          -0.000012799   -0.000007398    0.000000841
     38        6          -0.000003087    0.000009583   -0.000001285
     39        1          -0.000004310    0.000012515   -0.000001924
     40        1          -0.000000152    0.000009870   -0.000001401
     41        1          -0.000003866    0.000008235   -0.000001254
     42        6          -0.000003986    0.000010230   -0.000001439
     43        1          -0.000001073    0.000010435   -0.000001541
     44        1          -0.000005244    0.000012913   -0.000001962
     45        1          -0.000005280    0.000008738   -0.000001402
     46        6          -0.000009250    0.000007608   -0.000001194
     47        1          -0.000009920    0.000006346   -0.000001119
     48        1          -0.000010577    0.000006667   -0.000001206
     49        1          -0.000010097    0.000010689   -0.000001741
     50        1           0.000013774   -0.000009183    0.000001587
 -------------------------------------------------------------------
 Cartesian Forces:  Max     0.000021071 RMS     0.000006801
 FormGI is forming the generalized inverse of G from B-inverse, IUseBI=4.
 Leave Link  716 at Wed Mar  6 12:51:44 2019, MaxMem=  1342177280 cpu:               4.2 elap:               0.3
 (Enter /gpfs/apps/hpc/Apps/Restricted/Gaussian/g16/Rev_B.01-AVX/g16/l9999.exe)

 ----------------------------------------------------------------------

 Electric dipole moment (input orientation):
 (Debye = 10**-18 statcoulomb cm , SI units = C m)
                  (au)            (Debye)         (10**-30 SI)
   Tot        0.223229D+01      0.567393D+01      0.189262D+02
   x          0.222043D+01      0.564376D+01      0.188256D+02
   y         -0.166989D+00     -0.424443D+00     -0.141579D+01
   z          0.157990D+00      0.401571D+00      0.133950D+01

 Dipole polarizability, Alpha (input orientation).
 (esu units = cm**3 , SI units = C**2 m**2 J**-1)
 Alpha(0;0):
               (au)            (10**-24 esu)      (10**-40 SI)
   iso        0.348730D+03      0.516765D+02      0.574979D+02
   aniso      0.281710D+03      0.417450D+02      0.464476D+02
   xx         0.369126D+03      0.546989D+02      0.608607D+02
   yx         0.215670D+02      0.319590D+01      0.355592D+01
   yy         0.497957D+03      0.737896D+02      0.821020D+02
   zx         0.138477D+02      0.205202D+01      0.228318D+01
   zy        -0.826255D+01     -0.122438D+01     -0.136231D+01
   zz         0.179108D+03      0.265410D+02      0.295309D+02

 ----------------------------------------------------------------------

 Dipole orientation:
     6         -0.54350171          5.11902415         -1.21243691
     6         -0.48482167          5.24963197         -3.88573699
     6         -0.17974517          7.58317987         -5.09110903
     6          0.06065373          9.72060452         -3.57611529
     6         -0.00356996          9.56002264         -0.92000093
     6         -0.31008632          7.25359637          0.31342763
     6         -0.94625947          1.28122041         -2.90102206
     1         -0.12578655          7.70516854         -7.13383161
     1          0.30084501         11.55392451         -4.45825034
     1          0.18868108         11.27018155          0.19102139
     7         -0.74361373          2.83617651         -4.87238556
     6         -1.27476741         -2.58336774         -5.54160384
     6         -1.20132761         -1.44910352         -3.11063335
     6         -1.32535732         -2.97002045         -0.94466986
     6         -1.52577203         -5.58311850         -1.10701447
     6         -1.60251702         -6.64641486         -3.53330024
     6         -1.48676474         -5.23748180         -5.76373666
     1         -1.25147331         -2.09051644          0.90414547
     1         -1.75697669         -8.67283697         -3.69340093
     6         -1.59752218         -7.17448616          1.31185807
     6         -1.57951803         -6.53194220         -8.36260042
     8         -1.13683190         -1.14987927         -7.65258909
     1         -0.96113636          0.65922053         -7.12522963
     7         -0.84515200          2.58250512         -0.66182947
     1         -0.94536495          1.81633795          1.07965604
     6          0.89399566         -6.77905366          2.77176268
     1          1.17360564         -4.78637573          3.23518742
     1          0.87337271         -7.85361051          4.53794301
     1          2.51073475         -7.40974652          1.65032687
     6         -3.82212783         -6.31359687          2.98378639
     1         -5.62519110         -6.59545143          2.01554823
     1         -3.85504231         -7.40217832          4.74084302
     1         -3.66383320         -4.31448183          3.47691098
     6         -1.90503522        -10.00408424          0.75576774
     1         -3.66821279        -10.39654130         -0.24750157
     1         -0.33774582        -10.73232166         -0.37695799
     1         -1.94077586        -11.05506867          2.53309102
     6          0.87898639         -5.98348745         -9.83288394
     1          0.80162527         -6.88979035        -11.68966563
     1          1.16057602         -3.96216202        -10.10032868
     1          2.51089831         -6.74314485         -8.81732340
     6         -3.88259006         -5.56649914         -9.87032935
     1         -3.75957774         -3.54086334        -10.21233858
     1         -3.98872107         -6.53782894        -11.69257952
     1         -5.63016053         -5.94730555         -8.83487758
     6         -1.83235436         -9.41660112         -8.12156209
     1         -0.23288765        -10.24534599         -7.11013453
     1         -3.56784879         -9.95665404         -7.13936742
     1         -1.88719876        -10.24652661        -10.01138450
     1         -0.36259825          7.12605128          2.35553772

 Electric dipole moment (dipole orientation):
 (Debye = 10**-18 statcoulomb cm , SI units = C m)
                  (au)            (Debye)         (10**-30 SI)
   Tot        0.223229D+01      0.567393D+01      0.189262D+02
   x          0.000000D+00      0.000000D+00      0.000000D+00
   y          0.000000D+00      0.000000D+00      0.000000D+00
   z          0.223229D+01      0.567393D+01      0.189262D+02

 Dipole polarizability, Alpha (dipole orientation).
 (esu units = cm**3 , SI units = C**2 m**2 J**-1)
 Alpha(0;0):
               (au)            (10**-24 esu)      (10**-40 SI)
   iso        0.348730D+03      0.516765D+02      0.574979D+02
   aniso      0.281710D+03      0.417450D+02      0.464476D+02
   xx         0.181021D+03      0.268246D+02      0.298464D+02
   yx         0.320336D+02      0.474689D+01      0.528162D+01
   yy         0.497447D+03      0.737140D+02      0.820179D+02
   zx        -0.206353D+00     -0.305783D-01     -0.340230D-01
   zy         0.111982D+02      0.165940D+01      0.184633D+01
   zz         0.367723D+03      0.544910D+02      0.606294D+02

 ----------------------------------------------------------------------

 This type of calculation cannot be archived.


 YOU CAN LEAD A BOY TO COLLEGE....
 BUT YOU CANNOT MAKE HIM THINK....
           ELBERT HUBBARD
 Job cpu time:       0 days  0 hours  0 minutes 19.8 seconds.
 Elapsed time:       0 days  0 hours  0 minutes  1.5 seconds.
 File lengths (MBytes):  RWF=     72 Int=      0 D2E=      0 Chk=     40 Scr=      8
 Normal termination of Gaussian 16 at Wed Mar  6 12:51:45 2019.
