 Entering Gaussian System, Link 0=g16
 Input=cyclohexyl-diBIP-E0PT.com
 Output=cyclohexyl-diBIP-E0PT.log
 Initial command:
 /gpfs/apps/hpc/Apps/Restricted/Gaussian/Rev_A.03/g16/l1.exe "/gpfs/scratch60/fas/hammes_schiffer/jg2487/c42n01/Gau-72958.inp" -scrdir="/gpfs/scratch60/fas/hammes_schiffer/jg2487/c42n01/"
 Entering Link 1 = /gpfs/apps/hpc/Apps/Restricted/Gaussian/Rev_A.03/g16/l1.exe PID=     72959.
  
 Copyright (c) 1988,1990,1992,1993,1995,1998,2003,2009,2016,
            Gaussian, Inc.  All Rights Reserved.
  
 This is part of the Gaussian(R) 16 program.  It is based on
 the Gaussian(R) 09 system (copyright 2009, Gaussian, Inc.),
 the Gaussian(R) 03 system (copyright 2003, Gaussian, Inc.),
 the Gaussian(R) 98 system (copyright 1998, Gaussian, Inc.),
 the Gaussian(R) 94 system (copyright 1995, Gaussian, Inc.),
 the Gaussian 92(TM) system (copyright 1992, Gaussian, Inc.),
 the Gaussian 90(TM) system (copyright 1990, Gaussian, Inc.),
 the Gaussian 88(TM) system (copyright 1988, Gaussian, Inc.),
 the Gaussian 86(TM) system (copyright 1986, Carnegie Mellon
 University), and the Gaussian 82(TM) system (copyright 1983,
 Carnegie Mellon University). Gaussian is a federally registered
 trademark of Gaussian, Inc.
  
 This software contains proprietary and confidential information,
 including trade secrets, belonging to Gaussian, Inc.
  
 This software is provided under written license and may be
 used, copied, transmitted, or stored only in accord with that
 written license.
  
 The following legend is applicable only to US Government
 contracts under FAR:
  
                    RESTRICTED RIGHTS LEGEND
  
 Use, reproduction and disclosure by the US Government is
 subject to restrictions as set forth in subparagraphs (a)
 and (c) of the Commercial Computer Software - Restricted
 Rights clause in FAR 52.227-19.
  
 Gaussian, Inc.
 340 Quinnipiac St., Bldg. 40, Wallingford CT 06492
  
  
 ---------------------------------------------------------------
 Warning -- This program may not be used in any manner that
 competes with the business of Gaussian, Inc. or will provide
 assistance to any competitor of Gaussian, Inc.  The licensee
 of this program is prohibited from giving any competitor of
 Gaussian, Inc. access to this program.  By using this program,
 the user acknowledges that Gaussian, Inc. is engaged in the
 business of creating and licensing software in the field of
 computational chemistry and represents and warrants to the
 licensee that it is not a competitor of Gaussian, Inc. and that
 it will not use this program in any manner prohibited above.
 ---------------------------------------------------------------
  

 Cite this work as:
 Gaussian 16, Revision A.03,
 M. J. Frisch, G. W. Trucks, H. B. Schlegel, G. E. Scuseria, 
 M. A. Robb, J. R. Cheeseman, G. Scalmani, V. Barone, 
 G. A. Petersson, H. Nakatsuji, X. Li, M. Caricato, A. V. Marenich, 
 J. Bloino, B. G. Janesko, R. Gomperts, B. Mennucci, H. P. Hratchian, 
 J. V. Ortiz, A. F. Izmaylov, J. L. Sonnenberg, D. Williams-Young, 
 F. Ding, F. Lipparini, F. Egidi, J. Goings, B. Peng, A. Petrone, 
 T. Henderson, D. Ranasinghe, V. G. Zakrzewski, J. Gao, N. Rega, 
 G. Zheng, W. Liang, M. Hada, M. Ehara, K. Toyota, R. Fukuda, 
 J. Hasegawa, M. Ishida, T. Nakajima, Y. Honda, O. Kitao, H. Nakai, 
 T. Vreven, K. Throssell, J. A. Montgomery, Jr., J. E. Peralta, 
 F. Ogliaro, M. J. Bearpark, J. J. Heyd, E. N. Brothers, K. N. Kudin, 
 V. N. Staroverov, T. A. Keith, R. Kobayashi, J. Normand, 
 K. Raghavachari, A. P. Rendell, J. C. Burant, S. S. Iyengar, 
 J. Tomasi, M. Cossi, J. M. Millam, M. Klene, C. Adamo, R. Cammi, 
 J. W. Ochterski, R. L. Martin, K. Morokuma, O. Farkas, 
 J. B. Foresman, and D. J. Fox, Gaussian, Inc., Wallingford CT, 2016.
 
 ******************************************
 Gaussian 16:  ES64L-G16RevA.03 25-Dec-2016
                21-Dec-2018 
 ******************************************
 %chk=cyclohexyl-diBIP-E0PT.chk
 %mem=10GB
 %nprocshared=16
 Will use up to   16 processors via shared memory.
 ----------------------------------------------------------------
 #p freq(ReadFC,InternalModes) Geom(AllCheck) NoSymm scale=0.9631
 ----------------------------------------------------------------
 1/18=20,29=7,38=1,114=963100/1,3;
 2/9=110,12=2,15=1,40=1/2;
 7/8=21,25=11,30=1/16;
 99/5=2/99;
 Leave Link    1 at Fri Dec 21 18:12:20 2018, MaxMem=  1342177280 cpu:               8.4 elap:               0.6
 (Enter /gpfs/apps/hpc/Apps/Restricted/Gaussian/Rev_A.03/g16/l101.exe)
 Structure from the checkpoint file:  "cyclohexyl-diBIP-E0PT.chk"
 -------------------------------------------------------------------
 cyclohexylimine diBIP oxidized, no protons transferred optimization
 -------------------------------------------------------------------
 Charge =  1 Multiplicity = 2
 Redundant internal coordinates found in file.  (old form).
 C,0,1.6101014775,1.119882824,-0.0165915935
 C,0,0.3876558066,1.8230962493,-0.1102873718
 C,0,0.3947104738,3.2142016225,-0.27963163
 C,0,1.6295098666,3.8533500755,-0.3535409848
 C,0,2.8367064639,3.1379139182,-0.2558897829
 C,0,2.8626184602,1.7491083312,-0.0880186666
 C,0,-0.1031307059,-0.2713967747,0.1193711609
 H,0,-0.5338682109,3.7671376478,-0.3545032746
 H,0,1.6672999731,4.928378459,-0.484297982
 H,0,3.7784601777,3.6722970482,-0.3149609104
 C,0,-2.275850489,-1.43333811,0.1742775624
 C,0,-3.1112158548,-2.583341638,0.2258198098
 C,0,-2.5413207271,-3.8602894204,0.3540295346
 C,0,-1.1584604983,-3.9306045,0.4244949576
 C,0,-0.3364795651,-2.7809033148,0.3599090843
 C,0,-0.8711852214,-1.5003460812,0.2269311808
 C,0,-4.3941217034,-0.8327022174,0.0472329701
 H,0,-3.1612065142,-4.7460746763,0.3960655523
 H,0,-0.6817933396,-4.897402119,0.5283141318
 H,0,0.737996398,-2.9072354845,0.417621705
 N,0,-0.6657043996,0.9289249468,-0.0179978918
 C,0,-6.8638898728,-0.7437812592,-0.1566521274
 C,0,-5.5888338153,-0.0442561213,-0.0565907189
 C,0,-5.5625681558,1.3469851959,-0.066491639
 C,0,-6.7445883026,2.0770890425,-0.1724704608
 C,0,-7.9803625488,1.366129198,-0.2892626274
 C,0,-8.0912167737,-0.0030480153,-0.2922572194
 H,0,-4.6119818551,1.85548271,0.0144059243
 H,0,-8.8800740076,1.9569662523,-0.3747761505
 C,0,-6.7797071699,3.5956386095,-0.1581154882
 C,0,-9.4351842665,-0.719511521,-0.4360693515
 O,0,-6.8958624103,-2.0465165785,-0.1249204513
 H,0,-5.9235882548,-2.4092919282,-0.004699248
 N,0,-3.1110422419,-0.358834487,0.0668484383
 N,0,-4.4161386258,-2.1725525078,0.1388359398
 H,0,-2.7449515815,0.5891154364,-0.0063683443
 N,0,1.2669538104,-0.2010718497,0.1288928467
 H,0,1.9644342183,-0.9333128964,0.2032553239
 C,0,4.1119979733,1.0017815956,0.0093755036
 H,0,5.0263288453,1.6010797992,-0.0598897633
 N,0,4.1279431355,-0.2714809889,0.1603631841
 C,0,5.4454406867,-0.9253564472,0.2389834078
 C,0,6.2553623249,-0.7512131009,-1.0571322093
 C,0,6.2605637489,-0.4551951413,1.4556876036
 H,0,5.2484399057,-1.9961058266,0.3659560638
 C,0,7.6023647187,-1.4759874767,-0.9715197518
 H,0,6.4261305213,0.3193170942,-1.2235609367
 H,0,5.6691852887,-1.1182616967,-1.9048361398
 C,0,7.6070120047,-1.1824579064,1.5363980845
 H,0,6.4354509063,0.6237485747,1.3688784713
 H,0,5.6786688762,-0.6139129756,2.3684292138
 C,0,8.4111433377,-1.008744305,0.2434794833
 H,0,8.1673279667,-1.3155075616,-1.8946902306
 H,0,7.4269157945,-2.5562503314,-0.8919045335
 H,0,8.175962384,-0.814608281,2.3956295414
 H,0,7.4300417785,-2.2517235542,1.7090039611
 H,0,9.3548228596,-1.5592937169,0.3060325228
 H,0,8.6677907051,0.0509346528,0.1182903404
 C,0,-7.4705143369,4.095688563,-1.4476732437
 H,0,-8.4902842094,3.7172503687,-1.5397496901
 H,0,-7.5177072594,5.1869482463,-1.4259706357
 H,0,-6.9091519999,3.7898160044,-2.3335388396
 C,0,-7.5991595406,4.0518428985,1.0724523047
 H,0,-7.6843962949,5.1414377604,1.0628277415
 H,0,-8.6076142678,3.632468726,1.0676843131
 H,0,-7.1040364353,3.7522179218,1.9990330891
 C,0,-5.3776870479,4.2122098672,-0.0790004947
 H,0,-4.8586178589,3.9177317664,0.8365745577
 H,0,-4.7652040473,3.9206268701,-0.9357550906
 H,0,-5.4649052746,5.3004786725,-0.0798847655
 C,0,-9.4238691539,-1.5826505735,-1.7169634858
 H,0,-8.6455521824,-2.3448045019,-1.6856682372
 H,0,-10.3907929623,-2.0815288676,-1.8211528079
 H,0,-9.2666354568,-0.9581145815,-2.5998531555
 C,0,-10.5887839684,0.2879225765,-0.5496368059
 H,0,-10.6609647672,0.9216658335,0.3377674881
 H,0,-10.4828980813,0.9315640023,-1.4265316488
 H,0,-11.5267525879,-0.2617730014,-0.6495502772
 C,0,-9.7029142884,-1.606795624,0.8003330688
 H,0,-10.6793772269,-2.0851451466,0.6888930685
 H,0,-8.9493495788,-2.3841951955,0.9138779423
 H,0,-9.7226339494,-1.001766058,1.7100495802
 Recover connectivity data from disk.
 ITRead=  0  0  0  0  0  0  0  0  0  0  0  0  0  0  0  0  0  0  0  0
 ITRead=  0  0  0  0  0  0  0  0  0  0  0  0  0  0  0  0  0  0  0  0
 ITRead=  0  0  0  0  0  0  0  0  0  0  0  0  0  0  0  0  0  0  0  0
 ITRead=  0  0  0  0  0  0  0  0  0  0  0  0  0  0  0  0  0  0  0  0
 ITRead=  0  0
 MicOpt= -1 -1 -1 -1 -1 -1 -1 -1 -1 -1 -1 -1 -1 -1 -1 -1 -1 -1 -1 -1
 MicOpt= -1 -1 -1 -1 -1 -1 -1 -1 -1 -1 -1 -1 -1 -1 -1 -1 -1 -1 -1 -1
 MicOpt= -1 -1 -1 -1 -1 -1 -1 -1 -1 -1 -1 -1 -1 -1 -1 -1 -1 -1 -1 -1
 MicOpt= -1 -1 -1 -1 -1 -1 -1 -1 -1 -1 -1 -1 -1 -1 -1 -1 -1 -1 -1 -1
 MicOpt= -1 -1
 NAtoms=     82 NQM=       82 NQMF=       0 NMMI=      0 NMMIF=      0
                NMic=       0 NMicF=      0.
                    Isotopes and Nuclear Properties:
 (Nuclear quadrupole moments (NQMom) in fm**2, nuclear magnetic moments (NMagM)
  in nuclear magnetons)

  Atom         1           2           3           4           5           6           7           8           9          10
 IAtWgt=          12          12          12          12          12          12          12           1           1           1
 AtmWgt=  12.0000000  12.0000000  12.0000000  12.0000000  12.0000000  12.0000000  12.0000000   1.0078250   1.0078250   1.0078250
 NucSpn=           0           0           0           0           0           0           0           1           1           1
 AtZEff=   3.6000000   3.6000000   3.6000000   3.6000000   3.6000000   3.6000000   3.6000000   1.0000000   1.0000000   1.0000000
 NQMom=    0.0000000   0.0000000   0.0000000   0.0000000   0.0000000   0.0000000   0.0000000   0.0000000   0.0000000   0.0000000
 NMagM=    0.0000000   0.0000000   0.0000000   0.0000000   0.0000000   0.0000000   0.0000000   2.7928460   2.7928460   2.7928460
 AtZNuc=   6.0000000   6.0000000   6.0000000   6.0000000   6.0000000   6.0000000   6.0000000   1.0000000   1.0000000   1.0000000

  Atom        11          12          13          14          15          16          17          18          19          20
 IAtWgt=          12          12          12          12          12          12          12           1           1           1
 AtmWgt=  12.0000000  12.0000000  12.0000000  12.0000000  12.0000000  12.0000000  12.0000000   1.0078250   1.0078250   1.0078250
 NucSpn=           0           0           0           0           0           0           0           1           1           1
 AtZEff=   3.6000000   3.6000000   3.6000000   3.6000000   3.6000000   3.6000000   3.6000000   1.0000000   1.0000000   1.0000000
 NQMom=    0.0000000   0.0000000   0.0000000   0.0000000   0.0000000   0.0000000   0.0000000   0.0000000   0.0000000   0.0000000
 NMagM=    0.0000000   0.0000000   0.0000000   0.0000000   0.0000000   0.0000000   0.0000000   2.7928460   2.7928460   2.7928460
 AtZNuc=   6.0000000   6.0000000   6.0000000   6.0000000   6.0000000   6.0000000   6.0000000   1.0000000   1.0000000   1.0000000

  Atom        21          22          23          24          25          26          27          28          29          30
 IAtWgt=          14          12          12          12          12          12          12           1           1          12
 AtmWgt=  14.0030740  12.0000000  12.0000000  12.0000000  12.0000000  12.0000000  12.0000000   1.0078250   1.0078250  12.0000000
 NucSpn=           2           0           0           0           0           0           0           1           1           0
 AtZEff=   4.5500000   3.6000000   3.6000000   3.6000000   3.6000000   3.6000000   3.6000000   1.0000000   1.0000000   3.6000000
 NQMom=    2.0440000   0.0000000   0.0000000   0.0000000   0.0000000   0.0000000   0.0000000   0.0000000   0.0000000   0.0000000
 NMagM=    0.4037610   0.0000000   0.0000000   0.0000000   0.0000000   0.0000000   0.0000000   2.7928460   2.7928460   0.0000000
 AtZNuc=   7.0000000   6.0000000   6.0000000   6.0000000   6.0000000   6.0000000   6.0000000   1.0000000   1.0000000   6.0000000

  Atom        31          32          33          34          35          36          37          38          39          40
 IAtWgt=          12          16           1          14          14           1          14           1          12           1
 AtmWgt=  12.0000000  15.9949146   1.0078250  14.0030740  14.0030740   1.0078250  14.0030740   1.0078250  12.0000000   1.0078250
 NucSpn=           0           0           1           2           2           1           2           1           0           1
 AtZEff=   3.6000000   5.6000000   1.0000000   4.5500000   4.5500000   1.0000000   4.5500000   1.0000000   3.6000000   1.0000000
 NQMom=    0.0000000   0.0000000   0.0000000   2.0440000   2.0440000   0.0000000   2.0440000   0.0000000   0.0000000   0.0000000
 NMagM=    0.0000000   0.0000000   2.7928460   0.4037610   0.4037610   2.7928460   0.4037610   2.7928460   0.0000000   2.7928460
 AtZNuc=   6.0000000   8.0000000   1.0000000   7.0000000   7.0000000   1.0000000   7.0000000   1.0000000   6.0000000   1.0000000

  Atom        41          42          43          44          45          46          47          48          49          50
 IAtWgt=          14          12          12          12           1          12           1           1          12           1
 AtmWgt=  14.0030740  12.0000000  12.0000000  12.0000000   1.0078250  12.0000000   1.0078250   1.0078250  12.0000000   1.0078250
 NucSpn=           2           0           0           0           1           0           1           1           0           1
 AtZEff=   4.5500000   3.6000000   3.6000000   3.6000000   1.0000000   3.6000000   1.0000000   1.0000000   3.6000000   1.0000000
 NQMom=    2.0440000   0.0000000   0.0000000   0.0000000   0.0000000   0.0000000   0.0000000   0.0000000   0.0000000   0.0000000
 NMagM=    0.4037610   0.0000000   0.0000000   0.0000000   2.7928460   0.0000000   2.7928460   2.7928460   0.0000000   2.7928460
 AtZNuc=   7.0000000   6.0000000   6.0000000   6.0000000   1.0000000   6.0000000   1.0000000   1.0000000   6.0000000   1.0000000

  Atom        51          52          53          54          55          56          57          58          59          60
 IAtWgt=           1          12           1           1           1           1           1           1          12           1
 AtmWgt=   1.0078250  12.0000000   1.0078250   1.0078250   1.0078250   1.0078250   1.0078250   1.0078250  12.0000000   1.0078250
 NucSpn=           1           0           1           1           1           1           1           1           0           1
 AtZEff=   1.0000000   3.6000000   1.0000000   1.0000000   1.0000000   1.0000000   1.0000000   1.0000000   3.6000000   1.0000000
 NQMom=    0.0000000   0.0000000   0.0000000   0.0000000   0.0000000   0.0000000   0.0000000   0.0000000   0.0000000   0.0000000
 NMagM=    2.7928460   0.0000000   2.7928460   2.7928460   2.7928460   2.7928460   2.7928460   2.7928460   0.0000000   2.7928460
 AtZNuc=   1.0000000   6.0000000   1.0000000   1.0000000   1.0000000   1.0000000   1.0000000   1.0000000   6.0000000   1.0000000

  Atom        61          62          63          64          65          66          67          68          69          70
 IAtWgt=           1           1          12           1           1           1          12           1           1           1
 AtmWgt=   1.0078250   1.0078250  12.0000000   1.0078250   1.0078250   1.0078250  12.0000000   1.0078250   1.0078250   1.0078250
 NucSpn=           1           1           0           1           1           1           0           1           1           1
 AtZEff=   1.0000000   1.0000000   3.6000000   1.0000000   1.0000000   1.0000000   3.6000000   1.0000000   1.0000000   1.0000000
 NQMom=    0.0000000   0.0000000   0.0000000   0.0000000   0.0000000   0.0000000   0.0000000   0.0000000   0.0000000   0.0000000
 NMagM=    2.7928460   2.7928460   0.0000000   2.7928460   2.7928460   2.7928460   0.0000000   2.7928460   2.7928460   2.7928460
 AtZNuc=   1.0000000   1.0000000   6.0000000   1.0000000   1.0000000   1.0000000   6.0000000   1.0000000   1.0000000   1.0000000

  Atom        71          72          73          74          75          76          77          78          79          80
 IAtWgt=          12           1           1           1          12           1           1           1          12           1
 AtmWgt=  12.0000000   1.0078250   1.0078250   1.0078250  12.0000000   1.0078250   1.0078250   1.0078250  12.0000000   1.0078250
 NucSpn=           0           1           1           1           0           1           1           1           0           1
 AtZEff=   3.6000000   1.0000000   1.0000000   1.0000000   3.6000000   1.0000000   1.0000000   1.0000000   3.6000000   1.0000000
 NQMom=    0.0000000   0.0000000   0.0000000   0.0000000   0.0000000   0.0000000   0.0000000   0.0000000   0.0000000   0.0000000
 NMagM=    0.0000000   2.7928460   2.7928460   2.7928460   0.0000000   2.7928460   2.7928460   2.7928460   0.0000000   2.7928460
 AtZNuc=   6.0000000   1.0000000   1.0000000   1.0000000   6.0000000   1.0000000   1.0000000   1.0000000   6.0000000   1.0000000

  Atom        81          82
 IAtWgt=           1           1
 AtmWgt=   1.0078250   1.0078250
 NucSpn=           1           1
 AtZEff=   1.0000000   1.0000000
 NQMom=    0.0000000   0.0000000
 NMagM=    2.7928460   2.7928460
 AtZNuc=   1.0000000   1.0000000
 Leave Link  101 at Fri Dec 21 18:12:20 2018, MaxMem=  1342177280 cpu:               4.8 elap:               0.3
 (Enter /gpfs/apps/hpc/Apps/Restricted/Gaussian/Rev_A.03/g16/l103.exe)

 GradGradGradGradGradGradGradGradGradGradGradGradGradGradGradGradGradGrad
 Berny optimization.
 Initialization pass.
                           ----------------------------
                           !    Initial Parameters    !
                           ! (Angstroms and Degrees)  !
 --------------------------                            --------------------------
 ! Name  Definition              Value          Derivative Info.                !
 --------------------------------------------------------------------------------
 ! R1    R(1,2)                  1.4134         estimate D2E/DX2                !
 ! R2    R(1,6)                  1.4035         estimate D2E/DX2                !
 ! R3    R(1,37)                 1.3725         estimate D2E/DX2                !
 ! R4    R(2,3)                  1.4014         estimate D2E/DX2                !
 ! R5    R(2,21)                 1.3848         estimate D2E/DX2                !
 ! R6    R(3,4)                  1.3924         estimate D2E/DX2                !
 ! R7    R(3,8)                  1.0833         estimate D2E/DX2                !
 ! R8    R(4,5)                  1.4067         estimate D2E/DX2                !
 ! R9    R(4,9)                  1.0836         estimate D2E/DX2                !
 ! R10   R(5,6)                  1.3992         estimate D2E/DX2                !
 ! R11   R(5,10)                 1.0844         estimate D2E/DX2                !
 ! R12   R(6,39)                 1.4591         estimate D2E/DX2                !
 ! R13   R(7,16)                 1.4532         estimate D2E/DX2                !
 ! R14   R(7,21)                 1.3327         estimate D2E/DX2                !
 ! R15   R(7,37)                 1.3719         estimate D2E/DX2                !
 ! R16   R(11,12)                1.4223         estimate D2E/DX2                !
 ! R17   R(11,16)                1.4072         estimate D2E/DX2                !
 ! R18   R(11,34)                1.3652         estimate D2E/DX2                !
 ! R19   R(12,13)                1.4042         estimate D2E/DX2                !
 ! R20   R(12,35)                1.3708         estimate D2E/DX2                !
 ! R21   R(13,14)                1.3864         estimate D2E/DX2                !
 ! R22   R(13,18)                1.082          estimate D2E/DX2                !
 ! R23   R(14,15)                1.4148         estimate D2E/DX2                !
 ! R24   R(14,19)                1.0829         estimate D2E/DX2                !
 ! R25   R(15,16)                1.3941         estimate D2E/DX2                !
 ! R26   R(15,20)                1.0834         estimate D2E/DX2                !
 ! R27   R(17,23)                1.4352         estimate D2E/DX2                !
 ! R28   R(17,34)                1.3679         estimate D2E/DX2                !
 ! R29   R(17,35)                1.3432         estimate D2E/DX2                !
 ! R30   R(22,23)                1.4578         estimate D2E/DX2                !
 ! R31   R(22,27)                1.4399         estimate D2E/DX2                !
 ! R32   R(22,32)                1.3035         estimate D2E/DX2                !
 ! R33   R(23,24)                1.3915         estimate D2E/DX2                !
 ! R34   R(24,25)                1.3934         estimate D2E/DX2                !
 ! R35   R(24,28)                1.0811         estimate D2E/DX2                !
 ! R36   R(25,26)                1.4305         estimate D2E/DX2                !
 ! R37   R(25,30)                1.519          estimate D2E/DX2                !
 ! R38   R(26,27)                1.3737         estimate D2E/DX2                !
 ! R39   R(26,29)                1.0798         estimate D2E/DX2                !
 ! R40   R(27,31)                1.5298         estimate D2E/DX2                !
 ! R41   R(30,59)                1.546          estimate D2E/DX2                !
 ! R42   R(30,63)                1.5472         estimate D2E/DX2                !
 ! R43   R(30,67)                1.5336         estimate D2E/DX2                !
 ! R44   R(31,71)                1.5446         estimate D2E/DX2                !
 ! R45   R(31,75)                1.5358         estimate D2E/DX2                !
 ! R46   R(31,79)                1.5452         estimate D2E/DX2                !
 ! R47   R(32,33)                1.0447         estimate D2E/DX2                !
 ! R48   R(34,36)                1.0188         estimate D2E/DX2                !
 ! R49   R(37,38)                1.014          estimate D2E/DX2                !
 ! R50   R(39,40)                1.0954         estimate D2E/DX2                !
 ! R51   R(39,41)                1.2823         estimate D2E/DX2                !
 ! R52   R(41,42)                1.4729         estimate D2E/DX2                !
 ! R53   R(42,43)                1.5383         estimate D2E/DX2                !
 ! R54   R(42,44)                1.5381         estimate D2E/DX2                !
 ! R55   R(42,45)                1.0961         estimate D2E/DX2                !
 ! R56   R(43,46)                1.532          estimate D2E/DX2                !
 ! R57   R(43,47)                1.0968         estimate D2E/DX2                !
 ! R58   R(43,48)                1.094          estimate D2E/DX2                !
 ! R59   R(44,49)                1.5324         estimate D2E/DX2                !
 ! R60   R(44,50)                1.0965         estimate D2E/DX2                !
 ! R61   R(44,51)                1.094          estimate D2E/DX2                !
 ! R62   R(46,52)                1.5325         estimate D2E/DX2                !
 ! R63   R(46,53)                1.0942         estimate D2E/DX2                !
 ! R64   R(46,54)                1.0973         estimate D2E/DX2                !
 ! R65   R(49,52)                1.5325         estimate D2E/DX2                !
 ! R66   R(49,55)                1.0942         estimate D2E/DX2                !
 ! R67   R(49,56)                1.0975         estimate D2E/DX2                !
 ! R68   R(52,57)                1.0943         estimate D2E/DX2                !
 ! R69   R(52,58)                1.0975         estimate D2E/DX2                !
 ! R70   R(59,60)                1.0916         estimate D2E/DX2                !
 ! R71   R(59,61)                1.0925         estimate D2E/DX2                !
 ! R72   R(59,62)                1.0924         estimate D2E/DX2                !
 ! R73   R(63,64)                1.093          estimate D2E/DX2                !
 ! R74   R(63,65)                1.0922         estimate D2E/DX2                !
 ! R75   R(63,66)                1.0925         estimate D2E/DX2                !
 ! R76   R(67,68)                1.0929         estimate D2E/DX2                !
 ! R77   R(67,69)                1.0928         estimate D2E/DX2                !
 ! R78   R(67,70)                1.0918         estimate D2E/DX2                !
 ! R79   R(71,72)                1.0898         estimate D2E/DX2                !
 ! R80   R(71,73)                1.093          estimate D2E/DX2                !
 ! R81   R(71,74)                1.0928         estimate D2E/DX2                !
 ! R82   R(75,76)                1.0929         estimate D2E/DX2                !
 ! R83   R(75,77)                1.0929         estimate D2E/DX2                !
 ! R84   R(75,78)                1.0918         estimate D2E/DX2                !
 ! R85   R(79,80)                1.093          estimate D2E/DX2                !
 ! R86   R(79,81)                1.0886         estimate D2E/DX2                !
 ! R87   R(79,82)                1.0927         estimate D2E/DX2                !
 ! A1    A(2,1,6)              123.0539         estimate D2E/DX2                !
 ! A2    A(2,1,37)             105.6424         estimate D2E/DX2                !
 ! A3    A(6,1,37)             131.2989         estimate D2E/DX2                !
 ! A4    A(1,2,3)              119.8375         estimate D2E/DX2                !
 ! A5    A(1,2,21)             109.4037         estimate D2E/DX2                !
 ! A6    A(3,2,21)             130.7571         estimate D2E/DX2                !
 ! A7    A(2,3,4)              117.8102         estimate D2E/DX2                !
 ! A8    A(2,3,8)              120.7101         estimate D2E/DX2                !
 ! A9    A(4,3,8)              121.4791         estimate D2E/DX2                !
 ! A10   A(3,4,5)              121.5958         estimate D2E/DX2                !
 ! A11   A(3,4,9)              119.5203         estimate D2E/DX2                !
 ! A12   A(5,4,9)              118.8831         estimate D2E/DX2                !
 ! A13   A(4,5,6)              121.9423         estimate D2E/DX2                !
 ! A14   A(4,5,10)             119.3986         estimate D2E/DX2                !
 ! A15   A(6,5,10)             118.6588         estimate D2E/DX2                !
 ! A16   A(1,6,5)              115.759          estimate D2E/DX2                !
 ! A17   A(1,6,39)             122.0821         estimate D2E/DX2                !
 ! A18   A(5,6,39)             122.1587         estimate D2E/DX2                !
 ! A19   A(16,7,21)            123.1065         estimate D2E/DX2                !
 ! A20   A(16,7,37)            124.7959         estimate D2E/DX2                !
 ! A21   A(21,7,37)            112.0928         estimate D2E/DX2                !
 ! A22   A(12,11,16)           123.1198         estimate D2E/DX2                !
 ! A23   A(12,11,34)           106.2558         estimate D2E/DX2                !
 ! A24   A(16,11,34)           130.6241         estimate D2E/DX2                !
 ! A25   A(11,12,13)           120.0136         estimate D2E/DX2                !
 ! A26   A(11,12,35)           108.3307         estimate D2E/DX2                !
 ! A27   A(13,12,35)           131.6547         estimate D2E/DX2                !
 ! A28   A(12,13,14)           117.1009         estimate D2E/DX2                !
 ! A29   A(12,13,18)           121.0317         estimate D2E/DX2                !
 ! A30   A(14,13,18)           121.8673         estimate D2E/DX2                !
 ! A31   A(13,14,15)           122.4089         estimate D2E/DX2                !
 ! A32   A(13,14,19)           119.2873         estimate D2E/DX2                !
 ! A33   A(15,14,19)           118.3033         estimate D2E/DX2                !
 ! A34   A(14,15,16)           121.8686         estimate D2E/DX2                !
 ! A35   A(14,15,20)           118.6206         estimate D2E/DX2                !
 ! A36   A(16,15,20)           119.5107         estimate D2E/DX2                !
 ! A37   A(7,16,11)            118.9809         estimate D2E/DX2                !
 ! A38   A(7,16,15)            125.5326         estimate D2E/DX2                !
 ! A39   A(11,16,15)           115.4779         estimate D2E/DX2                !
 ! A40   A(23,17,34)           126.2662         estimate D2E/DX2                !
 ! A41   A(23,17,35)           122.6362         estimate D2E/DX2                !
 ! A42   A(34,17,35)           111.0975         estimate D2E/DX2                !
 ! A43   A(2,21,7)             105.5059         estimate D2E/DX2                !
 ! A44   A(23,22,27)           120.3399         estimate D2E/DX2                !
 ! A45   A(23,22,32)           119.9572         estimate D2E/DX2                !
 ! A46   A(27,22,32)           119.7028         estimate D2E/DX2                !
 ! A47   A(17,23,22)           117.9986         estimate D2E/DX2                !
 ! A48   A(17,23,24)           122.2801         estimate D2E/DX2                !
 ! A49   A(22,23,24)           119.7212         estimate D2E/DX2                !
 ! A50   A(23,24,25)           120.558          estimate D2E/DX2                !
 ! A51   A(23,24,28)           119.0997         estimate D2E/DX2                !
 ! A52   A(25,24,28)           120.3416         estimate D2E/DX2                !
 ! A53   A(24,25,26)           118.5968         estimate D2E/DX2                !
 ! A54   A(24,25,30)           122.8689         estimate D2E/DX2                !
 ! A55   A(26,25,30)           118.5324         estimate D2E/DX2                !
 ! A56   A(25,26,27)           124.422          estimate D2E/DX2                !
 ! A57   A(25,26,29)           117.0229         estimate D2E/DX2                !
 ! A58   A(27,26,29)           118.5543         estimate D2E/DX2                !
 ! A59   A(22,27,26)           116.3436         estimate D2E/DX2                !
 ! A60   A(22,27,31)           121.1141         estimate D2E/DX2                !
 ! A61   A(26,27,31)           122.5418         estimate D2E/DX2                !
 ! A62   A(25,30,59)           109.0133         estimate D2E/DX2                !
 ! A63   A(25,30,63)           108.3319         estimate D2E/DX2                !
 ! A64   A(25,30,67)           112.4115         estimate D2E/DX2                !
 ! A65   A(59,30,63)           109.3524         estimate D2E/DX2                !
 ! A66   A(59,30,67)           108.7519         estimate D2E/DX2                !
 ! A67   A(63,30,67)           108.9414         estimate D2E/DX2                !
 ! A68   A(27,31,71)           109.4652         estimate D2E/DX2                !
 ! A69   A(27,31,75)           111.0781         estimate D2E/DX2                !
 ! A70   A(27,31,79)           110.2385         estimate D2E/DX2                !
 ! A71   A(71,31,75)           108.1041         estimate D2E/DX2                !
 ! A72   A(71,31,79)           110.1168         estimate D2E/DX2                !
 ! A73   A(75,31,79)           107.8            estimate D2E/DX2                !
 ! A74   A(22,32,33)           109.0882         estimate D2E/DX2                !
 ! A75   A(11,34,17)           107.5967         estimate D2E/DX2                !
 ! A76   A(11,34,36)           121.2092         estimate D2E/DX2                !
 ! A77   A(17,34,36)           131.1723         estimate D2E/DX2                !
 ! A78   A(12,35,17)           106.7175         estimate D2E/DX2                !
 ! A79   A(1,37,7)             107.354          estimate D2E/DX2                !
 ! A80   A(1,37,38)            122.0596         estimate D2E/DX2                !
 ! A81   A(7,37,38)            130.5737         estimate D2E/DX2                !
 ! A82   A(6,39,40)            115.4855         estimate D2E/DX2                !
 ! A83   A(6,39,41)            121.8092         estimate D2E/DX2                !
 ! A84   A(40,39,41)           122.7047         estimate D2E/DX2                !
 ! A85   A(39,41,42)           117.2718         estimate D2E/DX2                !
 ! A86   A(41,42,43)           112.0693         estimate D2E/DX2                !
 ! A87   A(41,42,44)           112.3676         estimate D2E/DX2                !
 ! A88   A(41,42,45)           106.2054         estimate D2E/DX2                !
 ! A89   A(43,42,44)           110.6637         estimate D2E/DX2                !
 ! A90   A(43,42,45)           107.6275         estimate D2E/DX2                !
 ! A91   A(44,42,45)           107.5906         estimate D2E/DX2                !
 ! A92   A(42,43,46)           111.2412         estimate D2E/DX2                !
 ! A93   A(42,43,47)           108.6835         estimate D2E/DX2                !
 ! A94   A(42,43,48)           109.4378         estimate D2E/DX2                !
 ! A95   A(46,43,47)           109.4724         estimate D2E/DX2                !
 ! A96   A(46,43,48)           110.8344         estimate D2E/DX2                !
 ! A97   A(47,43,48)           107.0567         estimate D2E/DX2                !
 ! A98   A(42,44,49)           111.2368         estimate D2E/DX2                !
 ! A99   A(42,44,50)           108.8254         estimate D2E/DX2                !
 ! A100  A(42,44,51)           109.4958         estimate D2E/DX2                !
 ! A101  A(49,44,50)           109.3309         estimate D2E/DX2                !
 ! A102  A(49,44,51)           110.7653         estimate D2E/DX2                !
 ! A103  A(50,44,51)           107.0764         estimate D2E/DX2                !
 ! A104  A(43,46,52)           111.3508         estimate D2E/DX2                !
 ! A105  A(43,46,53)           109.7219         estimate D2E/DX2                !
 ! A106  A(43,46,54)           109.2209         estimate D2E/DX2                !
 ! A107  A(52,46,53)           110.5912         estimate D2E/DX2                !
 ! A108  A(52,46,54)           109.0871         estimate D2E/DX2                !
 ! A109  A(53,46,54)           106.7482         estimate D2E/DX2                !
 ! A110  A(44,49,52)           111.2732         estimate D2E/DX2                !
 ! A111  A(44,49,55)           109.796          estimate D2E/DX2                !
 ! A112  A(44,49,56)           109.2072         estimate D2E/DX2                !
 ! A113  A(52,49,55)           110.5826         estimate D2E/DX2                !
 ! A114  A(52,49,56)           109.1322         estimate D2E/DX2                !
 ! A115  A(55,49,56)           106.7312         estimate D2E/DX2                !
 ! A116  A(46,52,49)           110.9404         estimate D2E/DX2                !
 ! A117  A(46,52,57)           110.3053         estimate D2E/DX2                !
 ! A118  A(46,52,58)           109.1086         estimate D2E/DX2                !
 ! A119  A(49,52,57)           110.3187         estimate D2E/DX2                !
 ! A120  A(49,52,58)           109.1717         estimate D2E/DX2                !
 ! A121  A(57,52,58)           106.8955         estimate D2E/DX2                !
 ! A122  A(30,59,60)           112.0641         estimate D2E/DX2                !
 ! A123  A(30,59,61)           109.0144         estimate D2E/DX2                !
 ! A124  A(30,59,62)           110.8678         estimate D2E/DX2                !
 ! A125  A(60,59,61)           107.915          estimate D2E/DX2                !
 ! A126  A(60,59,62)           108.3351         estimate D2E/DX2                !
 ! A127  A(61,59,62)           108.5406         estimate D2E/DX2                !
 ! A128  A(30,63,64)           109.1622         estimate D2E/DX2                !
 ! A129  A(30,63,65)           111.8595         estimate D2E/DX2                !
 ! A130  A(30,63,66)           110.7118         estimate D2E/DX2                !
 ! A131  A(64,63,65)           108.1041         estimate D2E/DX2                !
 ! A132  A(64,63,66)           108.4353         estimate D2E/DX2                !
 ! A133  A(65,63,66)           108.4733         estimate D2E/DX2                !
 ! A134  A(30,67,68)           111.6586         estimate D2E/DX2                !
 ! A135  A(30,67,69)           111.3865         estimate D2E/DX2                !
 ! A136  A(30,67,70)           109.1275         estimate D2E/DX2                !
 ! A137  A(68,67,69)           108.5849         estimate D2E/DX2                !
 ! A138  A(68,67,70)           107.891          estimate D2E/DX2                !
 ! A139  A(69,67,70)           108.066          estimate D2E/DX2                !
 ! A140  A(31,71,72)           111.8529         estimate D2E/DX2                !
 ! A141  A(31,71,73)           109.1244         estimate D2E/DX2                !
 ! A142  A(31,71,74)           110.5892         estimate D2E/DX2                !
 ! A143  A(72,71,73)           108.3811         estimate D2E/DX2                !
 ! A144  A(72,71,74)           108.6702         estimate D2E/DX2                !
 ! A145  A(73,71,74)           108.1262         estimate D2E/DX2                !
 ! A146  A(31,75,76)           111.7135         estimate D2E/DX2                !
 ! A147  A(31,75,77)           111.8934         estimate D2E/DX2                !
 ! A148  A(31,75,78)           108.7734         estimate D2E/DX2                !
 ! A149  A(76,75,77)           108.4453         estimate D2E/DX2                !
 ! A150  A(76,75,78)           108.0318         estimate D2E/DX2                !
 ! A151  A(77,75,78)           107.8384         estimate D2E/DX2                !
 ! A152  A(31,79,80)           108.9357         estimate D2E/DX2                !
 ! A153  A(31,79,81)           111.9364         estimate D2E/DX2                !
 ! A154  A(31,79,82)           110.5691         estimate D2E/DX2                !
 ! A155  A(80,79,81)           108.4519         estimate D2E/DX2                !
 ! A156  A(80,79,82)           108.124          estimate D2E/DX2                !
 ! A157  A(81,79,82)           108.7268         estimate D2E/DX2                !
 ! D1    D(6,1,2,3)             -0.1486         estimate D2E/DX2                !
 ! D2    D(6,1,2,21)           179.4316         estimate D2E/DX2                !
 ! D3    D(37,1,2,3)          -179.4363         estimate D2E/DX2                !
 ! D4    D(37,1,2,21)            0.144          estimate D2E/DX2                !
 ! D5    D(2,1,6,5)              0.2048         estimate D2E/DX2                !
 ! D6    D(2,1,6,39)          -179.9119         estimate D2E/DX2                !
 ! D7    D(37,1,6,5)           179.2918         estimate D2E/DX2                !
 ! D8    D(37,1,6,39)           -0.8249         estimate D2E/DX2                !
 ! D9    D(2,1,37,7)             0.0711         estimate D2E/DX2                !
 ! D10   D(2,1,37,38)          178.9037         estimate D2E/DX2                !
 ! D11   D(6,1,37,7)          -179.1341         estimate D2E/DX2                !
 ! D12   D(6,1,37,38)           -0.3016         estimate D2E/DX2                !
 ! D13   D(1,2,3,4)              0.1954         estimate D2E/DX2                !
 ! D14   D(1,2,3,8)            179.9137         estimate D2E/DX2                !
 ! D15   D(21,2,3,4)          -179.2819         estimate D2E/DX2                !
 ! D16   D(21,2,3,8)             0.4363         estimate D2E/DX2                !
 ! D17   D(1,2,21,7)            -0.3045         estimate D2E/DX2                !
 ! D18   D(3,2,21,7)           179.2149         estimate D2E/DX2                !
 ! D19   D(2,3,4,5)             -0.3194         estimate D2E/DX2                !
 ! D20   D(2,3,4,9)           -179.9995         estimate D2E/DX2                !
 ! D21   D(8,3,4,5)            179.9647         estimate D2E/DX2                !
 ! D22   D(8,3,4,9)              0.2845         estimate D2E/DX2                !
 ! D23   D(3,4,5,6)              0.3991         estimate D2E/DX2                !
 ! D24   D(3,4,5,10)          -179.8047         estimate D2E/DX2                !
 ! D25   D(9,4,5,6)           -179.9188         estimate D2E/DX2                !
 ! D26   D(9,4,5,10)            -0.1226         estimate D2E/DX2                !
 ! D27   D(4,5,6,1)             -0.3241         estimate D2E/DX2                !
 ! D28   D(4,5,6,39)           179.7927         estimate D2E/DX2                !
 ! D29   D(10,5,6,1)           179.8783         estimate D2E/DX2                !
 ! D30   D(10,5,6,39)           -0.0049         estimate D2E/DX2                !
 ! D31   D(1,6,39,40)         -179.9975         estimate D2E/DX2                !
 ! D32   D(1,6,39,41)            0.2741         estimate D2E/DX2                !
 ! D33   D(5,6,39,40)           -0.1217         estimate D2E/DX2                !
 ! D34   D(5,6,39,41)         -179.8501         estimate D2E/DX2                !
 ! D35   D(21,7,16,11)           0.5175         estimate D2E/DX2                !
 ! D36   D(21,7,16,15)         179.3992         estimate D2E/DX2                !
 ! D37   D(37,7,16,11)        -178.6243         estimate D2E/DX2                !
 ! D38   D(37,7,16,15)           0.2574         estimate D2E/DX2                !
 ! D39   D(16,7,21,2)         -178.8811         estimate D2E/DX2                !
 ! D40   D(37,7,21,2)            0.3584         estimate D2E/DX2                !
 ! D41   D(16,7,37,1)          178.9477         estimate D2E/DX2                !
 ! D42   D(16,7,37,38)           0.2503         estimate D2E/DX2                !
 ! D43   D(21,7,37,1)           -0.2765         estimate D2E/DX2                !
 ! D44   D(21,7,37,38)        -178.9739         estimate D2E/DX2                !
 ! D45   D(16,11,12,13)          0.9312         estimate D2E/DX2                !
 ! D46   D(16,11,12,35)       -179.3942         estimate D2E/DX2                !
 ! D47   D(34,11,12,13)       -179.2464         estimate D2E/DX2                !
 ! D48   D(34,11,12,35)          0.4282         estimate D2E/DX2                !
 ! D49   D(12,11,16,7)         177.8326         estimate D2E/DX2                !
 ! D50   D(12,11,16,15)         -1.1593         estimate D2E/DX2                !
 ! D51   D(34,11,16,7)          -1.9428         estimate D2E/DX2                !
 ! D52   D(34,11,16,15)        179.0653         estimate D2E/DX2                !
 ! D53   D(12,11,34,17)         -0.2809         estimate D2E/DX2                !
 ! D54   D(12,11,34,36)       -178.7612         estimate D2E/DX2                !
 ! D55   D(16,11,34,17)        179.5232         estimate D2E/DX2                !
 ! D56   D(16,11,34,36)          1.0429         estimate D2E/DX2                !
 ! D57   D(11,12,13,14)         -0.0302         estimate D2E/DX2                !
 ! D58   D(11,12,13,18)        179.925          estimate D2E/DX2                !
 ! D59   D(35,12,13,14)       -179.6167         estimate D2E/DX2                !
 ! D60   D(35,12,13,18)          0.3384         estimate D2E/DX2                !
 ! D61   D(11,12,35,17)         -0.4052         estimate D2E/DX2                !
 ! D62   D(13,12,35,17)        179.2176         estimate D2E/DX2                !
 ! D63   D(12,13,14,15)         -0.5631         estimate D2E/DX2                !
 ! D64   D(12,13,14,19)        179.7204         estimate D2E/DX2                !
 ! D65   D(18,13,14,15)        179.4822         estimate D2E/DX2                !
 ! D66   D(18,13,14,19)         -0.2344         estimate D2E/DX2                !
 ! D67   D(13,14,15,16)          0.3018         estimate D2E/DX2                !
 ! D68   D(13,14,15,20)       -179.7935         estimate D2E/DX2                !
 ! D69   D(19,14,15,16)       -179.979          estimate D2E/DX2                !
 ! D70   D(19,14,15,20)         -0.0743         estimate D2E/DX2                !
 ! D71   D(14,15,16,7)        -178.3664         estimate D2E/DX2                !
 ! D72   D(14,15,16,11)          0.55           estimate D2E/DX2                !
 ! D73   D(20,15,16,7)           1.7297         estimate D2E/DX2                !
 ! D74   D(20,15,16,11)       -179.3539         estimate D2E/DX2                !
 ! D75   D(34,17,23,22)        175.7155         estimate D2E/DX2                !
 ! D76   D(34,17,23,24)         -4.1699         estimate D2E/DX2                !
 ! D77   D(35,17,23,22)         -4.2482         estimate D2E/DX2                !
 ! D78   D(35,17,23,24)        175.8665         estimate D2E/DX2                !
 ! D79   D(23,17,34,11)       -179.9314         estimate D2E/DX2                !
 ! D80   D(23,17,34,36)         -1.6582         estimate D2E/DX2                !
 ! D81   D(35,17,34,11)          0.0358         estimate D2E/DX2                !
 ! D82   D(35,17,34,36)        178.309          estimate D2E/DX2                !
 ! D83   D(23,17,35,12)       -179.7964         estimate D2E/DX2                !
 ! D84   D(34,17,35,12)          0.235          estimate D2E/DX2                !
 ! D85   D(27,22,23,17)       -178.6476         estimate D2E/DX2                !
 ! D86   D(27,22,23,24)          1.2408         estimate D2E/DX2                !
 ! D87   D(32,22,23,17)          1.2783         estimate D2E/DX2                !
 ! D88   D(32,22,23,24)       -178.8333         estimate D2E/DX2                !
 ! D89   D(23,22,27,26)         -1.4198         estimate D2E/DX2                !
 ! D90   D(23,22,27,31)        178.3556         estimate D2E/DX2                !
 ! D91   D(32,22,27,26)        178.6541         estimate D2E/DX2                !
 ! D92   D(32,22,27,31)         -1.5705         estimate D2E/DX2                !
 ! D93   D(23,22,32,33)          1.1579         estimate D2E/DX2                !
 ! D94   D(27,22,32,33)       -178.9157         estimate D2E/DX2                !
 ! D95   D(17,23,24,25)        179.8244         estimate D2E/DX2                !
 ! D96   D(17,23,24,28)         -0.4905         estimate D2E/DX2                !
 ! D97   D(22,23,24,25)         -0.0591         estimate D2E/DX2                !
 ! D98   D(22,23,24,28)        179.6261         estimate D2E/DX2                !
 ! D99   D(23,24,25,26)         -0.856          estimate D2E/DX2                !
 ! D100  D(23,24,25,30)        178.6334         estimate D2E/DX2                !
 ! D101  D(28,24,25,26)        179.4627         estimate D2E/DX2                !
 ! D102  D(28,24,25,30)         -1.0479         estimate D2E/DX2                !
 ! D103  D(24,25,26,27)          0.644          estimate D2E/DX2                !
 ! D104  D(24,25,26,29)       -179.7041         estimate D2E/DX2                !
 ! D105  D(30,25,26,27)       -178.8679         estimate D2E/DX2                !
 ! D106  D(30,25,26,29)          0.7841         estimate D2E/DX2                !
 ! D107  D(24,25,30,59)        123.2299         estimate D2E/DX2                !
 ! D108  D(24,25,30,63)       -117.8616         estimate D2E/DX2                !
 ! D109  D(24,25,30,67)          2.572          estimate D2E/DX2                !
 ! D110  D(26,25,30,59)        -57.2804         estimate D2E/DX2                !
 ! D111  D(26,25,30,63)         61.6281         estimate D2E/DX2                !
 ! D112  D(26,25,30,67)       -177.9383         estimate D2E/DX2                !
 ! D113  D(25,26,27,22)          0.5002         estimate D2E/DX2                !
 ! D114  D(25,26,27,31)       -179.2717         estimate D2E/DX2                !
 ! D115  D(29,26,27,22)       -179.1468         estimate D2E/DX2                !
 ! D116  D(29,26,27,31)          1.0812         estimate D2E/DX2                !
 ! D117  D(22,27,31,71)        -61.2864         estimate D2E/DX2                !
 ! D118  D(22,27,31,75)        179.4099         estimate D2E/DX2                !
 ! D119  D(22,27,31,79)         59.9853         estimate D2E/DX2                !
 ! D120  D(26,27,31,71)        118.4749         estimate D2E/DX2                !
 ! D121  D(26,27,31,75)         -0.8288         estimate D2E/DX2                !
 ! D122  D(26,27,31,79)       -120.2535         estimate D2E/DX2                !
 ! D123  D(25,30,59,60)         59.2384         estimate D2E/DX2                !
 ! D124  D(25,30,59,61)        178.6283         estimate D2E/DX2                !
 ! D125  D(25,30,59,62)        -61.9449         estimate D2E/DX2                !
 ! D126  D(63,30,59,60)        -59.031          estimate D2E/DX2                !
 ! D127  D(63,30,59,61)         60.3589         estimate D2E/DX2                !
 ! D128  D(63,30,59,62)        179.7856         estimate D2E/DX2                !
 ! D129  D(67,30,59,60)       -177.884          estimate D2E/DX2                !
 ! D130  D(67,30,59,61)        -58.4941         estimate D2E/DX2                !
 ! D131  D(67,30,59,62)         60.9327         estimate D2E/DX2                !
 ! D132  D(25,30,63,64)       -176.6082         estimate D2E/DX2                !
 ! D133  D(25,30,63,65)        -57.0132         estimate D2E/DX2                !
 ! D134  D(25,30,63,66)         64.097          estimate D2E/DX2                !
 ! D135  D(59,30,63,64)        -57.9142         estimate D2E/DX2                !
 ! D136  D(59,30,63,65)         61.6807         estimate D2E/DX2                !
 ! D137  D(59,30,63,66)       -177.2091         estimate D2E/DX2                !
 ! D138  D(67,30,63,64)         60.821          estimate D2E/DX2                !
 ! D139  D(67,30,63,65)       -179.584          estimate D2E/DX2                !
 ! D140  D(67,30,63,66)        -58.4738         estimate D2E/DX2                !
 ! D141  D(25,30,67,68)        -61.2598         estimate D2E/DX2                !
 ! D142  D(25,30,67,69)         60.3276         estimate D2E/DX2                !
 ! D143  D(25,30,67,70)        179.5584         estimate D2E/DX2                !
 ! D144  D(59,30,67,68)        177.932          estimate D2E/DX2                !
 ! D145  D(59,30,67,69)        -60.4807         estimate D2E/DX2                !
 ! D146  D(59,30,67,70)         58.7501         estimate D2E/DX2                !
 ! D147  D(63,30,67,68)         58.8214         estimate D2E/DX2                !
 ! D148  D(63,30,67,69)       -179.5913         estimate D2E/DX2                !
 ! D149  D(63,30,67,70)        -60.3605         estimate D2E/DX2                !
 ! D150  D(27,31,71,72)         60.8213         estimate D2E/DX2                !
 ! D151  D(27,31,71,73)       -179.2673         estimate D2E/DX2                !
 ! D152  D(27,31,71,74)        -60.4501         estimate D2E/DX2                !
 ! D153  D(75,31,71,72)       -178.057          estimate D2E/DX2                !
 ! D154  D(75,31,71,73)        -58.1456         estimate D2E/DX2                !
 ! D155  D(75,31,71,74)         60.6715         estimate D2E/DX2                !
 ! D156  D(79,31,71,72)        -60.5239         estimate D2E/DX2                !
 ! D157  D(79,31,71,73)         59.3875         estimate D2E/DX2                !
 ! D158  D(79,31,71,74)        178.2047         estimate D2E/DX2                !
 ! D159  D(27,31,75,76)        -60.7972         estimate D2E/DX2                !
 ! D160  D(27,31,75,77)         61.0101         estimate D2E/DX2                !
 ! D161  D(27,31,75,78)       -179.9583         estimate D2E/DX2                !
 ! D162  D(71,31,75,76)        179.0877         estimate D2E/DX2                !
 ! D163  D(71,31,75,77)        -59.1049         estimate D2E/DX2                !
 ! D164  D(71,31,75,78)         59.9267         estimate D2E/DX2                !
 ! D165  D(79,31,75,76)         60.0748         estimate D2E/DX2                !
 ! D166  D(79,31,75,77)       -178.1179         estimate D2E/DX2                !
 ! D167  D(79,31,75,78)        -59.0863         estimate D2E/DX2                !
 ! D168  D(27,31,79,80)        178.3809         estimate D2E/DX2                !
 ! D169  D(27,31,79,81)        -61.6918         estimate D2E/DX2                !
 ! D170  D(27,31,79,82)         59.6951         estimate D2E/DX2                !
 ! D171  D(71,31,79,80)        -60.7365         estimate D2E/DX2                !
 ! D172  D(71,31,79,81)         59.1909         estimate D2E/DX2                !
 ! D173  D(71,31,79,82)       -179.4223         estimate D2E/DX2                !
 ! D174  D(75,31,79,80)         56.9849         estimate D2E/DX2                !
 ! D175  D(75,31,79,81)        176.9122         estimate D2E/DX2                !
 ! D176  D(75,31,79,82)        -61.7009         estimate D2E/DX2                !
 ! D177  D(6,39,41,42)         179.6444         estimate D2E/DX2                !
 ! D178  D(40,39,41,42)         -0.0642         estimate D2E/DX2                !
 ! D179  D(39,41,42,43)        -62.7435         estimate D2E/DX2                !
 ! D180  D(39,41,42,44)         62.6087         estimate D2E/DX2                !
 ! D181  D(39,41,42,45)        179.9906         estimate D2E/DX2                !
 ! D182  D(41,42,43,46)       -178.1714         estimate D2E/DX2                !
 ! D183  D(41,42,43,47)         61.2321         estimate D2E/DX2                !
 ! D184  D(41,42,43,48)        -55.3632         estimate D2E/DX2                !
 ! D185  D(44,42,43,46)         55.5457         estimate D2E/DX2                !
 ! D186  D(44,42,43,47)        -65.0509         estimate D2E/DX2                !
 ! D187  D(44,42,43,48)        178.3539         estimate D2E/DX2                !
 ! D188  D(45,42,43,46)        -61.7603         estimate D2E/DX2                !
 ! D189  D(45,42,43,47)        177.6432         estimate D2E/DX2                !
 ! D190  D(45,42,43,48)         61.0479         estimate D2E/DX2                !
 ! D191  D(41,42,44,49)        178.2528         estimate D2E/DX2                !
 ! D192  D(41,42,44,50)        -61.2366         estimate D2E/DX2                !
 ! D193  D(41,42,44,51)         55.495          estimate D2E/DX2                !
 ! D194  D(43,42,44,49)        -55.6307         estimate D2E/DX2                !
 ! D195  D(43,42,44,50)         64.8799         estimate D2E/DX2                !
 ! D196  D(43,42,44,51)       -178.3885         estimate D2E/DX2                !
 ! D197  D(45,42,44,49)         61.6979         estimate D2E/DX2                !
 ! D198  D(45,42,44,50)       -177.7914         estimate D2E/DX2                !
 ! D199  D(45,42,44,51)        -61.0599         estimate D2E/DX2                !
 ! D200  D(42,43,46,52)        -55.8327         estimate D2E/DX2                !
 ! D201  D(42,43,46,53)       -178.6033         estimate D2E/DX2                !
 ! D202  D(42,43,46,54)         64.7057         estimate D2E/DX2                !
 ! D203  D(47,43,46,52)         64.298          estimate D2E/DX2                !
 ! D204  D(47,43,46,53)        -58.4725         estimate D2E/DX2                !
 ! D205  D(47,43,46,54)       -175.1635         estimate D2E/DX2                !
 ! D206  D(48,43,46,52)       -177.8342         estimate D2E/DX2                !
 ! D207  D(48,43,46,53)         59.3953         estimate D2E/DX2                !
 ! D208  D(48,43,46,54)        -57.2957         estimate D2E/DX2                !
 ! D209  D(42,44,49,52)         55.9706         estimate D2E/DX2                !
 ! D210  D(42,44,49,55)        178.7293         estimate D2E/DX2                !
 ! D211  D(42,44,49,56)        -64.5658         estimate D2E/DX2                !
 ! D212  D(50,44,49,52)        -64.2416         estimate D2E/DX2                !
 ! D213  D(50,44,49,55)         58.5171         estimate D2E/DX2                !
 ! D214  D(50,44,49,56)        175.222          estimate D2E/DX2                !
 ! D215  D(51,44,49,52)        177.9949         estimate D2E/DX2                !
 ! D216  D(51,44,49,55)        -59.2464         estimate D2E/DX2                !
 ! D217  D(51,44,49,56)         57.4585         estimate D2E/DX2                !
 ! D218  D(43,46,52,49)         55.6581         estimate D2E/DX2                !
 ! D219  D(43,46,52,57)        178.2076         estimate D2E/DX2                !
 ! D220  D(43,46,52,58)        -64.6536         estimate D2E/DX2                !
 ! D221  D(53,46,52,49)        177.9282         estimate D2E/DX2                !
 ! D222  D(53,46,52,57)        -59.5223         estimate D2E/DX2                !
 ! D223  D(53,46,52,58)         57.6165         estimate D2E/DX2                !
 ! D224  D(54,46,52,49)        -64.959          estimate D2E/DX2                !
 ! D225  D(54,46,52,57)         57.5905         estimate D2E/DX2                !
 ! D226  D(54,46,52,58)        174.7293         estimate D2E/DX2                !
 ! D227  D(44,49,52,46)        -55.7017         estimate D2E/DX2                !
 ! D228  D(44,49,52,57)       -178.2435         estimate D2E/DX2                !
 ! D229  D(44,49,52,58)         64.5725         estimate D2E/DX2                !
 ! D230  D(55,49,52,46)       -178.0069         estimate D2E/DX2                !
 ! D231  D(55,49,52,57)         59.4513         estimate D2E/DX2                !
 ! D232  D(55,49,52,58)        -57.7327         estimate D2E/DX2                !
 ! D233  D(56,49,52,46)         64.8788         estimate D2E/DX2                !
 ! D234  D(56,49,52,57)        -57.6629         estimate D2E/DX2                !
 ! D235  D(56,49,52,58)       -174.8469         estimate D2E/DX2                !
 --------------------------------------------------------------------------------
 Trust Radius=3.00D-01 FncErr=1.00D-07 GrdErr=1.00D-07 EigMax=2.50D+02 EigMin=1.00D-04
 Number of steps in this run=    489 maximum allowed number of steps=    492.
 GradGradGradGradGradGradGradGradGradGradGradGradGradGradGradGradGradGrad

 Leave Link  103 at Fri Dec 21 18:12:20 2018, MaxMem=  1342177280 cpu:               0.2 elap:               0.0
 (Enter /gpfs/apps/hpc/Apps/Restricted/Gaussian/Rev_A.03/g16/l202.exe)
 Symmetry turned off by external request.
 Stoichiometry    C35H41N5O(1+,2)
 Framework group  C1[X(C35H41N5O)]
 Deg. of freedom   240
 Full point group                 C1      NOp   1
                          Input orientation:                          
 ---------------------------------------------------------------------
 Center     Atomic      Atomic             Coordinates (Angstroms)
 Number     Number       Type             X           Y           Z
 ---------------------------------------------------------------------
      1          6           0        1.610101    1.119883   -0.016592
      2          6           0        0.387656    1.823096   -0.110287
      3          6           0        0.394710    3.214202   -0.279632
      4          6           0        1.629510    3.853350   -0.353541
      5          6           0        2.836706    3.137914   -0.255890
      6          6           0        2.862618    1.749108   -0.088019
      7          6           0       -0.103131   -0.271397    0.119371
      8          1           0       -0.533868    3.767138   -0.354503
      9          1           0        1.667300    4.928378   -0.484298
     10          1           0        3.778460    3.672297   -0.314961
     11          6           0       -2.275850   -1.433338    0.174278
     12          6           0       -3.111216   -2.583342    0.225820
     13          6           0       -2.541321   -3.860289    0.354030
     14          6           0       -1.158460   -3.930605    0.424495
     15          6           0       -0.336480   -2.780903    0.359909
     16          6           0       -0.871185   -1.500346    0.226931
     17          6           0       -4.394122   -0.832702    0.047233
     18          1           0       -3.161207   -4.746075    0.396066
     19          1           0       -0.681793   -4.897402    0.528314
     20          1           0        0.737996   -2.907235    0.417622
     21          7           0       -0.665704    0.928925   -0.017998
     22          6           0       -6.863890   -0.743781   -0.156652
     23          6           0       -5.588834   -0.044256   -0.056591
     24          6           0       -5.562568    1.346985   -0.066492
     25          6           0       -6.744588    2.077089   -0.172470
     26          6           0       -7.980363    1.366129   -0.289263
     27          6           0       -8.091217   -0.003048   -0.292257
     28          1           0       -4.611982    1.855483    0.014406
     29          1           0       -8.880074    1.956966   -0.374776
     30          6           0       -6.779707    3.595639   -0.158115
     31          6           0       -9.435184   -0.719512   -0.436069
     32          8           0       -6.895862   -2.046517   -0.124920
     33          1           0       -5.923588   -2.409292   -0.004699
     34          7           0       -3.111042   -0.358834    0.066848
     35          7           0       -4.416139   -2.172553    0.138836
     36          1           0       -2.744952    0.589115   -0.006368
     37          7           0        1.266954   -0.201072    0.128893
     38          1           0        1.964434   -0.933313    0.203255
     39          6           0        4.111998    1.001782    0.009376
     40          1           0        5.026329    1.601080   -0.059890
     41          7           0        4.127943   -0.271481    0.160363
     42          6           0        5.445441   -0.925356    0.238983
     43          6           0        6.255362   -0.751213   -1.057132
     44          6           0        6.260564   -0.455195    1.455688
     45          1           0        5.248440   -1.996106    0.365956
     46          6           0        7.602365   -1.475987   -0.971520
     47          1           0        6.426131    0.319317   -1.223561
     48          1           0        5.669185   -1.118262   -1.904836
     49          6           0        7.607012   -1.182458    1.536398
     50          1           0        6.435451    0.623749    1.368878
     51          1           0        5.678669   -0.613913    2.368429
     52          6           0        8.411143   -1.008744    0.243479
     53          1           0        8.167328   -1.315508   -1.894690
     54          1           0        7.426916   -2.556250   -0.891905
     55          1           0        8.175962   -0.814608    2.395630
     56          1           0        7.430042   -2.251724    1.709004
     57          1           0        9.354823   -1.559294    0.306033
     58          1           0        8.667791    0.050935    0.118290
     59          6           0       -7.470514    4.095689   -1.447673
     60          1           0       -8.490284    3.717250   -1.539750
     61          1           0       -7.517707    5.186948   -1.425971
     62          1           0       -6.909152    3.789816   -2.333539
     63          6           0       -7.599160    4.051843    1.072452
     64          1           0       -7.684396    5.141438    1.062828
     65          1           0       -8.607614    3.632469    1.067684
     66          1           0       -7.104036    3.752218    1.999033
     67          6           0       -5.377687    4.212210   -0.079000
     68          1           0       -4.858618    3.917732    0.836575
     69          1           0       -4.765204    3.920627   -0.935755
     70          1           0       -5.464905    5.300479   -0.079885
     71          6           0       -9.423869   -1.582651   -1.716963
     72          1           0       -8.645552   -2.344805   -1.685668
     73          1           0      -10.390793   -2.081529   -1.821153
     74          1           0       -9.266635   -0.958115   -2.599853
     75          6           0      -10.588784    0.287923   -0.549637
     76          1           0      -10.660965    0.921666    0.337767
     77          1           0      -10.482898    0.931564   -1.426532
     78          1           0      -11.526753   -0.261773   -0.649550
     79          6           0       -9.702914   -1.606796    0.800333
     80          1           0      -10.679377   -2.085145    0.688893
     81          1           0       -8.949350   -2.384195    0.913878
     82          1           0       -9.722634   -1.001766    1.710050
 ---------------------------------------------------------------------
 Rotational constants (GHZ):           0.1800951           0.0302716           0.0265304
 Leave Link  202 at Fri Dec 21 18:12:20 2018, MaxMem=  1342177280 cpu:               0.3 elap:               0.0
 (Enter /gpfs/apps/hpc/Apps/Restricted/Gaussian/Rev_A.03/g16/l716.exe)
 Electric field and nuclear coordinate derivatives read from checkpoint file.
 Dipole        =-7.00193235D+00 6.30120745D-01-1.05163561D-01
 Polarizability= 1.22263592D+03-1.91906887D+02 8.79575124D+02
                 4.72865796D+01-5.09165001D+01 3.05844699D+02
 Full mass-weighted force constant matrix:
 Low frequencies ---   -3.4789   -0.0033   -0.0006    0.0038    4.0068    9.2251
 Low frequencies ---   20.2366   22.5005   29.7023
 Diagonal vibrational polarizability:
      407.6063604      92.4916136      68.1584162
 Harmonic frequencies (cm**-1), IR intensities (KM/Mole), Raman scattering
 activities (A**4/AMU), depolarization ratios for plane and unpolarized
 incident light, reduced masses (AMU), force constants (mDyne/A),
 and normal coordinates:
                      1                      2                      3
                      A                      A                      A
 Frequencies --     15.1155                22.0976                29.6005
 Red. masses --      4.6691                 4.9536                 5.1755
 Frc consts  --      0.0006                 0.0014                 0.0027
 IR Inten    --      0.0408                 0.3157                 0.9984
  Atom  AN      X      Y      Z        X      Y      Z        X      Y      Z
     1   6     0.00  -0.00  -0.02    -0.01   0.01   0.10    -0.05  -0.05  -0.01
     2   6     0.00  -0.01  -0.05    -0.01   0.01   0.13    -0.06  -0.08  -0.00
     3   6     0.00  -0.00  -0.04    -0.02   0.01   0.17    -0.10  -0.08  -0.01
     4   6    -0.00   0.00   0.01    -0.02   0.02   0.18    -0.11  -0.05  -0.04
     5   6    -0.00   0.01   0.04    -0.02   0.02   0.16    -0.10  -0.03  -0.05
     6   6     0.00   0.00   0.02    -0.01   0.01   0.11    -0.07  -0.03  -0.03
     7   6     0.00  -0.01  -0.08    -0.01  -0.00   0.07    -0.02  -0.09   0.02
     8   1     0.00  -0.01  -0.06    -0.02   0.01   0.19    -0.11  -0.10  -0.01
     9   1    -0.00   0.00   0.03    -0.02   0.02   0.21    -0.14  -0.05  -0.05
    10   1    -0.00   0.01   0.08    -0.02   0.02   0.16    -0.11  -0.01  -0.06
    11   6     0.00  -0.01  -0.10    -0.00  -0.01   0.01    -0.02  -0.08   0.02
    12   6     0.00  -0.01  -0.10    -0.00  -0.01  -0.01    -0.03  -0.07   0.01
    13   6     0.00  -0.01  -0.11    -0.00  -0.01  -0.01    -0.04  -0.08   0.00
    14   6     0.00  -0.01  -0.12    -0.00  -0.01   0.02    -0.04  -0.09   0.00
    15   6     0.00  -0.01  -0.11    -0.00  -0.01   0.04    -0.03  -0.10   0.01
    16   6     0.00  -0.01  -0.10    -0.00  -0.01   0.04    -0.02  -0.09   0.02
    17   6     0.00  -0.01  -0.08    -0.00  -0.01  -0.02    -0.01  -0.06   0.01
    18   1     0.00  -0.01  -0.11     0.00  -0.01  -0.02    -0.05  -0.08  -0.00
    19   1     0.00  -0.01  -0.13    -0.00  -0.01   0.02    -0.05  -0.09  -0.00
    20   1     0.00  -0.02  -0.11    -0.00  -0.01   0.06    -0.03  -0.11   0.01
    21   7     0.00  -0.01  -0.09    -0.01  -0.00   0.11    -0.04  -0.10   0.01
    22   6    -0.00  -0.00  -0.00    -0.00  -0.00  -0.02    -0.01   0.01  -0.00
    23   6     0.00  -0.01  -0.05     0.00  -0.01  -0.03     0.01  -0.03   0.01
    24   6     0.01  -0.01  -0.06     0.01  -0.01  -0.06     0.05  -0.03   0.01
    25   6     0.01  -0.00  -0.03     0.02  -0.01  -0.08     0.07   0.01   0.01
    26   6     0.00   0.00   0.02     0.01   0.00  -0.06     0.05   0.04   0.01
    27   6    -0.01   0.00   0.04     0.00   0.00  -0.02     0.02   0.04  -0.00
    28   1     0.01  -0.01  -0.10     0.02  -0.02  -0.06     0.07  -0.06   0.02
    29   1     0.00   0.01   0.05     0.02   0.01  -0.07     0.07   0.06   0.01
    30   6     0.01  -0.00  -0.03     0.03  -0.00  -0.12     0.12   0.01   0.02
    31   6    -0.02   0.01   0.14    -0.01   0.01   0.04    -0.00   0.08  -0.02
    32   8    -0.01  -0.00   0.00    -0.01  -0.00   0.00    -0.04   0.01  -0.01
    33   1    -0.01  -0.00  -0.03    -0.01  -0.01  -0.01    -0.05  -0.02  -0.01
    34   7     0.00  -0.01  -0.09    -0.00  -0.01   0.00    -0.00  -0.07   0.02
    35   7     0.00  -0.01  -0.09    -0.00  -0.01  -0.02    -0.03  -0.06   0.01
    36   1     0.00  -0.01  -0.09    -0.00  -0.01   0.02     0.02  -0.08   0.02
    37   7     0.00  -0.01  -0.05    -0.01   0.00   0.06    -0.02  -0.06   0.00
    38   1     0.01  -0.00  -0.03    -0.00  -0.00   0.03    -0.01  -0.05   0.00
    39   6     0.00   0.01   0.05    -0.01   0.01   0.07    -0.04   0.01  -0.03
    40   1     0.00   0.01   0.08    -0.01   0.01   0.08    -0.06   0.04  -0.05
    41   7     0.00   0.01   0.04    -0.01   0.00   0.02     0.00   0.02  -0.01
    42   6     0.00   0.01   0.06    -0.00   0.00  -0.03     0.03   0.07  -0.00
    43   6     0.02   0.01   0.08    -0.06   0.02  -0.07     0.03   0.09   0.00
    44   6    -0.02   0.01   0.08     0.05  -0.01  -0.06     0.00   0.10   0.00
    45   1     0.00   0.01   0.06    -0.00   0.00  -0.04     0.07   0.06  -0.00
    46   6     0.02   0.01   0.09    -0.05   0.03  -0.13     0.05   0.13   0.01
    47   1     0.02   0.01   0.08    -0.08   0.03  -0.06     0.00   0.10   0.00
    48   1     0.03   0.01   0.07    -0.09   0.03  -0.05     0.04   0.08  -0.00
    49   6    -0.02   0.01   0.09     0.05  -0.01  -0.13     0.02   0.14   0.01
    50   1    -0.02   0.01   0.08     0.05  -0.01  -0.06    -0.03   0.11  -0.00
    51   1    -0.03   0.01   0.07     0.09  -0.03  -0.04     0.00   0.09  -0.00
    52   6    -0.00   0.01   0.11    -0.00   0.01  -0.16     0.03   0.15   0.01
    53   1     0.03   0.01   0.10    -0.09   0.05  -0.16     0.05   0.14   0.01
    54   1     0.02   0.01   0.09    -0.04   0.03  -0.15     0.07   0.12   0.01
    55   1    -0.03   0.01   0.10     0.09  -0.02  -0.15     0.01   0.16   0.01
    56   1    -0.02   0.01   0.09     0.06  -0.02  -0.14     0.05   0.14   0.01
    57   1    -0.00   0.01   0.12     0.00   0.01  -0.21     0.04   0.18   0.02
    58   1     0.00   0.01   0.11    -0.01   0.01  -0.15    -0.00   0.16   0.01
    59   6    -0.02  -0.01  -0.02     0.04  -0.04  -0.14     0.14   0.02   0.01
    60   1    -0.02  -0.01   0.00     0.04  -0.04  -0.13     0.13   0.05   0.00
    61   1    -0.02  -0.01  -0.02     0.04  -0.04  -0.17     0.17   0.02   0.01
    62   1    -0.03  -0.01  -0.03     0.05  -0.06  -0.13     0.14   0.01   0.01
    63   6     0.04   0.01  -0.02     0.03   0.03  -0.13     0.12   0.03   0.01
    64   1     0.05   0.01  -0.02     0.04   0.03  -0.16     0.14   0.03   0.00
    65   1     0.04   0.01   0.01     0.03   0.04  -0.13     0.11   0.05   0.01
    66   1     0.06   0.01  -0.03     0.02   0.05  -0.13     0.11   0.02   0.01
    67   6     0.02  -0.00  -0.07     0.04  -0.01  -0.13     0.13  -0.03   0.02
    68   1     0.04  -0.01  -0.08     0.03   0.01  -0.11     0.12  -0.04   0.02
    69   1    -0.01  -0.00  -0.09     0.04  -0.05  -0.11     0.13  -0.05   0.03
    70   1     0.02  -0.00  -0.07     0.05  -0.01  -0.16     0.16  -0.03   0.02
    71   6    -0.11  -0.02   0.16    -0.06  -0.03   0.06    -0.02   0.10  -0.03
    72   1    -0.11  -0.02   0.12    -0.06  -0.03   0.06    -0.04   0.08  -0.03
    73   1    -0.12  -0.02   0.25    -0.06  -0.03   0.11    -0.03   0.12  -0.04
    74   1    -0.18  -0.04   0.13    -0.08  -0.06   0.04     0.00   0.11  -0.02
    75   6    -0.02   0.02   0.20    -0.00   0.01   0.04     0.03   0.12  -0.01
    76   1     0.05   0.04   0.19     0.04   0.05   0.02     0.04   0.10   0.00
    77   1    -0.08  -0.01   0.17    -0.03  -0.02   0.01     0.05   0.13   0.01
    78   1    -0.03   0.02   0.29    -0.01   0.02   0.11     0.01   0.14  -0.03
    79   6     0.06   0.04   0.18     0.03   0.05   0.07    -0.03   0.07  -0.03
    80   1     0.04   0.05   0.26     0.02   0.05   0.12    -0.04   0.09  -0.05
    81   1     0.06   0.03   0.13     0.02   0.04   0.06    -0.05   0.06  -0.03
    82   1     0.14   0.05   0.17     0.06   0.07   0.05    -0.03   0.06  -0.02
                      4                      5                      6
                      A                      A                      A
 Frequencies --     45.9085                48.4336                53.5221
 Red. masses --      5.2267                 4.6613                 4.8966
 Frc consts  --      0.0065                 0.0064                 0.0083
 IR Inten    --      5.2974                 0.5576                 0.3088
  Atom  AN      X      Y      Z        X      Y      Z        X      Y      Z
     1   6     0.04  -0.08   0.03     0.01  -0.02  -0.04     0.01  -0.00  -0.00
     2   6     0.05  -0.06  -0.00     0.01  -0.01   0.01     0.00   0.01   0.12
     3   6     0.07  -0.06  -0.02     0.01  -0.00   0.09     0.01   0.02   0.14
     4   6     0.08  -0.08  -0.02     0.01  -0.00   0.11     0.01  -0.00   0.02
     5   6     0.06  -0.09   0.01     0.01  -0.01   0.06     0.01  -0.02  -0.11
     6   6     0.05  -0.09   0.03     0.01  -0.02  -0.01     0.01  -0.02  -0.12
     7   6     0.00  -0.04   0.02     0.00  -0.02  -0.08    -0.00   0.01   0.11
     8   1     0.07  -0.05  -0.05     0.01   0.00   0.13     0.01   0.03   0.24
     9   1     0.09  -0.08  -0.03     0.01   0.00   0.17     0.01  -0.00   0.02
    10   1     0.07  -0.11   0.01     0.01  -0.01   0.09     0.01  -0.03  -0.19
    11   6    -0.04   0.01  -0.00    -0.01   0.00  -0.00    -0.00   0.01   0.04
    12   6    -0.05   0.02  -0.01    -0.02   0.01   0.03    -0.00   0.01  -0.02
    13   6    -0.08   0.01   0.00    -0.02  -0.00  -0.04    -0.00   0.01  -0.03
    14   6    -0.09  -0.01   0.03    -0.02  -0.02  -0.14    -0.00   0.01   0.02
    15   6    -0.06  -0.03   0.04    -0.01  -0.03  -0.17    -0.00   0.01   0.08
    16   6    -0.04  -0.02   0.02    -0.01  -0.02  -0.09    -0.00   0.01   0.09
    17   6    -0.03   0.04  -0.03    -0.01   0.02   0.11    -0.00   0.01  -0.02
    18   1    -0.10   0.03  -0.00    -0.03   0.00  -0.02     0.00   0.00  -0.08
    19   1    -0.11  -0.02   0.04    -0.02  -0.03  -0.21    -0.01   0.01   0.01
    20   1    -0.07  -0.05   0.06    -0.01  -0.04  -0.25    -0.01   0.02   0.11
    21   7     0.03  -0.03  -0.01     0.01  -0.01  -0.01     0.00   0.02   0.19
    22   6    -0.03   0.03  -0.03    -0.01   0.01   0.12    -0.00  -0.00  -0.06
    23   6    -0.04   0.04  -0.04    -0.02   0.02   0.12    -0.00   0.00  -0.04
    24   6    -0.06   0.04  -0.03    -0.02   0.02   0.08    -0.01   0.00  -0.02
    25   6    -0.07   0.03  -0.02    -0.02   0.01   0.02    -0.01  -0.00  -0.02
    26   6    -0.06   0.01  -0.01    -0.02   0.00   0.01    -0.01  -0.00  -0.02
    27   6    -0.05   0.01  -0.02    -0.01   0.00   0.05    -0.00  -0.00  -0.02
    28   1    -0.06   0.05  -0.03    -0.03   0.03   0.09    -0.01   0.00  -0.00
    29   1    -0.07   0.00   0.00    -0.01  -0.00  -0.06    -0.01  -0.00  -0.00
    30   6    -0.10   0.03   0.00    -0.03   0.01  -0.05    -0.01  -0.00  -0.02
    31   6    -0.04  -0.00   0.00    -0.00  -0.00  -0.00    -0.01  -0.01   0.02
    32   8    -0.03   0.03  -0.03    -0.01   0.01   0.16     0.01  -0.00  -0.10
    33   1    -0.01   0.04  -0.03    -0.01   0.02   0.16     0.01  -0.00  -0.10
    34   7    -0.02   0.02  -0.02    -0.01   0.01   0.06    -0.00   0.01   0.04
    35   7    -0.05   0.04  -0.03    -0.02   0.02   0.10     0.00   0.00  -0.06
    36   1    -0.01   0.02  -0.02    -0.01   0.01   0.05    -0.01   0.02   0.09
    37   7     0.00  -0.07   0.04     0.01  -0.03  -0.11    -0.00  -0.00   0.00
    38   1    -0.03  -0.10   0.06     0.00  -0.04  -0.13    -0.01  -0.02  -0.08
    39   6     0.06  -0.07   0.04     0.01  -0.02  -0.03     0.01  -0.02  -0.19
    40   1     0.04  -0.05   0.02     0.01  -0.00   0.02     0.01  -0.02  -0.21
    41   7     0.10  -0.07   0.05     0.02  -0.02  -0.08     0.02  -0.02  -0.18
    42   6     0.14  -0.01   0.03     0.03  -0.00  -0.05     0.02  -0.01  -0.12
    43   6     0.10   0.02   0.01     0.08   0.04  -0.01     0.13   0.03  -0.05
    44   6     0.15   0.04   0.00    -0.02  -0.02  -0.00    -0.09  -0.04  -0.04
    45   1     0.19  -0.01   0.04     0.05  -0.01  -0.08     0.02  -0.02  -0.17
    46   6     0.13   0.08  -0.03     0.09   0.05   0.02     0.12   0.03   0.06
    47   1     0.05   0.03   0.00     0.08   0.04   0.02     0.15   0.03  -0.01
    48   1     0.09  -0.00   0.02     0.12   0.05  -0.04     0.20   0.05  -0.11
    49   6     0.18   0.09  -0.03    -0.01  -0.01   0.03    -0.10  -0.03   0.06
    50   1     0.10   0.04  -0.00    -0.03  -0.02   0.03    -0.10  -0.03   0.01
    51   1     0.18   0.01   0.02    -0.05  -0.05  -0.03    -0.18  -0.07  -0.09
    52   6     0.14   0.12  -0.05     0.03   0.03   0.06     0.01   0.00   0.14
    53   1     0.10   0.11  -0.04     0.12   0.08   0.05     0.20   0.04   0.11
    54   1     0.18   0.07  -0.02     0.10   0.05  -0.01     0.11   0.02   0.02
    55   1     0.19   0.11  -0.04    -0.05  -0.02   0.06    -0.17  -0.05   0.12
    56   1     0.23   0.08  -0.02    -0.01  -0.01  -0.00    -0.10  -0.04   0.02
    57   1     0.17   0.16  -0.07     0.04   0.05   0.09     0.01   0.01   0.21
    58   1     0.09   0.13  -0.06     0.02   0.04   0.10     0.02   0.01   0.18
    59   6    -0.12   0.03   0.02     0.04  -0.06  -0.11    -0.01  -0.00  -0.02
    60   1    -0.12   0.02   0.03     0.04  -0.07  -0.14    -0.01  -0.01  -0.02
    61   1    -0.14   0.03   0.04     0.03  -0.06  -0.17    -0.02  -0.00  -0.02
    62   1    -0.13   0.06   0.01     0.08  -0.11  -0.06    -0.01   0.00  -0.02
    63   6    -0.09  -0.01   0.02    -0.08   0.07  -0.11    -0.02  -0.00  -0.02
    64   1    -0.10  -0.01   0.04    -0.08   0.07  -0.16    -0.02  -0.00  -0.02
    65   1    -0.09  -0.02   0.02    -0.08   0.07  -0.13    -0.02  -0.01  -0.02
    66   1    -0.08  -0.01   0.01    -0.12   0.11  -0.07    -0.02  -0.00  -0.02
    67   6    -0.11   0.05  -0.00    -0.03   0.02  -0.01    -0.02   0.00  -0.01
    68   1    -0.09   0.04  -0.02    -0.08   0.07   0.03    -0.02   0.00  -0.01
    69   1    -0.11   0.08  -0.02     0.02  -0.04   0.04    -0.01   0.00  -0.01
    70   1    -0.13   0.05   0.02    -0.03   0.02  -0.08    -0.02   0.00  -0.01
    71   6    -0.05  -0.01   0.00     0.08  -0.04   0.02    -0.07   0.01   0.02
    72   1    -0.04   0.00  -0.01     0.07  -0.04   0.09    -0.06   0.01  -0.03
    73   1    -0.05  -0.02   0.02     0.08  -0.03  -0.04    -0.07  -0.00   0.07
    74   1    -0.07  -0.01  -0.00     0.14  -0.06   0.01    -0.13   0.01   0.01
    75   6    -0.05  -0.02   0.02     0.00  -0.01  -0.10    -0.02  -0.01   0.09
    76   1    -0.05  -0.02   0.02    -0.05   0.02  -0.13     0.03  -0.01   0.10
    77   1    -0.07  -0.02   0.01     0.05  -0.05  -0.12    -0.07  -0.00   0.09
    78   1    -0.05  -0.03   0.03     0.01  -0.02  -0.13    -0.02  -0.01   0.14
    79   6    -0.01  -0.00   0.01    -0.07   0.03   0.00     0.05  -0.02   0.03
    80   1    -0.01  -0.01   0.03    -0.06   0.01  -0.05     0.04  -0.01   0.08
[...]
 ! Name  Definition              Value          Relative Weight (%)             !
 --------------------------------------------------------------------------------
 ! R22   R(13,18)                0.0692                  4.1                    !
 ! R24   R(14,19)                0.0499                  3.0                    !
 ! R33   R(23,24)               -0.0449                  2.7                    !
 ! R34   R(24,25)               -0.0468                  2.8                    !
 ! R35   R(24,28)                1.0793                 64.7                    !
 ! A48   A(17,23,24)             0.0299                  1.8                    !
 ! A49   A(22,23,24)            -0.0279                  1.7                    !
 ! A50   A(23,24,25)             0.057                   3.4                    !
 ! A51   A(23,24,28)            -0.0283                  1.7                    !
 ! A52   A(25,24,28)            -0.0287                  1.7                    !
 ! A53   A(24,25,26)            -0.0269                  1.6                    !
 ! A54   A(24,25,30)             0.0292                  1.7                    !
 --------------------------------------------------------------------------------
                           ----------------------------
                           ! Normal Mode   238        !
 --------------------------                            --------------------------
 ! Name  Definition              Value          Relative Weight (%)             !
 --------------------------------------------------------------------------------
 ! R35   R(24,28)               -0.0127                  0.8                    !
 ! R36   R(25,26)                0.0397                  2.5                    !
 ! R38   R(26,27)                0.0451                  2.8                    !
 ! R39   R(26,29)               -1.0814                 67.8                    !
 ! R70   R(59,60)               -0.0231                  1.5                    !
 ! R74   R(63,65)               -0.0153                  1.0                    !
 ! R83   R(75,77)               -0.0135                  0.8                    !
 ! A53   A(24,25,26)             0.0283                  1.8                    !
 ! A55   A(26,25,30)            -0.0292                  1.8                    !
 ! A56   A(25,26,27)            -0.0573                  3.6                    !
 ! A57   A(25,26,29)             0.0247                  1.5                    !
 ! A58   A(27,26,29)             0.0326                  2.0                    !
 ! A59   A(22,27,26)             0.028                   1.8                    !
 ! A61   A(26,27,31)            -0.0299                  1.9                    !
 --------------------------------------------------------------------------------
                           ----------------------------
                           ! Normal Mode   239        !
 --------------------------                            --------------------------
 ! Name  Definition              Value          Relative Weight (%)             !
 --------------------------------------------------------------------------------
 ! R18   R(11,34)               -0.0429                  2.9                    !
 ! R28   R(17,34)               -0.0498                  3.4                    !
 ! R48   R(34,36)                1.072                  73.0                    !
 ! A23   A(12,11,34)            -0.0246                  1.7                    !
 ! A24   A(16,11,34)             0.025                   1.7                    !
 ! A40   A(23,17,34)             0.0244                  1.7                    !
 ! A42   A(34,17,35)            -0.0234                  1.6                    !
 ! A75   A(11,34,17)             0.0484                  3.3                    !
 ! A77   A(17,34,36)            -0.0545                  3.7                    !
 --------------------------------------------------------------------------------
                           ----------------------------
                           ! Normal Mode   240        !
 --------------------------                            --------------------------
 ! Name  Definition              Value          Relative Weight (%)             !
 --------------------------------------------------------------------------------
 ! R3    R(1,37)                 0.0436                  3.0                    !
 ! R15   R(7,37)                 0.0488                  3.4                    !
 ! R48   R(34,36)                0.0183                  1.3                    !
 ! R49   R(37,38)               -1.0719                 74.4                    !
 ! A2    A(2,1,37)               0.0238                  1.6                    !
 ! A3    A(6,1,37)              -0.0247                  1.7                    !
 ! A20   A(16,7,37)             -0.0238                  1.7                    !
 ! A21   A(21,7,37)              0.0228                  1.6                    !
 ! A79   A(1,37,7)              -0.0474                  3.3                    !
 ! A81   A(7,37,38)              0.0464                  3.2                    !
 --------------------------------------------------------------------------------
 -------------------------------------------------------------------
 Center     Atomic                   Forces (Hartrees/Bohr)
 Number     Number              X              Y              Z
 -------------------------------------------------------------------
      1        6          -0.000000207    0.000001091   -0.000004922
      2        6          -0.000000308    0.000000205   -0.000009322
      3        6          -0.000000630   -0.000000822   -0.000018073
      4        6          -0.000000870   -0.000001084   -0.000021980
      5        6          -0.000000663    0.000000006   -0.000017486
      6        6          -0.000000423    0.000000841   -0.000008789
      7        6           0.000000198    0.000001570    0.000003740
      8        1          -0.000000816   -0.000001579   -0.000021623
      9        1          -0.000001067   -0.000001844   -0.000028766
     10        1          -0.000000761   -0.000000296   -0.000020742
     11        6           0.000000360    0.000001390    0.000010784
     12        6           0.000000579    0.000001320    0.000018178
     13        6           0.000000920    0.000002535    0.000026170
     14        6           0.000001001    0.000003128    0.000026678
     15        6           0.000000742    0.000003069    0.000019499
     16        6           0.000000504    0.000001954    0.000011423
     17        6           0.000000061    0.000000203    0.000006930
     18        1           0.000001176    0.000002499    0.000031672
     19        1           0.000001202    0.000003956    0.000032749
     20        1           0.000000703    0.000003567    0.000020365
     21        7          -0.000000167    0.000000457   -0.000003799
     22        6           0.000000124   -0.000001795    0.000006305
     23        6           0.000000194   -0.000001111    0.000002001
     24        6          -0.000000140   -0.000000981   -0.000006703
     25        6          -0.000000512   -0.000001922   -0.000011429
     26        6          -0.000000142   -0.000003056   -0.000007090
     27        6           0.000000223   -0.000003011    0.000001588
     28        1          -0.000000392   -0.000000253   -0.000009862
     29        1          -0.000000416   -0.000003567   -0.000010733
     30        6          -0.000000800   -0.000001631   -0.000020727
     31        6           0.000000155   -0.000004241    0.000006179
     32        8           0.000000229   -0.000001378    0.000014464
     33        1           0.000000898   -0.000001026    0.000016781
     34        7           0.000000180    0.000000281    0.000004263
     35        7           0.000000763    0.000000746    0.000015477
     36        1          -0.000000039    0.000000179   -0.000001733
     37        7           0.000000050    0.000001783    0.000003415
     38        1           0.000000269    0.000002603    0.000008102
     39        6          -0.000000162    0.000001612   -0.000003767
     40        1          -0.000000279    0.000001669   -0.000007720
     41        7           0.000000234    0.000002807    0.000003896
     42        6           0.000000177    0.000003746    0.000008367
     43        6           0.000000409   -0.000004508    0.000007211
     44        6           0.000000010    0.000011465    0.000005254
     45        1           0.000000540    0.000004303    0.000014896
     46        6           0.000000393   -0.000003455    0.000011710
     47        1           0.000000092   -0.000005284    0.000000452
     48        1           0.000000423   -0.000009776    0.000009418
     49        6           0.000000268    0.000012205    0.000009947
     50        1          -0.000000136    0.000010867   -0.000001417
     51        1           0.000000102    0.000016997    0.000006257
     52        6           0.000000364    0.000004294    0.000008908
     53        1           0.000000503   -0.000009168    0.000010841
     54        1           0.000000731   -0.000003065    0.000018554
     55        1           0.000000116    0.000017765    0.000007688
     56        1           0.000000483    0.000013293    0.000016637
     57        1           0.000000397    0.000004949    0.000012434
     58        1           0.000000035    0.000003587    0.000002276
     59        6          -0.000000928   -0.000010177   -0.000024122
     60        1          -0.000000732   -0.000010953   -0.000021726
     61        1          -0.000001060   -0.000009944   -0.000030925
     62        1          -0.000000638   -0.000015457   -0.000022147
     63        6          -0.000000769    0.000005786   -0.000023933
     64        1          -0.000001231    0.000005595   -0.000030696
     65        1          -0.000000934    0.000005380   -0.000021273
     66        1          -0.000001003    0.000011565   -0.000021891
     67        6          -0.000000863   -0.000000951   -0.000024643
     68        1          -0.000000941    0.000004926   -0.000022818
     69        1          -0.000000802   -0.000006206   -0.000022868
     70        1          -0.000001182   -0.000000982   -0.000031543
     71        6           0.000000612   -0.000012137    0.000011320
     72        1           0.000000866   -0.000011804    0.000016238
     73        1           0.000000732   -0.000013254    0.000014585
     74        1           0.000000307   -0.000017729    0.000007548
     75        6           0.000000133   -0.000005145   -0.000000387
     76        1          -0.000000166    0.000000389   -0.000004341
     77        1          -0.000000092   -0.000010633   -0.000004401
     78        1           0.000000146   -0.000006035    0.000002952
     79        6           0.000000373    0.000003417    0.000011402
     80        1           0.000000519    0.000002614    0.000014536
     81        1           0.000000616    0.000004442    0.000016520
     82        1           0.000000156    0.000009207    0.000007787
 -------------------------------------------------------------------
 Cartesian Forces:  Max     0.000032749 RMS     0.000009921
 FormGI is forming the generalized inverse of G from B-inverse, IUseBI=4.
 GSVD:  received Info=                   1 from GESDD.
 Leave Link  716 at Fri Dec 21 18:12:21 2018, MaxMem=  1342177280 cpu:               8.6 elap:               0.6
 (Enter /gpfs/apps/hpc/Apps/Restricted/Gaussian/Rev_A.03/g16/l9999.exe)

 ----------------------------------------------------------------------

 Electric dipole moment (input orientation):
 (Debye = 10**-18 statcoulomb cm , SI units = C m)
                  (au)            (Debye)         (10**-30 SI)
   Tot        0.703101D+01      0.178711D+02      0.596114D+02
   x         -0.700193D+01     -0.177971D+02     -0.593649D+02
   y          0.630121D+00      0.160161D+01      0.534239D+01
   z         -0.105164D+00     -0.267299D+00     -0.891614D+00

 Dipole polarizability, Alpha (input orientation).
 (esu units = cm**3 , SI units = C**2 m**2 J**-1)
 Alpha(0;0):
               (au)            (10**-24 esu)      (10**-40 SI)
   iso        0.802685D+03      0.118946D+03      0.132345D+03
   aniso      0.876728D+03      0.129918D+03      0.144553D+03
   xx         0.122264D+04      0.181176D+03      0.201585D+03
   yx        -0.191907D+03     -0.284377D+02     -0.316412D+02
   yy         0.879575D+03      0.130340D+03      0.145022D+03
   zx         0.472866D+02      0.700715D+01      0.779650D+01
   zy        -0.509165D+02     -0.754505D+01     -0.839500D+01
   zz         0.305845D+03      0.453215D+02      0.504270D+02

 ----------------------------------------------------------------------

 Dipole orientation:
     6          0.13981994          2.37750457         -2.83993591
     6          0.09961211          3.50211341         -0.41766078
     6          0.01901308          6.13937460         -0.19055631
     6         -0.02651913          7.56127891         -2.40400353
     6          0.01923576          6.41047998         -4.79976309
     6          0.09703239          3.78342329         -5.08847672
     6          0.17950363         -0.54655805          0.14474557
     1         -0.01527773          7.02944314          1.65270502
     1         -0.08901363          9.60483878         -2.28936107
     1         -0.01254242          7.58333312         -6.47988703
     6          0.11182082         -3.10571291          4.03527241
     6          0.02265725         -5.41294365          5.41113590
     6          0.03797308         -7.73048661          4.11876015
     6          0.14076470         -7.63744272          1.50244206
     6          0.20550165         -5.33086128          0.15208432
     6          0.18137813         -2.99972047          1.37898273
     6          0.00280759         -2.32110054          8.12698058
     1         -0.02661174         -9.50398440          5.13412661
     1          0.16448159         -9.38549728          0.43872860
     1          0.27866726         -5.39345238         -1.89300891
     7          0.13373688          1.63016808          1.41062472
     6         -0.33390831         -2.54277366         12.79568335
     6         -0.04222325         -1.03027486         10.51178471
     6          0.17701197          1.58352746         10.69825223
     6          0.11777296          2.76753931         13.04935144
     6         -0.20786074          1.24316747         15.25786159
     6         -0.44649886         -1.34157884         15.23468333
     1          0.40409659          2.68567027          8.99316604
     1         -0.25606039          2.21101946         17.05351703
     6          0.40524223          5.60533969         13.37221411
     6         -0.82253303         -2.89021489         17.64663503
     8         -0.49683283         -4.99536193         12.63432779
     1         -0.34520109         -5.52920778         10.73975888
     7          0.10436090         -1.21655756          5.79203962
     7         -0.05392731         -4.85168914          7.93891150
     1          0.12417297          0.63528299          5.26570204
     7          0.19184899         -0.18177624         -2.42198878
     1          0.19745246         -1.44740133         -3.86069630
     6          0.13630100          2.58011729         -7.56901436
     1          0.09680557          3.87167308         -9.18624899
     7          0.20223571          0.17077775         -7.81892603
     6          0.22129823         -0.84252831        -10.41129833
     6         -2.19847054         -0.15794818        -11.86937072
     6          2.58104604         -0.02779095        -11.90005083
     1          0.27945048         -2.90468680        -10.22548904
     6         -2.17876778         -1.30027377        -14.52947338
     1         -2.33057583          1.90599018        -12.00473456
     1         -3.84908189         -0.80271287        -10.80444076
     6          2.59110480         -1.17404527        -14.55939353
     1          2.60016524          2.03913808        -12.04399172
     1          4.27904907         -0.57948919        -10.85765579
     6          0.17735339         -0.49180346        -16.00673222
     1         -3.89587761         -0.74640562        -15.53941144
     1         -2.21164390         -3.36855313        -14.38449537
     1          4.26376854         -0.53268098        -15.59209463
     1          2.73513117         -3.23772151        -14.41231846
     1          0.18867618         -1.37272694        -17.87765959
     1          0.11989525          1.55951606        -16.30671627
     6         -1.92709005          6.64270999         14.79338715
     1         -2.15205437          5.77438744         16.65101306
     1         -1.69879768          8.67632167         15.06639964
     1         -3.65379710          6.31555099         13.71019094
     6          2.80970530          6.11170055         14.95682932
     1          2.97924683          8.14098352         15.30204038
     1          2.74189316          5.15380197         16.78376058
     1          4.49577989          5.47795862         13.94811898
     6          0.64167252          6.98764252         10.83592376
     1          2.30760869          6.36951138          9.78333178
     1         -1.02846086          6.69108931          9.65812031
     1          0.82746092          9.01262055         11.18439215
     6         -3.38099047         -4.28914530         17.51536610
     1         -3.46259653         -5.58970220         15.92068278
     1         -3.65005105         -5.37211127         19.25348542
     1         -4.93759874         -2.94212107         17.35019110
     6         -0.84893463         -1.18024673         19.99143200
     1          0.93051632         -0.15505775         20.20951665
     1         -2.39032983          0.19278021         19.92595515
     1         -1.11902154         -2.35422694         21.66633312
     6          1.35578769         -4.80850159         17.96526376
     1          1.07671952         -5.85339543         19.72501651
     1          1.42667589         -6.15580130         16.41225523
     1          3.17163744         -3.83192765         18.07912776

 Electric dipole moment (dipole orientation):
 (Debye = 10**-18 statcoulomb cm , SI units = C m)
                  (au)            (Debye)         (10**-30 SI)
   Tot        0.703101D+01      0.178711D+02      0.596114D+02
   x          0.000000D+00      0.000000D+00      0.000000D+00
   y          0.000000D+00      0.000000D+00      0.000000D+00
   z          0.703101D+01      0.178711D+02      0.596114D+02

 Dipole polarizability, Alpha (dipole orientation).
 (esu units = cm**3 , SI units = C**2 m**2 J**-1)
 Alpha(0;0):
               (au)            (10**-24 esu)      (10**-40 SI)
   iso        0.802685D+03      0.118946D+03      0.132345D+03
   aniso      0.876728D+03      0.129918D+03      0.144553D+03
   xx         0.301004D+03      0.446043D+02      0.496289D+02
   yx         0.512972D+01      0.760146D+00      0.845777D+00
   yy         0.851575D+03      0.126190D+03      0.140406D+03
   zx        -0.230638D+02     -0.341770D+01     -0.380270D+01
   zy         0.161594D+03      0.239457D+02      0.266432D+02
   zz         0.125548D+04      0.186042D+03      0.207000D+03

 ----------------------------------------------------------------------

 This type of calculation cannot be archived.


 Sometimes the fool who rushes in gets the job done.
                                    -- Al Bernstein
 Job cpu time:       0 days  0 hours  0 minutes 22.7 seconds.
 Elapsed time:       0 days  0 hours  0 minutes  1.6 seconds.
 File lengths (MBytes):  RWF=     72 Int=      0 D2E=      0 Chk=    104 Scr=      8
 Normal termination of Gaussian 16 at Fri Dec 21 18:12:21 2018.
