 Entering Gaussian System, Link 0=g16
 Input=cyclohexyl-diBIP-E0PT.com
 Output=cyclohexyl-diBIP-E0PT.log
 Initial command:
 /gpfs/apps/hpc/Apps/Restricted/Gaussian/Rev_A.03/g16/l1.exe "/gpfs/scratch60/fas/hammes_schiffer/jg2487/c44n01/Gau-178091.inp" -scrdir="/gpfs/scratch60/fas/hammes_schiffer/jg2487/c44n01/"
 Entering Link 1 = /gpfs/apps/hpc/Apps/Restricted/Gaussian/Rev_A.03/g16/l1.exe PID=    178092.
  
 Copyright (c) 1988,1990,1992,1993,1995,1998,2003,2009,2016,
            Gaussian, Inc.  All Rights Reserved.
  
 This is part of the Gaussian(R) 16 program.  It is based on
 the Gaussian(R) 09 system (copyright 2009, Gaussian, Inc.),
 the Gaussian(R) 03 system (copyright 2003, Gaussian, Inc.),
 the Gaussian(R) 98 system (copyright 1998, Gaussian, Inc.),
 the Gaussian(R) 94 system (copyright 1995, Gaussian, Inc.),
 the Gaussian 92(TM) system (copyright 1992, Gaussian, Inc.),
 the Gaussian 90(TM) system (copyright 1990, Gaussian, Inc.),
 the Gaussian 88(TM) system (copyright 1988, Gaussian, Inc.),
 the Gaussian 86(TM) system (copyright 1986, Carnegie Mellon
 University), and the Gaussian 82(TM) system (copyright 1983,
 Carnegie Mellon University). Gaussian is a federally registered
 trademark of Gaussian, Inc.
  
 This software contains proprietary and confidential information,
 including trade secrets, belonging to Gaussian, Inc.
  
 This software is provided under written license and may be
 used, copied, transmitted, or stored only in accord with that
 written license.
  
 The following legend is applicable only to US Government
 contracts under FAR:
  
                    RESTRICTED RIGHTS LEGEND
  
 Use, reproduction and disclosure by the US Government is
 subject to restrictions as set forth in subparagraphs (a)
 and (c) of the Commercial Computer Software - Restricted
 Rights clause in FAR 52.227-19.
  
 Gaussian, Inc.
 340 Quinnipiac St., Bldg. 40, Wallingford CT 06492
  
  
 ---------------------------------------------------------------
 Warning -- This program may not be used in any manner that
 competes with the business of Gaussian, Inc. or will provide
 assistance to any competitor of Gaussian, Inc.  The licensee
 of this program is prohibited from giving any competitor of
 Gaussian, Inc. access to this program.  By using this program,
 the user acknowledges that Gaussian, Inc. is engaged in the
 business of creating and licensing software in the field of
 computational chemistry and represents and warrants to the
 licensee that it is not a competitor of Gaussian, Inc. and that
 it will not use this program in any manner prohibited above.
 ---------------------------------------------------------------
  

 Cite this work as:
 Gaussian 16, Revision A.03,
 M. J. Frisch, G. W. Trucks, H. B. Schlegel, G. E. Scuseria, 
 M. A. Robb, J. R. Cheeseman, G. Scalmani, V. Barone, 
 G. A. Petersson, H. Nakatsuji, X. Li, M. Caricato, A. V. Marenich, 
 J. Bloino, B. G. Janesko, R. Gomperts, B. Mennucci, H. P. Hratchian, 
 J. V. Ortiz, A. F. Izmaylov, J. L. Sonnenberg, D. Williams-Young, 
 F. Ding, F. Lipparini, F. Egidi, J. Goings, B. Peng, A. Petrone, 
 T. Henderson, D. Ranasinghe, V. G. Zakrzewski, J. Gao, N. Rega, 
 G. Zheng, W. Liang, M. Hada, M. Ehara, K. Toyota, R. Fukuda, 
 J. Hasegawa, M. Ishida, T. Nakajima, Y. Honda, O. Kitao, H. Nakai, 
 T. Vreven, K. Throssell, J. A. Montgomery, Jr., J. E. Peralta, 
 F. Ogliaro, M. J. Bearpark, J. J. Heyd, E. N. Brothers, K. N. Kudin, 
 V. N. Staroverov, T. A. Keith, R. Kobayashi, J. Normand, 
 K. Raghavachari, A. P. Rendell, J. C. Burant, S. S. Iyengar, 
 J. Tomasi, M. Cossi, J. M. Millam, M. Klene, C. Adamo, R. Cammi, 
 J. W. Ochterski, R. L. Martin, K. Morokuma, O. Farkas, 
 J. B. Foresman, and D. J. Fox, Gaussian, Inc., Wallingford CT, 2016.
 
 ******************************************
 Gaussian 16:  ES64L-G16RevA.03 25-Dec-2016
                14-Dec-2018 
 ******************************************
 %chk=cyclohexyl-diBIP-E0PT.chk
 %mem=10GB
 %nprocshared=16
 Will use up to   16 processors via shared memory.
 ----------------------------------------------------------------
 #p freq(ReadFC,InternalModes) Geom(AllCheck) NoSymm scale=0.9649
 ----------------------------------------------------------------
 1/18=20,29=7,38=1,114=964900/1,3;
 2/9=110,12=2,15=1,40=1/2;
 7/8=21,25=11,30=1/16;
 99/5=2/99;
 Leave Link    1 at Fri Dec 14 13:57:26 2018, MaxMem=  1342177280 cpu:               8.1 elap:               0.5
 (Enter /gpfs/apps/hpc/Apps/Restricted/Gaussian/Rev_A.03/g16/l101.exe)
 Structure from the checkpoint file:  "cyclohexyl-diBIP-E0PT.chk"
 -------------------------------------------------------------------
 cyclohexylimine diBIP oxidized, no protons transferred optimization
 -------------------------------------------------------------------
 Charge =  1 Multiplicity = 2
 Redundant internal coordinates found in file.  (old form).
 C,0,1.614321,1.14308,0.187172
 C,0,0.3991,1.864767,0.18099
 C,0,0.419406,3.263061,0.089613
 C,0,1.658941,3.890085,-0.006188
 C,0,2.858327,3.156022,-0.007751
 C,0,2.87154,1.759866,0.091161
 C,0,-0.111646,-0.232753,0.320809
 H,0,-0.502251,3.832046,0.08851
 H,0,1.705524,4.969749,-0.082615
 H,0,3.80373,3.681641,-0.08741
 C,0,-2.293136,-1.382652,0.331783
 C,0,-3.133318,-2.529411,0.356695
 C,0,-2.57102,-3.810715,0.472692
 C,0,-1.189252,-3.889535,0.554046
 C,0,-0.361709,-2.743137,0.514611
 C,0,-0.889558,-1.457826,0.397701
 C,0,-4.406672,-0.773444,0.171208
 H,0,-3.195938,-4.693695,0.494948
 H,0,-0.718761,-4.860494,0.646606
 H,0,0.711945,-2.874137,0.579984
 N,0,-0.662663,0.979117,0.264324
 C,0,-6.861243,-0.705395,-0.125738
 C,0,-5.602023,0.008668,0.022727
 C,0,-5.611558,1.399157,-0.002045
 C,0,-6.805802,2.103103,-0.183994
 C,0,-8.026181,1.382297,-0.356352
 C,0,-8.087549,0.012462,-0.330189
 H,0,-4.68656,1.948571,0.123679
 H,0,-8.938426,1.947673,-0.509628
 C,0,-6.830532,3.595398,-0.214044
 H,0,-5.85512,4.02382,0.013422
 H,0,-7.144337,3.943802,-1.204408
 H,0,-7.567341,3.980467,0.497687
 C,0,-9.359372,-0.757856,-0.501789
 H,0,-9.261034,-1.497101,-1.300634
 H,0,-9.604751,-1.306001,0.412749
 H,0,-10.18295,-0.084894,-0.737205
 O,0,-6.913703,-2.006014,-0.081819
 H,0,-5.946829,-2.370343,0.068789
 N,0,-3.123659,-0.303556,0.221701
 N,0,-4.435614,-2.113739,0.251966
 H,0,-2.75697,0.645213,0.175127
 N,0,1.25879,-0.179301,0.281194
 H,0,1.94692,-0.923721,0.286611
 C,0,4.112597,0.992581,0.088058
 H,0,5.031308,1.580953,-0.011296
 N,0,4.119209,-0.285696,0.190749
 C,0,5.432825,-0.953266,0.1593
 C,0,6.142571,-0.746281,-1.189225
 C,0,6.340181,-0.518341,1.322782
 H,0,5.236183,-2.025256,0.274597
 C,0,7.49361,-1.46785,-1.229468
 H,0,6.298515,0.329297,-1.336157
 H,0,5.492684,-1.090878,-1.999614
 C,0,7.689927,-1.243017,1.278726
 H,0,6.507067,0.562796,1.254154
 H,0,5.829627,-0.706409,2.272348
 C,0,8.393469,-1.035137,-0.066939
 H,0,7.986104,-1.275051,-2.187927
 H,0,7.327462,-2.550702,-1.169649
 H,0,8.322327,-0.893537,2.100982
 H,0,7.528811,-2.316902,1.43772
 H,0,9.336864,-1.589244,-0.091362
 H,0,8.643792,0.027088,-0.182327
 Recover connectivity data from disk.
 ITRead=  0  0  0  0  0  0  0  0  0  0  0  0  0  0  0  0  0  0  0  0
 ITRead=  0  0  0  0  0  0  0  0  0  0  0  0  0  0  0  0  0  0  0  0
 ITRead=  0  0  0  0  0  0  0  0  0  0  0  0  0  0  0  0  0  0  0  0
 ITRead=  0  0  0  0
 MicOpt= -1 -1 -1 -1 -1 -1 -1 -1 -1 -1 -1 -1 -1 -1 -1 -1 -1 -1 -1 -1
 MicOpt= -1 -1 -1 -1 -1 -1 -1 -1 -1 -1 -1 -1 -1 -1 -1 -1 -1 -1 -1 -1
 MicOpt= -1 -1 -1 -1 -1 -1 -1 -1 -1 -1 -1 -1 -1 -1 -1 -1 -1 -1 -1 -1
 MicOpt= -1 -1 -1 -1
 NAtoms=     64 NQM=       64 NQMF=       0 NMMI=      0 NMMIF=      0
                NMic=       0 NMicF=      0.
                    Isotopes and Nuclear Properties:
 (Nuclear quadrupole moments (NQMom) in fm**2, nuclear magnetic moments (NMagM)
  in nuclear magnetons)

  Atom         1           2           3           4           5           6           7           8           9          10
 IAtWgt=          12          12          12          12          12          12          12           1           1           1
 AtmWgt=  12.0000000  12.0000000  12.0000000  12.0000000  12.0000000  12.0000000  12.0000000   1.0078250   1.0078250   1.0078250
 NucSpn=           0           0           0           0           0           0           0           1           1           1
 AtZEff=   3.6000000   3.6000000   3.6000000   3.6000000   3.6000000   3.6000000   3.6000000   1.0000000   1.0000000   1.0000000
 NQMom=    0.0000000   0.0000000   0.0000000   0.0000000   0.0000000   0.0000000   0.0000000   0.0000000   0.0000000   0.0000000
 NMagM=    0.0000000   0.0000000   0.0000000   0.0000000   0.0000000   0.0000000   0.0000000   2.7928460   2.7928460   2.7928460
 AtZNuc=   6.0000000   6.0000000   6.0000000   6.0000000   6.0000000   6.0000000   6.0000000   1.0000000   1.0000000   1.0000000

  Atom        11          12          13          14          15          16          17          18          19          20
 IAtWgt=          12          12          12          12          12          12          12           1           1           1
 AtmWgt=  12.0000000  12.0000000  12.0000000  12.0000000  12.0000000  12.0000000  12.0000000   1.0078250   1.0078250   1.0078250
 NucSpn=           0           0           0           0           0           0           0           1           1           1
 AtZEff=   3.6000000   3.6000000   3.6000000   3.6000000   3.6000000   3.6000000   3.6000000   1.0000000   1.0000000   1.0000000
 NQMom=    0.0000000   0.0000000   0.0000000   0.0000000   0.0000000   0.0000000   0.0000000   0.0000000   0.0000000   0.0000000
 NMagM=    0.0000000   0.0000000   0.0000000   0.0000000   0.0000000   0.0000000   0.0000000   2.7928460   2.7928460   2.7928460
 AtZNuc=   6.0000000   6.0000000   6.0000000   6.0000000   6.0000000   6.0000000   6.0000000   1.0000000   1.0000000   1.0000000

  Atom        21          22          23          24          25          26          27          28          29          30
 IAtWgt=          14          12          12          12          12          12          12           1           1          12
 AtmWgt=  14.0030740  12.0000000  12.0000000  12.0000000  12.0000000  12.0000000  12.0000000   1.0078250   1.0078250  12.0000000
 NucSpn=           2           0           0           0           0           0           0           1           1           0
 AtZEff=   4.5500000   3.6000000   3.6000000   3.6000000   3.6000000   3.6000000   3.6000000   1.0000000   1.0000000   3.6000000
 NQMom=    2.0440000   0.0000000   0.0000000   0.0000000   0.0000000   0.0000000   0.0000000   0.0000000   0.0000000   0.0000000
 NMagM=    0.4037610   0.0000000   0.0000000   0.0000000   0.0000000   0.0000000   0.0000000   2.7928460   2.7928460   0.0000000
 AtZNuc=   7.0000000   6.0000000   6.0000000   6.0000000   6.0000000   6.0000000   6.0000000   1.0000000   1.0000000   6.0000000

  Atom        31          32          33          34          35          36          37          38          39          40
 IAtWgt=           1           1           1          12           1           1           1          16           1          14
 AtmWgt=   1.0078250   1.0078250   1.0078250  12.0000000   1.0078250   1.0078250   1.0078250  15.9949146   1.0078250  14.0030740
 NucSpn=           1           1           1           0           1           1           1           0           1           2
 AtZEff=   1.0000000   1.0000000   1.0000000   3.6000000   1.0000000   1.0000000   1.0000000   5.6000000   1.0000000   4.5500000
 NQMom=    0.0000000   0.0000000   0.0000000   0.0000000   0.0000000   0.0000000   0.0000000   0.0000000   0.0000000   2.0440000
 NMagM=    2.7928460   2.7928460   2.7928460   0.0000000   2.7928460   2.7928460   2.7928460   0.0000000   2.7928460   0.4037610
 AtZNuc=   1.0000000   1.0000000   1.0000000   6.0000000   1.0000000   1.0000000   1.0000000   8.0000000   1.0000000   7.0000000

  Atom        41          42          43          44          45          46          47          48          49          50
 IAtWgt=          14           1          14           1          12           1          14          12          12          12
 AtmWgt=  14.0030740   1.0078250  14.0030740   1.0078250  12.0000000   1.0078250  14.0030740  12.0000000  12.0000000  12.0000000
 NucSpn=           2           1           2           1           0           1           2           0           0           0
 AtZEff=   4.5500000   1.0000000   4.5500000   1.0000000   3.6000000   1.0000000   4.5500000   3.6000000   3.6000000   3.6000000
 NQMom=    2.0440000   0.0000000   2.0440000   0.0000000   0.0000000   0.0000000   2.0440000   0.0000000   0.0000000   0.0000000
 NMagM=    0.4037610   2.7928460   0.4037610   2.7928460   0.0000000   2.7928460   0.4037610   0.0000000   0.0000000   0.0000000
 AtZNuc=   7.0000000   1.0000000   7.0000000   1.0000000   6.0000000   1.0000000   7.0000000   6.0000000   6.0000000   6.0000000

  Atom        51          52          53          54          55          56          57          58          59          60
 IAtWgt=           1          12           1           1          12           1           1          12           1           1
 AtmWgt=   1.0078250  12.0000000   1.0078250   1.0078250  12.0000000   1.0078250   1.0078250  12.0000000   1.0078250   1.0078250
 NucSpn=           1           0           1           1           0           1           1           0           1           1
 AtZEff=   1.0000000   3.6000000   1.0000000   1.0000000   3.6000000   1.0000000   1.0000000   3.6000000   1.0000000   1.0000000
 NQMom=    0.0000000   0.0000000   0.0000000   0.0000000   0.0000000   0.0000000   0.0000000   0.0000000   0.0000000   0.0000000
 NMagM=    2.7928460   0.0000000   2.7928460   2.7928460   0.0000000   2.7928460   2.7928460   0.0000000   2.7928460   2.7928460
 AtZNuc=   1.0000000   6.0000000   1.0000000   1.0000000   6.0000000   1.0000000   1.0000000   6.0000000   1.0000000   1.0000000

  Atom        61          62          63          64
 IAtWgt=           1           1           1           1
 AtmWgt=   1.0078250   1.0078250   1.0078250   1.0078250
 NucSpn=           1           1           1           1
 AtZEff=   1.0000000   1.0000000   1.0000000   1.0000000
 NQMom=    0.0000000   0.0000000   0.0000000   0.0000000
 NMagM=    2.7928460   2.7928460   2.7928460   2.7928460
 AtZNuc=   1.0000000   1.0000000   1.0000000   1.0000000
 Leave Link  101 at Fri Dec 14 13:57:27 2018, MaxMem=  1342177280 cpu:               7.9 elap:               0.5
 (Enter /gpfs/apps/hpc/Apps/Restricted/Gaussian/Rev_A.03/g16/l103.exe)

 GradGradGradGradGradGradGradGradGradGradGradGradGradGradGradGradGradGrad
 Berny optimization.
 Initialization pass.
                           ----------------------------
                           !    Initial Parameters    !
                           ! (Angstroms and Degrees)  !
 --------------------------                            --------------------------
 ! Name  Definition              Value          Derivative Info.                !
 --------------------------------------------------------------------------------
 ! R1    R(1,2)                  1.4134         estimate D2E/DX2                !
 ! R2    R(1,6)                  1.4037         estimate D2E/DX2                !
 ! R3    R(1,43)                 1.3726         estimate D2E/DX2                !
 ! R4    R(2,3)                  1.4014         estimate D2E/DX2                !
 ! R5    R(2,21)                 1.3852         estimate D2E/DX2                !
 ! R6    R(3,4)                  1.3924         estimate D2E/DX2                !
 ! R7    R(3,8)                  1.0831         estimate D2E/DX2                !
 ! R8    R(4,5)                  1.4062         estimate D2E/DX2                !
 ! R9    R(4,9)                  1.0834         estimate D2E/DX2                !
 ! R10   R(5,6)                  1.3997         estimate D2E/DX2                !
 ! R11   R(5,10)                 1.0846         estimate D2E/DX2                !
 ! R12   R(6,45)                 1.4591         estimate D2E/DX2                !
 ! R13   R(7,16)                 1.4532         estimate D2E/DX2                !
 ! R14   R(7,21)                 1.3325         estimate D2E/DX2                !
 ! R15   R(7,43)                 1.3721         estimate D2E/DX2                !
 ! R16   R(11,12)                1.4218         estimate D2E/DX2                !
 ! R17   R(11,16)                1.4071         estimate D2E/DX2                !
 ! R18   R(11,40)                1.3661         estimate D2E/DX2                !
 ! R19   R(12,13)                1.4041         estimate D2E/DX2                !
 ! R20   R(12,41)                1.371          estimate D2E/DX2                !
 ! R21   R(13,14)                1.3864         estimate D2E/DX2                !
 ! R22   R(13,18)                1.082          estimate D2E/DX2                !
 ! R23   R(14,15)                1.4144         estimate D2E/DX2                !
 ! R24   R(14,19)                1.0829         estimate D2E/DX2                !
 ! R25   R(15,16)                1.3944         estimate D2E/DX2                !
 ! R26   R(15,20)                1.0836         estimate D2E/DX2                !
 ! R27   R(17,23)                1.4362         estimate D2E/DX2                !
 ! R28   R(17,40)                1.3673         estimate D2E/DX2                !
 ! R29   R(17,41)                1.343          estimate D2E/DX2                !
 ! R30   R(22,23)                1.4552         estimate D2E/DX2                !
 ! R31   R(22,27)                1.4356         estimate D2E/DX2                !
 ! R32   R(22,38)                1.3024         estimate D2E/DX2                !
 ! R33   R(23,24)                1.3907         estimate D2E/DX2                !
 ! R34   R(24,25)                1.3982         estimate D2E/DX2                !
 ! R35   R(24,28)                1.0832         estimate D2E/DX2                !
 ! R36   R(25,26)                1.4278         estimate D2E/DX2                !
 ! R37   R(25,30)                1.4928         estimate D2E/DX2                !
 ! R38   R(26,27)                1.3715         estimate D2E/DX2                !
 ! R39   R(26,29)                1.0841         estimate D2E/DX2                !
 ! R40   R(27,34)                1.4968         estimate D2E/DX2                !
 ! R41   R(30,31)                1.0894         estimate D2E/DX2                !
 ! R42   R(30,32)                1.0958         estimate D2E/DX2                !
 ! R43   R(30,33)                1.0944         estimate D2E/DX2                !
 ! R44   R(34,35)                1.0928         estimate D2E/DX2                !
 ! R45   R(34,36)                1.0941         estimate D2E/DX2                !
 ! R46   R(34,37)                1.0893         estimate D2E/DX2                !
 ! R47   R(38,39)                1.0442         estimate D2E/DX2                !
 ! R48   R(40,42)                1.0182         estimate D2E/DX2                !
 ! R49   R(43,44)                1.0138         estimate D2E/DX2                !
 ! R50   R(45,46)                1.0955         estimate D2E/DX2                !
 ! R51   R(45,47)                1.2824         estimate D2E/DX2                !
 ! R52   R(47,48)                1.4738         estimate D2E/DX2                !
 ! R53   R(48,49)                1.5379         estimate D2E/DX2                !
 ! R54   R(48,50)                1.5382         estimate D2E/DX2                !
 ! R55   R(48,51)                1.096          estimate D2E/DX2                !
 ! R56   R(49,52)                1.5322         estimate D2E/DX2                !
 ! R57   R(49,53)                1.0967         estimate D2E/DX2                !
 ! R58   R(49,54)                1.0945         estimate D2E/DX2                !
 ! R59   R(50,55)                1.5326         estimate D2E/DX2                !
 ! R60   R(50,56)                1.0961         estimate D2E/DX2                !
 ! R61   R(50,57)                1.0944         estimate D2E/DX2                !
 ! R62   R(52,58)                1.5325         estimate D2E/DX2                !
 ! R63   R(52,59)                1.0947         estimate D2E/DX2                !
 ! R64   R(52,60)                1.0972         estimate D2E/DX2                !
 ! R65   R(55,58)                1.5326         estimate D2E/DX2                !
 ! R66   R(55,61)                1.0946         estimate D2E/DX2                !
 ! R67   R(55,62)                1.0975         estimate D2E/DX2                !
 ! R68   R(58,63)                1.0944         estimate D2E/DX2                !
 ! R69   R(58,64)                1.0974         estimate D2E/DX2                !
 ! A1    A(2,1,6)              123.0542         estimate D2E/DX2                !
 ! A2    A(2,1,43)             105.6364         estimate D2E/DX2                !
 ! A3    A(6,1,43)             131.3028         estimate D2E/DX2                !
 ! A4    A(1,2,3)              119.8215         estimate D2E/DX2                !
 ! A5    A(1,2,21)             109.4097         estimate D2E/DX2                !
 ! A6    A(3,2,21)             130.7672         estimate D2E/DX2                !
 ! A7    A(2,3,4)              117.8201         estimate D2E/DX2                !
 ! A8    A(2,3,8)              120.7887         estimate D2E/DX2                !
 ! A9    A(4,3,8)              121.3903         estimate D2E/DX2                !
 ! A10   A(3,4,5)              121.6206         estimate D2E/DX2                !
 ! A11   A(3,4,9)              119.4662         estimate D2E/DX2                !
 ! A12   A(5,4,9)              118.9132         estimate D2E/DX2                !
 ! A13   A(4,5,6)              121.9154         estimate D2E/DX2                !
 ! A14   A(4,5,10)             119.3771         estimate D2E/DX2                !
 ! A15   A(6,5,10)             118.7075         estimate D2E/DX2                !
 ! A16   A(1,6,5)              115.7646         estimate D2E/DX2                !
 ! A17   A(1,6,45)             122.0666         estimate D2E/DX2                !
 ! A18   A(5,6,45)             122.1681         estimate D2E/DX2                !
 ! A19   A(16,7,21)            123.2018         estimate D2E/DX2                !
 ! A20   A(16,7,43)            124.6833         estimate D2E/DX2                !
 ! A21   A(21,7,43)            112.1104         estimate D2E/DX2                !
 ! A22   A(12,11,16)           123.0599         estimate D2E/DX2                !
 ! A23   A(12,11,40)           106.2154         estimate D2E/DX2                !
 ! A24   A(16,11,40)           130.7206         estimate D2E/DX2                !
 ! A25   A(11,12,13)           120.0545         estimate D2E/DX2                !
 ! A26   A(11,12,41)           108.3866         estimate D2E/DX2                !
 ! A27   A(13,12,41)           131.5589         estimate D2E/DX2                !
 ! A28   A(12,13,14)           117.121          estimate D2E/DX2                !
 ! A29   A(12,13,18)           121.0059         estimate D2E/DX2                !
 ! A30   A(14,13,18)           121.8729         estimate D2E/DX2                !
 ! A31   A(13,14,15)           122.3711         estimate D2E/DX2                !
 ! A32   A(13,14,19)           119.2754         estimate D2E/DX2                !
 ! A33   A(15,14,19)           118.3529         estimate D2E/DX2                !
 ! A34   A(14,15,16)           121.8675         estimate D2E/DX2                !
 ! A35   A(14,15,20)           118.688          estimate D2E/DX2                !
 ! A36   A(16,15,20)           119.4443         estimate D2E/DX2                !
 ! A37   A(7,16,11)            119.1064         estimate D2E/DX2                !
 ! A38   A(7,16,15)            125.3701         estimate D2E/DX2                !
 ! A39   A(11,16,15)           115.5163         estimate D2E/DX2                !
 ! A40   A(23,17,40)           126.7039         estimate D2E/DX2                !
 ! A41   A(23,17,41)           122.1236         estimate D2E/DX2                !
 ! A42   A(40,17,41)           111.1594         estimate D2E/DX2                !
 ! A43   A(2,21,7)             105.4909         estimate D2E/DX2                !
 ! A44   A(23,22,27)           120.5531         estimate D2E/DX2                !
 ! A45   A(23,22,38)           121.4289         estimate D2E/DX2                !
 ! A46   A(27,22,38)           118.0178         estimate D2E/DX2                !
 ! A47   A(17,23,22)           117.6165         estimate D2E/DX2                !
 ! A48   A(17,23,24)           123.5062         estimate D2E/DX2                !
 ! A49   A(22,23,24)           118.8726         estimate D2E/DX2                !
 ! A50   A(23,24,25)           120.7679         estimate D2E/DX2                !
 ! A51   A(23,24,28)           119.9476         estimate D2E/DX2                !
 ! A52   A(25,24,28)           119.2843         estimate D2E/DX2                !
 ! A53   A(24,25,26)           119.446          estimate D2E/DX2                !
 ! A54   A(24,25,30)           121.3374         estimate D2E/DX2                !
 ! A55   A(26,25,30)           119.2143         estimate D2E/DX2                !
 ! A56   A(25,26,27)           122.6962         estimate D2E/DX2                !
 ! A57   A(25,26,29)           118.2298         estimate D2E/DX2                !
 ! A58   A(27,26,29)           119.0734         estimate D2E/DX2                !
 ! A59   A(22,27,26)           117.6418         estimate D2E/DX2                !
 ! A60   A(22,27,34)           118.9999         estimate D2E/DX2                !
 ! A61   A(26,27,34)           123.3583         estimate D2E/DX2                !
 ! A62   A(25,30,31)           111.9691         estimate D2E/DX2                !
 ! A63   A(25,30,32)           109.9249         estimate D2E/DX2                !
 ! A64   A(25,30,33)           110.4747         estimate D2E/DX2                !
 ! A65   A(31,30,32)           108.6691         estimate D2E/DX2                !
 ! A66   A(31,30,33)           109.1872         estimate D2E/DX2                !
 ! A67   A(32,30,33)           106.4455         estimate D2E/DX2                !
 ! A68   A(27,34,35)           110.8225         estimate D2E/DX2                !
 ! A69   A(27,34,36)           110.6449         estimate D2E/DX2                !
 ! A70   A(27,34,37)           110.4419         estimate D2E/DX2                !
 ! A71   A(35,34,36)           106.9954         estimate D2E/DX2                !
 ! A72   A(35,34,37)           109.1448         estimate D2E/DX2                !
 ! A73   A(36,34,37)           108.699          estimate D2E/DX2                !
 ! A74   A(22,38,39)           108.4216         estimate D2E/DX2                !
 ! A75   A(11,40,17)           107.5768         estimate D2E/DX2                !
 ! A76   A(11,40,42)           121.3831         estimate D2E/DX2                !
 ! A77   A(17,40,42)           131.0304         estimate D2E/DX2                !
 ! A78   A(12,41,17)           106.6597         estimate D2E/DX2                !
 ! A79   A(1,43,7)             107.3515         estimate D2E/DX2                !
 ! A80   A(1,43,44)            122.1412         estimate D2E/DX2                !
 ! A81   A(7,43,44)            130.4835         estimate D2E/DX2                !
 ! A82   A(6,45,46)            115.5356         estimate D2E/DX2                !
 ! A83   A(6,45,47)            121.8963         estimate D2E/DX2                !
 ! A84   A(46,45,47)           122.5677         estimate D2E/DX2                !
 ! A85   A(45,47,48)           117.0244         estimate D2E/DX2                !
 ! A86   A(47,48,49)           111.659          estimate D2E/DX2                !
 ! A87   A(47,48,50)           112.4288         estimate D2E/DX2                !
 ! A88   A(47,48,51)           106.3124         estimate D2E/DX2                !
 ! A89   A(49,48,50)           110.6684         estimate D2E/DX2                !
 ! A90   A(49,48,51)           107.8605         estimate D2E/DX2                !
 ! A91   A(50,48,51)           107.6274         estimate D2E/DX2                !
 ! A92   A(48,49,52)           111.5055         estimate D2E/DX2                !
 ! A93   A(48,49,53)           108.3667         estimate D2E/DX2                !
 ! A94   A(48,49,54)           109.4423         estimate D2E/DX2                !
 ! A95   A(52,49,53)           109.4489         estimate D2E/DX2                !
 ! A96   A(52,49,54)           110.8467         estimate D2E/DX2                !
 ! A97   A(53,49,54)           107.0989         estimate D2E/DX2                !
 ! A98   A(48,50,55)           111.3494         estimate D2E/DX2                !
 ! A99   A(48,50,56)           108.744          estimate D2E/DX2                !
 ! A100  A(48,50,57)           109.421          estimate D2E/DX2                !
 ! A101  A(55,50,56)           109.2989         estimate D2E/DX2                !
 ! A102  A(55,50,57)           110.7651         estimate D2E/DX2                !
 ! A103  A(56,50,57)           107.1489         estimate D2E/DX2                !
 ! A104  A(49,52,58)           111.3997         estimate D2E/DX2                !
 ! A105  A(49,52,59)           109.6793         estimate D2E/DX2                !
 ! A106  A(49,52,60)           109.2589         estimate D2E/DX2                !
 ! A107  A(58,52,59)           110.5047         estimate D2E/DX2                !
 ! A108  A(58,52,60)           109.0409         estimate D2E/DX2                !
 ! A109  A(59,52,60)           106.8394         estimate D2E/DX2                !
 ! A110  A(50,55,58)           111.4305         estimate D2E/DX2                !
 ! A111  A(50,55,61)           109.6484         estimate D2E/DX2                !
 ! A112  A(50,55,62)           109.2212         estimate D2E/DX2                !
 ! A113  A(58,55,61)           110.5506         estimate D2E/DX2                !
 ! A114  A(58,55,62)           109.1053         estimate D2E/DX2                !
 ! A115  A(61,55,62)           106.7621         estimate D2E/DX2                !
 ! A116  A(52,58,55)           110.9902         estimate D2E/DX2                !
 ! A117  A(52,58,63)           110.2608         estimate D2E/DX2                !
 ! A118  A(52,58,64)           109.1165         estimate D2E/DX2                !
 ! A119  A(55,58,63)           110.2815         estimate D2E/DX2                !
 ! A120  A(55,58,64)           109.1665         estimate D2E/DX2                !
 ! A121  A(63,58,64)           106.9246         estimate D2E/DX2                !
 ! D1    D(6,1,2,3)             -0.6786         estimate D2E/DX2                !
 ! D2    D(6,1,2,21)           178.901          estimate D2E/DX2                !
 ! D3    D(43,1,2,3)          -179.8427         estimate D2E/DX2                !
 ! D4    D(43,1,2,21)           -0.2631         estimate D2E/DX2                !
 ! D5    D(2,1,6,5)              0.246          estimate D2E/DX2                !
 ! D6    D(2,1,6,45)          -179.4603         estimate D2E/DX2                !
 ! D7    D(43,1,6,5)           179.1744         estimate D2E/DX2                !
 ! D8    D(43,1,6,45)           -0.5319         estimate D2E/DX2                !
 ! D9    D(2,1,43,7)             0.3322         estimate D2E/DX2                !
 ! D10   D(2,1,43,44)          178.7305         estimate D2E/DX2                !
 ! D11   D(6,1,43,7)          -178.7351         estimate D2E/DX2                !
 ! D12   D(6,1,43,44)           -0.3369         estimate D2E/DX2                !
 ! D13   D(1,2,3,4)              0.6352         estimate D2E/DX2                !
 ! D14   D(1,2,3,8)           -179.6936         estimate D2E/DX2                !
 ! D15   D(21,2,3,4)          -178.8413         estimate D2E/DX2                !
 ! D16   D(21,2,3,8)             0.8299         estimate D2E/DX2                !
 ! D17   D(1,2,21,7)             0.085          estimate D2E/DX2                !
 ! D18   D(3,2,21,7)           179.6034         estimate D2E/DX2                !
 ! D19   D(2,3,4,5)             -0.2091         estimate D2E/DX2                !
 ! D20   D(2,3,4,9)            179.7278         estimate D2E/DX2                !
 ! D21   D(8,3,4,5)           -179.8783         estimate D2E/DX2                !
 ! D22   D(8,3,4,9)              0.0587         estimate D2E/DX2                !
 ! D23   D(3,4,5,6)             -0.2201         estimate D2E/DX2                !
 ! D24   D(3,4,5,10)           179.7964         estimate D2E/DX2                !
 ! D25   D(9,4,5,6)            179.8426         estimate D2E/DX2                !
 ! D26   D(9,4,5,10)            -0.1409         estimate D2E/DX2                !
 ! D27   D(4,5,6,1)              0.1999         estimate D2E/DX2                !
 ! D28   D(4,5,6,45)           179.9059         estimate D2E/DX2                !
 ! D29   D(10,5,6,1)          -179.8165         estimate D2E/DX2                !
 ! D30   D(10,5,6,45)           -0.1105         estimate D2E/DX2                !
 ! D31   D(1,6,45,46)          178.8429         estimate D2E/DX2                !
 ! D32   D(1,6,45,47)           -0.9351         estimate D2E/DX2                !
 ! D33   D(5,6,45,46)           -0.8446         estimate D2E/DX2                !
 ! D34   D(5,6,45,47)          179.3773         estimate D2E/DX2                !
 ! D35   D(21,7,16,11)           3.8519         estimate D2E/DX2                !
 ! D36   D(21,7,16,15)        -177.1731         estimate D2E/DX2                !
 ! D37   D(43,7,16,11)        -175.3142         estimate D2E/DX2                !
 ! D38   D(43,7,16,15)           3.6608         estimate D2E/DX2                !
 ! D39   D(16,7,21,2)         -179.1281         estimate D2E/DX2                !
 ! D40   D(43,7,21,2)            0.1317         estimate D2E/DX2                !
 ! D41   D(16,7,43,1)          178.9449         estimate D2E/DX2                !
 ! D42   D(16,7,43,44)           0.7281         estimate D2E/DX2                !
 ! D43   D(21,7,43,1)           -0.302          estimate D2E/DX2                !
 ! D44   D(21,7,43,44)        -178.5187         estimate D2E/DX2                !
 ! D45   D(16,11,12,13)          1.0352         estimate D2E/DX2                !
 ! D46   D(16,11,12,41)       -178.9068         estimate D2E/DX2                !
 ! D47   D(40,11,12,13)       -179.6269         estimate D2E/DX2                !
 ! D48   D(40,11,12,41)          0.4312         estimate D2E/DX2                !
 ! D49   D(12,11,16,7)         177.9736         estimate D2E/DX2                !
 ! D50   D(12,11,16,15)         -1.1003         estimate D2E/DX2                !
 ! D51   D(40,11,16,7)          -1.1876         estimate D2E/DX2                !
 ! D52   D(40,11,16,15)        179.7385         estimate D2E/DX2                !
 ! D53   D(12,11,40,17)         -0.4614         estimate D2E/DX2                !
 ! D54   D(12,11,40,42)       -179.4475         estimate D2E/DX2                !
 ! D55   D(16,11,40,17)        178.8065         estimate D2E/DX2                !
 ! D56   D(16,11,40,42)         -0.1796         estimate D2E/DX2                !
 ! D57   D(11,12,13,14)         -0.2269         estimate D2E/DX2                !
 ! D58   D(11,12,13,18)        179.8903         estimate D2E/DX2                !
 ! D59   D(41,12,13,14)        179.6994         estimate D2E/DX2                !
 ! D60   D(41,12,13,18)         -0.1833         estimate D2E/DX2                !
 ! D61   D(11,12,41,17)         -0.227          estimate D2E/DX2                !
 ! D62   D(13,12,41,17)        179.8401         estimate D2E/DX2                !
 ! D63   D(12,13,14,15)         -0.4281         estimate D2E/DX2                !
 ! D64   D(12,13,14,19)        179.8662         estimate D2E/DX2                !
 ! D65   D(18,13,14,15)        179.4536         estimate D2E/DX2                !
 ! D66   D(18,13,14,19)         -0.2521         estimate D2E/DX2                !
 ! D67   D(13,14,15,16)          0.3313         estimate D2E/DX2                !
 ! D68   D(13,14,15,20)       -179.8204         estimate D2E/DX2                !
 ! D69   D(19,14,15,16)       -179.9604         estimate D2E/DX2                !
 ! D70   D(19,14,15,20)         -0.1121         estimate D2E/DX2                !
 ! D71   D(14,15,16,7)        -178.5819         estimate D2E/DX2                !
 ! D72   D(14,15,16,11)          0.4258         estimate D2E/DX2                !
 ! D73   D(20,15,16,7)           1.5709         estimate D2E/DX2                !
 ! D74   D(20,15,16,11)       -179.4214         estimate D2E/DX2                !
 ! D75   D(40,17,23,22)        174.694          estimate D2E/DX2                !
 ! D76   D(40,17,23,24)         -4.4999         estimate D2E/DX2                !
 ! D77   D(41,17,23,22)         -3.87           estimate D2E/DX2                !
 ! D78   D(41,17,23,24)        176.9361         estimate D2E/DX2                !
 ! D79   D(23,17,40,11)       -178.3541         estimate D2E/DX2                !
 ! D80   D(23,17,40,42)          0.4984         estimate D2E/DX2                !
 ! D81   D(41,17,40,11)          0.3418         estimate D2E/DX2                !
 ! D82   D(41,17,40,42)        179.1944         estimate D2E/DX2                !
 ! D83   D(23,17,41,12)        178.7003         estimate D2E/DX2                !
 ! D84   D(40,17,41,12)         -0.0652         estimate D2E/DX2                !
 ! D85   D(27,22,23,17)       -177.5809         estimate D2E/DX2                !
 ! D86   D(27,22,23,24)          1.6516         estimate D2E/DX2                !
 ! D87   D(38,22,23,17)          2.2288         estimate D2E/DX2                !
 ! D88   D(38,22,23,24)       -178.5387         estimate D2E/DX2                !
 ! D89   D(23,22,27,26)         -1.0803         estimate D2E/DX2                !
 ! D90   D(23,22,27,34)        178.9726         estimate D2E/DX2                !
 ! D91   D(38,22,27,26)        179.1037         estimate D2E/DX2                !
 ! D92   D(38,22,27,34)         -0.8435         estimate D2E/DX2                !
 ! D93   D(23,22,38,39)          0.0361         estimate D2E/DX2                !
 ! D94   D(27,22,38,39)        179.8505         estimate D2E/DX2                !
 ! D95   D(17,23,24,25)        178.3449         estimate D2E/DX2                !
 ! D96   D(17,23,24,28)         -1.8502         estimate D2E/DX2                !
 ! D97   D(22,23,24,25)         -0.8395         estimate D2E/DX2                !
 ! D98   D(22,23,24,28)        178.9654         estimate D2E/DX2                !
 ! D99   D(23,24,25,26)         -0.4871         estimate D2E/DX2                !
 ! D100  D(23,24,25,30)       -179.9377         estimate D2E/DX2                !
 ! D101  D(28,24,25,26)        179.7067         estimate D2E/DX2                !
 ! D102  D(28,24,25,30)          0.2561         estimate D2E/DX2                !
 ! D103  D(24,25,26,27)          1.0935         estimate D2E/DX2                !
 ! D104  D(24,25,26,29)       -179.1673         estimate D2E/DX2                !
 ! D105  D(30,25,26,27)       -179.4441         estimate D2E/DX2                !
 ! D106  D(30,25,26,29)          0.2951         estimate D2E/DX2                !
 ! D107  D(24,25,30,31)         -5.4373         estimate D2E/DX2                !
 ! D108  D(24,25,30,32)        115.4513         estimate D2E/DX2                !
 ! D109  D(24,25,30,33)       -127.3691         estimate D2E/DX2                !
 ! D110  D(26,25,30,31)        175.1107         estimate D2E/DX2                !
 ! D111  D(26,25,30,32)        -64.0007         estimate D2E/DX2                !
 ! D112  D(26,25,30,33)         53.179          estimate D2E/DX2                !
 ! D113  D(25,26,27,22)         -0.2852         estimate D2E/DX2                !
 ! D114  D(25,26,27,34)        179.6594         estimate D2E/DX2                !
 ! D115  D(29,26,27,22)        179.9777         estimate D2E/DX2                !
 ! D116  D(29,26,27,34)         -0.0777         estimate D2E/DX2                !
 ! D117  D(22,27,34,35)        -53.754          estimate D2E/DX2                !
 ! D118  D(22,27,34,36)         64.7663         estimate D2E/DX2                !
 ! D119  D(22,27,34,37)       -174.8322         estimate D2E/DX2                !
 ! D120  D(26,27,34,35)        126.3021         estimate D2E/DX2                !
 ! D121  D(26,27,34,36)       -115.1776         estimate D2E/DX2                !
 ! D122  D(26,27,34,37)          5.2238         estimate D2E/DX2                !
 ! D123  D(6,45,47,48)         179.2827         estimate D2E/DX2                !
 ! D124  D(46,45,47,48)         -0.4796         estimate D2E/DX2                !
 ! D125  D(45,47,48,49)        -63.4785         estimate D2E/DX2                !
 ! D126  D(45,47,48,50)         61.6048         estimate D2E/DX2                !
 ! D127  D(45,47,48,51)        179.1304         estimate D2E/DX2                !
 ! D128  D(47,48,49,52)       -178.7201         estimate D2E/DX2                !
 ! D129  D(47,48,49,53)         60.7552         estimate D2E/DX2                !
 ! D130  D(47,48,49,54)        -55.7151         estimate D2E/DX2                !
 ! D131  D(50,48,49,52)         55.2244         estimate D2E/DX2                !
 ! D132  D(50,48,49,53)        -65.3003         estimate D2E/DX2                !
 ! D133  D(50,48,49,54)        178.2295         estimate D2E/DX2                !
 ! D134  D(51,48,49,52)        -62.2661         estimate D2E/DX2                !
 ! D135  D(51,48,49,53)        177.2091         estimate D2E/DX2                !
 ! D136  D(51,48,49,54)         60.7389         estimate D2E/DX2                !
 ! D137  D(47,48,50,55)        179.1093         estimate D2E/DX2                !
 ! D138  D(47,48,50,56)        -60.4026         estimate D2E/DX2                !
 ! D139  D(47,48,50,57)         56.3279         estimate D2E/DX2                !
 ! D140  D(49,48,50,55)        -55.2668         estimate D2E/DX2                !
 ! D141  D(49,48,50,56)         65.2213         estimate D2E/DX2                !
 ! D142  D(49,48,50,57)       -178.0482         estimate D2E/DX2                !
 ! D143  D(51,48,50,55)         62.3667         estimate D2E/DX2                !
 ! D144  D(51,48,50,56)       -177.1452         estimate D2E/DX2                !
 ! D145  D(51,48,50,57)        -60.4147         estimate D2E/DX2                !
 ! D146  D(48,49,52,58)        -55.5555         estimate D2E/DX2                !
 ! D147  D(48,49,52,59)       -178.2199         estimate D2E/DX2                !
 ! D148  D(48,49,52,60)         64.9816         estimate D2E/DX2                !
 ! D149  D(53,49,52,58)         64.3325         estimate D2E/DX2                !
 ! D150  D(53,49,52,59)        -58.3319         estimate D2E/DX2                !
 ! D151  D(53,49,52,60)       -175.1304         estimate D2E/DX2                !
 ! D152  D(54,49,52,58)       -177.755          estimate D2E/DX2                !
 ! D153  D(54,49,52,59)         59.5807         estimate D2E/DX2                !
 ! D154  D(54,49,52,60)        -57.2179         estimate D2E/DX2                !
 ! D155  D(48,50,55,58)         55.7459         estimate D2E/DX2                !
 ! D156  D(48,50,55,61)        178.4678         estimate D2E/DX2                !
 ! D157  D(48,50,55,62)        -64.8661         estimate D2E/DX2                !
 ! D158  D(56,50,55,58)        -64.4151         estimate D2E/DX2                !
 ! D159  D(56,50,55,61)         58.3068         estimate D2E/DX2                !
 ! D160  D(56,50,55,62)        174.9729         estimate D2E/DX2                !
 ! D161  D(57,50,55,58)        177.7524         estimate D2E/DX2                !
 ! D162  D(57,50,55,61)        -59.5258         estimate D2E/DX2                !
 ! D163  D(57,50,55,62)         57.1403         estimate D2E/DX2                !
 ! D164  D(49,52,58,55)         55.3167         estimate D2E/DX2                !
 ! D165  D(49,52,58,63)        177.8222         estimate D2E/DX2                !
 ! D166  D(49,52,58,64)        -65.0248         estimate D2E/DX2                !
 ! D167  D(59,52,58,55)        177.5057         estimate D2E/DX2                !
 ! D168  D(59,52,58,63)        -59.9887         estimate D2E/DX2                !
 ! D169  D(59,52,58,64)         57.1643         estimate D2E/DX2                !
 ! D170  D(60,52,58,55)        -65.3484         estimate D2E/DX2                !
 ! D171  D(60,52,58,63)         57.1571         estimate D2E/DX2                !
 ! D172  D(60,52,58,64)        174.3101         estimate D2E/DX2                !
 ! D173  D(50,55,58,52)        -55.4652         estimate D2E/DX2                !
 ! D174  D(50,55,58,63)       -177.9588         estimate D2E/DX2                !
 ! D175  D(50,55,58,64)         64.8466         estimate D2E/DX2                !
 ! D176  D(61,55,58,52)       -177.6681         estimate D2E/DX2                !
 ! D177  D(61,55,58,63)         59.8383         estimate D2E/DX2                !
 ! D178  D(61,55,58,64)        -57.3563         estimate D2E/DX2                !
 ! D179  D(62,55,58,52)         65.2149         estimate D2E/DX2                !
 ! D180  D(62,55,58,63)        -57.2787         estimate D2E/DX2                !
 ! D181  D(62,55,58,64)       -174.4733         estimate D2E/DX2                !
 --------------------------------------------------------------------------------
 Trust Radius=3.00D-01 FncErr=1.00D-07 GrdErr=1.00D-07 EigMax=2.50D+02 EigMin=1.00D-04
 Number of steps in this run=    381 maximum allowed number of steps=    384.
 GradGradGradGradGradGradGradGradGradGradGradGradGradGradGradGradGradGrad

 Leave Link  103 at Fri Dec 14 13:57:27 2018, MaxMem=  1342177280 cpu:               0.5 elap:               0.0
 (Enter /gpfs/apps/hpc/Apps/Restricted/Gaussian/Rev_A.03/g16/l202.exe)
 Symmetry turned off by external request.
 Stoichiometry    C29H29N5O(1+,2)
 Framework group  C1[X(C29H29N5O)]
 Deg. of freedom   186
 Full point group                 C1      NOp   1
                          Input orientation:                          
 ---------------------------------------------------------------------
 Center     Atomic      Atomic             Coordinates (Angstroms)
 Number     Number       Type             X           Y           Z
 ---------------------------------------------------------------------
      1          6           0        1.614321    1.143080    0.187172
      2          6           0        0.399100    1.864767    0.180990
      3          6           0        0.419406    3.263061    0.089613
      4          6           0        1.658941    3.890085   -0.006188
      5          6           0        2.858327    3.156022   -0.007751
      6          6           0        2.871540    1.759866    0.091161
      7          6           0       -0.111646   -0.232753    0.320809
      8          1           0       -0.502251    3.832046    0.088510
      9          1           0        1.705524    4.969749   -0.082615
     10          1           0        3.803730    3.681641   -0.087410
     11          6           0       -2.293136   -1.382652    0.331783
     12          6           0       -3.133318   -2.529411    0.356695
     13          6           0       -2.571020   -3.810715    0.472692
     14          6           0       -1.189252   -3.889535    0.554046
     15          6           0       -0.361709   -2.743137    0.514611
     16          6           0       -0.889558   -1.457826    0.397701
     17          6           0       -4.406672   -0.773444    0.171208
     18          1           0       -3.195938   -4.693695    0.494948
     19          1           0       -0.718761   -4.860494    0.646606
     20          1           0        0.711945   -2.874137    0.579984
     21          7           0       -0.662663    0.979117    0.264324
     22          6           0       -6.861243   -0.705395   -0.125738
     23          6           0       -5.602023    0.008668    0.022727
     24          6           0       -5.611558    1.399157   -0.002045
     25          6           0       -6.805802    2.103103   -0.183994
     26          6           0       -8.026181    1.382297   -0.356352
     27          6           0       -8.087549    0.012462   -0.330189
     28          1           0       -4.686560    1.948571    0.123679
     29          1           0       -8.938426    1.947673   -0.509628
     30          6           0       -6.830532    3.595398   -0.214044
     31          1           0       -5.855120    4.023820    0.013422
     32          1           0       -7.144337    3.943802   -1.204408
     33          1           0       -7.567341    3.980467    0.497687
     34          6           0       -9.359372   -0.757856   -0.501789
     35          1           0       -9.261034   -1.497101   -1.300634
     36          1           0       -9.604751   -1.306001    0.412749
     37          1           0      -10.182950   -0.084894   -0.737205
     38          8           0       -6.913703   -2.006014   -0.081819
     39          1           0       -5.946829   -2.370343    0.068789
     40          7           0       -3.123659   -0.303556    0.221701
     41          7           0       -4.435614   -2.113739    0.251966
     42          1           0       -2.756970    0.645213    0.175127
     43          7           0        1.258790   -0.179301    0.281194
     44          1           0        1.946920   -0.923721    0.286611
     45          6           0        4.112597    0.992581    0.088058
     46          1           0        5.031308    1.580953   -0.011296
     47          7           0        4.119209   -0.285696    0.190749
     48          6           0        5.432825   -0.953266    0.159300
     49          6           0        6.142571   -0.746281   -1.189225
     50          6           0        6.340181   -0.518341    1.322782
     51          1           0        5.236183   -2.025256    0.274597
     52          6           0        7.493610   -1.467850   -1.229468
     53          1           0        6.298515    0.329297   -1.336157
     54          1           0        5.492684   -1.090878   -1.999614
     55          6           0        7.689927   -1.243017    1.278726
     56          1           0        6.507067    0.562796    1.254154
     57          1           0        5.829627   -0.706409    2.272348
     58          6           0        8.393469   -1.035137   -0.066939
     59          1           0        7.986104   -1.275051   -2.187927
     60          1           0        7.327462   -2.550702   -1.169649
     61          1           0        8.322327   -0.893537    2.100982
     62          1           0        7.528811   -2.316902    1.437720
     63          1           0        9.336864   -1.589244   -0.091362
     64          1           0        8.643792    0.027088   -0.182327
 ---------------------------------------------------------------------
 Rotational constants (GHZ):           0.2628640           0.0417816           0.0366954
 Leave Link  202 at Fri Dec 14 13:57:27 2018, MaxMem=  1342177280 cpu:               0.8 elap:               0.1
 (Enter /gpfs/apps/hpc/Apps/Restricted/Gaussian/Rev_A.03/g16/l716.exe)
 Electric field and nuclear coordinate derivatives read from checkpoint file.
 Dipole        =-7.07008459D+00 5.75774076D-01-1.30598937D-01
 Polarizability= 1.10010154D+03-1.84848621D+02 7.74654352D+02
                 5.73813661D+01-4.77511539D+01 2.19594889D+02
 Full mass-weighted force constant matrix:
 Low frequencies ---  -11.3785   -0.0028    0.0010    0.0027    3.4796    7.0725
 Low frequencies ---   15.6620   31.3818   36.8913
 Diagonal vibrational polarizability:
      413.1797250      90.0486424     253.4023322
 Harmonic frequencies (cm**-1), IR intensities (KM/Mole), Raman scattering
 activities (A**4/AMU), depolarization ratios for plane and unpolarized
 incident light, reduced masses (AMU), force constants (mDyne/A),
 and normal coordinates:
                      1                      2                      3
                      A                      A                      A
 Frequencies --      9.3569                30.6860                34.9242
 Red. masses --      5.5611                 4.9422                 4.6700
 Frc consts  --      0.0003                 0.0027                 0.0034
 IR Inten    --      0.5842                 0.6657                 0.5284
  Atom  AN      X      Y      Z        X      Y      Z        X      Y      Z
     1   6     0.00  -0.01  -0.08    -0.03  -0.06  -0.04     0.02   0.04  -0.05
     2   6     0.00  -0.01  -0.11    -0.04  -0.07  -0.02     0.02   0.05  -0.04
     3   6     0.00  -0.01  -0.11    -0.06  -0.07  -0.05     0.04   0.05  -0.07
     4   6     0.00  -0.00  -0.07    -0.07  -0.06  -0.10     0.05   0.03  -0.11
     5   6     0.00  -0.00  -0.02    -0.06  -0.05  -0.12     0.04   0.02  -0.11
     6   6     0.00  -0.00  -0.03    -0.04  -0.04  -0.08     0.03   0.02  -0.08
     7   6     0.00  -0.01  -0.12    -0.02  -0.07   0.02     0.01   0.06  -0.00
     8   1    -0.00  -0.01  -0.13    -0.07  -0.08  -0.04     0.05   0.06  -0.06
     9   1     0.00  -0.00  -0.06    -0.08  -0.06  -0.13     0.06   0.03  -0.13
    10   1     0.01   0.00   0.02    -0.07  -0.04  -0.15     0.04   0.01  -0.13
    11   6     0.00  -0.01  -0.11    -0.02  -0.06   0.04     0.02   0.05   0.02
    12   6     0.00  -0.01  -0.10    -0.04  -0.04   0.03     0.03   0.04   0.01
    13   6     0.00  -0.01  -0.11    -0.05  -0.05   0.01     0.04   0.04  -0.02
    14   6     0.00  -0.01  -0.13    -0.05  -0.07   0.00     0.04   0.05  -0.03
    15   6     0.00  -0.01  -0.13    -0.03  -0.08   0.02     0.03   0.06  -0.02
    16   6     0.00  -0.01  -0.13    -0.02  -0.07   0.03     0.02   0.06   0.00
    17   6    -0.00  -0.00  -0.05    -0.01  -0.02   0.04     0.01   0.03   0.04
    18   1     0.00  -0.01  -0.10    -0.06  -0.05  -0.00     0.05   0.03  -0.03
    19   1     0.00  -0.01  -0.13    -0.06  -0.08  -0.01     0.05   0.05  -0.05
    20   1     0.00  -0.01  -0.14    -0.03  -0.09   0.00     0.03   0.07  -0.04
    21   7     0.00  -0.01  -0.14    -0.03  -0.08   0.02     0.02   0.06  -0.01
    22   6    -0.02   0.01   0.09     0.00   0.04  -0.03     0.01  -0.03  -0.03
    23   6    -0.00   0.00   0.01     0.01   0.01   0.04    -0.01   0.00   0.05
    24   6     0.00   0.00  -0.01     0.05   0.01   0.09    -0.06   0.00   0.12
    25   6    -0.00   0.01   0.05     0.07   0.04   0.08    -0.08  -0.03   0.13
    26   6    -0.02   0.01   0.13     0.06   0.08   0.02    -0.05  -0.06   0.04
    27   6    -0.02   0.01   0.15     0.03   0.08  -0.04    -0.00  -0.06  -0.04
    28   1     0.01  -0.00  -0.07     0.06  -0.02   0.13    -0.08   0.03   0.18
    29   1    -0.02   0.02   0.18     0.08   0.11   0.01    -0.06  -0.08   0.04
    30   6     0.01   0.01   0.03     0.11   0.05   0.14    -0.13  -0.03   0.22
    31   1     0.02   0.00  -0.00     0.12   0.01   0.16    -0.14  -0.01   0.25
    32   1    -0.02  -0.01   0.03     0.12   0.10   0.16    -0.13   0.02   0.24
    33   1     0.03   0.02   0.04     0.12   0.04   0.16    -0.14  -0.09   0.24
    34   6    -0.04   0.02   0.25     0.01   0.12  -0.12     0.03  -0.09  -0.15
    35   1    -0.08  -0.03   0.30     0.01   0.18  -0.18     0.08  -0.02  -0.21
    36   1    -0.01   0.08   0.30    -0.01   0.05  -0.17     0.02  -0.17  -0.20
    37   1    -0.04   0.01   0.25     0.03   0.16  -0.08     0.01  -0.10  -0.11
    38   8    -0.02   0.01   0.11    -0.03   0.04  -0.09     0.05  -0.03  -0.11
    39   1    -0.01   0.00   0.05    -0.05   0.01  -0.06     0.06  -0.01  -0.07
    40   7     0.00  -0.01  -0.09    -0.00  -0.04   0.06     0.00   0.04   0.05
    41   7    -0.00  -0.01  -0.06    -0.03  -0.02   0.03     0.03   0.02   0.02
    42   1     0.01  -0.01  -0.09     0.02  -0.05   0.06    -0.01   0.04   0.05
    43   7     0.00  -0.01  -0.09    -0.02  -0.06  -0.00     0.01   0.05  -0.02
    44   1     0.01  -0.00  -0.07    -0.02  -0.06  -0.00     0.01   0.05  -0.03
    45   6     0.01   0.00   0.03    -0.02  -0.01  -0.08     0.01   0.00  -0.06
    46   1     0.01   0.01   0.08    -0.04   0.01  -0.09     0.03  -0.02  -0.06
    47   7     0.00   0.00   0.02     0.01  -0.01  -0.06    -0.02   0.00  -0.03
    48   6     0.01   0.00   0.07     0.04   0.03  -0.03    -0.03  -0.03   0.00
    49   6     0.05  -0.00   0.09     0.08   0.07  -0.00     0.01  -0.06   0.02
    50   6    -0.03   0.01   0.09    -0.02   0.06   0.01    -0.06  -0.04   0.02
    51   1     0.00   0.00   0.07     0.07   0.03  -0.05    -0.06  -0.03   0.01
    52   6     0.05   0.01   0.13     0.11   0.11   0.05    -0.01  -0.09   0.07
    53   1     0.05  -0.00   0.09     0.06   0.08   0.01     0.03  -0.07   0.01
    54   1     0.08  -0.01   0.07     0.13   0.06  -0.03     0.02  -0.06   0.01
    55   6    -0.03   0.02   0.14     0.00   0.10   0.06    -0.07  -0.07   0.07
    56   1    -0.03   0.01   0.09    -0.06   0.06   0.02    -0.03  -0.04   0.01
    57   1    -0.06   0.02   0.08    -0.05   0.03  -0.02    -0.09  -0.02   0.01
    58   6     0.01   0.01   0.16     0.05   0.13   0.09    -0.03  -0.10   0.09
    59   1     0.08   0.00   0.15     0.14   0.13   0.07     0.02  -0.12   0.08
    60   1     0.06   0.00   0.13     0.14   0.11   0.03    -0.03  -0.09   0.08
    61   1    -0.05   0.03   0.16    -0.04   0.12   0.08    -0.09  -0.07   0.09
    62   1    -0.03   0.02   0.14     0.03   0.09   0.05    -0.10  -0.06   0.08
    63   1     0.02   0.02   0.19     0.07   0.16   0.12    -0.04  -0.11   0.12
    64   1     0.01   0.02   0.16     0.02   0.14   0.10    -0.01  -0.10   0.08
                      4                      5                      6
                      A                      A                      A
 Frequencies --     44.9761                51.2196                58.6594
 Red. masses --      4.6053                 5.2400                 5.4507
 Frc consts  --      0.0055                 0.0081                 0.0111
 IR Inten    --      2.7305                 7.9124                 0.0740
  Atom  AN      X      Y      Z        X      Y      Z        X      Y      Z
     1   6    -0.02   0.02   0.05     0.03  -0.06   0.04     0.00   0.01   0.08
     2   6    -0.03   0.00  -0.05     0.05  -0.03  -0.03     0.01   0.02   0.12
     3   6    -0.05  -0.01  -0.15     0.07  -0.03  -0.09     0.01   0.01   0.05
     4   6    -0.05   0.01  -0.14     0.08  -0.06  -0.07     0.00  -0.00  -0.09
     5   6    -0.04   0.03  -0.03     0.07  -0.08  -0.00    -0.00  -0.01  -0.14
     6   6    -0.02   0.04   0.07     0.05  -0.08   0.05    -0.00  -0.00  -0.06
     7   6     0.00  -0.00   0.02    -0.01  -0.01   0.02    -0.00   0.02   0.18
     8   1    -0.06  -0.02  -0.23     0.08  -0.02  -0.14     0.01   0.02   0.08
     9   1    -0.07   0.00  -0.22     0.11  -0.06  -0.12     0.01  -0.01  -0.16
    10   1    -0.05   0.04  -0.03     0.08  -0.10   0.00    -0.00  -0.02  -0.26
    11   6     0.02  -0.03  -0.02    -0.04   0.03  -0.02     0.01   0.01   0.01
    12   6     0.02  -0.03  -0.05    -0.05   0.04  -0.03     0.02  -0.00  -0.10
    13   6     0.03  -0.03  -0.04    -0.07   0.03  -0.00     0.02   0.00  -0.10
    14   6     0.03  -0.02   0.01    -0.08   0.01   0.04     0.01   0.01   0.03
    15   6     0.03  -0.01   0.04    -0.07   0.00   0.05     0.00   0.02   0.14
    16   6     0.02  -0.01   0.02    -0.04   0.01   0.02    -0.00   0.02   0.13
    17   6     0.03  -0.03  -0.05    -0.04   0.05  -0.05     0.01  -0.01  -0.12
    18   1     0.04  -0.03  -0.06    -0.09   0.05  -0.01     0.03  -0.01  -0.19
    19   1     0.03  -0.01   0.02    -0.10   0.01   0.07     0.01   0.02   0.04
    20   1     0.02  -0.00   0.07    -0.07  -0.01   0.09    -0.00   0.03   0.23
    21   7    -0.02  -0.01  -0.06     0.02  -0.00  -0.04     0.00   0.03   0.19
    22   6     0.03   0.00  -0.04    -0.05   0.00  -0.03    -0.00  -0.01  -0.06
    23   6     0.03  -0.02  -0.03    -0.06   0.03  -0.03     0.01  -0.01  -0.10
    24   6     0.06  -0.02   0.02    -0.10   0.03  -0.00     0.01  -0.01  -0.08
    25   6     0.07   0.01   0.06    -0.13   0.01   0.03     0.00  -0.01  -0.01
    26   6     0.05   0.03   0.05    -0.11  -0.02   0.03    -0.01  -0.00   0.07
    27   6     0.03   0.03   0.01    -0.07  -0.02  -0.00    -0.02  -0.00   0.07
    28   1     0.07  -0.04   0.02    -0.12   0.06   0.00     0.01  -0.02  -0.11
    29   1     0.06   0.05   0.09    -0.13  -0.04   0.06    -0.03   0.00   0.16
    30   6     0.09   0.01   0.11    -0.17   0.01   0.07     0.00  -0.01  -0.02
    31   1     0.10  -0.02   0.10    -0.18   0.03   0.08     0.01  -0.01  -0.04
    32   1     0.07   0.05   0.13    -0.19   0.02   0.09    -0.01  -0.01  -0.01
    33   1     0.11  -0.01   0.14    -0.18  -0.04   0.09     0.02  -0.00  -0.01
    34   6     0.02   0.05   0.01    -0.05  -0.05   0.01    -0.04   0.00   0.21
    35   1    -0.01   0.07  -0.01    -0.04  -0.05   0.01    -0.11  -0.07   0.27
    36   1     0.02   0.04   0.00    -0.03  -0.06   0.01     0.02   0.09   0.28
    37   1     0.03   0.07   0.04    -0.07  -0.07   0.01    -0.05  -0.00   0.21
    38   8     0.01   0.00  -0.09    -0.02   0.01  -0.06     0.01  -0.01  -0.12
    39   1     0.00  -0.02  -0.10    -0.00   0.03  -0.05     0.01  -0.01  -0.17
    40   7     0.02  -0.03  -0.03    -0.04   0.04  -0.04     0.00   0.00  -0.02
    41   7     0.02  -0.03  -0.07    -0.05   0.05  -0.04     0.02  -0.01  -0.18
    42   1     0.03  -0.03  -0.02    -0.03   0.04  -0.04    -0.02   0.01   0.05
    43   7     0.00   0.02   0.10    -0.00  -0.05   0.06    -0.00   0.02   0.14
    44   1     0.02   0.04   0.14    -0.03  -0.07   0.10    -0.01   0.01   0.11
    45   6    -0.02   0.04   0.13     0.05  -0.06   0.08    -0.01  -0.01  -0.11
    46   1    -0.02   0.03   0.11     0.04  -0.04   0.08    -0.01  -0.02  -0.19
    47   7    -0.03   0.04   0.16     0.09  -0.06   0.09    -0.01  -0.01  -0.06
    48   6    -0.04   0.02   0.12     0.12  -0.01   0.05    -0.01  -0.01  -0.06
    49   6    -0.15  -0.04   0.05     0.06   0.01   0.02     0.04   0.01  -0.03
    50   6     0.06   0.06   0.03     0.15   0.02   0.02    -0.05  -0.03  -0.02
    51   1    -0.05   0.03   0.18     0.16  -0.02   0.06    -0.01  -0.01  -0.09
    52   6    -0.16  -0.07  -0.03     0.08   0.06  -0.04     0.04   0.00   0.02
    53   1    -0.14  -0.05   0.00     0.02   0.02   0.02     0.05   0.01  -0.02
    54   1    -0.23  -0.06   0.12     0.04  -0.01   0.05     0.08   0.01  -0.06
    55   6     0.04   0.02  -0.06     0.18   0.07  -0.05    -0.05  -0.03   0.03
    56   1     0.08   0.05  -0.02     0.11   0.03   0.01    -0.06  -0.03  -0.01
    57   1     0.13   0.10   0.08     0.20  -0.00   0.04    -0.09  -0.04  -0.05
    58   6    -0.06  -0.04  -0.12     0.12   0.09  -0.08    -0.00  -0.01   0.06
    59   1    -0.24  -0.11  -0.08     0.03   0.08  -0.06     0.08   0.01   0.04
    60   1    -0.18  -0.06   0.02     0.13   0.05  -0.03     0.04   0.00  -0.00
    61   1     0.12   0.04  -0.12     0.20   0.09  -0.07    -0.09  -0.03   0.05
    62   1     0.03   0.03  -0.01     0.22   0.06  -0.04    -0.06  -0.03   0.01
    63   1    -0.08  -0.05  -0.17     0.13   0.13  -0.11    -0.00  -0.01   0.08
    64   1    -0.06  -0.05  -0.18     0.07   0.10  -0.09     0.01  -0.01   0.08
                      7                      8                      9
                      A                      A                      A
 Frequencies --     74.1997                82.9352               106.8300
 Red. masses --      3.3801                 4.4374                 4.7987
 Frc consts  --      0.0110                 0.0180                 0.0323
 IR Inten    --      1.6833                 0.8413                 0.2937
  Atom  AN      X      Y      Z        X      Y      Z        X      Y      Z
     1   6     0.00  -0.01  -0.01     0.00   0.00   0.07     0.00   0.01   0.03
     2   6     0.00  -0.01   0.07    -0.00  -0.00   0.02     0.01   0.02   0.03
     3   6     0.00  -0.01   0.10    -0.00  -0.01  -0.10     0.02   0.02   0.02
     4   6    -0.00  -0.01   0.03    -0.01  -0.02  -0.17     0.03   0.01   0.00
     5   6    -0.01  -0.01  -0.05    -0.00  -0.01  -0.09     0.02  -0.01  -0.02
     6   6    -0.00  -0.01  -0.06    -0.00  -0.00   0.03     0.01  -0.00  -0.00
     7   6     0.00  -0.01   0.04     0.00   0.00   0.09    -0.01   0.02   0.03
     8   1     0.00  -0.01   0.16    -0.01  -0.01  -0.15     0.03   0.03   0.02
     9   1    -0.01  -0.01   0.04    -0.01  -0.02  -0.27     0.03   0.00  -0.01
    10   1    -0.01  -0.01  -0.10    -0.01  -0.02  -0.15     0.02  -0.02  -0.04
    11   6    -0.00   0.00   0.02     0.00   0.01   0.04    -0.00  -0.00  -0.10
    12   6    -0.01   0.00  -0.04     0.00   0.01  -0.04     0.01  -0.02  -0.09
    13   6    -0.01  -0.01  -0.11    -0.00  -0.00  -0.16     0.02  -0.00  -0.01
    14   6    -0.01  -0.02  -0.13     0.00  -0.02  -0.19     0.02   0.02   0.08
    15   6    -0.01  -0.02  -0.07     0.00  -0.01  -0.08     0.00   0.03   0.09
    16   6    -0.00  -0.01   0.00     0.00  -0.00   0.03    -0.01   0.02  -0.00
    17   6    -0.01   0.01   0.04     0.00   0.02   0.09    -0.01  -0.03  -0.13
    18   1    -0.02  -0.00  -0.16    -0.00  -0.00  -0.24     0.03  -0.01  -0.01
    19   1    -0.02  -0.02  -0.20    -0.00  -0.03  -0.29     0.03   0.03   0.16
    20   1    -0.01  -0.02  -0.09     0.00  -0.02  -0.08    -0.00   0.05   0.17
    21   7     0.01  -0.01   0.10     0.00  -0.00   0.05    -0.00   0.03   0.02
    22   6    -0.00   0.01   0.03     0.01   0.01   0.09    -0.03  -0.01   0.09
    23   6    -0.01   0.01   0.04    -0.00   0.02   0.08    -0.01  -0.03  -0.05
    24   6    -0.01   0.01   0.02    -0.01   0.02   0.03     0.02  -0.03  -0.05
    25   6    -0.01   0.01  -0.01    -0.01   0.00  -0.04     0.02  -0.01   0.02
    26   6    -0.01  -0.00  -0.02     0.00  -0.01  -0.07     0.02   0.00  -0.03
    27   6    -0.00   0.00  -0.00     0.01  -0.01  -0.01    -0.00   0.00  -0.03
    28   1    -0.02   0.02   0.03    -0.02   0.03   0.04     0.03  -0.04  -0.09
    29   1    -0.01  -0.01  -0.05     0.01  -0.03  -0.15     0.03   0.01  -0.09
    30   6    -0.02   0.00  -0.05    -0.02   0.00  -0.12     0.02  -0.01   0.15
    31   1    -0.03   0.01  -0.03    -0.04   0.02  -0.09     0.08  -0.04  -0.01
    32   1     0.01  -0.02  -0.07     0.04  -0.06  -0.16    -0.19   0.10   0.26
    33   1    -0.04   0.02  -0.09    -0.07   0.04  -0.19     0.19  -0.07   0.36
    34   6     0.00  -0.01  -0.02     0.03  -0.03  -0.07     0.00   0.02  -0.19
    35   1     0.02  -0.01  -0.02     0.09  -0.02  -0.07     0.05   0.14  -0.29
    36   1    -0.01  -0.01  -0.02    -0.00  -0.05  -0.09    -0.05  -0.11  -0.28
    37   1     0.00  -0.01  -0.04     0.03  -0.05  -0.11     0.02   0.06  -0.14
    38   8    -0.00   0.01   0.04     0.01   0.01   0.17    -0.08   0.00   0.33
    39   1     0.01   0.01   0.03     0.03   0.02   0.13    -0.07  -0.01   0.23
    40   7    -0.00   0.01   0.06     0.01   0.02   0.12    -0.01  -0.02  -0.14
    41   7    -0.01   0.01  -0.01     0.00   0.02   0.01     0.00  -0.03  -0.12
    42   1    -0.00   0.01   0.10     0.01   0.02   0.14    -0.04  -0.01  -0.12
    43   7     0.00  -0.01  -0.02     0.00   0.01   0.12    -0.01   0.01   0.04
    44   1    -0.00  -0.02  -0.05     0.01   0.01   0.12    -0.02   0.01   0.03
    45   6     0.00  -0.00  -0.08    -0.00  -0.00   0.05    -0.00  -0.02  -0.03
    46   1    -0.01  -0.00  -0.15    -0.00  -0.01   0.04    -0.00  -0.02  -0.05
    47   7     0.02   0.00   0.02    -0.00  -0.01   0.05    -0.01  -0.02  -0.02
    48   6     0.02   0.01   0.06    -0.01  -0.01   0.01    -0.00  -0.01  -0.02
    49   6    -0.03  -0.15   0.01    -0.01   0.09   0.02     0.00  -0.03  -0.02
    50   6     0.06   0.17  -0.03    -0.01  -0.10   0.04    -0.01   0.01  -0.02
    51   1     0.03   0.03   0.19    -0.01  -0.02  -0.08     0.00  -0.01  -0.00
    52   6    -0.03  -0.15   0.06    -0.00   0.10  -0.04     0.01  -0.01   0.01
    53   1    -0.03  -0.16  -0.12    -0.00   0.10   0.10    -0.01  -0.03  -0.03
    54   1    -0.05  -0.25   0.07    -0.01   0.16  -0.00     0.02  -0.05  -0.01
    55   6     0.06   0.16   0.02    -0.01  -0.09  -0.02    -0.01   0.03   0.01
    56   1     0.06   0.16  -0.17    -0.02  -0.10   0.13    -0.03   0.01  -0.03
    57   1     0.09   0.29   0.01    -0.01  -0.18   0.03    -0.02   0.02  -0.02
    58   6     0.01   0.00  -0.03    -0.01   0.01  -0.01     0.00   0.02   0.01
    59   1    -0.06  -0.28   0.02    -0.01   0.18  -0.03     0.02  -0.03   0.01
    60   1    -0.02  -0.14   0.21     0.00   0.10  -0.13     0.03  -0.02   0.03
    61   1     0.08   0.26  -0.04    -0.00  -0.16   0.00    -0.02   0.05   0.01
    62   1     0.06   0.18   0.15    -0.00  -0.11  -0.10     0.01   0.03   0.02
    63   1     0.02   0.01   0.01    -0.01   0.01  -0.05     0.01   0.04   0.02
    64   1    -0.00  -0.01  -0.17    -0.00   0.02   0.08    -0.02   0.02  -0.01
                     10                     11                     12
                      A                      A                      A
 Frequencies --    107.6093               112.8282               136.8776
 Red. masses --      4.0693                 4.2618                 1.2426
 Frc consts  --      0.0278                 0.0320                 0.0137
 IR Inten    --      0.9761                 2.7890                 0.6108
  Atom  AN      X      Y      Z        X      Y      Z        X      Y      Z
     1   6     0.00   0.02  -0.01     0.01  -0.03   0.00     0.00  -0.00   0.01
     2   6     0.03   0.06  -0.01     0.00  -0.05  -0.00    -0.00  -0.00  -0.01
     3   6     0.10   0.06  -0.01    -0.01  -0.04   0.01    -0.00  -0.00  -0.01
     4   6     0.13   0.00  -0.01    -0.01  -0.03   0.02    -0.00   0.00   0.01
     5   6     0.10  -0.04   0.00    -0.01  -0.02   0.01    -0.00   0.00   0.02
     6   6     0.03  -0.04   0.00    -0.00  -0.02   0.00     0.00   0.00   0.01
     7   6    -0.04   0.07  -0.01     0.04  -0.05  -0.00     0.00  -0.00  -0.00
     8   1     0.12   0.11  -0.01    -0.01  -0.05   0.01    -0.00  -0.00  -0.03
     9   1     0.17   0.00  -0.01    -0.02  -0.03   0.03    -0.00   0.00   0.01
    10   1     0.12  -0.09   0.01    -0.01  -0.02   0.02    -0.00   0.00   0.03
    11   6    -0.02   0.01   0.02     0.05  -0.00  -0.02     0.00  -0.00  -0.03
    12   6     0.01  -0.02   0.01     0.02   0.03  -0.01     0.00  -0.00  -0.03
    13   6     0.06   0.00  -0.01    -0.03   0.01   0.01     0.00  -0.00  -0.01
    14   6     0.06   0.05  -0.04    -0.03  -0.03   0.03    -0.00   0.00   0.03
    15   6     0.02   0.08  -0.03     0.01  -0.06   0.02    -0.00   0.00   0.04
    16   6    -0.02   0.06  -0.00     0.04  -0.05   0.00     0.00  -0.00   0.00
    17   6    -0.04  -0.06   0.04     0.08   0.09  -0.03     0.00  -0.00  -0.02
    18   1     0.09  -0.02  -0.02    -0.06   0.03   0.02     0.00  -0.00  -0.01
    19   1     0.10   0.07  -0.06    -0.07  -0.05   0.04    -0.00   0.00   0.07
    20   1     0.03   0.11  -0.05     0.01  -0.09   0.03    -0.00   0.00   0.07
    21   7    -0.01   0.09  -0.00     0.02  -0.06  -0.00    -0.00  -0.00  -0.02
    22   6    -0.04  -0.03  -0.01     0.09   0.04  -0.00    -0.00   0.00   0.02
    23   6    -0.03  -0.06   0.03     0.07   0.08  -0.03    -0.00   0.00   0.02
    24   6     0.02  -0.06   0.02     0.01   0.08  -0.02    -0.01   0.00   0.05
    25   6     0.05  -0.03   0.00    -0.03   0.03  -0.00    -0.01   0.00   0.05
    26   6     0.03   0.01   0.01    -0.00  -0.01  -0.01    -0.01   0.00   0.04
    27   6    -0.02   0.01   0.00     0.06  -0.01  -0.00    -0.00   0.00   0.02
    28   1     0.04  -0.10   0.03    -0.02   0.13  -0.02    -0.01   0.00   0.06
    29   1     0.04   0.03   0.01    -0.02  -0.05  -0.00    -0.01   0.00   0.05
    30   6     0.11  -0.03  -0.03    -0.11   0.03   0.03     0.01  -0.00  -0.04
    31   1     0.12  -0.07  -0.01    -0.13   0.09   0.01    -0.11   0.03   0.42
    32   1     0.17  -0.04  -0.05    -0.16   0.04   0.04     0.55  -0.07  -0.24
    33   1     0.10   0.02  -0.07    -0.11  -0.02   0.06    -0.38   0.06  -0.48
    34   6    -0.05   0.06   0.00     0.10  -0.08   0.02     0.01   0.00  -0.03
    35   1    -0.09   0.07  -0.01     0.15  -0.12   0.06     0.01   0.06  -0.09
    36   1    -0.06   0.05  -0.01     0.12  -0.05   0.05     0.01  -0.07  -0.08
    37   1    -0.03   0.09   0.03     0.07  -0.14  -0.02    -0.00   0.01   0.02
    38   8    -0.06  -0.04  -0.06     0.13   0.05   0.03     0.00   0.00   0.02
    39   1    -0.10  -0.06  -0.05     0.18   0.08   0.03     0.01   0.00   0.00
    40   7    -0.06  -0.02   0.04     0.09   0.03  -0.04     0.00  -0.00  -0.03
    41   7    -0.01  -0.06   0.03     0.04   0.09  -0.02     0.00  -0.00  -0.04
    42   1    -0.11   0.00   0.05     0.16   0.01  -0.04     0.01  -0.00  -0.01
    43   7    -0.04   0.03  -0.01     0.03  -0.04   0.00     0.00   0.00   0.02
    44   1    -0.05   0.02  -0.02     0.06  -0.01  -0.00     0.00  -0.00   0.02
    45   6    -0.01  -0.10   0.02    -0.03  -0.05   0.00    -0.00   0.00   0.01
    46   1     0.01  -0.14   0.05    -0.01  -0.08   0.03     0.00   0.00   0.03
    47   7    -0.06  -0.11   0.01    -0.08  -0.06  -0.02    -0.00  -0.00  -0.02
    48   6    -0.05  -0.10   0.02    -0.10  -0.08  -0.00    -0.00   0.00  -0.02
    49   6    -0.07  -0.09   0.01    -0.11  -0.08  -0.01     0.01  -0.01  -0.01
    50   6    -0.07  -0.06   0.02    -0.13  -0.04   0.01    -0.01   0.01  -0.01
    51   1    -0.03  -0.11   0.03    -0.10  -0.07   0.01    -0.00   0.00  -0.01
    52   6     0.00   0.06   0.00    -0.05   0.05   0.01     0.01  -0.01   0.00
    53   1    -0.17  -0.08  -0.03    -0.20  -0.07  -0.05     0.01  -0.01  -0.02
    54   1    -0.05  -0.17   0.02    -0.09  -0.16   0.01     0.01  -0.02  -0.02
    55   6     0.01   0.09  -0.01    -0.06   0.09  -0.01    -0.01   0.01   0.00
    56   1    -0.18  -0.05   0.06    -0.22  -0.03   0.05    -0.01   0.01  -0.02
    57   1    -0.04  -0.15   0.02    -0.12  -0.12   0.00    -0.02   0.02  -0.02
    58   6    -0.04   0.20  -0.02    -0.09   0.19  -0.01    -0.00  -0.00   0.01
    59   1    -0.04   0.09  -0.01    -0.07   0.07  -0.00     0.01  -0.02   0.00
    60   1     0.13   0.04   0.04     0.06   0.03   0.05     0.01  -0.01   0.01
    61   1    -0.02   0.14  -0.01    -0.09   0.14  -0.00    -0.01   0.02   0.00
    62   1     0.14   0.07  -0.04     0.05   0.07  -0.03    -0.01   0.01   0.01
    63   1     0.05   0.34  -0.03    -0.01   0.32  -0.01    -0.00  -0.00   0.02
    64   1    -0.20   0.24  -0.03    -0.25   0.22  -0.02     0.00  -0.00  -0.00
                     13                     14                     15
                      A                      A                      A
 Frequencies --    145.7773               164.9825               173.4655
 Red. masses --      3.9190                 1.3649                 4.9756
 Frc consts  --      0.0491                 0.0219                 0.0882
 IR Inten    --      7.2843                 0.5916                 5.4863
  Atom  AN      X      Y      Z        X      Y      Z        X      Y      Z
     1   6     0.00  -0.01  -0.09    -0.00   0.00   0.01    -0.02  -0.02  -0.21
     2   6     0.01   0.00   0.06    -0.00   0.00   0.00    -0.02  -0.01  -0.15
     3   6     0.01   0.01   0.14     0.00   0.00  -0.00    -0.01   0.00  -0.03
     4   6     0.00  -0.00   0.01     0.00   0.00  -0.01     0.00   0.00   0.10
     5   6    -0.00  -0.01  -0.16     0.00  -0.00  -0.00    -0.00  -0.00   0.07
     6   6    -0.00  -0.01  -0.15    -0.00  -0.00   0.00    -0.01  -0.02  -0.09
     7   6     0.01  -0.01  -0.03    -0.01   0.01   0.00    -0.02   0.01  -0.01
     8   1     0.01   0.01   0.28     0.00   0.01  -0.01    -0.00   0.01   0.03
     9   1    -0.00   0.00   0.04     0.01   0.00  -0.01     0.01   0.01   0.25
    10   1    -0.01  -0.01  -0.24     0.00  -0.00  -0.00     0.01   0.00   0.22
    11   6     0.00  -0.00  -0.04    -0.00  -0.00   0.01    -0.01   0.00   0.10
    12   6     0.00   0.00   0.01    -0.00  -0.00   0.01     0.01  -0.01  -0.11
    13   6    -0.00   0.00   0.06     0.00  -0.00   0.00     0.01  -0.01  -0.16
    14   6    -0.00   0.00   0.03     0.00   0.00  -0.01    -0.00   0.01   0.08
    15   6     0.00  -0.00  -0.02     0.00   0.00  -0.01    -0.01   0.02   0.22
    16   6     0.00  -0.00  -0.04    -0.00   0.00  -0.00    -0.01   0.01   0.15
    17   6     0.00  -0.00  -0.03    -0.00  -0.01  -0.00     0.00   0.01   0.00
    18   1    -0.01   0.01   0.10     0.01  -0.00   0.01     0.02  -0.02  -0.33
    19   1    -0.00   0.00   0.07     0.01   0.00  -0.02    -0.00   0.01   0.12
    20   1     0.00  -0.00  -0.04     0.00   0.01  -0.02    -0.01   0.03   0.29
    21   7     0.01   0.00   0.09    -0.00   0.01   0.00    -0.02   0.00  -0.05
    22   6     0.00   0.00  -0.00    -0.00   0.00  -0.02     0.01   0.00   0.03
    23   6     0.00   0.00  -0.02     0.00  -0.00  -0.02     0.00   0.01   0.05
    24   6     0.00  -0.00  -0.01     0.00  -0.00   0.00    -0.00   0.01   0.08
    25   6    -0.00   0.00   0.02     0.01  -0.00  -0.02     0.00   0.00   0.02
    26   6    -0.00   0.00   0.02     0.02   0.00  -0.11     0.01  -0.00  -0.02
    27   6    -0.00   0.00   0.00     0.01   0.00  -0.06     0.01  -0.00   0.01
    28   1     0.00  -0.00  -0.01    -0.00  -0.01   0.06    -0.01   0.01   0.10
    29   1    -0.01   0.00   0.03     0.03   0.00  -0.17     0.02  -0.01  -0.09
    30   6    -0.00   0.00   0.02     0.00   0.00   0.10     0.01   0.00  -0.05
    31   1    -0.05   0.01   0.21    -0.05  -0.01   0.32     0.04   0.01  -0.20
    32   1     0.22  -0.00  -0.06     0.20   0.09   0.06    -0.15  -0.04  -0.01
    33   1    -0.16   0.01  -0.15    -0.14  -0.06  -0.02     0.11   0.03   0.05
    34   6     0.00   0.00  -0.01    -0.01  -0.00   0.05     0.03  -0.02  -0.01
    35   1    -0.01   0.03  -0.03     0.09  -0.37   0.41     0.11  -0.15   0.12
    36   1     0.01  -0.03  -0.02    -0.18   0.42   0.26    -0.08   0.13   0.05
    37   1    -0.00   0.01   0.02     0.06  -0.07  -0.39     0.05  -0.06  -0.21
    38   8    -0.00   0.00   0.01    -0.01   0.00   0.03     0.01   0.01   0.02
    39   1    -0.00   0.00   0.02    -0.01   0.00   0.03     0.04   0.00  -0.06
    40   7     0.01  -0.00  -0.06    -0.01  -0.00   0.00    -0.01   0.01   0.18
    41   7     0.00   0.00   0.01    -0.00  -0.01   0.01     0.01  -0.01  -0.20
    42   1     0.00  -0.00  -0.05    -0.01  -0.00  -0.00    -0.00   0.02   0.25
    43   7     0.00  -0.01  -0.14    -0.01   0.00   0.01    -0.03  -0.01  -0.16
    44   1     0.00  -0.01  -0.14    -0.01   0.00   0.00    -0.04  -0.02  -0.08
    45   6    -0.00  -0.01  -0.12    -0.00  -0.00   0.00    -0.01  -0.01   0.01
    46   1    -0.01  -0.03  -0.36    -0.00  -0.00   0.01    -0.01   0.00   0.09
    47   7     0.01   0.02   0.19     0.00  -0.00  -0.00    -0.00  -0.01   0.01
    48   6    -0.00  -0.00   0.12     0.00   0.00  -0.00     0.01   0.00   0.04
    49   6    -0.06   0.07   0.10     0.00  -0.00  -0.00    -0.01   0.02   0.03
    50   6     0.05  -0.08   0.11     0.00   0.00  -0.00     0.03  -0.01   0.03
    51   1    -0.01  -0.00   0.07     0.00  -0.00  -0.00     0.01   0.00   0.04
    52   6    -0.06   0.09  -0.02     0.00  -0.00  -0.00    -0.01   0.02  -0.01
    53   1    -0.06   0.08   0.15     0.00  -0.00  -0.00    -0.01   0.03   0.06
    54   1    -0.11   0.13   0.12     0.00  -0.00  -0.00    -0.03   0.04   0.04
    55   6     0.05  -0.08  -0.02     0.00   0.00  -0.00     0.02  -0.02  -0.01
    56   1     0.03  -0.07   0.17     0.00   0.00  -0.01     0.03  -0.01   0.05
    57   1     0.10  -0.16   0.12     0.00   0.01  -0.00     0.05  -0.02   0.04
    58   6    -0.01   0.02  -0.04     0.00  -0.00  -0.00     0.00  -0.01  -0.02
    59   1    -0.12   0.16  -0.04     0.00  -0.00  -0.00    -0.03   0.05  -0.02
[...]
 ! A50   A(23,24,25)             0.0562                  2.8                    !
 ! A51   A(23,24,28)            -0.0265                  1.3                    !
 ! A52   A(25,24,28)            -0.0297                  1.5                    !
 ! A53   A(24,25,26)            -0.0298                  1.5                    !
 ! A54   A(24,25,30)             0.0294                  1.5                    !
 --------------------------------------------------------------------------------
                           ----------------------------
                           ! Normal Mode   182        !
 --------------------------                            --------------------------
 ! Name  Definition              Value          Relative Weight (%)             !
 --------------------------------------------------------------------------------
 ! R4    R(2,3)                 -0.0347                  1.5                    !
 ! R6    R(3,4)                 -0.0639                  2.7                    !
 ! R7    R(3,8)                  0.7801                 33.1                    !
 ! R8    R(4,5)                 -0.0389                  1.6                    !
 ! R9    R(4,9)                  0.6775                 28.7                    !
 ! R11   R(5,10)                 0.283                  12.0                    !
 ! R26   R(15,20)               -0.0206                  0.9                    !
 ! R35   R(24,28)                0.1738                  7.4                    !
 ! A4    A(1,2,3)               -0.0199                  0.8                    !
 ! A6    A(3,2,21)               0.0218                  0.9                    !
 ! A7    A(2,3,4)                0.0231                  1.0                    !
 ! A8    A(2,3,8)               -0.0201                  0.9                    !
 --------------------------------------------------------------------------------
                           ----------------------------
                           ! Normal Mode   183        !
 --------------------------                            --------------------------
 ! Name  Definition              Value          Relative Weight (%)             !
 --------------------------------------------------------------------------------
 ! R7    R(3,8)                  0.0152                  0.7                    !
 ! R19   R(12,13)                0.0284                  1.2                    !
 ! R22   R(13,18)               -0.6108                 26.6                    !
 ! R23   R(14,15)               -0.0493                  2.1                    !
 ! R24   R(14,19)                0.3967                 17.3                    !
 ! R25   R(15,16)               -0.0343                  1.5                    !
 ! R26   R(15,20)                0.8017                 35.0                    !
 ! A25   A(11,12,13)             0.0147                  0.6                    !
 ! A27   A(13,12,41)            -0.016                   0.7                    !
 ! A28   A(12,13,14)            -0.043                   1.9                    !
 ! A30   A(14,13,18)             0.0305                  1.3                    !
 ! A31   A(13,14,15)             0.0163                  0.7                    !
 ! A32   A(13,14,19)            -0.0305                  1.3                    !
 ! A34   A(14,15,16)             0.0324                  1.4                    !
 ! A36   A(16,15,20)            -0.0217                  0.9                    !
 ! A38   A(7,16,15)              0.0222                  1.0                    !
 ! A39   A(11,16,15)            -0.0203                  0.9                    !
 --------------------------------------------------------------------------------
                           ----------------------------
                           ! Normal Mode   184        !
 --------------------------                            --------------------------
 ! Name  Definition              Value          Relative Weight (%)             !
 --------------------------------------------------------------------------------
 ! R19   R(12,13)                0.0362                  1.7                    !
 ! R21   R(13,14)                0.0659                  3.1                    !
 ! R22   R(13,18)               -0.8106                 38.1                    !
 ! R23   R(14,15)                0.0371                  1.7                    !
 ! R24   R(14,19)               -0.6616                 31.1                    !
 ! R26   R(15,20)               -0.2902                 13.6                    !
 ! A25   A(11,12,13)             0.021                   1.0                    !
 ! A27   A(13,12,41)            -0.0229                  1.1                    !
 ! A28   A(12,13,14)            -0.0254                  1.2                    !
 ! A29   A(12,13,18)             0.0214                  1.0                    !
 --------------------------------------------------------------------------------
                           ----------------------------
                           ! Normal Mode   185        !
 --------------------------                            --------------------------
 ! Name  Definition              Value          Relative Weight (%)             !
 --------------------------------------------------------------------------------
 ! R18   R(11,40)               -0.0429                  2.9                    !
 ! R28   R(17,40)               -0.0494                  3.4                    !
 ! R48   R(40,42)                1.0712                 72.9                    !
 ! R49   R(43,44)                0.0209                  1.4                    !
 ! A23   A(12,11,40)            -0.0243                  1.7                    !
 ! A24   A(16,11,40)             0.0248                  1.7                    !
 ! A40   A(23,17,40)             0.0243                  1.7                    !
 ! A42   A(40,17,41)            -0.0233                  1.6                    !
 ! A75   A(11,40,17)             0.0481                  3.3                    !
 ! A77   A(17,40,42)            -0.0568                  3.9                    !
 --------------------------------------------------------------------------------
                           ----------------------------
                           ! Normal Mode   186        !
 --------------------------                            --------------------------
 ! Name  Definition              Value          Relative Weight (%)             !
 --------------------------------------------------------------------------------
 ! R3    R(1,43)                 0.0436                  3.0                    !
 ! R15   R(7,43)                 0.0487                  3.4                    !
 ! R48   R(40,42)                0.0209                  1.4                    !
 ! R49   R(43,44)               -1.0717                 74.2                    !
 ! A2    A(2,1,43)               0.0237                  1.6                    !
 ! A3    A(6,1,43)              -0.0246                  1.7                    !
 ! A20   A(16,7,43)             -0.0238                  1.6                    !
 ! A21   A(21,7,43)              0.0228                  1.6                    !
 ! A79   A(1,43,7)              -0.0473                  3.3                    !
 ! A81   A(7,43,44)              0.0466                  3.2                    !
 --------------------------------------------------------------------------------
 -------------------------------------------------------------------
 Center     Atomic                   Forces (Hartrees/Bohr)
 Number     Number              X              Y              Z
 -------------------------------------------------------------------
      1        6          -0.000000097    0.000001983   -0.000007171
      2        6          -0.000002107    0.000000468   -0.000011278
      3        6          -0.000002190    0.000000689   -0.000019779
      4        6          -0.000002819    0.000000657   -0.000023542
      5        6          -0.000001346    0.000002294   -0.000019585
      6        6          -0.000001206    0.000001969   -0.000011274
      7        6           0.000000487    0.000001413    0.000001440
      8        1          -0.000002465    0.000000046   -0.000022949
      9        1          -0.000003246    0.000000618   -0.000030084
     10        1          -0.000002866    0.000001493   -0.000022753
     11        6           0.000001362   -0.000000227    0.000008522
     12        6           0.000001733   -0.000000414    0.000015102
     13        6           0.000003272    0.000001739    0.000022560
     14        6           0.000002014    0.000002181    0.000022835
     15        6           0.000001643    0.000002596    0.000016047
     16        6           0.000001209    0.000001670    0.000008340
     17        6           0.000000116   -0.000002479    0.000004836
     18        1           0.000002756    0.000000157    0.000028038
     19        1           0.000003237    0.000003315    0.000028677
     20        1           0.000002106    0.000003773    0.000016558
     21        7          -0.000000283    0.000001559   -0.000006346
     22        6           0.000000828   -0.000004942    0.000005061
     23        6           0.000000608   -0.000003637    0.000000546
     24        6          -0.000001354   -0.000003990   -0.000007606
     25        6          -0.000001779   -0.000005486   -0.000011837
     26        6          -0.000000223   -0.000007419   -0.000007176
     27        6          -0.000000396   -0.000007158    0.000000849
     28        1          -0.000001080   -0.000002421   -0.000011228
     29        1          -0.000001720   -0.000008808   -0.000010588
     30        6          -0.000002744   -0.000006262   -0.000021018
     31        1          -0.000002567   -0.000003915   -0.000023109
     32        1          -0.000002647   -0.000011977   -0.000022654
     33        1          -0.000002476   -0.000002140   -0.000022405
     34        6           0.000000032   -0.000009724    0.000005532
     35        1           0.000000700   -0.000013804    0.000010233
     36        1           0.000000918   -0.000003883    0.000008710
     37        1           0.000000034   -0.000011122    0.000001824
     38        8           0.000001656   -0.000006041    0.000012583
     39        1           0.000001136   -0.000003338    0.000014757
     40        7          -0.000000329   -0.000000300    0.000001905
     41        7           0.000000987   -0.000001489    0.000012904
     42        1          -0.000000184   -0.000000715   -0.000003679
     43        7          -0.000000587    0.000002234    0.000000306
     44        1           0.000000732    0.000002796    0.000004869
     45        6          -0.000000959    0.000002648   -0.000006710
     46        1          -0.000000954    0.000003127   -0.000010575
     47        7           0.000000288    0.000003945    0.000000894
     48        6           0.000000555    0.000003831    0.000004697
     49        6           0.000000566   -0.000002852    0.000003014
     50        6           0.000000397    0.000011859    0.000001740
     51        1           0.000001309    0.000004913    0.000010843
     52        6           0.000000729   -0.000002574    0.000006957
     53        1          -0.000000523   -0.000004107   -0.000003206
     54        1           0.000000280   -0.000008630    0.000005128
     55        6           0.000001362    0.000012625    0.000005852
     56        1          -0.000000198    0.000011429   -0.000004736
     57        1           0.000000650    0.000017030    0.000003010
     58        6           0.000000936    0.000004410    0.000004550
     59        1           0.000000345   -0.000008047    0.000006165
     60        1           0.000001485   -0.000002303    0.000013690
     61        1           0.000000649    0.000017587    0.000003600
     62        1           0.000001635    0.000013183    0.000012301
     63        1           0.000000710    0.000005466    0.000007657
     64        1          -0.000000117    0.000004503   -0.000001841
 -------------------------------------------------------------------
 Cartesian Forces:  Max     0.000030084 RMS     0.000008579
 FormGI is forming the generalized inverse of G from B-inverse, IUseBI=4.
 Leave Link  716 at Fri Dec 14 13:57:29 2018, MaxMem=  1342177280 cpu:              27.2 elap:               1.8
 (Enter /gpfs/apps/hpc/Apps/Restricted/Gaussian/Rev_A.03/g16/l9999.exe)

 ----------------------------------------------------------------------

 Electric dipole moment (input orientation):
 (Debye = 10**-18 statcoulomb cm , SI units = C m)
                  (au)            (Debye)         (10**-30 SI)
   Tot        0.709469D+01      0.180329D+02      0.601513D+02
   x         -0.707008D+01     -0.179704D+02     -0.599427D+02
   y          0.575774D+00      0.146347D+01      0.488162D+01
   z         -0.130599D+00     -0.331949D+00     -0.110726D+01

 Dipole polarizability, Alpha (input orientation).
 (esu units = cm**3 , SI units = C**2 m**2 J**-1)
 Alpha(0;0):
               (au)            (10**-24 esu)      (10**-40 SI)
   iso        0.698117D+03      0.103450D+03      0.115104D+03
   aniso      0.844911D+03      0.125203D+03      0.139307D+03
   xx         0.110010D+04      0.163018D+03      0.181382D+03
   yx        -0.184849D+03     -0.273917D+02     -0.304774D+02
   yy         0.774654D+03      0.114792D+03      0.127723D+03
   zx         0.573814D+02      0.850304D+01      0.946091D+01
   zy        -0.477512D+02     -0.707599D+01     -0.787310D+01
   zz         0.219595D+03      0.325406D+02      0.362063D+02

 ----------------------------------------------------------------------

 Dipole orientation:
     6          0.49476301          2.36825258         -2.87124939
     6          0.62234922          3.53463575         -0.47188553
     6          0.66753050          6.17647398         -0.29250160
     6          0.55734417          7.56111003         -2.52726448
     6          0.41359595          6.37021888         -4.89843691
     6          0.38219627          3.73645696         -5.14087709
     6          0.57036776         -0.50347091          0.16339346
     1          0.77441659          7.10115619          1.53043556
     1          0.58048856          9.60666338         -2.44675038
     1          0.32452164          7.51624229         -6.59541197
     6          0.46022406         -3.00321704          4.09478086
     6          0.34716532         -5.29037055          5.50025197
     6          0.35368329         -7.62567979          4.24081016
     6          0.46406888         -7.57096950          1.62378608
     6          0.55000151         -5.28423416          0.24256621
     6          0.54162654         -2.93590001          1.43778092
     6          0.29940781         -2.16414821          8.17394666
     1          0.27193345         -9.38378478          5.28144828
     1          0.47679995         -9.33444636          0.58564297
     1          0.62897923         -5.37298939         -1.80167288
     7          0.66486112          1.69413701          1.38887250
     6         -0.19493562         -2.37304368         12.81709051
     6          0.16798927         -0.85942759         10.55010881
     6          0.33804366          1.75289950         10.78217455
     6          0.13140454          2.91620398         13.14542857
     6         -0.27842347          1.39964262         15.33906302
     6         -0.44107521         -1.18516859         15.24363894
     1          0.63989663          2.90891234          9.12013040
     1         -0.45887520          2.34235352         17.14901579
     6          0.30770624          5.71806931         13.42190586
     1          0.78120440          6.63922045         11.64282874
     1         -1.49613681          6.47506573         14.10073721
     1          1.72425969          6.21699117         14.84374017
     6         -0.85604734         -2.80279214         17.52653165
     1         -2.47768085         -4.05256623         17.25576099
     1          0.78626505         -4.01014559         17.87274470
     1         -1.17639219         -1.63173508         19.18886616
     8         -0.31357004         -4.82926939         12.71488856
     1         -0.10804806         -5.38569102         10.83298578
     7          0.43929158         -1.09013032          5.82811959
     7          0.24345025         -4.69683566          8.02009002
     1          0.49119806          0.75498793          5.28470642
     7          0.47379270         -0.18369223         -2.40779701
     1          0.35287854         -1.47469492         -3.81801789
     6          0.22945424          2.48993075         -7.59556458
     1          0.11365132          3.75260909         -9.23196499
     7          0.22367026          0.07582591         -7.80762726
     6          0.03146906         -0.96788627        -10.38267727
     6         -2.49149803         -0.26204890        -11.64059727
     6          2.27016285         -0.18867390        -12.06515624
     1          0.08603562         -3.02835992        -10.18077976
     6         -2.70949456         -1.39994444        -14.29409668
     1         -2.60418040          1.80367469        -11.76420274
     1         -4.05688516         -0.88577552        -10.44140641
     6          2.04453062         -1.33201797        -14.71656457
     1          2.30556396          1.87717897        -12.21123872
     1          4.04036358         -0.76680469        -11.16556959
     6         -0.47277410         -0.62590519        -15.96276360
     1         -4.49530650         -0.81438136        -15.15863834
     1         -2.76176787         -3.46755057        -14.14936056
     1          3.63341219         -0.70366832        -15.88248834
     1          2.18030573         -3.39721882        -14.58337928
     1         -0.62589414         -1.51536147        -17.82346748
     1         -0.53021910          1.42461097        -16.26724604

 Electric dipole moment (dipole orientation):
 (Debye = 10**-18 statcoulomb cm , SI units = C m)
                  (au)            (Debye)         (10**-30 SI)
   Tot        0.709469D+01      0.180329D+02      0.601513D+02
   x          0.000000D+00      0.000000D+00      0.000000D+00
   y          0.000000D+00      0.000000D+00      0.000000D+00
   z          0.709469D+01      0.180329D+02      0.601513D+02

 Dipole polarizability, Alpha (dipole orientation).
 (esu units = cm**3 , SI units = C**2 m**2 J**-1)
 Alpha(0;0):
               (au)            (10**-24 esu)      (10**-40 SI)
   iso        0.698117D+03      0.103450D+03      0.115104D+03
   aniso      0.844911D+03      0.125203D+03      0.139307D+03
   xx         0.214661D+03      0.318094D+02      0.353927D+02
   yx         0.328818D+01      0.487258D+00      0.542148D+00
   yy         0.749884D+03      0.111121D+03      0.123639D+03
   zx        -0.314325D+02     -0.465782D+01     -0.518252D+01
   zy         0.159927D+03      0.236987D+02      0.263683D+02
   zz         0.112981D+04      0.167420D+03      0.186280D+03

 ----------------------------------------------------------------------

 This type of calculation cannot be archived.


 ON INDUCTION, OR "WHY DO YOU BELIEVE THE SUN WILL RISE TOMORROW?":

 ... THE FARMER WHO HAS FED THE CHICKEN EVERY DAY THROUGHOUT ITS
 LIFE AT LAST WRINGS ITS NECK INSTEAD, SHOWING THAT MORE REFINED VIEWS
 AS TO THE UNIFORMITY OF NATURE WOULD HAVE BEEN USEFUL TO THE CHICKEN.

                               -- BERTRAND RUSSELL
 Job cpu time:       0 days  0 hours  0 minutes 45.3 seconds.
 Elapsed time:       0 days  0 hours  0 minutes  3.1 seconds.
 File lengths (MBytes):  RWF=     72 Int=      0 D2E=      0 Chk=     76 Scr=      8
 Normal termination of Gaussian 16 at Fri Dec 14 13:57:29 2018.
