 Entering Gaussian System, Link 0=g16
 Initial command:
 /gpfs/apps/hpc/Apps/Restricted/Gaussian/Rev_A.03/g16/l1.exe "/gpfs/scratch60/fas/hammes_schiffer/jg2487/c42n01/Gau-413571.inp" -scrdir="/gpfs/scratch60/fas/hammes_schiffer/jg2487/c42n01/"
 Entering Link 1 = /gpfs/apps/hpc/Apps/Restricted/Gaussian/Rev_A.03/g16/l1.exe PID=    413572.
  
 Copyright (c) 1988,1990,1992,1993,1995,1998,2003,2009,2016,
            Gaussian, Inc.  All Rights Reserved.
  
 This is part of the Gaussian(R) 16 program.  It is based on
 the Gaussian(R) 09 system (copyright 2009, Gaussian, Inc.),
 the Gaussian(R) 03 system (copyright 2003, Gaussian, Inc.),
 the Gaussian(R) 98 system (copyright 1998, Gaussian, Inc.),
 the Gaussian(R) 94 system (copyright 1995, Gaussian, Inc.),
 the Gaussian 92(TM) system (copyright 1992, Gaussian, Inc.),
 the Gaussian 90(TM) system (copyright 1990, Gaussian, Inc.),
 the Gaussian 88(TM) system (copyright 1988, Gaussian, Inc.),
 the Gaussian 86(TM) system (copyright 1986, Carnegie Mellon
 University), and the Gaussian 82(TM) system (copyright 1983,
 Carnegie Mellon University). Gaussian is a federally registered
 trademark of Gaussian, Inc.
  
 This software contains proprietary and confidential information,
 including trade secrets, belonging to Gaussian, Inc.
  
 This software is provided under written license and may be
 used, copied, transmitted, or stored only in accord with that
 written license.
  
 The following legend is applicable only to US Government
 contracts under FAR:
  
                    RESTRICTED RIGHTS LEGEND
  
 Use, reproduction and disclosure by the US Government is
 subject to restrictions as set forth in subparagraphs (a)
 and (c) of the Commercial Computer Software - Restricted
 Rights clause in FAR 52.227-19.
  
 Gaussian, Inc.
 340 Quinnipiac St., Bldg. 40, Wallingford CT 06492
  
  
 ---------------------------------------------------------------
 Warning -- This program may not be used in any manner that
 competes with the business of Gaussian, Inc. or will provide
 assistance to any competitor of Gaussian, Inc.  The licensee
 of this program is prohibited from giving any competitor of
 Gaussian, Inc. access to this program.  By using this program,
 the user acknowledges that Gaussian, Inc. is engaged in the
 business of creating and licensing software in the field of
 computational chemistry and represents and warrants to the
 licensee that it is not a competitor of Gaussian, Inc. and that
 it will not use this program in any manner prohibited above.
 ---------------------------------------------------------------
  

 Cite this work as:
 Gaussian 16, Revision A.03,
 M. J. Frisch, G. W. Trucks, H. B. Schlegel, G. E. Scuseria, 
 M. A. Robb, J. R. Cheeseman, G. Scalmani, V. Barone, 
 G. A. Petersson, H. Nakatsuji, X. Li, M. Caricato, A. V. Marenich, 
 J. Bloino, B. G. Janesko, R. Gomperts, B. Mennucci, H. P. Hratchian, 
 J. V. Ortiz, A. F. Izmaylov, J. L. Sonnenberg, D. Williams-Young, 
 F. Ding, F. Lipparini, F. Egidi, J. Goings, B. Peng, A. Petrone, 
 T. Henderson, D. Ranasinghe, V. G. Zakrzewski, J. Gao, N. Rega, 
 G. Zheng, W. Liang, M. Hada, M. Ehara, K. Toyota, R. Fukuda, 
 J. Hasegawa, M. Ishida, T. Nakajima, Y. Honda, O. Kitao, H. Nakai, 
 T. Vreven, K. Throssell, J. A. Montgomery, Jr., J. E. Peralta, 
 F. Ogliaro, M. J. Bearpark, J. J. Heyd, E. N. Brothers, K. N. Kudin, 
 V. N. Staroverov, T. A. Keith, R. Kobayashi, J. Normand, 
 K. Raghavachari, A. P. Rendell, J. C. Burant, S. S. Iyengar, 
 J. Tomasi, M. Cossi, J. M. Millam, M. Klene, C. Adamo, R. Cammi, 
 J. W. Ochterski, R. L. Martin, K. Morokuma, O. Farkas, 
 J. B. Foresman, and D. J. Fox, Gaussian, Inc., Wallingford CT, 2016.
 
 ******************************************
 Gaussian 16:  ES64L-G16RevA.03 25-Dec-2016
                20-Dec-2018 
 ******************************************
 %chk=cyclohexyl-monoBIP-E1PT.chk
 %mem=10GB
 %nprocshared=16
 Will use up to   16 processors via shared memory.
 ----------------------------------------------------------------------
 #p opt=tight freq=internalmodes b3lyp/6-31g(d,p) scrf=(cpcm,solvent=di
 chloromethane,read) nosymm empiricaldispersion=gd3bj int=grid=ultrafin
 e
 ----------------------------------------------------------------------
 1/7=10,18=20,19=15,26=6,38=1,40=2/1,3;
 2/9=110,12=2,15=1,17=6,18=5,40=1/2;
 3/5=1,6=6,7=101,11=2,25=1,30=1,70=2103,71=1,72=9,74=-5,75=-5,124=41/1,2,3;
 4//1;
 5/5=2,38=5,53=9/2;
 6/7=2,8=2,9=2,10=2,28=1/1;
 7/30=1/1,2,3,16;
 1/7=10,18=20,19=15,26=6/3(2);
 2/9=110,15=1/2;
 99//99;
 2/9=110,15=1/2;
 3/5=1,6=6,7=101,11=2,25=1,30=1,70=2105,71=1,72=9,74=-5,75=-5,124=41/1,2,3;
 4/5=5,16=3,69=1/1;
 5/5=2,38=5,53=9/2;
 7/30=1/1,2,3,16;
 1/7=10,18=20,19=15,26=6/3(-5);
 2/9=110,15=1/2;
 6/7=2,8=2,9=2,10=2,19=2,28=1/1;
 99/9=1/99;
 Leave Link    1 at Thu Dec 20 17:49:31 2018, MaxMem=  1342177280 cpu:               7.8 elap:               0.5
 (Enter /gpfs/apps/hpc/Apps/Restricted/Gaussian/Rev_A.03/g16/l101.exe)
 ----------------------------------------------------------------------
 cyclohexylimine monoBIP oxidized, with first proton transferred optimi
 zation
 ----------------------------------------------------------------------
 Symbolic Z-matrix:
 Charge =  1 Multiplicity = 2
 C                    -0.4946    2.76686   0.31681 
 C                    -1.88596   2.9521    0.2817 
 C                    -2.44539   4.23081   0.21965 
 C                    -1.5515    5.29754   0.19909 
 C                    -0.156     5.10717   0.23091 
 C                     0.41456   3.83424   0.28781 
 C                    -1.451     0.75625   0.37073 
 H                    -3.51626   4.37977   0.19003 
 H                    -1.94019   6.30736   0.15533 
 H                     0.49814   5.97109   0.21064 
 N                    -2.43136   1.68044   0.31551 
 C                    -3.02429  -1.19608   0.32578 
 C                    -1.65531  -0.67128   0.41326 
 C                    -0.58617  -1.53772   0.52791 
 C                    -0.77661  -2.93701   0.56548 
 C                    -2.08529  -3.45714   0.47085 
 C                    -3.19434  -2.64723   0.35292 
 H                     0.42532  -1.15418   0.59862 
 H                    -2.21622  -4.5335    0.49927 
 C                     0.40461  -3.84227   0.71718 
 C                    -4.58294  -3.18805   0.25846 
 O                    -4.02281  -0.44059   0.23187 
 N                    -0.26955   1.4091    0.37333 
 H                     0.68509   1.05076   0.39837 
 C                     1.85792   3.59923   0.30833 
 H                     2.49086   4.49028   0.26235 
 N                     2.32356   2.40793   0.37688 
 C                     3.7829    2.23016   0.39573 
 C                     4.42678   2.6475   -0.93713 
 C                     4.4564    2.95827   1.57088 
 H                     3.95274   1.15567   0.52711 
 C                     5.93538   2.37596  -0.91852 
 H                     4.24369   3.71742  -1.09201 
 H                     3.94474   2.11317  -1.76108 
 C                     5.96316   2.67884   1.59119 
 H                     4.29174   4.03696   1.465 
 H                     3.98514   2.65199   2.50923 
 C                     6.61588   3.0772    0.26229 
 H                     6.38585   2.69214  -1.86416 
 H                     6.1002    1.29431  -0.8377 
 H                     6.42809   3.21498   2.42394 
 H                     6.12969   1.60921   1.76964 
 H                     7.68428   2.84226   0.278 
 H                     6.53059   4.16355   0.13275 
 H                    -3.40523   1.37991   0.2888 
 C                    -5.47203  -2.59106   1.36513 
 H                    -6.00106  -1.74457   0.97981 
 H                    -6.17256  -3.32881   1.69662 
 H                    -4.86022  -2.28503   2.18789 
 C                    -4.58496  -4.72308   0.38197 
 H                    -4.00195  -5.14537  -0.40965 
 H                    -4.16448  -5.00562   1.32446 
 H                    -5.58986  -5.08481   0.31694 
 C                    -0.0146   -5.324     0.69841 
 H                    -0.66934  -5.51989   1.52173 
 H                    -0.52097  -5.53981  -0.21915 
 H                     0.85523  -5.94182   0.77961 
 C                     1.42633  -3.59954  -0.40921 
 H                     0.90856  -3.37053  -1.31716 
 H                     2.06129  -2.78007  -0.14429 
 H                     2.01904  -4.47938  -0.54881 
 C                     1.13064  -3.55035   2.04355 
 H                     0.41213  -3.46168   2.83145 
 H                     1.80532  -4.35089   2.26455 
 H                     1.67891  -2.63565   1.95623 
 C                    -5.23163  -2.79426  -1.08159 
 H                    -5.94088  -3.54247  -1.36802 
 H                    -5.72963  -1.85335  -0.97391 
 H                    -4.47509  -2.71334  -1.83393 
 
 ITRead=  0  0  0  0  0  0  0  0  0  0  0  0  0  0  0  0  0  0  0  0
 ITRead=  0  0  0  0  0  0  0  0  0  0  0  0  0  0  0  0  0  0  0  0
 ITRead=  0  0  0  0  0  0  0  0  0  0  0  0  0  0  0  0  0  0  0  0
 ITRead=  0  0  0  0  0  0  0  0  0
 MicOpt= -1 -1 -1 -1 -1 -1 -1 -1 -1 -1 -1 -1 -1 -1 -1 -1 -1 -1 -1 -1
 MicOpt= -1 -1 -1 -1 -1 -1 -1 -1 -1 -1 -1 -1 -1 -1 -1 -1 -1 -1 -1 -1
 MicOpt= -1 -1 -1 -1 -1 -1 -1 -1 -1 -1 -1 -1 -1 -1 -1 -1 -1 -1 -1 -1
 MicOpt= -1 -1 -1 -1 -1 -1 -1 -1 -1
 NAtoms=     69 NQM=       69 NQMF=       0 NMMI=      0 NMMIF=      0
                NMic=       0 NMicF=      0.
                    Isotopes and Nuclear Properties:
 (Nuclear quadrupole moments (NQMom) in fm**2, nuclear magnetic moments (NMagM)
  in nuclear magnetons)

  Atom         1           2           3           4           5           6           7           8           9          10
 IAtWgt=          12          12          12          12          12          12          12           1           1           1
 AtmWgt=  12.0000000  12.0000000  12.0000000  12.0000000  12.0000000  12.0000000  12.0000000   1.0078250   1.0078250   1.0078250
 NucSpn=           0           0           0           0           0           0           0           1           1           1
 AtZEff=  -0.0000000  -0.0000000  -0.0000000  -0.0000000  -0.0000000  -0.0000000  -0.0000000  -0.0000000  -0.0000000  -0.0000000
 NQMom=    0.0000000   0.0000000   0.0000000   0.0000000   0.0000000   0.0000000   0.0000000   0.0000000   0.0000000   0.0000000
 NMagM=    0.0000000   0.0000000   0.0000000   0.0000000   0.0000000   0.0000000   0.0000000   2.7928460   2.7928460   2.7928460
 AtZNuc=   6.0000000   6.0000000   6.0000000   6.0000000   6.0000000   6.0000000   6.0000000   1.0000000   1.0000000   1.0000000

  Atom        11          12          13          14          15          16          17          18          19          20
 IAtWgt=          14          12          12          12          12          12          12           1           1          12
 AtmWgt=  14.0030740  12.0000000  12.0000000  12.0000000  12.0000000  12.0000000  12.0000000   1.0078250   1.0078250  12.0000000
 NucSpn=           2           0           0           0           0           0           0           1           1           0
 AtZEff=  -0.0000000  -0.0000000  -0.0000000  -0.0000000  -0.0000000  -0.0000000  -0.0000000  -0.0000000  -0.0000000  -0.0000000
 NQMom=    2.0440000   0.0000000   0.0000000   0.0000000   0.0000000   0.0000000   0.0000000   0.0000000   0.0000000   0.0000000
 NMagM=    0.4037610   0.0000000   0.0000000   0.0000000   0.0000000   0.0000000   0.0000000   2.7928460   2.7928460   0.0000000
 AtZNuc=   7.0000000   6.0000000   6.0000000   6.0000000   6.0000000   6.0000000   6.0000000   1.0000000   1.0000000   6.0000000

  Atom        21          22          23          24          25          26          27          28          29          30
 IAtWgt=          12          16          14           1          12           1          14          12          12          12
 AtmWgt=  12.0000000  15.9949146  14.0030740   1.0078250  12.0000000   1.0078250  14.0030740  12.0000000  12.0000000  12.0000000
 NucSpn=           0           0           2           1           0           1           2           0           0           0
 AtZEff=  -0.0000000  -0.0000000  -0.0000000  -0.0000000  -0.0000000  -0.0000000  -0.0000000  -0.0000000  -0.0000000  -0.0000000
 NQMom=    0.0000000   0.0000000   2.0440000   0.0000000   0.0000000   0.0000000   2.0440000   0.0000000   0.0000000   0.0000000
 NMagM=    0.0000000   0.0000000   0.4037610   2.7928460   0.0000000   2.7928460   0.4037610   0.0000000   0.0000000   0.0000000
 AtZNuc=   6.0000000   8.0000000   7.0000000   1.0000000   6.0000000   1.0000000   7.0000000   6.0000000   6.0000000   6.0000000

  Atom        31          32          33          34          35          36          37          38          39          40
 IAtWgt=           1          12           1           1          12           1           1          12           1           1
 AtmWgt=   1.0078250  12.0000000   1.0078250   1.0078250  12.0000000   1.0078250   1.0078250  12.0000000   1.0078250   1.0078250
 NucSpn=           1           0           1           1           0           1           1           0           1           1
 AtZEff=  -0.0000000  -0.0000000  -0.0000000  -0.0000000  -0.0000000  -0.0000000  -0.0000000  -0.0000000  -0.0000000  -0.0000000
 NQMom=    0.0000000   0.0000000   0.0000000   0.0000000   0.0000000   0.0000000   0.0000000   0.0000000   0.0000000   0.0000000
 NMagM=    2.7928460   0.0000000   2.7928460   2.7928460   0.0000000   2.7928460   2.7928460   0.0000000   2.7928460   2.7928460
 AtZNuc=   1.0000000   6.0000000   1.0000000   1.0000000   6.0000000   1.0000000   1.0000000   6.0000000   1.0000000   1.0000000

  Atom        41          42          43          44          45          46          47          48          49          50
 IAtWgt=           1           1           1           1           1          12           1           1           1          12
 AtmWgt=   1.0078250   1.0078250   1.0078250   1.0078250   1.0078250  12.0000000   1.0078250   1.0078250   1.0078250  12.0000000
 NucSpn=           1           1           1           1           1           0           1           1           1           0
 AtZEff=  -0.0000000  -0.0000000  -0.0000000  -0.0000000  -0.0000000  -0.0000000  -0.0000000  -0.0000000  -0.0000000  -0.0000000
 NQMom=    0.0000000   0.0000000   0.0000000   0.0000000   0.0000000   0.0000000   0.0000000   0.0000000   0.0000000   0.0000000
 NMagM=    2.7928460   2.7928460   2.7928460   2.7928460   2.7928460   0.0000000   2.7928460   2.7928460   2.7928460   0.0000000
 AtZNuc=   1.0000000   1.0000000   1.0000000   1.0000000   1.0000000   6.0000000   1.0000000   1.0000000   1.0000000   6.0000000

  Atom        51          52          53          54          55          56          57          58          59          60
 IAtWgt=           1           1           1          12           1           1           1          12           1           1
 AtmWgt=   1.0078250   1.0078250   1.0078250  12.0000000   1.0078250   1.0078250   1.0078250  12.0000000   1.0078250   1.0078250
 NucSpn=           1           1           1           0           1           1           1           0           1           1
 AtZEff=  -0.0000000  -0.0000000  -0.0000000  -0.0000000  -0.0000000  -0.0000000  -0.0000000  -0.0000000  -0.0000000  -0.0000000
 NQMom=    0.0000000   0.0000000   0.0000000   0.0000000   0.0000000   0.0000000   0.0000000   0.0000000   0.0000000   0.0000000
 NMagM=    2.7928460   2.7928460   2.7928460   0.0000000   2.7928460   2.7928460   2.7928460   0.0000000   2.7928460   2.7928460
 AtZNuc=   1.0000000   1.0000000   1.0000000   6.0000000   1.0000000   1.0000000   1.0000000   6.0000000   1.0000000   1.0000000

  Atom        61          62          63          64          65          66          67          68          69
 IAtWgt=           1          12           1           1           1          12           1           1           1
 AtmWgt=   1.0078250  12.0000000   1.0078250   1.0078250   1.0078250  12.0000000   1.0078250   1.0078250   1.0078250
 NucSpn=           1           0           1           1           1           0           1           1           1
 AtZEff=  -0.0000000  -0.0000000  -0.0000000  -0.0000000  -0.0000000  -0.0000000  -0.0000000  -0.0000000  -0.0000000
 NQMom=    0.0000000   0.0000000   0.0000000   0.0000000   0.0000000   0.0000000   0.0000000   0.0000000   0.0000000
 NMagM=    2.7928460   0.0000000   2.7928460   2.7928460   2.7928460   0.0000000   2.7928460   2.7928460   2.7928460
 AtZNuc=   1.0000000   6.0000000   1.0000000   1.0000000   1.0000000   6.0000000   1.0000000   1.0000000   1.0000000
 Leave Link  101 at Thu Dec 20 17:49:31 2018, MaxMem=  1342177280 cpu:               5.2 elap:               0.4
 (Enter /gpfs/apps/hpc/Apps/Restricted/Gaussian/Rev_A.03/g16/l103.exe)

 GradGradGradGradGradGradGradGradGradGradGradGradGradGradGradGradGradGrad
 Berny optimization.
 Initialization pass.
                           ----------------------------
                           !    Initial Parameters    !
                           ! (Angstroms and Degrees)  !
 --------------------------                            --------------------------
 ! Name  Definition              Value          Derivative Info.                !
 --------------------------------------------------------------------------------
 ! R1    R(1,2)                  1.4041         estimate D2E/DX2                !
 ! R2    R(1,6)                  1.4024         estimate D2E/DX2                !
 ! R3    R(1,23)                 1.3775         estimate D2E/DX2                !
 ! R4    R(2,3)                  1.3971         estimate D2E/DX2                !
 ! R5    R(2,11)                 1.3841         estimate D2E/DX2                !
 ! R6    R(3,4)                  1.3919         estimate D2E/DX2                !
 ! R7    R(3,8)                  1.0816         estimate D2E/DX2                !
 ! R8    R(4,5)                  1.4088         estimate D2E/DX2                !
 ! R9    R(4,9)                  1.0829         estimate D2E/DX2                !
 ! R10   R(5,6)                  1.3961         estimate D2E/DX2                !
 ! R11   R(5,10)                 1.0838         estimate D2E/DX2                !
 ! R12   R(6,25)                 1.4625         estimate D2E/DX2                !
 ! R13   R(7,11)                 1.3484         estimate D2E/DX2                !
 ! R14   R(7,13)                 1.4427         estimate D2E/DX2                !
 ! R15   R(7,23)                 1.3498         estimate D2E/DX2                !
 ! R16   R(11,45)                1.0195         estimate D2E/DX2                !
 ! R17   R(12,13)                1.4687         estimate D2E/DX2                !
 ! R18   R(12,17)                1.4613         estimate D2E/DX2                !
 ! R19   R(12,22)                1.2556         estimate D2E/DX2                !
 ! R20   R(13,14)                1.3809         estimate D2E/DX2                !
 ! R21   R(14,15)                1.4127         estimate D2E/DX2                !
 ! R22   R(14,18)                1.0841         estimate D2E/DX2                !
 ! R23   R(15,16)                1.4114         estimate D2E/DX2                !
 ! R24   R(15,20)                1.4959         estimate D2E/DX2                !
 ! R25   R(16,17)                1.3783         estimate D2E/DX2                !
 ! R26   R(16,19)                1.0847         estimate D2E/DX2                !
 ! R27   R(17,21)                1.4932         estimate D2E/DX2                !
 ! R28   R(20,54)                1.54           estimate D2E/DX2                !
 ! R29   R(20,58)                1.54           estimate D2E/DX2                !
 ! R30   R(20,62)                1.54           estimate D2E/DX2                !
 ! R31   R(21,46)                1.54           estimate D2E/DX2                !
 ! R32   R(21,50)                1.54           estimate D2E/DX2                !
 ! R33   R(21,66)                1.54           estimate D2E/DX2                !
 ! R34   R(23,24)                1.02           estimate D2E/DX2                !
 ! R35   R(25,26)                1.0939         estimate D2E/DX2                !
 ! R36   R(25,27)                1.2809         estimate D2E/DX2                !
 ! R37   R(27,28)                1.4702         estimate D2E/DX2                !
 ! R38   R(28,29)                1.5379         estimate D2E/DX2                !
 ! R39   R(28,30)                1.5378         estimate D2E/DX2                !
 ! R40   R(28,31)                1.0957         estimate D2E/DX2                !
 ! R41   R(29,32)                1.533          estimate D2E/DX2                !
 ! R42   R(29,33)                1.0965         estimate D2E/DX2                !
 ! R43   R(29,34)                1.094          estimate D2E/DX2                !
 ! R44   R(30,35)                1.5326         estimate D2E/DX2                !
 ! R45   R(30,36)                1.0963         estimate D2E/DX2                !
 ! R46   R(30,37)                1.0938         estimate D2E/DX2                !
 ! R47   R(32,38)                1.5327         estimate D2E/DX2                !
 ! R48   R(32,39)                1.0941         estimate D2E/DX2                !
 ! R49   R(32,40)                1.0971         estimate D2E/DX2                !
 ! R50   R(35,38)                1.5332         estimate D2E/DX2                !
 ! R51   R(35,41)                1.0941         estimate D2E/DX2                !
 ! R52   R(35,42)                1.0971         estimate D2E/DX2                !
 ! R53   R(38,43)                1.094          estimate D2E/DX2                !
 ! R54   R(38,44)                1.0974         estimate D2E/DX2                !
 ! R55   R(46,47)                1.07           estimate D2E/DX2                !
 ! R56   R(46,48)                1.07           estimate D2E/DX2                !
 ! R57   R(46,49)                1.07           estimate D2E/DX2                !
 ! R58   R(50,51)                1.07           estimate D2E/DX2                !
 ! R59   R(50,52)                1.07           estimate D2E/DX2                !
 ! R60   R(50,53)                1.07           estimate D2E/DX2                !
 ! R61   R(54,55)                1.07           estimate D2E/DX2                !
 ! R62   R(54,56)                1.07           estimate D2E/DX2                !
 ! R63   R(54,57)                1.07           estimate D2E/DX2                !
 ! R64   R(58,59)                1.07           estimate D2E/DX2                !
 ! R65   R(58,60)                1.07           estimate D2E/DX2                !
 ! R66   R(58,61)                1.07           estimate D2E/DX2                !
 ! R67   R(62,63)                1.07           estimate D2E/DX2                !
 ! R68   R(62,64)                1.07           estimate D2E/DX2                !
 ! R69   R(62,65)                1.07           estimate D2E/DX2                !
 ! R70   R(66,67)                1.07           estimate D2E/DX2                !
 ! R71   R(66,68)                1.07           estimate D2E/DX2                !
 ! R72   R(66,69)                1.07           estimate D2E/DX2                !
 ! A1    A(2,1,6)              122.7852         estimate D2E/DX2                !
 ! A2    A(2,1,23)             107.0357         estimate D2E/DX2                !
 ! A3    A(6,1,23)             130.1782         estimate D2E/DX2                !
 ! A4    A(1,2,3)              121.2418         estimate D2E/DX2                !
 ! A5    A(1,2,11)             105.5846         estimate D2E/DX2                !
 ! A6    A(3,2,11)             133.1729         estimate D2E/DX2                !
 ! A7    A(2,3,4)              116.4198         estimate D2E/DX2                !
 ! A8    A(2,3,8)              121.5823         estimate D2E/DX2                !
 ! A9    A(4,3,8)              121.9979         estimate D2E/DX2                !
 ! A10   A(3,4,5)              122.1576         estimate D2E/DX2                !
 ! A11   A(3,4,9)              118.9956         estimate D2E/DX2                !
 ! A12   A(5,4,9)              118.8467         estimate D2E/DX2                !
 ! A13   A(4,5,6)              121.9351         estimate D2E/DX2                !
 ! A14   A(4,5,10)             119.3221         estimate D2E/DX2                !
 ! A15   A(6,5,10)             118.7428         estimate D2E/DX2                !
 ! A16   A(1,6,5)              115.4585         estimate D2E/DX2                !
 ! A17   A(1,6,25)             121.1447         estimate D2E/DX2                !
 ! A18   A(5,6,25)             123.3957         estimate D2E/DX2                !
 ! A19   A(11,7,13)            125.1994         estimate D2E/DX2                !
 ! A20   A(11,7,23)            107.7541         estimate D2E/DX2                !
 ! A21   A(13,7,23)            127.046          estimate D2E/DX2                !
 ! A22   A(2,11,7)             110.1341         estimate D2E/DX2                !
 ! A23   A(2,11,45)            130.2848         estimate D2E/DX2                !
 ! A24   A(7,11,45)            119.5712         estimate D2E/DX2                !
 ! A25   A(13,12,17)           117.5281         estimate D2E/DX2                !
 ! A26   A(13,12,22)           122.0515         estimate D2E/DX2                !
 ! A27   A(17,12,22)           120.4204         estimate D2E/DX2                !
 ! A28   A(7,13,12)            118.9339         estimate D2E/DX2                !
 ! A29   A(7,13,14)            120.907          estimate D2E/DX2                !
 ! A30   A(12,13,14)           120.1584         estimate D2E/DX2                !
 ! A31   A(13,14,15)           121.2868         estimate D2E/DX2                !
 ! A32   A(13,14,18)           120.3858         estimate D2E/DX2                !
 ! A33   A(15,14,18)           118.326          estimate D2E/DX2                !
 ! A34   A(14,15,16)           119.2244         estimate D2E/DX2                !
 ! A35   A(14,15,20)           119.7133         estimate D2E/DX2                !
 ! A36   A(16,15,20)           121.0599         estimate D2E/DX2                !
 ! A37   A(15,16,17)           122.3603         estimate D2E/DX2                !
 ! A38   A(15,16,19)           118.4153         estimate D2E/DX2                !
 ! A39   A(17,16,19)           119.223          estimate D2E/DX2                !
 ! A40   A(12,17,16)           119.4368         estimate D2E/DX2                !
 ! A41   A(12,17,21)           117.8204         estimate D2E/DX2                !
 ! A42   A(16,17,21)           122.7416         estimate D2E/DX2                !
 ! A43   A(15,20,54)           111.4735         estimate D2E/DX2                !
 ! A44   A(15,20,58)           110.752          estimate D2E/DX2                !
 ! A45   A(15,20,62)           110.1757         estimate D2E/DX2                !
 ! A46   A(54,20,58)           108.865          estimate D2E/DX2                !
 ! A47   A(54,20,62)           108.7368         estimate D2E/DX2                !
 ! A48   A(58,20,62)           106.696          estimate D2E/DX2                !
 ! A49   A(17,21,46)           110.55           estimate D2E/DX2                !
 ! A50   A(17,21,50)           110.9263         estimate D2E/DX2                !
 ! A51   A(17,21,66)           110.7419         estimate D2E/DX2                !
 ! A52   A(46,21,50)           109.1478         estimate D2E/DX2                !
 ! A53   A(46,21,66)           106.4396         estimate D2E/DX2                !
 ! A54   A(50,21,66)           108.9125         estimate D2E/DX2                !
 ! A55   A(1,23,7)             109.4911         estimate D2E/DX2                !
 ! A56   A(1,23,24)            120.014          estimate D2E/DX2                !
 ! A57   A(7,23,24)            130.4905         estimate D2E/DX2                !
 ! A58   A(6,25,26)            116.0742         estimate D2E/DX2                !
 ! A59   A(6,25,27)            120.5955         estimate D2E/DX2                !
 ! A60   A(26,25,27)           123.3304         estimate D2E/DX2                !
 ! A61   A(25,27,28)           118.2922         estimate D2E/DX2                !
 ! A62   A(27,28,29)           111.8166         estimate D2E/DX2                !
 ! A63   A(27,28,30)           112.7851         estimate D2E/DX2                !
 ! A64   A(27,28,31)           105.8995         estimate D2E/DX2                !
 ! A65   A(29,28,30)           110.5144         estimate D2E/DX2                !
 ! A66   A(29,28,31)           107.7654         estimate D2E/DX2                !
 ! A67   A(30,28,31)           107.7452         estimate D2E/DX2                !
 ! A68   A(28,29,32)           110.6971         estimate D2E/DX2                !
 ! A69   A(28,29,33)           108.4995         estimate D2E/DX2                !
 ! A70   A(28,29,34)           109.6168         estimate D2E/DX2                !
 ! A71   A(32,29,33)           109.8088         estimate D2E/DX2                !
 ! A72   A(32,29,34)           110.8705         estimate D2E/DX2                !
 ! A73   A(33,29,34)           107.256          estimate D2E/DX2                !
 ! A74   A(28,30,35)           110.7562         estimate D2E/DX2                !
 ! A75   A(28,30,36)           109.0428         estimate D2E/DX2                !
 ! A76   A(28,30,37)           109.53           estimate D2E/DX2                !
 ! A77   A(35,30,36)           109.1685         estimate D2E/DX2                !
 ! A78   A(35,30,37)           111.172          estimate D2E/DX2                !
 ! A79   A(36,30,37)           107.0772         estimate D2E/DX2                !
 ! A80   A(29,32,38)           111.4226         estimate D2E/DX2                !
 ! A81   A(29,32,39)           110.09           estimate D2E/DX2                !
 ! A82   A(29,32,40)           108.8671         estimate D2E/DX2                !
 ! A83   A(38,32,39)           110.5388         estimate D2E/DX2                !
 ! A84   A(38,32,40)           109.124          estimate D2E/DX2                !
 ! A85   A(39,32,40)           106.6624         estimate D2E/DX2                !
 ! A86   A(30,35,38)           111.0812         estimate D2E/DX2                !
 ! A87   A(30,35,41)           109.7863         estimate D2E/DX2                !
 ! A88   A(30,35,42)           109.2163         estimate D2E/DX2                !
 ! A89   A(38,35,41)           110.5777         estimate D2E/DX2                !
 ! A90   A(38,35,42)           109.249          estimate D2E/DX2                !
 ! A91   A(41,35,42)           106.8251         estimate D2E/DX2                !
 ! A92   A(32,38,35)           111.0922         estimate D2E/DX2                !
 ! A93   A(32,38,43)           110.2673         estimate D2E/DX2                !
 ! A94   A(32,38,44)           109.1157         estimate D2E/DX2                !
 ! A95   A(35,38,43)           110.3347         estimate D2E/DX2                !
 ! A96   A(35,38,44)           109.0531         estimate D2E/DX2                !
 ! A97   A(43,38,44)           106.8687         estimate D2E/DX2                !
 ! A98   A(21,46,47)           109.4712         estimate D2E/DX2                !
 ! A99   A(21,46,48)           109.4712         estimate D2E/DX2                !
 ! A100  A(21,46,49)           109.4712         estimate D2E/DX2                !
 ! A101  A(47,46,48)           109.4713         estimate D2E/DX2                !
 ! A102  A(47,46,49)           109.4712         estimate D2E/DX2                !
 ! A103  A(48,46,49)           109.4712         estimate D2E/DX2                !
 ! A104  A(21,50,51)           109.4712         estimate D2E/DX2                !
 ! A105  A(21,50,52)           109.4712         estimate D2E/DX2                !
 ! A106  A(21,50,53)           109.4712         estimate D2E/DX2                !
 ! A107  A(51,50,52)           109.4713         estimate D2E/DX2                !
 ! A108  A(51,50,53)           109.4712         estimate D2E/DX2                !
 ! A109  A(52,50,53)           109.4712         estimate D2E/DX2                !
 ! A110  A(20,54,55)           109.4712         estimate D2E/DX2                !
 ! A111  A(20,54,56)           109.4712         estimate D2E/DX2                !
 ! A112  A(20,54,57)           109.4712         estimate D2E/DX2                !
 ! A113  A(55,54,56)           109.4713         estimate D2E/DX2                !
 ! A114  A(55,54,57)           109.4712         estimate D2E/DX2                !
 ! A115  A(56,54,57)           109.4712         estimate D2E/DX2                !
 ! A116  A(20,58,59)           109.4712         estimate D2E/DX2                !
 ! A117  A(20,58,60)           109.4712         estimate D2E/DX2                !
 ! A118  A(20,58,61)           109.4712         estimate D2E/DX2                !
 ! A119  A(59,58,60)           109.4713         estimate D2E/DX2                !
 ! A120  A(59,58,61)           109.4712         estimate D2E/DX2                !
 ! A121  A(60,58,61)           109.4712         estimate D2E/DX2                !
 ! A122  A(20,62,63)           109.4712         estimate D2E/DX2                !
 ! A123  A(20,62,64)           109.4712         estimate D2E/DX2                !
 ! A124  A(20,62,65)           109.4712         estimate D2E/DX2                !
 ! A125  A(63,62,64)           109.4713         estimate D2E/DX2                !
 ! A126  A(63,62,65)           109.4712         estimate D2E/DX2                !
 ! A127  A(64,62,65)           109.4712         estimate D2E/DX2                !
 ! A128  A(21,66,67)           109.4712         estimate D2E/DX2                !
 ! A129  A(21,66,68)           109.4712         estimate D2E/DX2                !
 ! A130  A(21,66,69)           109.4712         estimate D2E/DX2                !
 ! A131  A(67,66,68)           109.4713         estimate D2E/DX2                !
 ! A132  A(67,66,69)           109.4712         estimate D2E/DX2                !
 ! A133  A(68,66,69)           109.4712         estimate D2E/DX2                !
 ! D1    D(6,1,2,3)             -0.2257         estimate D2E/DX2                !
 ! D2    D(6,1,2,11)           179.5197         estimate D2E/DX2                !
 ! D3    D(23,1,2,3)          -179.9126         estimate D2E/DX2                !
 ! D4    D(23,1,2,11)           -0.1672         estimate D2E/DX2                !
 ! D5    D(2,1,6,5)              0.4461         estimate D2E/DX2                !
 ! D6    D(2,1,6,25)          -179.1871         estimate D2E/DX2                !
 ! D7    D(23,1,6,5)          -179.9458         estimate D2E/DX2                !
 ! D8    D(23,1,6,25)            0.4211         estimate D2E/DX2                !
 ! D9    D(2,1,23,7)             0.1707         estimate D2E/DX2                !
 ! D10   D(2,1,23,24)          179.4876         estimate D2E/DX2                !
 ! D11   D(6,1,23,7)          -179.4847         estimate D2E/DX2                !
 ! D12   D(6,1,23,24)           -0.1679         estimate D2E/DX2                !
 ! D13   D(1,2,3,4)             -0.1871         estimate D2E/DX2                !
 ! D14   D(1,2,3,8)            179.8551         estimate D2E/DX2                !
 ! D15   D(11,2,3,4)          -179.8509         estimate D2E/DX2                !
 ! D16   D(11,2,3,8)             0.1913         estimate D2E/DX2                !
 ! D17   D(1,2,11,7)             0.1084         estimate D2E/DX2                !
 ! D18   D(1,2,11,45)         -178.723          estimate D2E/DX2                !
 ! D19   D(3,2,11,7)           179.8099         estimate D2E/DX2                !
 ! D20   D(3,2,11,45)            0.9786         estimate D2E/DX2                !
 ! D21   D(2,3,4,5)              0.3606         estimate D2E/DX2                !
 ! D22   D(2,3,4,9)           -179.7566         estimate D2E/DX2                !
 ! D23   D(8,3,4,5)           -179.6818         estimate D2E/DX2                !
 ! D24   D(8,3,4,9)              0.201          estimate D2E/DX2                !
 ! D25   D(3,4,5,6)             -0.1318         estimate D2E/DX2                !
 ! D26   D(3,4,5,10)           179.8574         estimate D2E/DX2                !
 ! D27   D(9,4,5,6)            179.9852         estimate D2E/DX2                !
 ! D28   D(9,4,5,10)            -0.0256         estimate D2E/DX2                !
 ! D29   D(4,5,6,1)             -0.2704         estimate D2E/DX2                !
 ! D30   D(4,5,6,25)           179.3535         estimate D2E/DX2                !
 ! D31   D(10,5,6,1)           179.7403         estimate D2E/DX2                !
 ! D32   D(10,5,6,25)           -0.6358         estimate D2E/DX2                !
 ! D33   D(1,6,25,26)          178.7944         estimate D2E/DX2                !
 ! D34   D(1,6,25,27)           -1.2175         estimate D2E/DX2                !
 ! D35   D(5,6,25,26)           -0.8089         estimate D2E/DX2                !
 ! D36   D(5,6,25,27)          179.1792         estimate D2E/DX2                !
 ! D37   D(13,7,11,2)         -179.7809         estimate D2E/DX2                !
 ! D38   D(13,7,11,45)          -0.8059         estimate D2E/DX2                !
 ! D39   D(23,7,11,2)           -0.0054         estimate D2E/DX2                !
 ! D40   D(23,7,11,45)         178.9697         estimate D2E/DX2                !
 ! D41   D(11,7,13,12)           3.1593         estimate D2E/DX2                !
 ! D42   D(11,7,13,14)        -177.1416         estimate D2E/DX2                !
 ! D43   D(23,7,13,12)        -176.5729         estimate D2E/DX2                !
 ! D44   D(23,7,13,14)           3.1262         estimate D2E/DX2                !
 ! D45   D(11,7,23,1)           -0.1041         estimate D2E/DX2                !
 ! D46   D(11,7,23,24)        -179.3263         estimate D2E/DX2                !
 ! D47   D(13,7,23,1)          179.6661         estimate D2E/DX2                !
 ! D48   D(13,7,23,24)           0.4439         estimate D2E/DX2                !
 ! D49   D(17,12,13,7)         179.1595         estimate D2E/DX2                !
 ! D50   D(17,12,13,14)         -0.542          estimate D2E/DX2                !
 ! D51   D(22,12,13,7)          -0.9003         estimate D2E/DX2                !
 ! D52   D(22,12,13,14)        179.3983         estimate D2E/DX2                !
 ! D53   D(13,12,17,16)          0.6277         estimate D2E/DX2                !
 ! D54   D(13,12,17,21)       -179.7418         estimate D2E/DX2                !
 ! D55   D(22,12,17,16)       -179.3137         estimate D2E/DX2                !
 ! D56   D(22,12,17,21)          0.3169         estimate D2E/DX2                !
 ! D57   D(7,13,14,15)        -179.7708         estimate D2E/DX2                !
 ! D58   D(7,13,14,18)           0.6661         estimate D2E/DX2                !
 ! D59   D(12,13,14,15)         -0.0753         estimate D2E/DX2                !
 ! D60   D(12,13,14,18)       -179.6384         estimate D2E/DX2                !
 ! D61   D(13,14,15,16)          0.616          estimate D2E/DX2                !
 ! D62   D(13,14,15,20)       -178.8144         estimate D2E/DX2                !
 ! D63   D(18,14,15,16)       -179.8122         estimate D2E/DX2                !
 ! D64   D(18,14,15,20)          0.7575         estimate D2E/DX2                !
 ! D65   D(14,15,16,17)         -0.5277         estimate D2E/DX2                !
 ! D66   D(14,15,16,19)        179.8896         estimate D2E/DX2                !
 ! D67   D(20,15,16,17)        178.8947         estimate D2E/DX2                !
 ! D68   D(20,15,16,19)         -0.688          estimate D2E/DX2                !
 ! D69   D(14,15,20,54)       -178.5166         estimate D2E/DX2                !
 ! D70   D(14,15,20,58)        -57.143          estimate D2E/DX2                !
 ! D71   D(14,15,20,62)         60.6668         estimate D2E/DX2                !
 ! D72   D(16,15,20,54)          2.0637         estimate D2E/DX2                !
 ! D73   D(16,15,20,58)        123.4374         estimate D2E/DX2                !
 ! D74   D(16,15,20,62)       -118.7528         estimate D2E/DX2                !
 ! D75   D(15,16,17,12)         -0.1036         estimate D2E/DX2                !
 ! D76   D(15,16,17,21)       -179.7151         estimate D2E/DX2                !
 ! D77   D(19,16,17,12)        179.4758         estimate D2E/DX2                !
 ! D78   D(19,16,17,21)         -0.1357         estimate D2E/DX2                !
 ! D79   D(12,17,21,46)        -55.5683         estimate D2E/DX2                !
 ! D80   D(12,17,21,50)       -176.7922         estimate D2E/DX2                !
 ! D81   D(12,17,21,66)         62.1518         estimate D2E/DX2                !
 ! D82   D(16,17,21,46)        124.0492         estimate D2E/DX2                !
 ! D83   D(16,17,21,50)          2.8252         estimate D2E/DX2                !
 ! D84   D(16,17,21,66)       -118.2307         estimate D2E/DX2                !
 ! D85   D(15,20,54,55)        -61.6684         estimate D2E/DX2                !
 ! D86   D(15,20,54,56)         58.3316         estimate D2E/DX2                !
 ! D87   D(15,20,54,57)        178.3316         estimate D2E/DX2                !
 ! D88   D(58,20,54,55)        175.8667         estimate D2E/DX2                !
 ! D89   D(58,20,54,56)        -64.1333         estimate D2E/DX2                !
 ! D90   D(58,20,54,57)         55.8667         estimate D2E/DX2                !
 ! D91   D(62,20,54,55)         59.9863         estimate D2E/DX2                !
 ! D92   D(62,20,54,56)        179.9863         estimate D2E/DX2                !
 ! D93   D(62,20,54,57)        -60.0137         estimate D2E/DX2                !
 ! D94   D(15,20,58,59)        -35.7207         estimate D2E/DX2                !
 ! D95   D(15,20,58,60)         84.2793         estimate D2E/DX2                !
 ! D96   D(15,20,58,61)       -155.7207         estimate D2E/DX2                !
 ! D97   D(54,20,58,59)         87.1784         estimate D2E/DX2                !
 ! D98   D(54,20,58,60)       -152.8216         estimate D2E/DX2                !
 ! D99   D(54,20,58,61)        -32.8216         estimate D2E/DX2                !
 ! D100  D(62,20,58,59)       -155.6354         estimate D2E/DX2                !
 ! D101  D(62,20,58,60)        -35.6354         estimate D2E/DX2                !
 ! D102  D(62,20,58,61)         84.3646         estimate D2E/DX2                !
 ! D103  D(15,20,62,63)         45.4635         estimate D2E/DX2                !
 ! D104  D(15,20,62,64)        165.4635         estimate D2E/DX2                !
 ! D105  D(15,20,62,65)        -74.5365         estimate D2E/DX2                !
 ! D106  D(54,20,62,63)        -76.9797         estimate D2E/DX2                !
 ! D107  D(54,20,62,64)         43.0203         estimate D2E/DX2                !
 ! D108  D(54,20,62,65)        163.0203         estimate D2E/DX2                !
 ! D109  D(58,20,62,63)        165.7493         estimate D2E/DX2                !
 ! D110  D(58,20,62,64)        -74.2507         estimate D2E/DX2                !
 ! D111  D(58,20,62,65)         45.7493         estimate D2E/DX2                !
 ! D112  D(17,21,46,47)         95.1359         estimate D2E/DX2                !
 ! D113  D(17,21,46,48)       -144.8641         estimate D2E/DX2                !
 ! D114  D(17,21,46,49)        -24.8641         estimate D2E/DX2                !
 ! D115  D(50,21,46,47)       -142.5919         estimate D2E/DX2                !
 ! D116  D(50,21,46,48)        -22.5919         estimate D2E/DX2                !
 ! D117  D(50,21,46,49)         97.4081         estimate D2E/DX2                !
 ! D118  D(66,21,46,47)        -25.193          estimate D2E/DX2                !
 ! D119  D(66,21,46,48)         94.807          estimate D2E/DX2                !
 ! D120  D(66,21,46,49)       -145.193          estimate D2E/DX2                !
 ! D121  D(17,21,50,51)        -60.322          estimate D2E/DX2                !
 ! D122  D(17,21,50,52)         59.678          estimate D2E/DX2                !
 ! D123  D(17,21,50,53)        179.678          estimate D2E/DX2                !
 ! D124  D(46,21,50,51)        177.6324         estimate D2E/DX2                !
 ! D125  D(46,21,50,52)        -62.3676         estimate D2E/DX2                !
 ! D126  D(46,21,50,53)         57.6324         estimate D2E/DX2                !
 ! D127  D(66,21,50,51)         61.8066         estimate D2E/DX2                !
 ! D128  D(66,21,50,52)       -178.1934         estimate D2E/DX2                !
 ! D129  D(66,21,50,53)        -58.1934         estimate D2E/DX2                !
 ! D130  D(17,21,66,67)        150.6558         estimate D2E/DX2                !
 ! D131  D(17,21,66,68)        -89.3442         estimate D2E/DX2                !
 ! D132  D(17,21,66,69)         30.6558         estimate D2E/DX2                !
 ! D133  D(46,21,66,67)        -89.1392         estimate D2E/DX2                !
 ! D134  D(46,21,66,68)         30.8608         estimate D2E/DX2                !
 ! D135  D(46,21,66,69)        150.8608         estimate D2E/DX2                !
 ! D136  D(50,21,66,67)         28.4157         estimate D2E/DX2                !
 ! D137  D(50,21,66,68)        148.4157         estimate D2E/DX2                !
 ! D138  D(50,21,66,69)        -91.5843         estimate D2E/DX2                !
 ! D139  D(6,25,27,28)        -179.9372         estimate D2E/DX2                !
 ! D140  D(26,25,27,28)          0.05           estimate D2E/DX2                !
 ! D141  D(25,27,28,29)        -66.7493         estimate D2E/DX2                !
 ! D142  D(25,27,28,30)         58.5311         estimate D2E/DX2                !
 ! D143  D(25,27,28,31)        176.1368         estimate D2E/DX2                !
 ! D144  D(27,28,29,32)       -176.7164         estimate D2E/DX2                !
 ! D145  D(27,28,29,33)         62.7254         estimate D2E/DX2                !
 ! D146  D(27,28,29,34)        -54.1037         estimate D2E/DX2                !
 ! D147  D(30,28,29,32)         56.758          estimate D2E/DX2                !
 ! D148  D(30,28,29,33)        -63.8001         estimate D2E/DX2                !
 ! D149  D(30,28,29,34)        179.3708         estimate D2E/DX2                !
 ! D150  D(31,28,29,32)        -60.7324         estimate D2E/DX2                !
 ! D151  D(31,28,29,33)        178.7095         estimate D2E/DX2                !
 ! D152  D(31,28,29,34)         61.8804         estimate D2E/DX2                !
 ! D153  D(27,28,30,35)        176.8486         estimate D2E/DX2                !
 ! D154  D(27,28,30,36)        -63.0005         estimate D2E/DX2                !
 ! D155  D(27,28,30,37)         53.8753         estimate D2E/DX2                !
 ! D156  D(29,28,30,35)        -57.1675         estimate D2E/DX2                !
 ! D157  D(29,28,30,36)         62.9834         estimate D2E/DX2                !
 ! D158  D(29,28,30,37)        179.8592         estimate D2E/DX2                !
 ! D159  D(31,28,30,35)         60.3354         estimate D2E/DX2                !
 ! D160  D(31,28,30,36)       -179.5137         estimate D2E/DX2                !
 ! D161  D(31,28,30,37)        -62.6379         estimate D2E/DX2                !
 ! D162  D(28,29,32,38)        -56.018          estimate D2E/DX2                !
 ! D163  D(28,29,32,39)       -179.0289         estimate D2E/DX2                !
 ! D164  D(28,29,32,40)         64.3791         estimate D2E/DX2                !
 ! D165  D(33,29,32,38)         63.7577         estimate D2E/DX2                !
 ! D166  D(33,29,32,39)        -59.2533         estimate D2E/DX2                !
 ! D167  D(33,29,32,40)       -175.8452         estimate D2E/DX2                !
 ! D168  D(34,29,32,38)       -177.8978         estimate D2E/DX2                !
 ! D169  D(34,29,32,39)         59.0912         estimate D2E/DX2                !
 ! D170  D(34,29,32,40)        -57.5007         estimate D2E/DX2                !
 ! D171  D(28,30,35,38)         56.5955         estimate D2E/DX2                !
 ! D172  D(28,30,35,41)        179.2113         estimate D2E/DX2                !
 ! D173  D(28,30,35,42)        -63.9707         estimate D2E/DX2                !
 ! D174  D(36,30,35,38)        -63.4804         estimate D2E/DX2                !
 ! D175  D(36,30,35,41)         59.1354         estimate D2E/DX2                !
 ! D176  D(36,30,35,42)        175.9534         estimate D2E/DX2                !
 ! D177  D(37,30,35,38)        178.6125         estimate D2E/DX2                !
 ! D178  D(37,30,35,41)        -58.7717         estimate D2E/DX2                !
 ! D179  D(37,30,35,42)         58.0463         estimate D2E/DX2                !
 ! D180  D(29,32,38,35)         55.3473         estimate D2E/DX2                !
 ! D181  D(29,32,38,43)        177.9947         estimate D2E/DX2                !
 ! D182  D(29,32,38,44)        -64.9169         estimate D2E/DX2                !
 ! D183  D(39,32,38,35)        178.1013         estimate D2E/DX2                !
 ! D184  D(39,32,38,43)        -59.2513         estimate D2E/DX2                !
 ! D185  D(39,32,38,44)         57.8371         estimate D2E/DX2                !
 ! D186  D(40,32,38,35)        -64.8985         estimate D2E/DX2                !
 ! D187  D(40,32,38,43)         57.7489         estimate D2E/DX2                !
 ! D188  D(40,32,38,44)        174.8373         estimate D2E/DX2                !
 ! D189  D(30,35,38,32)        -55.528          estimate D2E/DX2                !
 ! D190  D(30,35,38,43)       -178.1365         estimate D2E/DX2                !
 ! D191  D(30,35,38,44)         64.7732         estimate D2E/DX2                !
 ! D192  D(41,35,38,32)       -177.6853         estimate D2E/DX2                !
 ! D193  D(41,35,38,43)         59.7062         estimate D2E/DX2                !
 ! D194  D(41,35,38,44)        -57.384          estimate D2E/DX2                !
 ! D195  D(42,35,38,32)         65.0188         estimate D2E/DX2                !
 ! D196  D(42,35,38,43)        -57.5896         estimate D2E/DX2                !
 ! D197  D(42,35,38,44)       -174.6799         estimate D2E/DX2                !
 --------------------------------------------------------------------------------
 Trust Radius=3.00D-01 FncErr=5.00D-06 GrdErr=5.00D-06 EigMax=2.50D+02 EigMin=1.00D-04
 Number of steps in this run=    412 maximum allowed number of steps=    414.
 GradGradGradGradGradGradGradGradGradGradGradGradGradGradGradGradGradGrad

 Leave Link  103 at Thu Dec 20 17:49:31 2018, MaxMem=  1342177280 cpu:               0.2 elap:               0.0
 (Enter /gpfs/apps/hpc/Apps/Restricted/Gaussian/Rev_A.03/g16/l202.exe)
 Symmetry turned off by external request.
 Stoichiometry    C28H37N3O(1+,2)
 Framework group  C1[X(C28H37N3O)]
 Deg. of freedom   201
 Full point group                 C1      NOp   1
                          Input orientation:                          
 ---------------------------------------------------------------------
 Center     Atomic      Atomic             Coordinates (Angstroms)
 Number     Number       Type             X           Y           Z
 ---------------------------------------------------------------------
      1          6           0       -0.494597    2.766864    0.316812
      2          6           0       -1.885957    2.952098    0.281696
      3          6           0       -2.445387    4.230806    0.219647
      4          6           0       -1.551503    5.297541    0.199089
      5          6           0       -0.156001    5.107165    0.230909
      6          6           0        0.414560    3.834244    0.287808
      7          6           0       -1.451004    0.756247    0.370733
      8          1           0       -3.516258    4.379767    0.190032
      9          1           0       -1.940194    6.307357    0.155334
     10          1           0        0.498141    5.971090    0.210643
     11          7           0       -2.431359    1.680442    0.315505
     12          6           0       -3.024290   -1.196084    0.325781
     13          6           0       -1.655310   -0.671278    0.413258
     14          6           0       -0.586169   -1.537717    0.527906
     15          6           0       -0.776614   -2.937012    0.565475
     16          6           0       -2.085292   -3.457142    0.470851
     17          6           0       -3.194335   -2.647230    0.352923
     18          1           0        0.425319   -1.154178    0.598616
     19          1           0       -2.216224   -4.533495    0.499268
     20          6           0        0.404605   -3.842274    0.717182
     21          6           0       -4.582941   -3.188047    0.258455
     22          8           0       -4.022813   -0.440590    0.231873
     23          7           0       -0.269548    1.409096    0.373329
     24          1           0        0.685093    1.050764    0.398370
     25          6           0        1.857915    3.599225    0.308331
     26          1           0        2.490862    4.490276    0.262347
     27          7           0        2.323560    2.407928    0.376878
     28          6           0        3.782897    2.230162    0.395727
     29          6           0        4.426775    2.647495   -0.937129
     30          6           0        4.456404    2.958268    1.570883
     31          1           0        3.952736    1.155667    0.527112
     32          6           0        5.935382    2.375957   -0.918524
     33          1           0        4.243690    3.717417   -1.092005
     34          1           0        3.944737    2.113171   -1.761082
     35          6           0        5.963164    2.678837    1.591190
     36          1           0        4.291735    4.036957    1.464995
     37          1           0        3.985141    2.651987    2.509227
     38          6           0        6.615880    3.077198    0.262290
     39          1           0        6.385852    2.692144   -1.864155
     40          1           0        6.100202    1.294309   -0.837698
     41          1           0        6.428086    3.214977    2.423937
     42          1           0        6.129685    1.609213    1.769638
     43          1           0        7.684284    2.842264    0.278001
     44          1           0        6.530591    4.163550    0.132749
     45          1           0       -3.405230    1.379909    0.288803
     46          6           0       -5.472030   -2.591064    1.365131
     47          1           0       -6.001057   -1.744568    0.979805
     48          1           0       -6.172560   -3.328811    1.696624
     49          1           0       -4.860218   -2.285025    2.187886
     50          6           0       -4.584962   -4.723084    0.381974
     51          1           0       -4.001946   -5.145370   -0.409649
     52          1           0       -4.164484   -5.005619    1.324456
     53          1           0       -5.589861   -5.084814    0.316936
     54          6           0       -0.014603   -5.324000    0.698412
     55          1           0       -0.669335   -5.519887    1.521731
     56          1           0       -0.520973   -5.539809   -0.219147
     57          1           0        0.855231   -5.941815    0.779612
     58          6           0        1.426331   -3.599544   -0.409210
     59          1           0        0.908556   -3.370534   -1.317155
     60          1           0        2.061295   -2.780070   -0.144290
     61          1           0        2.019041   -4.479377   -0.548808
     62          6           0        1.130638   -3.550349    2.043552
     63          1           0        0.412128   -3.461676    2.831448
     64          1           0        1.805323   -4.350887    2.264545
     65          1           0        1.678913   -2.635653    1.956229
     66          6           0       -5.231630   -2.794257   -1.081594
     67          1           0       -5.940882   -3.542470   -1.368017
     68          1           0       -5.729628   -1.853352   -0.973913
     69          1           0       -4.475092   -2.713342   -1.833926
 ---------------------------------------------------------------------
 Rotational constants (GHZ):           0.1836344           0.0734220           0.0548744
 Leave Link  202 at Thu Dec 20 17:49:31 2018, MaxMem=  1342177280 cpu:               0.8 elap:               0.1
 (Enter /gpfs/apps/hpc/Apps/Restricted/Gaussian/Rev_A.03/g16/l301.exe)
 Standard basis: 6-31G(d,p) (6D, 7F)
 Ernie: Thresh=  0.10000D-02 Tol=  0.10000D-05 Strict=F.
   665 basis functions,  1155 primitive gaussians,   665 cartesian basis functions
   117 alpha electrons      116 beta electrons
       nuclear repulsion energy      3184.0937524344 Hartrees.
 IExCor=  402 DFT=T Ex+Corr=B3LYP ExCW=0 ScaHFX=  0.200000
 ScaDFX=  0.800000  0.720000  1.000000  0.810000 ScalE2=  1.000000  1.000000
 IRadAn=      5 IRanWt=     -1 IRanGd=            0 ICorTp=0 IEmpDi=141
 NAtoms=   69 NActive=   69 NUniq=   69 SFac= 1.00D+00 NAtFMM=   60 NAOKFM=T Big=T
 Integral buffers will be    131072 words long.
 Raffenetti 2 integral format.
 Two-electron integral symmetry is turned off.
 R6Disp:  Grimme-D3(BJ) Dispersion energy=       -0.1518115792 Hartrees.
 Nuclear repulsion after empirical dispersion term =     3183.9419408552 Hartrees.
 Using the following non-standard input for PCM:
 radii=bondi
 dis
 rep
 cav
 --- end of non-standard input.
 ------------------------------------------------------------------------------
 Polarizable Continuum Model (PCM)
 =================================
 Model                : C-PCM.
 Atomic radii         : Bondi.
 Polarization charges : Total charges.
 Charge compensation  : None.
 Solution method      : On-the-fly selection.
 Cavity type          : Scaled VdW (van der Waals Surface) (Alpha=1.100).
 Cavity algorithm     : GePol (No added spheres)
                        Default sphere list used, NSphG=   69.
                        Lebedev-Laikov grids with approx.  5.0 points / Ang**2.
                        Smoothing algorithm: York/Karplus (Gamma=1.0000).
                        Polarization charges: spherical gaussians, with
                                              point-specific exponents (IZeta= 3).
                        Self-potential: point-specific (ISelfS= 7).
                        Self-field    : sphere-specific E.n sum rule (ISelfD= 2).
 1st derivatives      : Analytical E(r).r(x)/FMM algorithm (CHGder, D1EAlg=3).
                        Cavity 1st derivative terms included.
 Solvent              : Dichloromethane, Eps=   8.930000 Eps(inf)=   2.028346
 ------------------------------------------------------------------------------
 GePol: Number of generator spheres                  =      69
 GePol: Total number of spheres                      =      69
 GePol: Number of exposed spheres                    =      69 (100.00%)
 GePol: Number of points                             =    4302
 GePol: Average weight of points                     =       0.12
 GePol: Minimum weight of points                     =   0.11D-09
 GePol: Maximum weight of points                     =    0.21770
 GePol: Number of points with low weight             =     331
 GePol: Fraction of low-weight points (<1% of avg)   =       7.69%
 GePol: Cavity surface area                          =    511.478 Ang**2
 GePol: Cavity volume                                =    497.384 Ang**3
 PCM non-electrostatic energy =         0.0245893873 Hartrees.
 Nuclear repulsion after PCM non-electrostatic terms =     3183.9665302425 Hartrees.
 Leave Link  301 at Thu Dec 20 17:49:32 2018, MaxMem=  1342177280 cpu:               3.8 elap:               0.3
 (Enter /gpfs/apps/hpc/Apps/Restricted/Gaussian/Rev_A.03/g16/l302.exe)
 NPDir=0 NMtPBC=     1 NCelOv=     1 NCel=       1 NClECP=     1 NCelD=      1
         NCelK=      1 NCelE2=     1 NClLst=     1 CellRange=     0.0.
 One-electron integrals computed using PRISM.
 NBasis=   665 RedAO= T EigKep=  2.94D-04  NBF=   665
 NBsUse=   665 1.00D-06 EigRej= -1.00D+00 NBFU=   665
 Precomputing XC quadrature grid using
 IXCGrd= 4 IRadAn=           5 IRanWt=          -1 IRanGd=           0 AccXCQ= 0.00D+00.
 Generated NRdTot=       0 NPtTot=           0 NUsed=           0 NTot=          32
 NSgBfM=   649   649   649   649   649 MxSgAt=    69 MxSgA2=    69.
 Leave Link  302 at Thu Dec 20 17:49:34 2018, MaxMem=  1342177280 cpu:              37.3 elap:               2.5
 (Enter /gpfs/apps/hpc/Apps/Restricted/Gaussian/Rev_A.03/g16/l303.exe)
 DipDrv:  MaxL=1.
 Leave Link  303 at Thu Dec 20 17:49:35 2018, MaxMem=  1342177280 cpu:               2.2 elap:               0.2
 (Enter /gpfs/apps/hpc/Apps/Restricted/Gaussian/Rev_A.03/g16/l401.exe)
 ExpMin= 1.61D-01 ExpMax= 5.48D+03 ExpMxC= 8.25D+02 IAcc=3 IRadAn=         5 AccDes= 0.00D+00
 Harris functional with IExCor=  402 and IRadAn=       5 diagonalized for initial guess.
 HarFok:  IExCor=  402 AccDes= 0.00D+00 IRadAn=         5 IDoV= 1 UseB2=F ITyADJ=14
 ICtDFT=  3500011 ScaDFX=  1.000000  1.000000  1.000000  1.000000
 FoFCou: FMM=F IPFlag=           0 FMFlag=      100000 FMFlg1=        2001
         NFxFlg=           0 DoJE=T BraDBF=F KetDBF=T FulRan=T
         wScrn=  0.000000 ICntrl=       500 IOpCl=  0 I1Cent=   200000004 NGrid=           0
         NMat0=    1 NMatS0=      1 NMatT0=    0 NMatD0=    1 NMtDS0=    0 NMtDT0=    0
 Symmetry not used in FoFCou.
 Harris En= -1328.80196857018    
 JPrj=0 DoOrth=F DoCkMO=F.
 Initial guess <Sx>= 0.0000 <Sy>= 0.0000 <Sz>= 0.5000 <S**2>= 0.7500 S= 0.5000
 Leave Link  401 at Thu Dec 20 17:49:39 2018, MaxMem=  1342177280 cpu:              61.8 elap:               3.9
 (Enter /gpfs/apps/hpc/Apps/Restricted/Gaussian/Rev_A.03/g16/l502.exe)
 Two-electron integral symmetry not used.
 UHF open shell SCF:
 Using DIIS extrapolation, IDIIS=  1040.
 NGot=  1342177280 LenX=  1341276554 LenY=  1340833664
 Requested convergence on RMS density matrix=1.00D-08 within 128 cycles.
 Requested convergence on MAX density matrix=1.00D-06.
 Requested convergence on             energy=1.00D-06.
 No special actions if energy rises.
 Fock matrices will be formed incrementally for  20 cycles.

 Cycle   1  Pass 1  IDiag  1:
 FoFJK:  IHMeth= 1 ICntrl=       0 DoSepK=F KAlg= 0 I1Cent=           0 FoldK=F
 IRaf= 760000000 NMat=       1 IRICut=       1 DoRegI=T DoRafI=F ISym2E= 0 IDoP0=0 IntGTp=1.
 FoFCou: FMM=T IPFlag=           0 FMFlag=      100000 FMFlg1=        2001
         NFxFlg=           0 DoJE=F BraDBF=F KetDBF=F FulRan=T
         wScrn=  0.000000 ICntrl=         0 IOpCl=  1 I1Cent=           0 NGrid=           0
         NMat0=    1 NMatS0=      1 NMatT0=    0 NMatD0=    1 NMtDS0=    0 NMtDT0=    0
 Symmetry not used in FoFCou.
 FMM levels:  10  Number of levels for PrismC:   9
 Inv3:  Mode=1 IEnd=    55521612.
 Iteration    1 A*A^-1 deviation from unit magnitude is 9.99D-15 for   1613.
 Iteration    1 A*A^-1 deviation from orthogonality  is 3.45D-15 for   3309   1074.
 Iteration    1 A^-1*A deviation from unit magnitude is 9.77D-15 for    791.
 Iteration    1 A^-1*A deviation from orthogonality  is 2.28D-15 for   3603    255.
 E= -1327.93019717108    
 DIIS: error= 3.59D-02 at cycle   1 NSaved=   1.
 NSaved= 1 IEnMin= 1 EnMin= -1327.93019717108     IErMin= 1 ErrMin= 3.59D-02
 ErrMax= 3.59D-02  0.00D+00 EMaxC= 1.00D-01 BMatC= 3.26D+00 BMatP= 3.26D+00
 IDIUse=3 WtCom= 6.41D-01 WtEn= 3.59D-01
 Coeff-Com:  0.100D+01
 Coeff-En:   0.100D+01
 Coeff:      0.100D+01
 Gap=     0.134 Goal=   None    Shift=    0.000
 Gap=     0.091 Goal=   None    Shift=    0.000
 GapD=    0.091 DampG=0.500 DampE=0.500 DampFc=0.2500 IDamp=-1.
 Damping current iteration by 2.50D-01
 RMSDP=3.32D-03 MaxDP=1.77D-01              OVMax= 2.87D-01

 Cycle   2  Pass 1  IDiag  1:
 RMSU=  8.09D-04    CP:  9.85D-01
 E= -1328.24127652956     Delta-E=       -0.311079358486 Rises=F Damp=T
 DIIS: error= 1.74D-02 at cycle   2 NSaved=   2.
 NSaved= 2 IEnMin= 2 EnMin= -1328.24127652956     IErMin= 2 ErrMin= 1.74D-02
 ErrMax= 1.74D-02  0.00D+00 EMaxC= 1.00D-01 BMatC= 8.41D-01 BMatP= 3.26D+00
 IDIUse=3 WtCom= 8.26D-01 WtEn= 1.74D-01
 Coeff-Com: -0.821D+00 0.182D+01
 Coeff-En:   0.000D+00 0.100D+01
 Coeff:     -0.678D+00 0.168D+01
 Gap=     0.168 Goal=   None    Shift=    0.000
 Gap=     0.137 Goal=   None    Shift=    0.000
 RMSDP=1.20D-03 MaxDP=5.71D-02 DE=-3.11D-01 OVMax= 2.10D-01

 Cycle   3  Pass 1  IDiag  1:
 RMSU=  8.68D-04    CP:  9.54D-01  1.92D+00
 E= -1328.75841520221     Delta-E=       -0.517138672647 Rises=F Damp=F
 DIIS: error= 1.05D-02 at cycle   3 NSaved=   3.
 NSaved= 3 IEnMin= 3 EnMin= -1328.75841520221     IErMin= 3 ErrMin= 1.05D-02
 ErrMax= 1.05D-02  0.00D+00 EMaxC= 1.00D-01 BMatC= 1.48D-01 BMatP= 8.41D-01
 IDIUse=3 WtCom= 8.95D-01 WtEn= 1.05D-01
 Coeff-Com: -0.351D+00 0.786D+00 0.566D+00
 Coeff-En:   0.000D+00 0.000D+00 0.100D+01
 Coeff:     -0.314D+00 0.703D+00 0.612D+00
 Gap=     0.138 Goal=   None    Shift=    0.000
 Gap=     0.089 Goal=   None    Shift=    0.000
 RMSDP=4.91D-04 MaxDP=7.30D-02 DE=-5.17D-01 OVMax= 8.29D-02

 Cycle   4  Pass 1  IDiag  1:
 RMSU=  3.98D-04    CP:  9.58D-01  1.96D+00  6.75D-01
 E= -1328.77876664387     Delta-E=       -0.020351441665 Rises=F Damp=F
 DIIS: error= 8.55D-03 at cycle   4 NSaved=   4.
 NSaved= 4 IEnMin= 4 EnMin= -1328.77876664387     IErMin= 4 ErrMin= 8.55D-03
 ErrMax= 8.55D-03  0.00D+00 EMaxC= 1.00D-01 BMatC= 7.30D-02 BMatP= 1.48D-01
 IDIUse=3 WtCom= 9.15D-01 WtEn= 8.55D-02
 Coeff-Com: -0.482D-01 0.131D+00 0.405D+00 0.513D+00
 Coeff-En:   0.000D+00 0.000D+00 0.319D+00 0.681D+00
 Coeff:     -0.441D-01 0.120D+00 0.397D+00 0.527D+00
 Gap=     0.141 Goal=   None    Shift=    0.000
 Gap=     0.087 Goal=   None    Shift=    0.000
 RMSDP=2.43D-04 MaxDP=3.74D-02 DE=-2.04D-02 OVMax= 3.76D-02

 Cycle   5  Pass 1  IDiag  1:
 RMSU=  1.26D-04    CP:  9.57D-01  1.91D+00  7.89D-01  5.48D-01
 E= -1328.79291273034     Delta-E=       -0.014146086469 Rises=F Damp=F
 DIIS: error= 1.75D-03 at cycle   5 NSaved=   5.
 NSaved= 5 IEnMin= 5 EnMin= -1328.79291273034     IErMin= 5 ErrMin= 1.75D-03
 ErrMax= 1.75D-03  0.00D+00 EMaxC= 1.00D-01 BMatC= 4.66D-03 BMatP= 7.30D-02
 IDIUse=3 WtCom= 9.82D-01 WtEn= 1.75D-02
 Coeff-Com:  0.482D-02 0.125D-02 0.173D+00 0.295D+00 0.526D+00
 Coeff-En:   0.000D+00 0.000D+00 0.000D+00 0.000D+00 0.100D+01
 Coeff:      0.474D-02 0.123D-02 0.170D+00 0.289D+00 0.534D+00
 Gap=     0.142 Goal=   None    Shift=    0.000
 Gap=     0.089 Goal=   None    Shift=    0.000
 RMSDP=6.92D-05 MaxDP=1.17D-02 DE=-1.41D-02 OVMax= 1.60D-02

 Cycle   6  Pass 1  IDiag  1:
 RMSU=  4.39D-05    CP:  9.57D-01  1.91D+00  7.99D-01  6.13D-01  6.37D-01
 E= -1328.79395106445     Delta-E=       -0.001038334107 Rises=F Damp=F
 DIIS: error= 5.90D-04 at cycle   6 NSaved=   6.
 NSaved= 6 IEnMin= 6 EnMin= -1328.79395106445     IErMin= 6 ErrMin= 5.90D-04
 ErrMax= 5.90D-04  0.00D+00 EMaxC= 1.00D-01 BMatC= 5.11D-04 BMatP= 4.66D-03
 IDIUse=3 WtCom= 9.94D-01 WtEn= 5.90D-03
 Coeff-Com:  0.707D-02-0.113D-01 0.501D-01 0.944D-01 0.290D+00 0.570D+00
 Coeff-En:   0.000D+00 0.000D+00 0.000D+00 0.000D+00 0.000D+00 0.100D+01
 Coeff:      0.702D-02-0.113D-01 0.498D-01 0.939D-01 0.288D+00 0.572D+00
 Gap=     0.142 Goal=   None    Shift=    0.000
 Gap=     0.090 Goal=   None    Shift=    0.000
 RMSDP=2.42D-05 MaxDP=3.03D-03 DE=-1.04D-03 OVMax= 7.66D-03

 Cycle   7  Pass 1  IDiag  1:
 RMSU=  2.01D-05    CP:  9.56D-01  1.91D+00  8.01D-01  6.10D-01  7.33D-01
                    CP:  8.85D-01
 E= -1328.79410870882     Delta-E=       -0.000157644375 Rises=F Damp=F
 DIIS: error= 2.46D-04 at cycle   7 NSaved=   7.
 NSaved= 7 IEnMin= 7 EnMin= -1328.79410870882     IErMin= 7 ErrMin= 2.46D-04
 ErrMax= 2.46D-04  0.00D+00 EMaxC= 1.00D-01 BMatC= 7.14D-05 BMatP= 5.11D-04
 IDIUse=3 WtCom= 9.98D-01 WtEn= 2.46D-03
 Coeff-Com:  0.171D-02-0.434D-02-0.151D-01-0.283D-01 0.112D-01 0.235D+00
 Coeff-Com:  0.800D+00
 Coeff-En:   0.000D+00 0.000D+00 0.000D+00 0.000D+00 0.000D+00 0.000D+00
 Coeff-En:   0.100D+01
 Coeff:      0.171D-02-0.433D-02-0.151D-01-0.282D-01 0.112D-01 0.234D+00
 Coeff:      0.800D+00
 Gap=     0.143 Goal=   None    Shift=    0.000
 Gap=     0.091 Goal=   None    Shift=    0.000
 RMSDP=1.44D-05 MaxDP=2.42D-03 DE=-1.58D-04 OVMax= 4.17D-03

 Cycle   8  Pass 1  IDiag  1:
 RMSU=  9.13D-06    CP:  9.56D-01  1.91D+00  8.04D-01  6.15D-01  7.73D-01
                    CP:  1.10D+00  1.04D+00
 E= -1328.79415798103     Delta-E=       -0.000049272207 Rises=F Damp=F
 DIIS: error= 1.36D-04 at cycle   8 NSaved=   8.
 NSaved= 8 IEnMin= 8 EnMin= -1328.79415798103     IErMin= 8 ErrMin= 1.36D-04
 ErrMax= 1.36D-04  0.00D+00 EMaxC= 1.00D-01 BMatC= 2.36D-05 BMatP= 7.14D-05
 IDIUse=3 WtCom= 9.99D-01 WtEn= 1.36D-03
 Coeff-Com: -0.144D-02 0.195D-02-0.213D-01-0.453D-01-0.852D-01-0.107D+00
 Coeff-Com:  0.355D+00 0.903D+00
 Coeff-En:   0.000D+00 0.000D+00 0.000D+00 0.000D+00 0.000D+00 0.000D+00
 Coeff-En:   0.000D+00 0.100D+01
 Coeff:     -0.144D-02 0.195D-02-0.212D-01-0.452D-01-0.851D-01-0.107D+00
 Coeff:      0.354D+00 0.903D+00
 Gap=     0.143 Goal=   None    Shift=    0.000
 Gap=     0.091 Goal=   None    Shift=    0.000
 RMSDP=1.11D-05 MaxDP=1.68D-03 DE=-4.93D-05 OVMax= 3.41D-03

 Cycle   9  Pass 1  IDiag  1:
 RMSU=  5.24D-06    CP:  9.56D-01  1.91D+00  8.05D-01  6.14D-01  8.07D-01
                    CP:  1.22D+00  1.38D+00  1.21D+00
 E= -1328.79417579546     Delta-E=       -0.000017814429 Rises=F Damp=F
 DIIS: error= 7.19D-05 at cycle   9 NSaved=   9.
 NSaved= 9 IEnMin= 9 EnMin= -1328.79417579546     IErMin= 9 ErrMin= 7.19D-05
 ErrMax= 7.19D-05  0.00D+00 EMaxC= 1.00D-01 BMatC= 8.14D-06 BMatP= 2.36D-05
 IDIUse=1 WtCom= 1.00D+00 WtEn= 0.00D+00
 Coeff-Com: -0.953D-03 0.168D-02-0.926D-02-0.216D-01-0.512D-01-0.123D+00
 Coeff-Com:  0.437D-01 0.538D+00 0.623D+00
 Coeff:     -0.953D-03 0.168D-02-0.926D-02-0.216D-01-0.512D-01-0.123D+00
 Coeff:      0.437D-01 0.538D+00 0.623D+00
 Gap=     0.143 Goal=   None    Shift=    0.000
 Gap=     0.091 Goal=   None    Shift=    0.000
 RMSDP=4.55D-06 MaxDP=7.48D-04 DE=-1.78D-05 OVMax= 1.29D-03

 Cycle  10  Pass 1  IDiag  1:
 RMSU=  2.51D-06    CP:  9.56D-01  1.91D+00  8.06D-01  6.14D-01  8.18D-01
                    CP:  1.26D+00  1.48D+00  1.42D+00  7.93D-01
 E= -1328.79417936692     Delta-E=       -0.000003571455 Rises=F Damp=F
 DIIS: error= 2.56D-05 at cycle  10 NSaved=  10.
 NSaved=10 IEnMin=10 EnMin= -1328.79417936692     IErMin=10 ErrMin= 2.56D-05
 ErrMax= 2.56D-05  0.00D+00 EMaxC= 1.00D-01 BMatC= 1.43D-06 BMatP= 8.14D-06
 IDIUse=1 WtCom= 1.00D+00 WtEn= 0.00D+00
 Coeff-Com: -0.761D-04 0.270D-03-0.954D-04-0.138D-02-0.684D-02-0.441D-01
 Coeff-Com: -0.467D-01 0.701D-01 0.331D+00 0.698D+00
 Coeff:     -0.761D-04 0.270D-03-0.954D-04-0.138D-02-0.684D-02-0.441D-01
 Coeff:     -0.467D-01 0.701D-01 0.331D+00 0.698D+00
 Gap=     0.143 Goal=   None    Shift=    0.000
 Gap=     0.091 Goal=   None    Shift=    0.000
 RMSDP=1.89D-06 MaxDP=3.85D-04 DE=-3.57D-06 OVMax= 5.64D-04

 Cycle  11  Pass 1  IDiag  1:
 RMSU=  1.11D-06    CP:  9.56D-01  1.91D+00  8.06D-01  6.13D-01  8.20D-01
                    CP:  1.27D+00  1.51D+00  1.49D+00  9.90D-01  9.58D-01
 E= -1328.79417993313     Delta-E=       -0.000000566214 Rises=F Damp=F
 DIIS: error= 7.72D-06 at cycle  11 NSaved=  11.
 NSaved=11 IEnMin=11 EnMin= -1328.79417993313     IErMin=11 ErrMin= 7.72D-06
 ErrMax= 7.72D-06  0.00D+00 EMaxC= 1.00D-01 BMatC= 3.10D-07 BMatP= 1.43D-06
 IDIUse=1 WtCom= 1.00D+00 WtEn= 0.00D+00
 Coeff-Com:  0.142D-03-0.163D-03 0.195D-02 0.382D-02 0.745D-02 0.989D-03
 Coeff-Com: -0.308D-01-0.772D-01 0.583D-01 0.393D+00 0.643D+00
 Coeff:      0.142D-03-0.163D-03 0.195D-02 0.382D-02 0.745D-02 0.989D-03
 Coeff:     -0.308D-01-0.772D-01 0.583D-01 0.393D+00 0.643D+00
 Gap=     0.143 Goal=   None    Shift=    0.000
 Gap=     0.091 Goal=   None    Shift=    0.000
 RMSDP=7.24D-07 MaxDP=9.44D-05 DE=-5.66D-07 OVMax= 1.92D-04

 Cycle  12  Pass 1  IDiag  1:
 RMSU=  4.27D-07    CP:  9.56D-01  1.91D+00  8.06D-01  6.13D-01  8.21D-01
                    CP:  1.27D+00  1.52D+00  1.52D+00  1.04D+00  1.12D+00
                    CP:  8.92D-01
 E= -1328.79418005120     Delta-E=       -0.000000118067 Rises=F Damp=F
 DIIS: error= 6.56D-06 at cycle  12 NSaved=  12.
 NSaved=12 IEnMin=12 EnMin= -1328.79418005120     IErMin=12 ErrMin= 6.56D-06
 ErrMax= 6.56D-06  0.00D+00 EMaxC= 1.00D-01 BMatC= 3.49D-08 BMatP= 3.10D-07
 IDIUse=1 WtCom= 1.00D+00 WtEn= 0.00D+00
 Coeff-Com:  0.733D-04-0.118D-03 0.875D-03 0.195D-02 0.454D-02 0.764D-02
 Coeff-Com: -0.521D-02-0.477D-01-0.263D-01 0.588D-01 0.264D+00 0.742D+00
 Coeff:      0.733D-04-0.118D-03 0.875D-03 0.195D-02 0.454D-02 0.764D-02
 Coeff:     -0.521D-02-0.477D-01-0.263D-01 0.588D-01 0.264D+00 0.742D+00
 Gap=     0.143 Goal=   None    Shift=    0.000
 Gap=     0.091 Goal=   None    Shift=    0.000
 RMSDP=3.27D-07 MaxDP=4.52D-05 DE=-1.18D-07 OVMax= 9.76D-05

 Cycle  13  Pass 1  IDiag  1:
 RMSU=  2.17D-07    CP:  9.56D-01  1.91D+00  8.06D-01  6.13D-01  8.21D-01
                    CP:  1.27D+00  1.52D+00  1.52D+00  1.06D+00  1.18D+00
                    CP:  1.02D+00  9.10D-01
 E= -1328.79418006737     Delta-E=       -0.000000016176 Rises=F Damp=F
 DIIS: error= 3.24D-06 at cycle  13 NSaved=  13.
 NSaved=13 IEnMin=13 EnMin= -1328.79418006737     IErMin=13 ErrMin= 3.24D-06
 ErrMax= 3.24D-06  0.00D+00 EMaxC= 1.00D-01 BMatC= 2.03D-08 BMatP= 3.49D-08
 IDIUse=1 WtCom= 1.00D+00 WtEn= 0.00D+00
 Coeff-Com:  0.556D-05-0.280D-04 0.681D-04 0.321D-03 0.107D-02 0.463D-02
 Coeff-Com:  0.413D-02-0.126D-01-0.301D-01-0.574D-01 0.121D-01 0.501D+00
 Coeff-Com:  0.577D+00
 Coeff:      0.556D-05-0.280D-04 0.681D-04 0.321D-03 0.107D-02 0.463D-02
 Coeff:      0.413D-02-0.126D-01-0.301D-01-0.574D-01 0.121D-01 0.501D+00
 Coeff:      0.577D+00
 Gap=     0.143 Goal=   None    Shift=    0.000
 Gap=     0.091 Goal=   None    Shift=    0.000
 RMSDP=1.79D-07 MaxDP=3.34D-05 DE=-1.62D-08 OVMax= 5.77D-05

 Cycle  14  Pass 1  IDiag  1:
 RMSU=  1.02D-07    CP:  9.56D-01  1.91D+00  8.06D-01  6.13D-01  8.21D-01
                    CP:  1.27D+00  1.52D+00  1.52D+00  1.07D+00  1.20D+00
                    CP:  1.07D+00  1.14D+00  8.06D-01
 E= -1328.79418007497     Delta-E=       -0.000000007597 Rises=F Damp=F
 DIIS: error= 1.27D-06 at cycle  14 NSaved=  14.
 NSaved=14 IEnMin=14 EnMin= -1328.79418007497     IErMin=14 ErrMin= 1.27D-06
 ErrMax= 1.27D-06  0.00D+00 EMaxC= 1.00D-01 BMatC= 1.44D-09 BMatP= 2.03D-08
 IDIUse=1 WtCom= 1.00D+00 WtEn= 0.00D+00
 Coeff-Com: -0.202D-04 0.260D-04-0.161D-03-0.287D-03-0.631D-03-0.110D-03
 Coeff-Com:  0.231D-02 0.568D-02-0.320D-02-0.306D-01-0.511D-01 0.841D-02
 Coeff-Com:  0.170D+00 0.899D+00
 Coeff:     -0.202D-04 0.260D-04-0.161D-03-0.287D-03-0.631D-03-0.110D-03
 Coeff:      0.231D-02 0.568D-02-0.320D-02-0.306D-01-0.511D-01 0.841D-02
 Coeff:      0.170D+00 0.899D+00
 Gap=     0.143 Goal=   None    Shift=    0.000
 Gap=     0.091 Goal=   None    Shift=    0.000
 RMSDP=8.42D-08 MaxDP=1.15D-05 DE=-7.60D-09 OVMax= 2.57D-05

 Cycle  15  Pass 1  IDiag  1:
 RMSU=  4.10D-08    CP:  9.56D-01  1.91D+00  8.06D-01  6.13D-01  8.21D-01
                    CP:  1.27D+00  1.52D+00  1.53D+00  1.07D+00  1.21D+00
                    CP:  1.09D+00  1.23D+00  1.02D+00  1.13D+00
 E= -1328.79418007619     Delta-E=       -0.000000001219 Rises=F Damp=F
 DIIS: error= 5.77D-07 at cycle  15 NSaved=  15.
 NSaved=15 IEnMin=15 EnMin= -1328.79418007619     IErMin=15 ErrMin= 5.77D-07
 ErrMax= 5.77D-07  0.00D+00 EMaxC= 1.00D-01 BMatC= 4.97D-10 BMatP= 1.44D-09
 IDIUse=1 WtCom= 1.00D+00 WtEn= 0.00D+00
 Coeff-Com: -0.111D-04 0.183D-04-0.822D-04-0.172D-03-0.474D-03-0.894D-03
 Coeff-Com:  0.137D-03 0.457D-02 0.406D-02-0.306D-02-0.249D-01-0.865D-01
 Coeff-Com: -0.300D-01 0.423D+00 0.714D+00
 Coeff:     -0.111D-04 0.183D-04-0.822D-04-0.172D-03-0.474D-03-0.894D-03
 Coeff:      0.137D-03 0.457D-02 0.406D-02-0.306D-02-0.249D-01-0.865D-01
 Coeff:     -0.300D-01 0.423D+00 0.714D+00
 Gap=     0.143 Goal=   None    Shift=    0.000
 Gap=     0.091 Goal=   None    Shift=    0.000
 RMSDP=3.95D-08 MaxDP=5.38D-06 DE=-1.22D-09 OVMax= 1.31D-05

 Cycle  16  Pass 1  IDiag  1:
 RMSU=  2.12D-08    CP:  9.56D-01  1.91D+00  8.06D-01  6.13D-01  8.21D-01
                    CP:  1.27D+00  1.52D+00  1.53D+00  1.07D+00  1.21D+00
                    CP:  1.10D+00  1.26D+00  1.07D+00  1.35D+00  9.84D-01
 E= -1328.79418007665     Delta-E=       -0.000000000463 Rises=F Damp=F
 DIIS: error= 3.53D-07 at cycle  16 NSaved=  16.
 NSaved=16 IEnMin=16 EnMin= -1328.79418007665     IErMin=16 ErrMin= 3.53D-07
 ErrMax= 3.53D-07  0.00D+00 EMaxC= 1.00D-01 BMatC= 1.21D-10 BMatP= 4.97D-10
 IDIUse=1 WtCom= 1.00D+00 WtEn= 0.00D+00
 Coeff-Com:  0.172D-05-0.847D-06 0.188D-04 0.303D-04 0.116D-04-0.363D-03
 Coeff-Com: -0.766D-03-0.863D-04 0.290D-02 0.101D-01 0.739D-02-0.383D-01
 Coeff-Com: -0.723D-01-0.127D+00 0.319D+00 0.900D+00
 Coeff:      0.172D-05-0.847D-06 0.188D-04 0.303D-04 0.116D-04-0.363D-03
 Coeff:     -0.766D-03-0.863D-04 0.290D-02 0.101D-01 0.739D-02-0.383D-01
 Coeff:     -0.723D-01-0.127D+00 0.319D+00 0.900D+00
 Gap=     0.143 Goal=   None    Shift=    0.000
 Gap=     0.091 Goal=   None    Shift=    0.000
 RMSDP=2.56D-08 MaxDP=3.61D-06 DE=-4.63D-10 OVMax= 9.37D-06

 Cycle  17  Pass 1  IDiag  1:
 RMSU=  1.09D-08    CP:  9.56D-01  1.91D+00  8.06D-01  6.13D-01  8.21D-01
                    CP:  1.27D+00  1.52D+00  1.53D+00  1.07D+00  1.21D+00
                    CP:  1.11D+00  1.28D+00  1.12D+00  1.47D+00  1.31D+00
                    CP:  1.19D+00
 E= -1328.79418007669     Delta-E=       -0.000000000044 Rises=F Damp=F
 DIIS: error= 2.13D-07 at cycle  17 NSaved=  17.
 NSaved=17 IEnMin=17 EnMin= -1328.79418007669     IErMin=17 ErrMin= 2.13D-07
 ErrMax= 2.13D-07  0.00D+00 EMaxC= 1.00D-01 BMatC= 2.91D-11 BMatP= 1.21D-10
 IDIUse=1 WtCom= 1.00D+00 WtEn= 0.00D+00
 Coeff-Com:  0.207D-05-0.253D-05 0.202D-04 0.401D-04 0.728D-04-0.623D-04
 Coeff-Com: -0.389D-03-0.687D-03 0.888D-03 0.559D-02 0.666D-02-0.632D-02
 Coeff-Com: -0.297D-01-0.124D+00 0.564D-01 0.432D+00 0.659D+00
 Coeff:      0.207D-05-0.253D-05 0.202D-04 0.401D-04 0.728D-04-0.623D-04
 Coeff:     -0.389D-03-0.687D-03 0.888D-03 0.559D-02 0.666D-02-0.632D-02
 Coeff:     -0.297D-01-0.124D+00 0.564D-01 0.432D+00 0.659D+00
 Gap=     0.143 Goal=   None    Shift=    0.000
 Gap=     0.091 Goal=   None    Shift=    0.000
 RMSDP=9.29D-09 MaxDP=1.26D-06 DE=-4.37D-11 OVMax= 3.14D-06

 Cycle  18  Pass 1  IDiag  1:
 RMSU=  5.70D-09    CP:  9.56D-01  1.91D+00  8.06D-01  6.13D-01  8.21D-01
                    CP:  1.27D+00  1.52D+00  1.53D+00  1.07D+00  1.21D+00
                    CP:  1.11D+00  1.28D+00  1.13D+00  1.50D+00  1.41D+00
                    CP:  1.39D+00  1.05D+00
 E= -1328.79418007670     Delta-E=       -0.000000000003 Rises=F Damp=F
 DIIS: error= 1.22D-07 at cycle  18 NSaved=  18.
 NSaved=18 IEnMin=18 EnMin= -1328.79418007670     IErMin=18 ErrMin= 1.22D-07
 ErrMax= 1.22D-07  0.00D+00 EMaxC= 1.00D-01 BMatC= 9.57D-12 BMatP= 2.91D-11
 IDIUse=1 WtCom= 1.00D+00 WtEn= 0.00D+00
 Coeff-Com:  0.252D-06-0.785D-06 0.409D-05 0.122D-04 0.416D-04 0.118D-03
 Coeff-Com:  0.113D-03-0.409D-03-0.740D-03-0.952D-03 0.470D-03 0.133D-01
 Coeff-Com:  0.159D-01-0.211D-01-0.102D+00-0.138D+00 0.369D+00 0.864D+00
 Coeff:      0.252D-06-0.785D-06 0.409D-05 0.122D-04 0.416D-04 0.118D-03
 Coeff:      0.113D-03-0.409D-03-0.740D-03-0.952D-03 0.470D-03 0.133D-01
 Coeff:      0.159D-01-0.211D-01-0.102D+00-0.138D+00 0.369D+00 0.864D+00
 Gap=     0.143 Goal=   None    Shift=    0.000
 Gap=     0.091 Goal=   None    Shift=    0.000
 RMSDP=7.83D-09 MaxDP=8.89D-07 DE=-2.73D-12 OVMax= 3.57D-06

 Error on total polarization charges =  0.04430
 SCF Done:  E(UB3LYP) =  -1328.79418008     A.U. after   18 cycles
            NFock= 18  Conv=0.78D-08     -V/T= 2.0091
 <Sx>= 0.0000 <Sy>= 0.0000 <Sz>= 0.5000 <S**2>= 0.7712 S= 0.5105
 <L.S>= 0.000000000000E+00
[...]
   D110      -1.06716  -0.00000   0.00000   0.00000   0.00000  -1.06715
   D111       1.01690  -0.00000   0.00000   0.00000   0.00000   1.01690
   D112       1.08529  -0.00000   0.00000  -0.00000  -0.00000   1.08529
   D113      -3.10228  -0.00000   0.00000  -0.00000  -0.00000  -3.10228
   D114      -1.02534  -0.00000   0.00000  -0.00000  -0.00000  -1.02535
   D115      -3.07040   0.00000   0.00000  -0.00000  -0.00000  -3.07040
   D116      -0.97478   0.00000   0.00000  -0.00000  -0.00000  -0.97479
   D117       1.10215   0.00000   0.00000  -0.00000  -0.00000   1.10215
   D118      -1.01772   0.00000   0.00000  -0.00000  -0.00000  -1.01773
   D119       1.07789   0.00000   0.00000  -0.00000  -0.00000   1.07789
   D120      -3.12836   0.00000   0.00000  -0.00000  -0.00000  -3.12836
   D121      -1.06463  -0.00000   0.00000  -0.00001  -0.00001  -1.06465
   D122       1.06135   0.00000   0.00000  -0.00001  -0.00001   1.06134
   D123       3.13922   0.00000   0.00000  -0.00001  -0.00001   3.13920
   D124       3.11226  -0.00000   0.00000  -0.00001  -0.00001   3.11225
   D125      -1.04494  -0.00000   0.00000  -0.00001  -0.00001  -1.04495
   D126       1.03293  -0.00000   0.00000  -0.00001  -0.00001   1.03292
   D127       1.03948  -0.00000   0.00000  -0.00001  -0.00001   1.03947
   D128      -3.11772  -0.00000   0.00000  -0.00001  -0.00001  -3.11773
   D129      -1.03986  -0.00000   0.00000  -0.00001  -0.00001  -1.03987
   D130       3.13392   0.00000   0.00000   0.00001   0.00001   3.13392
   D131      -1.05484   0.00000   0.00000   0.00001   0.00001  -1.05483
   D132       1.06018   0.00000   0.00000   0.00001   0.00001   1.06019
   D133      -1.04512   0.00000   0.00000   0.00001   0.00001  -1.04512
   D134       1.04930   0.00000   0.00000   0.00001   0.00001   1.04931
   D135      -3.11886   0.00000   0.00000   0.00001   0.00001  -3.11886
   D136       1.00742  -0.00000   0.00000   0.00000   0.00000   1.00743
   D137       3.10185  -0.00000   0.00000   0.00001   0.00001   3.10185
   D138      -1.06632  -0.00000   0.00000   0.00000   0.00000  -1.06631
   D139       3.11110   0.00000   0.00000   0.00001   0.00001   3.11111
   D140      -0.02609   0.00000   0.00000   0.00000   0.00000  -0.02609
   D141      -1.33661   0.00000   0.00000   0.00005   0.00005  -1.33655
   D142       0.85660   0.00000   0.00000   0.00005   0.00005   0.85666
   D143       2.92202   0.00000   0.00000   0.00005   0.00005   2.92207
   D144      -3.06127   0.00000   0.00000   0.00000   0.00000  -3.06126
   D145       1.11592   0.00000   0.00000   0.00000   0.00000   1.11592
   D146      -0.91845   0.00000   0.00000   0.00000   0.00000  -0.91845
   D147       0.99048  -0.00000   0.00000   0.00000   0.00000   0.99048
   D148      -1.11552  -0.00000   0.00000   0.00000   0.00000  -1.11552
   D149       3.13329  -0.00000   0.00000   0.00000   0.00000   3.13330
   D150      -1.05474   0.00000   0.00000   0.00000   0.00000  -1.05474
   D151       3.12245   0.00000   0.00000   0.00000   0.00000   3.12245
   D152       1.08808  -0.00000   0.00000   0.00000   0.00000   1.08808
   D153       3.09376  -0.00000   0.00000  -0.00000  -0.00000   3.09375
   D154      -1.09006  -0.00000   0.00000  -0.00000  -0.00000  -1.09006
   D155       0.95891  -0.00000   0.00000  -0.00000  -0.00000   0.95891
   D156      -0.99854  -0.00000   0.00000   0.00000   0.00000  -0.99853
   D157       1.10084   0.00000   0.00000   0.00000   0.00000   1.10084
   D158      -3.13338   0.00000   0.00000   0.00000   0.00000  -3.13338
   D159       1.04563  -0.00000   0.00000   0.00000   0.00000   1.04564
   D160      -3.13818   0.00000   0.00000   0.00000   0.00000  -3.13818
   D161      -1.08921   0.00000   0.00000   0.00000   0.00000  -1.08921
   D162      -0.96626   0.00000   0.00000  -0.00000  -0.00000  -0.96626
   D163      -3.10482  -0.00000   0.00000  -0.00001  -0.00001  -3.10483
   D164       1.14280   0.00000   0.00000  -0.00001  -0.00001   1.14279
   D165       1.12300   0.00000   0.00000  -0.00000  -0.00000   1.12300
   D166      -1.01556  -0.00000   0.00000  -0.00001  -0.00001  -1.01556
   D167      -3.05113   0.00000   0.00000  -0.00001  -0.00001  -3.05113
   D168      -3.09550   0.00000   0.00000  -0.00000  -0.00000  -3.09551
   D169       1.04912  -0.00000   0.00000  -0.00000  -0.00000   1.04912
   D170      -0.98645   0.00000   0.00000  -0.00000  -0.00000  -0.98645
   D171       0.98672   0.00000   0.00000  -0.00000  -0.00000   0.98672
   D172       3.12596   0.00000   0.00000  -0.00000  -0.00000   3.12596
   D173      -1.12085   0.00000   0.00000  -0.00000  -0.00000  -1.12085
   D174      -1.12056  -0.00000   0.00000  -0.00000  -0.00000  -1.12057
   D175       1.01868   0.00000   0.00000  -0.00000  -0.00000   1.01867
   D176       3.05505  -0.00000   0.00000  -0.00000  -0.00000   3.05505
   D177       3.10717  -0.00000   0.00000  -0.00001  -0.00001   3.10717
   D178      -1.03677  -0.00000   0.00000  -0.00000  -0.00000  -1.03678
   D179       0.99960  -0.00000   0.00000  -0.00000  -0.00000   0.99960
   D180       0.95124  -0.00000   0.00000   0.00000   0.00000   0.95124
   D181       3.09299  -0.00000   0.00000   0.00000   0.00000   3.09299
   D182      -1.14904  -0.00000   0.00000   0.00000   0.00000  -1.14904
   D183       3.08405  -0.00000   0.00000   0.00000   0.00000   3.08406
   D184      -1.05738  -0.00000   0.00000   0.00000   0.00000  -1.05737
   D185       0.98378   0.00000   0.00000   0.00000   0.00000   0.98378
   D186      -1.15519   0.00000   0.00000   0.00000   0.00000  -1.15518
   D187       0.98657   0.00000   0.00000   0.00000   0.00000   0.98657
   D188       3.02772   0.00000   0.00000   0.00000   0.00000   3.02773
   D189      -0.96300   0.00000   0.00000   0.00000   0.00000  -0.96300
   D190      -3.10437   0.00000   0.00000   0.00000   0.00000  -3.10437
   D191       1.13641   0.00000   0.00000   0.00000   0.00000   1.13641
   D192      -3.09618  -0.00000   0.00000   0.00000   0.00000  -3.09618
   D193       1.04564  -0.00000   0.00000  -0.00000  -0.00000   1.04564
   D194      -0.99677   0.00000   0.00000  -0.00000  -0.00000  -0.99677
   D195       1.14220  -0.00000   0.00000   0.00000   0.00000   1.14220
   D196      -0.99916  -0.00000   0.00000  -0.00000  -0.00000  -0.99916
   D197      -3.04157   0.00000   0.00000  -0.00000  -0.00000  -3.04157
         Item               Value     Threshold  Converged?
 Maximum Force            0.000001     0.000015     YES
 RMS     Force            0.000000     0.000010     YES
 Maximum Displacement     0.000125     0.000060     NO 
 RMS     Displacement     0.000028     0.000040     YES
 Predicted change in Energy=-2.053667D-11
 GradGradGradGradGradGradGradGradGradGradGradGradGradGradGradGradGradGrad

 Leave Link  103 at Thu Dec 20 19:15:02 2018, MaxMem=  1342177280 cpu:               4.5 elap:               0.3
 (Enter /gpfs/apps/hpc/Apps/Restricted/Gaussian/Rev_A.03/g16/l202.exe)
 Symmetry turned off by external request.
 Stoichiometry    C28H37N3O(1+,2)
 Framework group  C1[X(C28H37N3O)]
 Deg. of freedom   201
 Full point group                 C1      NOp   1
                          Input orientation:                          
 ---------------------------------------------------------------------
 Center     Atomic      Atomic             Coordinates (Angstroms)
 Number     Number       Type             X           Y           Z
 ---------------------------------------------------------------------
      1          6           0       -0.500702    2.795102    0.366551
      2          6           0       -1.888758    2.988757    0.285142
      3          6           0       -2.439119    4.269534    0.195167
      4          6           0       -1.539356    5.331388    0.197400
      5          6           0       -0.147532    5.133657    0.282597
      6          6           0        0.414370    3.857941    0.366304
      7          6           0       -1.472879    0.789423    0.397002
      8          1           0       -3.507437    4.423450    0.125644
      9          1           0       -1.920623    6.342853    0.132015
     10          1           0        0.511073    5.994516    0.282140
     11          7           0       -2.443277    1.720965    0.307414
     12          6           0       -3.051165   -1.165078    0.324995
     13          6           0       -1.681520   -0.639531    0.436728
     14          6           0       -0.608877   -1.496603    0.563800
     15          6           0       -0.787012   -2.897041    0.585280
     16          6           0       -2.095982   -3.411940    0.477240
     17          6           0       -3.223378   -2.622390    0.349007
     18          1           0        0.395797   -1.102180    0.650893
     19          1           0       -2.218511   -4.483274    0.495941
     20          6           0        0.439556   -3.791573    0.699385
     21          6           0       -4.620522   -3.224008    0.230784
     22          8           0       -4.026143   -0.380290    0.211272
     23          7           0       -0.287165    1.435616    0.433706
     24          1           0        0.662885    1.069187    0.482506
     25          6           0        1.855665    3.620565    0.438947
     26          1           0        2.487593    4.512926    0.429019
     27          7           0        2.319920    2.428819    0.504607
     28          6           0        3.776931    2.240331    0.536729
     29          6           0        4.373278    2.434573   -0.868008
     30          6           0        4.511954    3.116860    1.562951
     31          1           0        3.936801    1.194248    0.820305
     32          6           0        5.875028    2.129750   -0.872766
     33          1           0        4.202609    3.474278   -1.173371
     34          1           0        3.843554    1.797271   -1.582014
     35          6           0        6.011128    2.797675    1.565428
     36          1           0        4.372399    4.175028    1.314553
     37          1           0        4.078466    2.957497    2.554795
     38          6           0        6.620743    2.970214    0.169923
     39          1           0        6.285855    2.309886   -1.870623
     40          1           0        6.025713    1.064808   -0.656510
     41          1           0        6.525099    3.438567    2.287847
     42          1           0        6.157270    1.763009    1.900127
     43          1           0        7.681303    2.701861    0.183837
     44          1           0        6.564097    4.027530   -0.117473
     45          1           0       -3.417411    1.425695    0.257572
     46          6           0       -5.508801   -2.709144    1.386611
     47          1           0       -5.627823   -1.628406    1.339419
     48          1           0       -6.494982   -3.175810    1.317412
     49          1           0       -5.072533   -2.973004    2.353633
     50          6           0       -4.585102   -4.758692    0.305621
     51          1           0       -3.994600   -5.192684   -0.505398
     52          1           0       -4.175325   -5.106815    1.257244
     53          1           0       -5.604929   -5.138940    0.219080
     54          6           0        0.080923   -5.282851    0.729006
     55          1           0       -0.539615   -5.533049    1.593342
     56          1           0       -0.446740   -5.587361   -0.178169
     57          1           0        0.999176   -5.869916    0.794704
     58          6           0        1.347728   -3.520082   -0.521652
     59          1           0        0.833684   -3.773859   -1.451830
     60          1           0        1.649492   -2.471459   -0.569562
     61          1           0        2.250454   -4.131633   -0.448328
     62          6           0        1.207274   -3.438262    1.991990
     63          1           0        0.587769   -3.612047    2.874593
     64          1           0        2.095181   -4.070809    2.065109
     65          1           0        1.534381   -2.396153    1.998954
     66          6           0       -5.243071   -2.825309   -1.126803
     67          1           0       -6.240047   -3.266660   -1.206485
     68          1           0       -5.332087   -1.744301   -1.222684
     69          1           0       -4.637657   -3.202653   -1.954952
 ---------------------------------------------------------------------
 Rotational constants (GHZ):           0.1825541           0.0735028           0.0548526
 Leave Link  202 at Thu Dec 20 19:15:02 2018, MaxMem=  1342177280 cpu:               1.1 elap:               0.1
 (Enter /gpfs/apps/hpc/Apps/Restricted/Gaussian/Rev_A.03/g16/l301.exe)
 Standard basis: 6-31G(d,p) (6D, 7F)
 Ernie: Thresh=  0.10000D-02 Tol=  0.10000D-05 Strict=F.
   665 basis functions,  1155 primitive gaussians,   665 cartesian basis functions
   117 alpha electrons      116 beta electrons
       nuclear repulsion energy      3175.5998766083 Hartrees.
 IExCor=  402 DFT=T Ex+Corr=B3LYP ExCW=0 ScaHFX=  0.200000
 ScaDFX=  0.800000  0.720000  1.000000  0.810000 ScalE2=  1.000000  1.000000
 IRadAn=      5 IRanWt=     -1 IRanGd=            0 ICorTp=0 IEmpDi=141
 NAtoms=   69 NActive=   69 NUniq=   69 SFac= 1.00D+00 NAtFMM=   60 NAOKFM=T Big=T
 Integral buffers will be    131072 words long.
 Raffenetti 2 integral format.
 Two-electron integral symmetry is turned off.
 R6Disp:  Grimme-D3(BJ) Dispersion energy=       -0.1505983997 Hartrees.
 Nuclear repulsion after empirical dispersion term =     3175.4492782086 Hartrees.
 ------------------------------------------------------------------------------
 Polarizable Continuum Model (PCM)
 =================================
 Model                : C-PCM.
 Atomic radii         : Bondi.
 Polarization charges : Total charges.
 Charge compensation  : None.
 Solution method      : On-the-fly selection.
 Cavity type          : Scaled VdW (van der Waals Surface) (Alpha=1.100).
 Cavity algorithm     : GePol (No added spheres)
                        Default sphere list used, NSphG=   69.
                        Lebedev-Laikov grids with approx.  5.0 points / Ang**2.
                        Smoothing algorithm: York/Karplus (Gamma=1.0000).
                        Polarization charges: spherical gaussians, with
                                              point-specific exponents (IZeta= 3).
                        Self-potential: point-specific (ISelfS= 7).
                        Self-field    : sphere-specific E.n sum rule (ISelfD= 2).
 1st derivatives      : Analytical E(r).r(x)/FMM algorithm (CHGder, D1EAlg=3).
                        Cavity 1st derivative terms included.
 Solvent              : Dichloromethane, Eps=   8.930000 Eps(inf)=   2.028346
 ------------------------------------------------------------------------------
 GePol: Number of generator spheres                  =      69
 GePol: Total number of spheres                      =      69
 GePol: Number of exposed spheres                    =      69 (100.00%)
 GePol: Number of points                             =    4347
 GePol: Average weight of points                     =       0.12
 GePol: Minimum weight of points                     =   0.16D-11
 GePol: Maximum weight of points                     =    0.21770
 GePol: Number of points with low weight             =     315
 GePol: Fraction of low-weight points (<1% of avg)   =       7.25%
 GePol: Cavity surface area                          =    517.597 Ang**2
 GePol: Cavity volume                                =    499.834 Ang**3
 PCM non-electrostatic energy =         0.0257502222 Hartrees.
 Nuclear repulsion after PCM non-electrostatic terms =     3175.4750284308 Hartrees.
 Leave Link  301 at Thu Dec 20 19:15:03 2018, MaxMem=  1342177280 cpu:               5.1 elap:               0.4
 (Enter /gpfs/apps/hpc/Apps/Restricted/Gaussian/Rev_A.03/g16/l302.exe)
 NPDir=0 NMtPBC=     1 NCelOv=     1 NCel=       1 NClECP=     1 NCelD=      1
         NCelK=      1 NCelE2=     1 NClLst=     1 CellRange=     0.0.
 One-electron integrals computed using PRISM.
 NBasis=   665 RedAO= T EigKep=  2.94D-04  NBF=   665
 NBsUse=   665 1.00D-06 EigRej= -1.00D+00 NBFU=   665
 Precomputing XC quadrature grid using
 IXCGrd= 4 IRadAn=           5 IRanWt=          -1 IRanGd=           0 AccXCQ= 0.00D+00.
 Generated NRdTot=       0 NPtTot=           0 NUsed=           0 NTot=          32
 NSgBfM=   650   650   650   650   650 MxSgAt=    69 MxSgA2=    69.
 Leave Link  302 at Thu Dec 20 19:15:04 2018, MaxMem=  1342177280 cpu:              19.8 elap:               1.3
 (Enter /gpfs/apps/hpc/Apps/Restricted/Gaussian/Rev_A.03/g16/l303.exe)
 DipDrv:  MaxL=1.
 Leave Link  303 at Thu Dec 20 19:15:04 2018, MaxMem=  1342177280 cpu:               2.8 elap:               0.2
 (Enter /gpfs/apps/hpc/Apps/Restricted/Gaussian/Rev_A.03/g16/l401.exe)
 Initial guess from the checkpoint file:  "cyclohexyl-monoBIP-E1PT.chk"
 B after Tr=     0.000000    0.000000   -0.000005
         Rot=    1.000000    0.000001    0.000000   -0.000000 Ang=   0.00 deg.
 Guess basis will be translated and rotated to current coordinates.
 JPrj=2 DoOrth=T DoCkMO=T.
 Initial guess <Sx>= 0.0000 <Sy>= 0.0000 <Sz>= 0.5000 <S**2>= 0.7721 S= 0.5110
 Leave Link  401 at Thu Dec 20 19:15:06 2018, MaxMem=  1342177280 cpu:              30.2 elap:               2.0
 (Enter /gpfs/apps/hpc/Apps/Restricted/Gaussian/Rev_A.03/g16/l502.exe)
 Two-electron integral symmetry not used.
 UHF open shell SCF:
 Using DIIS extrapolation, IDIIS=  1040.
 NGot=  1342177280 LenX=  1341276554 LenY=  1340833664
 Requested convergence on RMS density matrix=1.00D-08 within 128 cycles.
 Requested convergence on MAX density matrix=1.00D-06.
 Requested convergence on             energy=1.00D-06.
 No special actions if energy rises.
 Fock matrices will be formed incrementally for  20 cycles.

 Cycle   1  Pass 1  IDiag  1:
 FoFJK:  IHMeth= 1 ICntrl=       0 DoSepK=F KAlg= 0 I1Cent=           0 FoldK=F
 IRaf= 770000000 NMat=       1 IRICut=       1 DoRegI=T DoRafI=F ISym2E= 0 IDoP0=0 IntGTp=1.
 FoFCou: FMM=T IPFlag=           0 FMFlag=      100000 FMFlg1=        2001
         NFxFlg=           0 DoJE=F BraDBF=F KetDBF=F FulRan=T
         wScrn=  0.000000 ICntrl=         0 IOpCl=  1 I1Cent=           0 NGrid=           0
         NMat0=    1 NMatS0=      1 NMatT0=    0 NMatD0=    1 NMtDS0=    0 NMtDT0=    0
 Symmetry not used in FoFCou.
 FMM levels:  10  Number of levels for PrismC:   9
 Inv3:  Mode=1 IEnd=    56689227.
 Iteration    1 A*A^-1 deviation from unit magnitude is 7.88D-15 for   4334.
 Iteration    1 A*A^-1 deviation from orthogonality  is 5.20D-15 for   4320   2001.
 Iteration    1 A^-1*A deviation from unit magnitude is 7.66D-15 for   4334.
 Iteration    1 A^-1*A deviation from orthogonality  is 2.84D-15 for   4315   4267.
 E= -1328.81564424019    
 DIIS: error= 1.49D-06 at cycle   1 NSaved=   1.
 NSaved= 1 IEnMin= 1 EnMin= -1328.81564424019     IErMin= 1 ErrMin= 1.49D-06
 ErrMax= 1.49D-06  0.00D+00 EMaxC= 1.00D-01 BMatC= 4.61D-09 BMatP= 4.61D-09
 IDIUse=1 WtCom= 1.00D+00 WtEn= 0.00D+00
 Coeff-Com:  0.100D+01
 Coeff:      0.100D+01
 Gap=     1.646 Goal=   None    Shift=    0.000
 Gap=     1.667 Goal=   None    Shift=    0.000
 RMSDP=8.51D-08 MaxDP=6.52D-06              OVMax= 1.16D-05

 Cycle   2  Pass 1  IDiag  1:
 RMSU=  8.51D-08    CP:  1.00D+00
 E= -1328.81564424233     Delta-E=       -0.000000002142 Rises=F Damp=F
 DIIS: error= 1.52D-07 at cycle   2 NSaved=   2.
 NSaved= 2 IEnMin= 2 EnMin= -1328.81564424233     IErMin= 2 ErrMin= 1.52D-07
 ErrMax= 1.52D-07  0.00D+00 EMaxC= 1.00D-01 BMatC= 5.02D-11 BMatP= 4.61D-09
 IDIUse=1 WtCom= 1.00D+00 WtEn= 0.00D+00
 Coeff-Com: -0.825D-01 0.108D+01
 Coeff:     -0.825D-01 0.108D+01
 Gap=     0.145 Goal=   None    Shift=    0.000
 Gap=     0.090 Goal=   None    Shift=    0.000
 RMSDP=1.22D-08 MaxDP=8.73D-07 DE=-2.14D-09 OVMax= 2.20D-06

 Cycle   3  Pass 1  IDiag  1:
 RMSU=  8.55D-09    CP:  1.00D+00  1.10D+00
