 Entering Gaussian System, Link 0=g16
 Initial command:
 /gpfs/apps/hpc/Apps/Restricted/Gaussian/Rev_A.03/g16/l1.exe "/gpfs/scratch60/fas/hammes_schiffer/jg2487/c01n07/Gau-14011.inp" -scrdir="/gpfs/scratch60/fas/hammes_schiffer/jg2487/c01n07/"
 Entering Link 1 = /gpfs/apps/hpc/Apps/Restricted/Gaussian/Rev_A.03/g16/l1.exe PID=     14012.
  
 Copyright (c) 1988,1990,1992,1993,1995,1998,2003,2009,2016,
            Gaussian, Inc.  All Rights Reserved.
  
 This is part of the Gaussian(R) 16 program.  It is based on
 the Gaussian(R) 09 system (copyright 2009, Gaussian, Inc.),
 the Gaussian(R) 03 system (copyright 2003, Gaussian, Inc.),
 the Gaussian(R) 98 system (copyright 1998, Gaussian, Inc.),
 the Gaussian(R) 94 system (copyright 1995, Gaussian, Inc.),
 the Gaussian 92(TM) system (copyright 1992, Gaussian, Inc.),
 the Gaussian 90(TM) system (copyright 1990, Gaussian, Inc.),
 the Gaussian 88(TM) system (copyright 1988, Gaussian, Inc.),
 the Gaussian 86(TM) system (copyright 1986, Carnegie Mellon
 University), and the Gaussian 82(TM) system (copyright 1983,
 Carnegie Mellon University). Gaussian is a federally registered
 trademark of Gaussian, Inc.
  
 This software contains proprietary and confidential information,
 including trade secrets, belonging to Gaussian, Inc.
  
 This software is provided under written license and may be
 used, copied, transmitted, or stored only in accord with that
 written license.
  
 The following legend is applicable only to US Government
 contracts under FAR:
  
                    RESTRICTED RIGHTS LEGEND
  
 Use, reproduction and disclosure by the US Government is
 subject to restrictions as set forth in subparagraphs (a)
 and (c) of the Commercial Computer Software - Restricted
 Rights clause in FAR 52.227-19.
  
 Gaussian, Inc.
 340 Quinnipiac St., Bldg. 40, Wallingford CT 06492
  
  
 ---------------------------------------------------------------
 Warning -- This program may not be used in any manner that
 competes with the business of Gaussian, Inc. or will provide
 assistance to any competitor of Gaussian, Inc.  The licensee
 of this program is prohibited from giving any competitor of
 Gaussian, Inc. access to this program.  By using this program,
 the user acknowledges that Gaussian, Inc. is engaged in the
 business of creating and licensing software in the field of
 computational chemistry and represents and warrants to the
 licensee that it is not a competitor of Gaussian, Inc. and that
 it will not use this program in any manner prohibited above.
 ---------------------------------------------------------------
  

 Cite this work as:
 Gaussian 16, Revision A.03,
 M. J. Frisch, G. W. Trucks, H. B. Schlegel, G. E. Scuseria, 
 M. A. Robb, J. R. Cheeseman, G. Scalmani, V. Barone, 
 G. A. Petersson, H. Nakatsuji, X. Li, M. Caricato, A. V. Marenich, 
 J. Bloino, B. G. Janesko, R. Gomperts, B. Mennucci, H. P. Hratchian, 
 J. V. Ortiz, A. F. Izmaylov, J. L. Sonnenberg, D. Williams-Young, 
 F. Ding, F. Lipparini, F. Egidi, J. Goings, B. Peng, A. Petrone, 
 T. Henderson, D. Ranasinghe, V. G. Zakrzewski, J. Gao, N. Rega, 
 G. Zheng, W. Liang, M. Hada, M. Ehara, K. Toyota, R. Fukuda, 
 J. Hasegawa, M. Ishida, T. Nakajima, Y. Honda, O. Kitao, H. Nakai, 
 T. Vreven, K. Throssell, J. A. Montgomery, Jr., J. E. Peralta, 
 F. Ogliaro, M. J. Bearpark, J. J. Heyd, E. N. Brothers, K. N. Kudin, 
 V. N. Staroverov, T. A. Keith, R. Kobayashi, J. Normand, 
 K. Raghavachari, A. P. Rendell, J. C. Burant, S. S. Iyengar, 
 J. Tomasi, M. Cossi, J. M. Millam, M. Klene, C. Adamo, R. Cammi, 
 J. W. Ochterski, R. L. Martin, K. Morokuma, O. Farkas, 
 J. B. Foresman, and D. J. Fox, Gaussian, Inc., Wallingford CT, 2016.
 
 ******************************************
 Gaussian 16:  ES64L-G16RevA.03 25-Dec-2016
                14-Dec-2018 
 ******************************************
 %chk=cyclohexyl-monoBIP-E1PT.chk
 %mem=10GB
 %nprocshared=16
 Will use up to   16 processors via shared memory.
 ----------------------------------------------------------------------
 #p opt=tight freq=internalmodes b3lyp/6-31g(d,p) scrf=(cpcm,solvent=di
 chloromethane,read) nosymm empiricaldispersion=gd3bj int=grid=ultrafin
 e
 ----------------------------------------------------------------------
 1/7=10,18=20,19=15,26=6,38=1,40=2/1,3;
 2/9=110,12=2,15=1,17=6,18=5,40=1/2;
 3/5=1,6=6,7=101,11=2,25=1,30=1,70=2103,71=1,72=9,74=-5,75=-5,124=41/1,2,3;
 4//1;
 5/5=2,38=5,53=9/2;
 6/7=2,8=2,9=2,10=2,28=1/1;
 7/30=1/1,2,3,16;
 1/7=10,18=20,19=15,26=6/3(2);
 2/9=110,15=1/2;
 99//99;
 2/9=110,15=1/2;
 3/5=1,6=6,7=101,11=2,25=1,30=1,70=2105,71=1,72=9,74=-5,75=-5,124=41/1,2,3;
 4/5=5,16=3,69=1/1;
 5/5=2,38=5,53=9/2;
 7/30=1/1,2,3,16;
 1/7=10,18=20,19=15,26=6/3(-5);
 2/9=110,15=1/2;
 6/7=2,8=2,9=2,10=2,19=2,28=1/1;
 99/9=1/99;
 Leave Link    1 at Fri Dec 14 11:27:19 2018, MaxMem=  1342177280 cpu:               7.3 elap:               0.5
 (Enter /gpfs/apps/hpc/Apps/Restricted/Gaussian/Rev_A.03/g16/l101.exe)
 ----------------------------------------------------------------------
 cyclohexylimine monoBIP oxidized, with first proton transferred optimi
 zation
 ----------------------------------------------------------------------
 Symbolic Z-matrix:
 Charge =  1 Multiplicity = 2
 C                    -0.4946    2.76686   0.31681 
 C                    -1.88596   2.9521    0.2817 
 C                    -2.44539   4.23081   0.21965 
 C                    -1.5515    5.29754   0.19909 
 C                    -0.156     5.10717   0.23091 
 C                     0.41456   3.83424   0.28781 
 C                    -1.451     0.75625   0.37073 
 H                    -3.51626   4.37977   0.19003 
 H                    -1.94019   6.30736   0.15533 
 H                     0.49814   5.97109   0.21064 
 N                    -2.43136   1.68044   0.31551 
 C                    -3.02429  -1.19608   0.32578 
 C                    -1.65531  -0.67128   0.41326 
 C                    -0.58617  -1.53772   0.52791 
 C                    -0.77661  -2.93701   0.56548 
 C                    -2.08529  -3.45714   0.47085 
 C                    -3.19434  -2.64723   0.35292 
 H                     0.42532  -1.15418   0.59862 
 H                    -2.21622  -4.5335    0.49927 
 C                     0.40461  -3.84227   0.71718 
 H                     1.13063  -3.66979  -0.08321 
 H                     0.92082  -3.63472   1.66023 
 H                     0.108    -4.89064   0.7039 
 C                    -4.58294  -3.18805   0.25846 
 H                    -5.21421  -2.76418   1.04421 
 H                    -5.04382  -2.90827  -0.69361 
 H                    -4.58437  -4.27412   0.34585 
 O                    -4.02281  -0.44059   0.23187 
 N                    -0.26955   1.4091    0.37333 
 H                     0.68509   1.05076   0.39837 
 C                     1.85792   3.59923   0.30833 
 H                     2.49086   4.49028   0.26235 
 N                     2.32356   2.40793   0.37688 
 C                     3.7829    2.23016   0.39573 
 C                     4.42678   2.6475   -0.93713 
 C                     4.4564    2.95827   1.57088 
 H                     3.95274   1.15567   0.52711 
 C                     5.93538   2.37596  -0.91852 
 H                     4.24369   3.71742  -1.09201 
 H                     3.94474   2.11317  -1.76108 
 C                     5.96316   2.67884   1.59119 
 H                     4.29174   4.03696   1.465 
 H                     3.98514   2.65199   2.50923 
 C                     6.61588   3.0772    0.26229 
 H                     6.38585   2.69214  -1.86416 
 H                     6.1002    1.29431  -0.8377 
 H                     6.42809   3.21498   2.42394 
 H                     6.12969   1.60921   1.76964 
 H                     7.68428   2.84226   0.278 
 H                     6.53059   4.16355   0.13275 
 H                    -3.40523   1.37991   0.2888 
 
 ITRead=  0  0  0  0  0  0  0  0  0  0  0  0  0  0  0  0  0  0  0  0
 ITRead=  0  0  0  0  0  0  0  0  0  0  0  0  0  0  0  0  0  0  0  0
 ITRead=  0  0  0  0  0  0  0  0  0  0  0
 MicOpt= -1 -1 -1 -1 -1 -1 -1 -1 -1 -1 -1 -1 -1 -1 -1 -1 -1 -1 -1 -1
 MicOpt= -1 -1 -1 -1 -1 -1 -1 -1 -1 -1 -1 -1 -1 -1 -1 -1 -1 -1 -1 -1
 MicOpt= -1 -1 -1 -1 -1 -1 -1 -1 -1 -1 -1
 NAtoms=     51 NQM=       51 NQMF=       0 NMMI=      0 NMMIF=      0
                NMic=       0 NMicF=      0.
                    Isotopes and Nuclear Properties:
 (Nuclear quadrupole moments (NQMom) in fm**2, nuclear magnetic moments (NMagM)
  in nuclear magnetons)

  Atom         1           2           3           4           5           6           7           8           9          10
 IAtWgt=          12          12          12          12          12          12          12           1           1           1
 AtmWgt=  12.0000000  12.0000000  12.0000000  12.0000000  12.0000000  12.0000000  12.0000000   1.0078250   1.0078250   1.0078250
 NucSpn=           0           0           0           0           0           0           0           1           1           1
 AtZEff=  -0.0000000  -0.0000000  -0.0000000  -0.0000000  -0.0000000  -0.0000000  -0.0000000  -0.0000000  -0.0000000  -0.0000000
 NQMom=    0.0000000   0.0000000   0.0000000   0.0000000   0.0000000   0.0000000   0.0000000   0.0000000   0.0000000   0.0000000
 NMagM=    0.0000000   0.0000000   0.0000000   0.0000000   0.0000000   0.0000000   0.0000000   2.7928460   2.7928460   2.7928460
 AtZNuc=   6.0000000   6.0000000   6.0000000   6.0000000   6.0000000   6.0000000   6.0000000   1.0000000   1.0000000   1.0000000

  Atom        11          12          13          14          15          16          17          18          19          20
 IAtWgt=          14          12          12          12          12          12          12           1           1          12
 AtmWgt=  14.0030740  12.0000000  12.0000000  12.0000000  12.0000000  12.0000000  12.0000000   1.0078250   1.0078250  12.0000000
 NucSpn=           2           0           0           0           0           0           0           1           1           0
 AtZEff=  -0.0000000  -0.0000000  -0.0000000  -0.0000000  -0.0000000  -0.0000000  -0.0000000  -0.0000000  -0.0000000  -0.0000000
 NQMom=    2.0440000   0.0000000   0.0000000   0.0000000   0.0000000   0.0000000   0.0000000   0.0000000   0.0000000   0.0000000
 NMagM=    0.4037610   0.0000000   0.0000000   0.0000000   0.0000000   0.0000000   0.0000000   2.7928460   2.7928460   0.0000000
 AtZNuc=   7.0000000   6.0000000   6.0000000   6.0000000   6.0000000   6.0000000   6.0000000   1.0000000   1.0000000   6.0000000

  Atom        21          22          23          24          25          26          27          28          29          30
 IAtWgt=           1           1           1          12           1           1           1          16          14           1
 AtmWgt=   1.0078250   1.0078250   1.0078250  12.0000000   1.0078250   1.0078250   1.0078250  15.9949146  14.0030740   1.0078250
 NucSpn=           1           1           1           0           1           1           1           0           2           1
 AtZEff=  -0.0000000  -0.0000000  -0.0000000  -0.0000000  -0.0000000  -0.0000000  -0.0000000  -0.0000000  -0.0000000  -0.0000000
 NQMom=    0.0000000   0.0000000   0.0000000   0.0000000   0.0000000   0.0000000   0.0000000   0.0000000   2.0440000   0.0000000
 NMagM=    2.7928460   2.7928460   2.7928460   0.0000000   2.7928460   2.7928460   2.7928460   0.0000000   0.4037610   2.7928460
 AtZNuc=   1.0000000   1.0000000   1.0000000   6.0000000   1.0000000   1.0000000   1.0000000   8.0000000   7.0000000   1.0000000

  Atom        31          32          33          34          35          36          37          38          39          40
 IAtWgt=          12           1          14          12          12          12           1          12           1           1
 AtmWgt=  12.0000000   1.0078250  14.0030740  12.0000000  12.0000000  12.0000000   1.0078250  12.0000000   1.0078250   1.0078250
 NucSpn=           0           1           2           0           0           0           1           0           1           1
 AtZEff=  -0.0000000  -0.0000000  -0.0000000  -0.0000000  -0.0000000  -0.0000000  -0.0000000  -0.0000000  -0.0000000  -0.0000000
 NQMom=    0.0000000   0.0000000   2.0440000   0.0000000   0.0000000   0.0000000   0.0000000   0.0000000   0.0000000   0.0000000
 NMagM=    0.0000000   2.7928460   0.4037610   0.0000000   0.0000000   0.0000000   2.7928460   0.0000000   2.7928460   2.7928460
 AtZNuc=   6.0000000   1.0000000   7.0000000   6.0000000   6.0000000   6.0000000   1.0000000   6.0000000   1.0000000   1.0000000

  Atom        41          42          43          44          45          46          47          48          49          50
 IAtWgt=          12           1           1          12           1           1           1           1           1           1
 AtmWgt=  12.0000000   1.0078250   1.0078250  12.0000000   1.0078250   1.0078250   1.0078250   1.0078250   1.0078250   1.0078250
 NucSpn=           0           1           1           0           1           1           1           1           1           1
 AtZEff=  -0.0000000  -0.0000000  -0.0000000  -0.0000000  -0.0000000  -0.0000000  -0.0000000  -0.0000000  -0.0000000  -0.0000000
 NQMom=    0.0000000   0.0000000   0.0000000   0.0000000   0.0000000   0.0000000   0.0000000   0.0000000   0.0000000   0.0000000
 NMagM=    0.0000000   2.7928460   2.7928460   0.0000000   2.7928460   2.7928460   2.7928460   2.7928460   2.7928460   2.7928460
 AtZNuc=   6.0000000   1.0000000   1.0000000   6.0000000   1.0000000   1.0000000   1.0000000   1.0000000   1.0000000   1.0000000

  Atom        51
 IAtWgt=           1
 AtmWgt=   1.0078250
 NucSpn=           1
 AtZEff=  -0.0000000
 NQMom=    0.0000000
 NMagM=    2.7928460
 AtZNuc=   1.0000000
 Leave Link  101 at Fri Dec 14 11:27:20 2018, MaxMem=  1342177280 cpu:               5.2 elap:               0.3
 (Enter /gpfs/apps/hpc/Apps/Restricted/Gaussian/Rev_A.03/g16/l103.exe)

 GradGradGradGradGradGradGradGradGradGradGradGradGradGradGradGradGradGrad
 Berny optimization.
 Initialization pass.
                           ----------------------------
                           !    Initial Parameters    !
                           ! (Angstroms and Degrees)  !
 --------------------------                            --------------------------
 ! Name  Definition              Value          Derivative Info.                !
 --------------------------------------------------------------------------------
 ! R1    R(1,2)                  1.4041         estimate D2E/DX2                !
 ! R2    R(1,6)                  1.4024         estimate D2E/DX2                !
 ! R3    R(1,29)                 1.3775         estimate D2E/DX2                !
 ! R4    R(2,3)                  1.3971         estimate D2E/DX2                !
 ! R5    R(2,11)                 1.3841         estimate D2E/DX2                !
 ! R6    R(3,4)                  1.3919         estimate D2E/DX2                !
 ! R7    R(3,8)                  1.0816         estimate D2E/DX2                !
 ! R8    R(4,5)                  1.4088         estimate D2E/DX2                !
 ! R9    R(4,9)                  1.0829         estimate D2E/DX2                !
 ! R10   R(5,6)                  1.3961         estimate D2E/DX2                !
 ! R11   R(5,10)                 1.0838         estimate D2E/DX2                !
 ! R12   R(6,31)                 1.4625         estimate D2E/DX2                !
 ! R13   R(7,11)                 1.3484         estimate D2E/DX2                !
 ! R14   R(7,13)                 1.4427         estimate D2E/DX2                !
 ! R15   R(7,29)                 1.3498         estimate D2E/DX2                !
 ! R16   R(11,51)                1.0195         estimate D2E/DX2                !
 ! R17   R(12,13)                1.4687         estimate D2E/DX2                !
 ! R18   R(12,17)                1.4613         estimate D2E/DX2                !
 ! R19   R(12,28)                1.2556         estimate D2E/DX2                !
 ! R20   R(13,14)                1.3809         estimate D2E/DX2                !
 ! R21   R(14,15)                1.4127         estimate D2E/DX2                !
 ! R22   R(14,18)                1.0841         estimate D2E/DX2                !
 ! R23   R(15,16)                1.4114         estimate D2E/DX2                !
 ! R24   R(15,20)                1.4959         estimate D2E/DX2                !
 ! R25   R(16,17)                1.3783         estimate D2E/DX2                !
 ! R26   R(16,19)                1.0847         estimate D2E/DX2                !
 ! R27   R(17,24)                1.4932         estimate D2E/DX2                !
 ! R28   R(20,21)                1.0943         estimate D2E/DX2                !
 ! R29   R(20,22)                1.0949         estimate D2E/DX2                !
 ! R30   R(20,23)                1.0896         estimate D2E/DX2                !
 ! R31   R(24,25)                1.0934         estimate D2E/DX2                !
 ! R32   R(24,26)                1.0941         estimate D2E/DX2                !
 ! R33   R(24,27)                1.0896         estimate D2E/DX2                !
 ! R34   R(29,30)                1.02           estimate D2E/DX2                !
 ! R35   R(31,32)                1.0939         estimate D2E/DX2                !
 ! R36   R(31,33)                1.2809         estimate D2E/DX2                !
 ! R37   R(33,34)                1.4702         estimate D2E/DX2                !
 ! R38   R(34,35)                1.5379         estimate D2E/DX2                !
 ! R39   R(34,36)                1.5378         estimate D2E/DX2                !
 ! R40   R(34,37)                1.0957         estimate D2E/DX2                !
 ! R41   R(35,38)                1.533          estimate D2E/DX2                !
 ! R42   R(35,39)                1.0965         estimate D2E/DX2                !
 ! R43   R(35,40)                1.094          estimate D2E/DX2                !
 ! R44   R(36,41)                1.5326         estimate D2E/DX2                !
 ! R45   R(36,42)                1.0963         estimate D2E/DX2                !
 ! R46   R(36,43)                1.0938         estimate D2E/DX2                !
 ! R47   R(38,44)                1.5327         estimate D2E/DX2                !
 ! R48   R(38,45)                1.0941         estimate D2E/DX2                !
 ! R49   R(38,46)                1.0971         estimate D2E/DX2                !
 ! R50   R(41,44)                1.5332         estimate D2E/DX2                !
 ! R51   R(41,47)                1.0941         estimate D2E/DX2                !
 ! R52   R(41,48)                1.0971         estimate D2E/DX2                !
 ! R53   R(44,49)                1.094          estimate D2E/DX2                !
 ! R54   R(44,50)                1.0974         estimate D2E/DX2                !
 ! A1    A(2,1,6)              122.7852         estimate D2E/DX2                !
 ! A2    A(2,1,29)             107.0357         estimate D2E/DX2                !
 ! A3    A(6,1,29)             130.1782         estimate D2E/DX2                !
 ! A4    A(1,2,3)              121.2418         estimate D2E/DX2                !
 ! A5    A(1,2,11)             105.5846         estimate D2E/DX2                !
 ! A6    A(3,2,11)             133.1729         estimate D2E/DX2                !
 ! A7    A(2,3,4)              116.4198         estimate D2E/DX2                !
 ! A8    A(2,3,8)              121.5823         estimate D2E/DX2                !
 ! A9    A(4,3,8)              121.9979         estimate D2E/DX2                !
 ! A10   A(3,4,5)              122.1576         estimate D2E/DX2                !
 ! A11   A(3,4,9)              118.9956         estimate D2E/DX2                !
 ! A12   A(5,4,9)              118.8467         estimate D2E/DX2                !
 ! A13   A(4,5,6)              121.9351         estimate D2E/DX2                !
 ! A14   A(4,5,10)             119.3221         estimate D2E/DX2                !
 ! A15   A(6,5,10)             118.7428         estimate D2E/DX2                !
 ! A16   A(1,6,5)              115.4585         estimate D2E/DX2                !
 ! A17   A(1,6,31)             121.1447         estimate D2E/DX2                !
 ! A18   A(5,6,31)             123.3957         estimate D2E/DX2                !
 ! A19   A(11,7,13)            125.1994         estimate D2E/DX2                !
 ! A20   A(11,7,29)            107.7541         estimate D2E/DX2                !
 ! A21   A(13,7,29)            127.046          estimate D2E/DX2                !
 ! A22   A(2,11,7)             110.1341         estimate D2E/DX2                !
 ! A23   A(2,11,51)            130.2848         estimate D2E/DX2                !
 ! A24   A(7,11,51)            119.5712         estimate D2E/DX2                !
 ! A25   A(13,12,17)           117.5281         estimate D2E/DX2                !
 ! A26   A(13,12,28)           122.0515         estimate D2E/DX2                !
 ! A27   A(17,12,28)           120.4204         estimate D2E/DX2                !
 ! A28   A(7,13,12)            118.9339         estimate D2E/DX2                !
 ! A29   A(7,13,14)            120.907          estimate D2E/DX2                !
 ! A30   A(12,13,14)           120.1584         estimate D2E/DX2                !
 ! A31   A(13,14,15)           121.2868         estimate D2E/DX2                !
 ! A32   A(13,14,18)           120.3858         estimate D2E/DX2                !
 ! A33   A(15,14,18)           118.326          estimate D2E/DX2                !
 ! A34   A(14,15,16)           119.2244         estimate D2E/DX2                !
 ! A35   A(14,15,20)           119.7133         estimate D2E/DX2                !
 ! A36   A(16,15,20)           121.0599         estimate D2E/DX2                !
 ! A37   A(15,16,17)           122.3603         estimate D2E/DX2                !
 ! A38   A(15,16,19)           118.4153         estimate D2E/DX2                !
 ! A39   A(17,16,19)           119.223          estimate D2E/DX2                !
 ! A40   A(12,17,16)           119.4368         estimate D2E/DX2                !
 ! A41   A(12,17,24)           117.8204         estimate D2E/DX2                !
 ! A42   A(16,17,24)           122.7416         estimate D2E/DX2                !
 ! A43   A(15,20,21)           110.752          estimate D2E/DX2                !
 ! A44   A(15,20,22)           110.1757         estimate D2E/DX2                !
 ! A45   A(15,20,23)           111.4735         estimate D2E/DX2                !
 ! A46   A(21,20,22)           106.696          estimate D2E/DX2                !
 ! A47   A(21,20,23)           108.865          estimate D2E/DX2                !
 ! A48   A(22,20,23)           108.7368         estimate D2E/DX2                !
 ! A49   A(17,24,25)           110.55           estimate D2E/DX2                !
 ! A50   A(17,24,26)           110.7419         estimate D2E/DX2                !
 ! A51   A(17,24,27)           110.9263         estimate D2E/DX2                !
 ! A52   A(25,24,26)           106.4396         estimate D2E/DX2                !
 ! A53   A(25,24,27)           109.1478         estimate D2E/DX2                !
 ! A54   A(26,24,27)           108.9125         estimate D2E/DX2                !
 ! A55   A(1,29,7)             109.4911         estimate D2E/DX2                !
 ! A56   A(1,29,30)            120.014          estimate D2E/DX2                !
 ! A57   A(7,29,30)            130.4905         estimate D2E/DX2                !
 ! A58   A(6,31,32)            116.0742         estimate D2E/DX2                !
 ! A59   A(6,31,33)            120.5955         estimate D2E/DX2                !
 ! A60   A(32,31,33)           123.3304         estimate D2E/DX2                !
 ! A61   A(31,33,34)           118.2922         estimate D2E/DX2                !
 ! A62   A(33,34,35)           111.8166         estimate D2E/DX2                !
 ! A63   A(33,34,36)           112.7851         estimate D2E/DX2                !
 ! A64   A(33,34,37)           105.8995         estimate D2E/DX2                !
 ! A65   A(35,34,36)           110.5144         estimate D2E/DX2                !
 ! A66   A(35,34,37)           107.7654         estimate D2E/DX2                !
 ! A67   A(36,34,37)           107.7452         estimate D2E/DX2                !
 ! A68   A(34,35,38)           110.6971         estimate D2E/DX2                !
 ! A69   A(34,35,39)           108.4995         estimate D2E/DX2                !
 ! A70   A(34,35,40)           109.6168         estimate D2E/DX2                !
 ! A71   A(38,35,39)           109.8088         estimate D2E/DX2                !
 ! A72   A(38,35,40)           110.8705         estimate D2E/DX2                !
 ! A73   A(39,35,40)           107.256          estimate D2E/DX2                !
 ! A74   A(34,36,41)           110.7562         estimate D2E/DX2                !
 ! A75   A(34,36,42)           109.0428         estimate D2E/DX2                !
 ! A76   A(34,36,43)           109.53           estimate D2E/DX2                !
 ! A77   A(41,36,42)           109.1685         estimate D2E/DX2                !
 ! A78   A(41,36,43)           111.172          estimate D2E/DX2                !
 ! A79   A(42,36,43)           107.0772         estimate D2E/DX2                !
 ! A80   A(35,38,44)           111.4226         estimate D2E/DX2                !
 ! A81   A(35,38,45)           110.09           estimate D2E/DX2                !
 ! A82   A(35,38,46)           108.8671         estimate D2E/DX2                !
 ! A83   A(44,38,45)           110.5388         estimate D2E/DX2                !
 ! A84   A(44,38,46)           109.124          estimate D2E/DX2                !
 ! A85   A(45,38,46)           106.6624         estimate D2E/DX2                !
 ! A86   A(36,41,44)           111.0812         estimate D2E/DX2                !
 ! A87   A(36,41,47)           109.7863         estimate D2E/DX2                !
 ! A88   A(36,41,48)           109.2163         estimate D2E/DX2                !
 ! A89   A(44,41,47)           110.5777         estimate D2E/DX2                !
 ! A90   A(44,41,48)           109.249          estimate D2E/DX2                !
 ! A91   A(47,41,48)           106.8251         estimate D2E/DX2                !
 ! A92   A(38,44,41)           111.0922         estimate D2E/DX2                !
 ! A93   A(38,44,49)           110.2673         estimate D2E/DX2                !
 ! A94   A(38,44,50)           109.1157         estimate D2E/DX2                !
 ! A95   A(41,44,49)           110.3347         estimate D2E/DX2                !
 ! A96   A(41,44,50)           109.0531         estimate D2E/DX2                !
 ! A97   A(49,44,50)           106.8687         estimate D2E/DX2                !
 ! D1    D(6,1,2,3)             -0.2257         estimate D2E/DX2                !
 ! D2    D(6,1,2,11)           179.5197         estimate D2E/DX2                !
 ! D3    D(29,1,2,3)          -179.9126         estimate D2E/DX2                !
 ! D4    D(29,1,2,11)           -0.1672         estimate D2E/DX2                !
 ! D5    D(2,1,6,5)              0.4461         estimate D2E/DX2                !
 ! D6    D(2,1,6,31)          -179.1871         estimate D2E/DX2                !
 ! D7    D(29,1,6,5)          -179.9458         estimate D2E/DX2                !
 ! D8    D(29,1,6,31)            0.4211         estimate D2E/DX2                !
 ! D9    D(2,1,29,7)             0.1707         estimate D2E/DX2                !
 ! D10   D(2,1,29,30)          179.4876         estimate D2E/DX2                !
 ! D11   D(6,1,29,7)          -179.4847         estimate D2E/DX2                !
 ! D12   D(6,1,29,30)           -0.1679         estimate D2E/DX2                !
 ! D13   D(1,2,3,4)             -0.1871         estimate D2E/DX2                !
 ! D14   D(1,2,3,8)            179.8551         estimate D2E/DX2                !
 ! D15   D(11,2,3,4)          -179.8509         estimate D2E/DX2                !
 ! D16   D(11,2,3,8)             0.1913         estimate D2E/DX2                !
 ! D17   D(1,2,11,7)             0.1084         estimate D2E/DX2                !
 ! D18   D(1,2,11,51)         -178.723          estimate D2E/DX2                !
 ! D19   D(3,2,11,7)           179.8099         estimate D2E/DX2                !
 ! D20   D(3,2,11,51)            0.9786         estimate D2E/DX2                !
 ! D21   D(2,3,4,5)              0.3606         estimate D2E/DX2                !
 ! D22   D(2,3,4,9)           -179.7566         estimate D2E/DX2                !
 ! D23   D(8,3,4,5)           -179.6818         estimate D2E/DX2                !
 ! D24   D(8,3,4,9)              0.201          estimate D2E/DX2                !
 ! D25   D(3,4,5,6)             -0.1318         estimate D2E/DX2                !
 ! D26   D(3,4,5,10)           179.8574         estimate D2E/DX2                !
 ! D27   D(9,4,5,6)            179.9852         estimate D2E/DX2                !
 ! D28   D(9,4,5,10)            -0.0256         estimate D2E/DX2                !
 ! D29   D(4,5,6,1)             -0.2704         estimate D2E/DX2                !
 ! D30   D(4,5,6,31)           179.3535         estimate D2E/DX2                !
 ! D31   D(10,5,6,1)           179.7403         estimate D2E/DX2                !
 ! D32   D(10,5,6,31)           -0.6358         estimate D2E/DX2                !
 ! D33   D(1,6,31,32)          178.7944         estimate D2E/DX2                !
 ! D34   D(1,6,31,33)           -1.2175         estimate D2E/DX2                !
 ! D35   D(5,6,31,32)           -0.8089         estimate D2E/DX2                !
 ! D36   D(5,6,31,33)          179.1792         estimate D2E/DX2                !
 ! D37   D(13,7,11,2)         -179.7809         estimate D2E/DX2                !
 ! D38   D(13,7,11,51)          -0.8059         estimate D2E/DX2                !
 ! D39   D(29,7,11,2)           -0.0054         estimate D2E/DX2                !
 ! D40   D(29,7,11,51)         178.9697         estimate D2E/DX2                !
 ! D41   D(11,7,13,12)           3.1593         estimate D2E/DX2                !
 ! D42   D(11,7,13,14)        -177.1416         estimate D2E/DX2                !
 ! D43   D(29,7,13,12)        -176.5729         estimate D2E/DX2                !
 ! D44   D(29,7,13,14)           3.1262         estimate D2E/DX2                !
 ! D45   D(11,7,29,1)           -0.1041         estimate D2E/DX2                !
 ! D46   D(11,7,29,30)        -179.3263         estimate D2E/DX2                !
 ! D47   D(13,7,29,1)          179.6661         estimate D2E/DX2                !
 ! D48   D(13,7,29,30)           0.4439         estimate D2E/DX2                !
 ! D49   D(17,12,13,7)         179.1595         estimate D2E/DX2                !
 ! D50   D(17,12,13,14)         -0.542          estimate D2E/DX2                !
 ! D51   D(28,12,13,7)          -0.9003         estimate D2E/DX2                !
 ! D52   D(28,12,13,14)        179.3983         estimate D2E/DX2                !
 ! D53   D(13,12,17,16)          0.6277         estimate D2E/DX2                !
 ! D54   D(13,12,17,24)       -179.7418         estimate D2E/DX2                !
 ! D55   D(28,12,17,16)       -179.3137         estimate D2E/DX2                !
 ! D56   D(28,12,17,24)          0.3169         estimate D2E/DX2                !
 ! D57   D(7,13,14,15)        -179.7708         estimate D2E/DX2                !
 ! D58   D(7,13,14,18)           0.6661         estimate D2E/DX2                !
 ! D59   D(12,13,14,15)         -0.0753         estimate D2E/DX2                !
 ! D60   D(12,13,14,18)       -179.6384         estimate D2E/DX2                !
 ! D61   D(13,14,15,16)          0.616          estimate D2E/DX2                !
 ! D62   D(13,14,15,20)       -178.8144         estimate D2E/DX2                !
 ! D63   D(18,14,15,16)       -179.8122         estimate D2E/DX2                !
 ! D64   D(18,14,15,20)          0.7575         estimate D2E/DX2                !
 ! D65   D(14,15,16,17)         -0.5277         estimate D2E/DX2                !
 ! D66   D(14,15,16,19)        179.8896         estimate D2E/DX2                !
 ! D67   D(20,15,16,17)        178.8947         estimate D2E/DX2                !
 ! D68   D(20,15,16,19)         -0.688          estimate D2E/DX2                !
 ! D69   D(14,15,20,21)        -57.143          estimate D2E/DX2                !
 ! D70   D(14,15,20,22)         60.6668         estimate D2E/DX2                !
 ! D71   D(14,15,20,23)       -178.5166         estimate D2E/DX2                !
 ! D72   D(16,15,20,21)        123.4374         estimate D2E/DX2                !
 ! D73   D(16,15,20,22)       -118.7528         estimate D2E/DX2                !
 ! D74   D(16,15,20,23)          2.0637         estimate D2E/DX2                !
 ! D75   D(15,16,17,12)         -0.1036         estimate D2E/DX2                !
 ! D76   D(15,16,17,24)       -179.7151         estimate D2E/DX2                !
 ! D77   D(19,16,17,12)        179.4758         estimate D2E/DX2                !
 ! D78   D(19,16,17,24)         -0.1357         estimate D2E/DX2                !
 ! D79   D(12,17,24,25)        -55.5683         estimate D2E/DX2                !
 ! D80   D(12,17,24,26)         62.1518         estimate D2E/DX2                !
 ! D81   D(12,17,24,27)       -176.7922         estimate D2E/DX2                !
 ! D82   D(16,17,24,25)        124.0492         estimate D2E/DX2                !
 ! D83   D(16,17,24,26)       -118.2307         estimate D2E/DX2                !
 ! D84   D(16,17,24,27)          2.8252         estimate D2E/DX2                !
 ! D85   D(6,31,33,34)        -179.9372         estimate D2E/DX2                !
 ! D86   D(32,31,33,34)          0.05           estimate D2E/DX2                !
 ! D87   D(31,33,34,35)        -66.7493         estimate D2E/DX2                !
 ! D88   D(31,33,34,36)         58.5311         estimate D2E/DX2                !
 ! D89   D(31,33,34,37)        176.1368         estimate D2E/DX2                !
 ! D90   D(33,34,35,38)       -176.7164         estimate D2E/DX2                !
 ! D91   D(33,34,35,39)         62.7254         estimate D2E/DX2                !
 ! D92   D(33,34,35,40)        -54.1037         estimate D2E/DX2                !
 ! D93   D(36,34,35,38)         56.758          estimate D2E/DX2                !
 ! D94   D(36,34,35,39)        -63.8001         estimate D2E/DX2                !
 ! D95   D(36,34,35,40)        179.3708         estimate D2E/DX2                !
 ! D96   D(37,34,35,38)        -60.7324         estimate D2E/DX2                !
 ! D97   D(37,34,35,39)        178.7095         estimate D2E/DX2                !
 ! D98   D(37,34,35,40)         61.8804         estimate D2E/DX2                !
 ! D99   D(33,34,36,41)        176.8486         estimate D2E/DX2                !
 ! D100  D(33,34,36,42)        -63.0005         estimate D2E/DX2                !
 ! D101  D(33,34,36,43)         53.8753         estimate D2E/DX2                !
 ! D102  D(35,34,36,41)        -57.1675         estimate D2E/DX2                !
 ! D103  D(35,34,36,42)         62.9834         estimate D2E/DX2                !
 ! D104  D(35,34,36,43)        179.8592         estimate D2E/DX2                !
 ! D105  D(37,34,36,41)         60.3354         estimate D2E/DX2                !
 ! D106  D(37,34,36,42)       -179.5137         estimate D2E/DX2                !
 ! D107  D(37,34,36,43)        -62.6379         estimate D2E/DX2                !
 ! D108  D(34,35,38,44)        -56.018          estimate D2E/DX2                !
 ! D109  D(34,35,38,45)       -179.0289         estimate D2E/DX2                !
 ! D110  D(34,35,38,46)         64.3791         estimate D2E/DX2                !
 ! D111  D(39,35,38,44)         63.7577         estimate D2E/DX2                !
 ! D112  D(39,35,38,45)        -59.2533         estimate D2E/DX2                !
 ! D113  D(39,35,38,46)       -175.8452         estimate D2E/DX2                !
 ! D114  D(40,35,38,44)       -177.8978         estimate D2E/DX2                !
 ! D115  D(40,35,38,45)         59.0912         estimate D2E/DX2                !
 ! D116  D(40,35,38,46)        -57.5007         estimate D2E/DX2                !
 ! D117  D(34,36,41,44)         56.5955         estimate D2E/DX2                !
 ! D118  D(34,36,41,47)        179.2113         estimate D2E/DX2                !
 ! D119  D(34,36,41,48)        -63.9707         estimate D2E/DX2                !
 ! D120  D(42,36,41,44)        -63.4804         estimate D2E/DX2                !
 ! D121  D(42,36,41,47)         59.1354         estimate D2E/DX2                !
 ! D122  D(42,36,41,48)        175.9534         estimate D2E/DX2                !
 ! D123  D(43,36,41,44)        178.6125         estimate D2E/DX2                !
 ! D124  D(43,36,41,47)        -58.7717         estimate D2E/DX2                !
 ! D125  D(43,36,41,48)         58.0463         estimate D2E/DX2                !
 ! D126  D(35,38,44,41)         55.3473         estimate D2E/DX2                !
 ! D127  D(35,38,44,49)        177.9947         estimate D2E/DX2                !
 ! D128  D(35,38,44,50)        -64.9169         estimate D2E/DX2                !
 ! D129  D(45,38,44,41)        178.1013         estimate D2E/DX2                !
 ! D130  D(45,38,44,49)        -59.2513         estimate D2E/DX2                !
 ! D131  D(45,38,44,50)         57.8371         estimate D2E/DX2                !
 ! D132  D(46,38,44,41)        -64.8985         estimate D2E/DX2                !
 ! D133  D(46,38,44,49)         57.7489         estimate D2E/DX2                !
 ! D134  D(46,38,44,50)        174.8373         estimate D2E/DX2                !
 ! D135  D(36,41,44,38)        -55.528          estimate D2E/DX2                !
 ! D136  D(36,41,44,49)       -178.1365         estimate D2E/DX2                !
 ! D137  D(36,41,44,50)         64.7732         estimate D2E/DX2                !
 ! D138  D(47,41,44,38)       -177.6853         estimate D2E/DX2                !
 ! D139  D(47,41,44,49)         59.7062         estimate D2E/DX2                !
 ! D140  D(47,41,44,50)        -57.384          estimate D2E/DX2                !
 ! D141  D(48,41,44,38)         65.0188         estimate D2E/DX2                !
 ! D142  D(48,41,44,49)        -57.5896         estimate D2E/DX2                !
 ! D143  D(48,41,44,50)       -174.6799         estimate D2E/DX2                !
 --------------------------------------------------------------------------------
 Trust Radius=3.00D-01 FncErr=5.00D-06 GrdErr=5.00D-06 EigMax=2.50D+02 EigMin=1.00D-04
 Number of steps in this run=    304 maximum allowed number of steps=    306.
 GradGradGradGradGradGradGradGradGradGradGradGradGradGradGradGradGradGrad

 Leave Link  103 at Fri Dec 14 11:27:20 2018, MaxMem=  1342177280 cpu:               0.4 elap:               0.0
 (Enter /gpfs/apps/hpc/Apps/Restricted/Gaussian/Rev_A.03/g16/l202.exe)
 Symmetry turned off by external request.
 Stoichiometry    C22H25N3O(1+,2)
 Framework group  C1[X(C22H25N3O)]
 Deg. of freedom   147
 Full point group                 C1      NOp   1
                          Input orientation:                          
 ---------------------------------------------------------------------
 Center     Atomic      Atomic             Coordinates (Angstroms)
 Number     Number       Type             X           Y           Z
 ---------------------------------------------------------------------
      1          6           0       -0.494597    2.766864    0.316812
      2          6           0       -1.885957    2.952098    0.281696
      3          6           0       -2.445387    4.230806    0.219647
      4          6           0       -1.551503    5.297541    0.199089
      5          6           0       -0.156001    5.107165    0.230909
      6          6           0        0.414560    3.834244    0.287808
      7          6           0       -1.451004    0.756247    0.370733
      8          1           0       -3.516258    4.379767    0.190032
      9          1           0       -1.940194    6.307357    0.155334
     10          1           0        0.498141    5.971090    0.210643
     11          7           0       -2.431359    1.680442    0.315505
     12          6           0       -3.024290   -1.196084    0.325781
     13          6           0       -1.655310   -0.671278    0.413258
     14          6           0       -0.586169   -1.537717    0.527906
     15          6           0       -0.776614   -2.937012    0.565475
     16          6           0       -2.085292   -3.457142    0.470851
     17          6           0       -3.194335   -2.647230    0.352923
     18          1           0        0.425319   -1.154178    0.598616
     19          1           0       -2.216224   -4.533495    0.499268
     20          6           0        0.404605   -3.842274    0.717182
     21          1           0        1.130626   -3.669794   -0.083213
     22          1           0        0.920815   -3.634715    1.660232
     23          1           0        0.108003   -4.890639    0.703902
     24          6           0       -4.582941   -3.188047    0.258455
     25          1           0       -5.214206   -2.764181    1.044209
     26          1           0       -5.043815   -2.908271   -0.693610
     27          1           0       -4.584371   -4.274118    0.345847
     28          8           0       -4.022813   -0.440590    0.231873
     29          7           0       -0.269548    1.409096    0.373329
     30          1           0        0.685093    1.050764    0.398370
     31          6           0        1.857915    3.599225    0.308331
     32          1           0        2.490862    4.490276    0.262347
     33          7           0        2.323560    2.407928    0.376878
     34          6           0        3.782897    2.230162    0.395727
     35          6           0        4.426775    2.647495   -0.937129
     36          6           0        4.456404    2.958268    1.570883
     37          1           0        3.952736    1.155667    0.527112
     38          6           0        5.935382    2.375957   -0.918524
     39          1           0        4.243690    3.717417   -1.092005
     40          1           0        3.944737    2.113171   -1.761082
     41          6           0        5.963164    2.678837    1.591190
     42          1           0        4.291735    4.036957    1.464995
     43          1           0        3.985141    2.651987    2.509227
     44          6           0        6.615880    3.077198    0.262290
     45          1           0        6.385852    2.692144   -1.864155
     46          1           0        6.100202    1.294309   -0.837698
     47          1           0        6.428086    3.214977    2.423937
     48          1           0        6.129685    1.609213    1.769638
     49          1           0        7.684284    2.842264    0.278001
     50          1           0        6.530591    4.163550    0.132749
     51          1           0       -3.405230    1.379909    0.288803
 ---------------------------------------------------------------------
 Rotational constants (GHZ):           0.2806387           0.1074545           0.0803357
 Leave Link  202 at Fri Dec 14 11:27:20 2018, MaxMem=  1342177280 cpu:               1.3 elap:               0.1
 (Enter /gpfs/apps/hpc/Apps/Restricted/Gaussian/Rev_A.03/g16/l301.exe)
 Standard basis: 6-31G(d,p) (6D, 7F)
 Ernie: Thresh=  0.10000D-02 Tol=  0.10000D-05 Strict=F.
   515 basis functions,   903 primitive gaussians,   515 cartesian basis functions
    93 alpha electrons       92 beta electrons
       nuclear repulsion energy      2191.9695721497 Hartrees.
 IExCor=  402 DFT=T Ex+Corr=B3LYP ExCW=0 ScaHFX=  0.200000
 ScaDFX=  0.800000  0.720000  1.000000  0.810000 ScalE2=  1.000000  1.000000
 IRadAn=      5 IRanWt=     -1 IRanGd=            0 ICorTp=0 IEmpDi=141
 NAtoms=   51 NActive=   51 NUniq=   51 SFac= 1.00D+00 NAtFMM=   60 NAOKFM=F Big=F
 Integral buffers will be    131072 words long.
 Raffenetti 2 integral format.
 Two-electron integral symmetry is turned off.
 R6Disp:  Grimme-D3(BJ) Dispersion energy=       -0.1086584478 Hartrees.
 Nuclear repulsion after empirical dispersion term =     2191.8609137019 Hartrees.
 Using the following non-standard input for PCM:
 radii=bondi
 dis
 rep
 cav
 --- end of non-standard input.
 ------------------------------------------------------------------------------
 Polarizable Continuum Model (PCM)
 =================================
 Model                : C-PCM.
 Atomic radii         : Bondi.
 Polarization charges : Total charges.
 Charge compensation  : None.
 Solution method      : On-the-fly selection.
 Cavity type          : Scaled VdW (van der Waals Surface) (Alpha=1.100).
 Cavity algorithm     : GePol (No added spheres)
                        Default sphere list used, NSphG=   51.
                        Lebedev-Laikov grids with approx.  5.0 points / Ang**2.
                        Smoothing algorithm: York/Karplus (Gamma=1.0000).
                        Polarization charges: spherical gaussians, with
                                              point-specific exponents (IZeta= 3).
                        Self-potential: point-specific (ISelfS= 7).
                        Self-field    : sphere-specific E.n sum rule (ISelfD= 2).
 1st derivatives      : Analytical E(r).r(x)/FMM algorithm (CHGder, D1EAlg=3).
                        Cavity 1st derivative terms included.
 Solvent              : Dichloromethane, Eps=   8.930000 Eps(inf)=   2.028346
 ------------------------------------------------------------------------------
 GePol: Number of generator spheres                  =      51
 GePol: Total number of spheres                      =      51
 GePol: Number of exposed spheres                    =      51 (100.00%)
 GePol: Number of points                             =    3456
 GePol: Average weight of points                     =       0.12
 GePol: Minimum weight of points                     =   0.43D-10
 GePol: Maximum weight of points                     =    0.21770
 GePol: Number of points with low weight             =     239
 GePol: Fraction of low-weight points (<1% of avg)   =       6.92%
 GePol: Cavity surface area                          =    410.285 Ang**2
 GePol: Cavity volume                                =    387.735 Ang**3
 PCM non-electrostatic energy =         0.0152227496 Hartrees.
 Nuclear repulsion after PCM non-electrostatic terms =     2191.8761364515 Hartrees.
 Leave Link  301 at Fri Dec 14 11:27:20 2018, MaxMem=  1342177280 cpu:               4.0 elap:               0.3
 (Enter /gpfs/apps/hpc/Apps/Restricted/Gaussian/Rev_A.03/g16/l302.exe)
 NPDir=0 NMtPBC=     1 NCelOv=     1 NCel=       1 NClECP=     1 NCelD=      1
         NCelK=      1 NCelE2=     1 NClLst=     1 CellRange=     0.0.
 One-electron integrals computed using PRISM.
 NBasis=   515 RedAO= T EigKep=  2.95D-04  NBF=   515
 NBsUse=   515 1.00D-06 EigRej= -1.00D+00 NBFU=   515
 Precomputing XC quadrature grid using
 IXCGrd= 4 IRadAn=           5 IRanWt=          -1 IRanGd=           0 AccXCQ= 0.00D+00.
 Generated NRdTot=       0 NPtTot=           0 NUsed=           0 NTot=          32
 NSgBfM=   506   506   506   506   506 MxSgAt=    51 MxSgA2=    51.
 Leave Link  302 at Fri Dec 14 11:27:21 2018, MaxMem=  1342177280 cpu:              15.2 elap:               1.0
 (Enter /gpfs/apps/hpc/Apps/Restricted/Gaussian/Rev_A.03/g16/l303.exe)
 DipDrv:  MaxL=1.
 Leave Link  303 at Fri Dec 14 11:27:21 2018, MaxMem=  1342177280 cpu:               1.4 elap:               0.1
 (Enter /gpfs/apps/hpc/Apps/Restricted/Gaussian/Rev_A.03/g16/l401.exe)
 ExpMin= 1.61D-01 ExpMax= 5.48D+03 ExpMxC= 8.25D+02 IAcc=3 IRadAn=         5 AccDes= 0.00D+00
 Harris functional with IExCor=  402 and IRadAn=       5 diagonalized for initial guess.
 HarFok:  IExCor=  402 AccDes= 0.00D+00 IRadAn=         5 IDoV= 1 UseB2=F ITyADJ=14
 ICtDFT=  3500011 ScaDFX=  1.000000  1.000000  1.000000  1.000000
 FoFCou: FMM=F IPFlag=           0 FMFlag=      100000 FMFlg1=           0
         NFxFlg=           0 DoJE=T BraDBF=F KetDBF=T FulRan=T
         wScrn=  0.000000 ICntrl=       500 IOpCl=  0 I1Cent=   200000004 NGrid=           0
         NMat0=    1 NMatS0=      1 NMatT0=    0 NMatD0=    1 NMtDS0=    0 NMtDT0=    0
 Symmetry not used in FoFCou.
 Harris En= -1092.81578772265    
 JPrj=0 DoOrth=F DoCkMO=F.
 Initial guess <Sx>= 0.0000 <Sy>= 0.0000 <Sz>= 0.5000 <S**2>= 0.7500 S= 0.5000
 Leave Link  401 at Fri Dec 14 11:27:25 2018, MaxMem=  1342177280 cpu:              55.4 elap:               3.5
 (Enter /gpfs/apps/hpc/Apps/Restricted/Gaussian/Rev_A.03/g16/l502.exe)
 Two-electron integral symmetry not used.
 UHF open shell SCF:
 Using DIIS extrapolation, IDIIS=  1040.
 NGot=  1342177280 LenX=  1341634262 LenY=  1341368522
 Requested convergence on RMS density matrix=1.00D-08 within 128 cycles.
 Requested convergence on MAX density matrix=1.00D-06.
 Requested convergence on             energy=1.00D-06.
 No special actions if energy rises.
 Fock matrices will be formed incrementally for  20 cycles.

 Cycle   1  Pass 1  IDiag  1:
 FoFJK:  IHMeth= 1 ICntrl=       0 DoSepK=F KAlg= 0 I1Cent=           0 FoldK=F
 IRaf= 600000000 NMat=       1 IRICut=       1 DoRegI=T DoRafI=F ISym2E= 0 IDoP0=0 IntGTp=1.
 FoFCou: FMM=F IPFlag=           0 FMFlag=      100000 FMFlg1=           0
         NFxFlg=           0 DoJE=F BraDBF=F KetDBF=F FulRan=T
         wScrn=  0.000000 ICntrl=         0 IOpCl=  1 I1Cent=           0 NGrid=           0
         NMat0=    1 NMatS0=      1 NMatT0=    0 NMatD0=    1 NMtDS0=    0 NMtDT0=    0
 Symmetry not used in FoFCou.
 Inv3:  Mode=1 IEnd=    35831808.
 Iteration    1 A*A^-1 deviation from unit magnitude is 6.99D-15 for   3444.
 Iteration    1 A*A^-1 deviation from orthogonality  is 2.97D-15 for   2041   1194.
 Iteration    1 A^-1*A deviation from unit magnitude is 7.22D-15 for   3444.
 Iteration    1 A^-1*A deviation from orthogonality  is 1.66D-15 for   3449   3434.
 E= -1092.32112406958    
 DIIS: error= 2.97D-02 at cycle   1 NSaved=   1.
 NSaved= 1 IEnMin= 1 EnMin= -1092.32112406958     IErMin= 1 ErrMin= 2.97D-02
 ErrMax= 2.97D-02  0.00D+00 EMaxC= 1.00D-01 BMatC= 2.21D+00 BMatP= 2.21D+00
 IDIUse=3 WtCom= 7.03D-01 WtEn= 2.97D-01
 Coeff-Com:  0.100D+01
 Coeff-En:   0.100D+01
 Coeff:      0.100D+01
 Gap=     0.140 Goal=   None    Shift=    0.000
 Gap=     0.093 Goal=   None    Shift=    0.000
 GapD=    0.093 DampG=0.500 DampE=0.500 DampFc=0.2500 IDamp=-1.
 Damping current iteration by 2.50D-01
 RMSDP=3.57D-03 MaxDP=1.80D-01              OVMax= 2.86D-01

 Cycle   2  Pass 1  IDiag  1:
 RMSU=  8.70D-04    CP:  9.86D-01
 E= -1092.52631651877     Delta-E=       -0.205192449186 Rises=F Damp=T
 DIIS: error= 1.50D-02 at cycle   2 NSaved=   2.
 NSaved= 2 IEnMin= 2 EnMin= -1092.52631651877     IErMin= 2 ErrMin= 1.50D-02
 ErrMax= 1.50D-02  0.00D+00 EMaxC= 1.00D-01 BMatC= 5.86D-01 BMatP= 2.21D+00
 IDIUse=3 WtCom= 8.50D-01 WtEn= 1.50D-01
 Coeff-Com: -0.807D+00 0.181D+01
 Coeff-En:   0.000D+00 0.100D+01
 Coeff:     -0.686D+00 0.169D+01
 Gap=     0.168 Goal=   None    Shift=    0.000
 Gap=     0.123 Goal=   None    Shift=    0.000
 RMSDP=1.36D-03 MaxDP=5.62D-02 DE=-2.05D-01 OVMax= 1.93D-01

 Cycle   3  Pass 1  IDiag  1:
 RMSU=  1.01D-03    CP:  9.55D-01  1.93D+00
 E= -1092.86755709759     Delta-E=       -0.341240578821 Rises=F Damp=F
 DIIS: error= 1.20D-02 at cycle   3 NSaved=   3.
 NSaved= 3 IEnMin= 3 EnMin= -1092.86755709759     IErMin= 3 ErrMin= 1.20D-02
 ErrMax= 1.20D-02  0.00D+00 EMaxC= 1.00D-01 BMatC= 1.23D-01 BMatP= 5.86D-01
 IDIUse=3 WtCom= 8.80D-01 WtEn= 1.20D-01
 Coeff-Com: -0.387D+00 0.824D+00 0.564D+00
 Coeff-En:   0.000D+00 0.000D+00 0.100D+01
 Coeff:     -0.341D+00 0.725D+00 0.616D+00
 Gap=     0.140 Goal=   None    Shift=    0.000
 Gap=     0.089 Goal=   None    Shift=    0.000
 RMSDP=5.78D-04 MaxDP=6.75D-02 DE=-3.41D-01 OVMax= 8.39D-02

 Cycle   4  Pass 1  IDiag  1:
 RMSU=  4.45D-04    CP:  9.59D-01  2.04D+00  6.51D-01
 E= -1092.88516812740     Delta-E=       -0.017611029811 Rises=F Damp=F
 DIIS: error= 9.01D-03 at cycle   4 NSaved=   4.
 NSaved= 4 IEnMin= 4 EnMin= -1092.88516812740     IErMin= 4 ErrMin= 9.01D-03
 ErrMax= 9.01D-03  0.00D+00 EMaxC= 1.00D-01 BMatC= 5.62D-02 BMatP= 1.23D-01
 IDIUse=3 WtCom= 9.10D-01 WtEn= 9.01D-02
 Coeff-Com: -0.735D-01 0.167D+00 0.399D+00 0.508D+00
 Coeff-En:   0.000D+00 0.000D+00 0.306D+00 0.694D+00
 Coeff:     -0.668D-01 0.152D+00 0.390D+00 0.525D+00
 Gap=     0.143 Goal=   None    Shift=    0.000
 Gap=     0.087 Goal=   None    Shift=    0.000
 RMSDP=2.84D-04 MaxDP=3.25D-02 DE=-1.76D-02 OVMax= 3.73D-02

 Cycle   5  Pass 1  IDiag  1:
 RMSU=  1.43D-04    CP:  9.58D-01  1.97D+00  7.76D-01  5.47D-01
 E= -1092.89604804440     Delta-E=       -0.010879917004 Rises=F Damp=F
 DIIS: error= 2.00D-03 at cycle   5 NSaved=   5.
 NSaved= 5 IEnMin= 5 EnMin= -1092.89604804440     IErMin= 5 ErrMin= 2.00D-03
 ErrMax= 2.00D-03  0.00D+00 EMaxC= 1.00D-01 BMatC= 3.66D-03 BMatP= 5.62D-02
 IDIUse=3 WtCom= 9.80D-01 WtEn= 2.00D-02
 Coeff-Com: -0.160D-02 0.884D-02 0.167D+00 0.295D+00 0.531D+00
 Coeff-En:   0.000D+00 0.000D+00 0.000D+00 0.000D+00 0.100D+01
 Coeff:     -0.157D-02 0.866D-02 0.164D+00 0.289D+00 0.540D+00
 Gap=     0.144 Goal=   None    Shift=    0.000
 Gap=     0.089 Goal=   None    Shift=    0.000
 RMSDP=7.90D-05 MaxDP=1.01D-02 DE=-1.09D-02 OVMax= 1.70D-02

 Cycle   6  Pass 1  IDiag  1:
 RMSU=  4.85D-05    CP:  9.58D-01  1.97D+00  7.83D-01  6.15D-01  6.24D-01
 E= -1092.89689149009     Delta-E=       -0.000843445683 Rises=F Damp=F
 DIIS: error= 5.80D-04 at cycle   6 NSaved=   6.
 NSaved= 6 IEnMin= 6 EnMin= -1092.89689149009     IErMin= 6 ErrMin= 5.80D-04
 ErrMax= 5.80D-04  0.00D+00 EMaxC= 1.00D-01 BMatC= 3.82D-04 BMatP= 3.66D-03
 IDIUse=3 WtCom= 9.94D-01 WtEn= 5.80D-03
 Coeff-Com:  0.580D-02-0.100D-01 0.476D-01 0.934D-01 0.288D+00 0.576D+00
 Coeff-En:   0.000D+00 0.000D+00 0.000D+00 0.000D+00 0.000D+00 0.100D+01
 Coeff:      0.576D-02-0.997D-02 0.473D-01 0.928D-01 0.286D+00 0.578D+00
 Gap=     0.144 Goal=   None    Shift=    0.000
 Gap=     0.089 Goal=   None    Shift=    0.000
 RMSDP=2.65D-05 MaxDP=2.67D-03 DE=-8.43D-04 OVMax= 5.84D-03

 Cycle   7  Pass 1  IDiag  1:
 RMSU=  2.15D-05    CP:  9.57D-01  1.97D+00  7.86D-01  6.12D-01  7.26D-01
                    CP:  9.17D-01
 E= -1092.89701302669     Delta-E=       -0.000121536605 Rises=F Damp=F
 DIIS: error= 2.73D-04 at cycle   7 NSaved=   7.
 NSaved= 7 IEnMin= 7 EnMin= -1092.89701302669     IErMin= 7 ErrMin= 2.73D-04
 ErrMax= 2.73D-04  0.00D+00 EMaxC= 1.00D-01 BMatC= 5.62D-05 BMatP= 3.82D-04
 IDIUse=3 WtCom= 9.97D-01 WtEn= 2.73D-03
 Coeff-Com:  0.277D-02-0.589D-02-0.186D-01-0.362D-01-0.385D-02 0.227D+00
 Coeff-Com:  0.835D+00
 Coeff-En:   0.000D+00 0.000D+00 0.000D+00 0.000D+00 0.000D+00 0.000D+00
 Coeff-En:   0.100D+01
 Coeff:      0.276D-02-0.587D-02-0.186D-01-0.361D-01-0.384D-02 0.226D+00
 Coeff:      0.835D+00
 Gap=     0.145 Goal=   None    Shift=    0.000
 Gap=     0.090 Goal=   None    Shift=    0.000
 RMSDP=1.67D-05 MaxDP=2.35D-03 DE=-1.22D-04 OVMax= 4.32D-03

 Cycle   8  Pass 1  IDiag  1:
 RMSU=  1.06D-05    CP:  9.57D-01  1.97D+00  7.88D-01  6.16D-01  7.66D-01
                    CP:  1.14D+00  1.08D+00
 E= -1092.89705552692     Delta-E=       -0.000042500226 Rises=F Damp=F
 DIIS: error= 1.39D-04 at cycle   8 NSaved=   8.
 NSaved= 8 IEnMin= 8 EnMin= -1092.89705552692     IErMin= 8 ErrMin= 1.39D-04
 ErrMax= 1.39D-04  0.00D+00 EMaxC= 1.00D-01 BMatC= 1.80D-05 BMatP= 5.62D-05
 IDIUse=3 WtCom= 9.99D-01 WtEn= 1.39D-03
 Coeff-Com: -0.385D-03 0.569D-03-0.219D-01-0.479D-01-0.938D-01-0.130D+00
 Coeff-Com:  0.339D+00 0.954D+00
 Coeff-En:   0.000D+00 0.000D+00 0.000D+00 0.000D+00 0.000D+00 0.000D+00
 Coeff-En:   0.000D+00 0.100D+01
 Coeff:     -0.384D-03 0.568D-03-0.218D-01-0.479D-01-0.936D-01-0.130D+00
 Coeff:      0.338D+00 0.954D+00
 Gap=     0.145 Goal=   None    Shift=    0.000
 Gap=     0.090 Goal=   None    Shift=    0.000
 RMSDP=1.34D-05 MaxDP=1.68D-03 DE=-4.25D-05 OVMax= 2.99D-03

 Cycle   9  Pass 1  IDiag  1:
 RMSU=  5.90D-06    CP:  9.57D-01  1.97D+00  7.90D-01  6.15D-01  8.03D-01
                    CP:  1.28D+00  1.44D+00  1.25D+00
 E= -1092.89707016829     Delta-E=       -0.000014641375 Rises=F Damp=F
 DIIS: error= 7.75D-05 at cycle   9 NSaved=   9.
 NSaved= 9 IEnMin= 9 EnMin= -1092.89707016829     IErMin= 9 ErrMin= 7.75D-05
 ErrMax= 7.75D-05  0.00D+00 EMaxC= 1.00D-01 BMatC= 6.07D-06 BMatP= 1.80D-05
 IDIUse=1 WtCom= 1.00D+00 WtEn= 0.00D+00
 Coeff-Com: -0.461D-03 0.102D-02-0.918D-02-0.218D-01-0.525D-01-0.125D+00
 Coeff-Com:  0.492D-01 0.568D+00 0.591D+00
 Coeff:     -0.461D-03 0.102D-02-0.918D-02-0.218D-01-0.525D-01-0.125D+00
 Coeff:      0.492D-01 0.568D+00 0.591D+00
 Gap=     0.145 Goal=   None    Shift=    0.000
 Gap=     0.090 Goal=   None    Shift=    0.000
 RMSDP=4.60D-06 MaxDP=5.83D-04 DE=-1.46D-05 OVMax= 1.03D-03

 Cycle  10  Pass 1  IDiag  1:
 RMSU=  2.65D-06    CP:  9.57D-01  1.97D+00  7.90D-01  6.15D-01  8.12D-01
                    CP:  1.32D+00  1.53D+00  1.43D+00  7.78D-01
 E= -1092.89707261063     Delta-E=       -0.000002442341 Rises=F Damp=F
 DIIS: error= 2.43D-05 at cycle  10 NSaved=  10.
 NSaved=10 IEnMin=10 EnMin= -1092.89707261063     IErMin=10 ErrMin= 2.43D-05
 ErrMax= 2.43D-05  0.00D+00 EMaxC= 1.00D-01 BMatC= 9.25D-07 BMatP= 6.07D-06
 IDIUse=1 WtCom= 1.00D+00 WtEn= 0.00D+00
 Coeff-Com: -0.470D-04 0.231D-03 0.523D-03 0.117D-03-0.366D-02-0.362D-01
 Coeff-Com: -0.462D-01 0.639D-01 0.303D+00 0.718D+00
 Coeff:     -0.470D-04 0.231D-03 0.523D-03 0.117D-03-0.366D-02-0.362D-01
 Coeff:     -0.462D-01 0.639D-01 0.303D+00 0.718D+00
 Gap=     0.145 Goal=   None    Shift=    0.000
 Gap=     0.090 Goal=   None    Shift=    0.000
 RMSDP=1.91D-06 MaxDP=2.68D-04 DE=-2.44D-06 OVMax= 4.52D-04

 Cycle  11  Pass 1  IDiag  1:
 RMSU=  1.19D-06    CP:  9.57D-01  1.97D+00  7.91D-01  6.14D-01  8.14D-01
                    CP:  1.33D+00  1.56D+00  1.49D+00  9.54D-01  9.81D-01
 E= -1092.89707297547     Delta-E=       -0.000000364839 Rises=F Damp=F
 DIIS: error= 9.51D-06 at cycle  11 NSaved=  11.
 NSaved=11 IEnMin=11 EnMin= -1092.89707297547     IErMin=11 ErrMin= 9.51D-06
 ErrMax= 9.51D-06  0.00D+00 EMaxC= 1.00D-01 BMatC= 2.52D-07 BMatP= 9.25D-07
 IDIUse=1 WtCom= 1.00D+00 WtEn= 0.00D+00
 Coeff-Com:  0.411D-04-0.234D-04 0.202D-02 0.417D-02 0.797D-02 0.155D-02
 Coeff-Com: -0.347D-01-0.710D-01 0.711D-01 0.430D+00 0.589D+00
 Coeff:      0.411D-04-0.234D-04 0.202D-02 0.417D-02 0.797D-02 0.155D-02
 Coeff:     -0.347D-01-0.710D-01 0.711D-01 0.430D+00 0.589D+00
 Gap=     0.145 Goal=   None    Shift=    0.000
 Gap=     0.090 Goal=   None    Shift=    0.000
 RMSDP=8.09D-07 MaxDP=1.03D-04 DE=-3.65D-07 OVMax= 1.71D-04

 Cycle  12  Pass 1  IDiag  1:
 RMSU=  5.00D-07    CP:  9.57D-01  1.97D+00  7.91D-01  6.14D-01  8.14D-01
                    CP:  1.33D+00  1.57D+00  1.52D+00  1.00D+00  1.13D+00
                    CP:  8.36D-01
 E= -1092.89707306930     Delta-E=       -0.000000093825 Rises=F Damp=F
 DIIS: error= 6.70D-06 at cycle  12 NSaved=  12.
 NSaved=12 IEnMin=12 EnMin= -1092.89707306930     IErMin=12 ErrMin= 6.70D-06
 ErrMax= 6.70D-06  0.00D+00 EMaxC= 1.00D-01 BMatC= 2.75D-08 BMatP= 2.52D-07
 IDIUse=1 WtCom= 1.00D+00 WtEn= 0.00D+00
 Coeff-Com:  0.236D-04-0.586D-04 0.772D-03 0.187D-02 0.443D-02 0.822D-02
 Coeff-Com: -0.502D-02-0.458D-01-0.302D-01 0.359D-01 0.239D+00 0.791D+00
 Coeff:      0.236D-04-0.586D-04 0.772D-03 0.187D-02 0.443D-02 0.822D-02
 Coeff:     -0.502D-02-0.458D-01-0.302D-01 0.359D-01 0.239D+00 0.791D+00
 Gap=     0.145 Goal=   None    Shift=    0.000
 Gap=     0.090 Goal=   None    Shift=    0.000
 RMSDP=3.92D-07 MaxDP=4.74D-05 DE=-9.38D-08 OVMax= 8.90D-05

 Cycle  13  Pass 1  IDiag  1:
 RMSU=  2.37D-07    CP:  9.57D-01  1.97D+00  7.90D-01  6.14D-01  8.14D-01
                    CP:  1.33D+00  1.57D+00  1.52D+00  1.03D+00  1.20D+00
                    CP:  9.94D-01  9.57D-01
 E= -1092.89707308516     Delta-E=       -0.000000015865 Rises=F Damp=F
 DIIS: error= 3.66D-06 at cycle  13 NSaved=  13.
 NSaved=13 IEnMin=13 EnMin= -1092.89707308516     IErMin=13 ErrMin= 3.66D-06
 ErrMax= 3.66D-06  0.00D+00 EMaxC= 1.00D-01 BMatC= 1.34D-08 BMatP= 2.75D-08
 IDIUse=1 WtCom= 1.00D+00 WtEn= 0.00D+00
 Coeff-Com: -0.773D-06-0.232D-04 0.487D-04 0.306D-03 0.106D-02 0.482D-02
 Coeff-Com:  0.397D-02-0.140D-01-0.331D-01-0.697D-01 0.179D-01 0.494D+00
 Coeff-Com:  0.595D+00
 Coeff:     -0.773D-06-0.232D-04 0.487D-04 0.306D-03 0.106D-02 0.482D-02
 Coeff:      0.397D-02-0.140D-01-0.331D-01-0.697D-01 0.179D-01 0.494D+00
 Coeff:      0.595D+00
 Gap=     0.145 Goal=   None    Shift=    0.000
 Gap=     0.090 Goal=   None    Shift=    0.000
 RMSDP=1.97D-07 MaxDP=3.04D-05 DE=-1.59D-08 OVMax= 5.62D-05

 Cycle  14  Pass 1  IDiag  1:
 RMSU=  1.13D-07    CP:  9.57D-01  1.97D+00  7.90D-01  6.14D-01  8.14D-01
                    CP:  1.33D+00  1.57D+00  1.53D+00  1.04D+00  1.23D+00
                    CP:  1.04D+00  1.17D+00  8.54D-01
 E= -1092.89707309075     Delta-E=       -0.000000005592 Rises=F Damp=F
 DIIS: error= 1.08D-06 at cycle  14 NSaved=  14.
 NSaved=14 IEnMin=14 EnMin= -1092.89707309075     IErMin=14 ErrMin= 1.08D-06
 ErrMax= 1.08D-06  0.00D+00 EMaxC= 1.00D-01 BMatC= 1.14D-09 BMatP= 1.34D-08
 IDIUse=1 WtCom= 1.00D+00 WtEn= 0.00D+00
 Coeff-Com: -0.134D-04 0.185D-04-0.174D-03-0.342D-03-0.807D-03-0.513D-03
 Coeff-Com:  0.220D-02 0.682D-02-0.170D-02-0.291D-01-0.546D-01-0.424D-01
 Coeff-Com:  0.167D+00 0.954D+00
 Coeff:     -0.134D-04 0.185D-04-0.174D-03-0.342D-03-0.807D-03-0.513D-03
 Coeff:      0.220D-02 0.682D-02-0.170D-02-0.291D-01-0.546D-01-0.424D-01
 Coeff:      0.167D+00 0.954D+00
 Gap=     0.145 Goal=   None    Shift=    0.000
 Gap=     0.090 Goal=   None    Shift=    0.000
 RMSDP=1.02D-07 MaxDP=1.08D-05 DE=-5.59D-09 OVMax= 2.71D-05

 Cycle  15  Pass 1  IDiag  1:
 RMSU=  3.97D-08    CP:  9.57D-01  1.97D+00  7.90D-01  6.14D-01  8.14D-01
                    CP:  1.33D+00  1.57D+00  1.53D+00  1.04D+00  1.24D+00
                    CP:  1.07D+00  1.26D+00  1.09D+00  1.18D+00
 E= -1092.89707309190     Delta-E=       -0.000000001149 Rises=F Damp=F
 DIIS: error= 4.60D-07 at cycle  15 NSaved=  15.
 NSaved=15 IEnMin=15 EnMin= -1092.89707309190     IErMin=15 ErrMin= 4.60D-07
 ErrMax= 4.60D-07  0.00D+00 EMaxC= 1.00D-01 BMatC= 2.39D-10 BMatP= 1.14D-09
 IDIUse=1 WtCom= 1.00D+00 WtEn= 0.00D+00
 Coeff-Com: -0.502D-05 0.105D-04-0.632D-04-0.144D-03-0.428D-03-0.901D-03
 Coeff-Com: -0.422D-04 0.410D-02 0.452D-02 0.236D-02-0.187D-01-0.837D-01
 Coeff-Com: -0.364D-01 0.305D+00 0.824D+00
 Coeff:     -0.502D-05 0.105D-04-0.632D-04-0.144D-03-0.428D-03-0.901D-03
 Coeff:     -0.422D-04 0.410D-02 0.452D-02 0.236D-02-0.187D-01-0.837D-01
 Coeff:     -0.364D-01 0.305D+00 0.824D+00
 Gap=     0.145 Goal=   None    Shift=    0.000
 Gap=     0.090 Goal=   None    Shift=    0.000
 RMSDP=3.98D-08 MaxDP=4.31D-06 DE=-1.15D-09 OVMax= 1.04D-05

 Cycle  16  Pass 1  IDiag  1:
 RMSU=  2.21D-08    CP:  9.57D-01  1.97D+00  7.90D-01  6.14D-01  8.14D-01
                    CP:  1.33D+00  1.57D+00  1.53D+00  1.04D+00  1.24D+00
                    CP:  1.08D+00  1.29D+00  1.15D+00  1.36D+00  1.14D+00
 E= -1092.89707309200     Delta-E=       -0.000000000098 Rises=F Damp=F
 DIIS: error= 2.60D-07 at cycle  16 NSaved=  16.
 NSaved=16 IEnMin=16 EnMin= -1092.89707309200     IErMin=16 ErrMin= 2.60D-07
 ErrMax= 2.60D-07  0.00D+00 EMaxC= 1.00D-01 BMatC= 9.64D-11 BMatP= 2.39D-10
 IDIUse=1 WtCom= 1.00D+00 WtEn= 0.00D+00
 Coeff-Com:  0.114D-05 0.140D-07 0.228D-04 0.408D-04 0.394D-04-0.287D-03
 Coeff-Com: -0.735D-03-0.937D-04 0.274D-02 0.107D-01 0.710D-02-0.307D-01
 Coeff-Com: -0.714D-01-0.138D+00 0.453D+00 0.767D+00
 Coeff:      0.114D-05 0.140D-07 0.228D-04 0.408D-04 0.394D-04-0.287D-03
 Coeff:     -0.735D-03-0.937D-04 0.274D-02 0.107D-01 0.710D-02-0.307D-01
 Coeff:     -0.714D-01-0.138D+00 0.453D+00 0.767D+00
 Gap=     0.145 Goal=   None    Shift=    0.000
 Gap=     0.090 Goal=   None    Shift=    0.000
 RMSDP=2.36D-08 MaxDP=2.47D-06 DE=-9.82D-11 OVMax= 6.80D-06

 Cycle  17  Pass 1  IDiag  1:
 RMSU=  1.07D-08    CP:  9.57D-01  1.97D+00  7.90D-01  6.14D-01  8.14D-01
                    CP:  1.33D+00  1.57D+00  1.53D+00  1.04D+00  1.25D+00
                    CP:  1.08D+00  1.30D+00  1.19D+00  1.46D+00  1.47D+00
                    CP:  1.02D+00
 E= -1092.89707309207     Delta-E=       -0.000000000073 Rises=F Damp=F
 DIIS: error= 8.39D-08 at cycle  17 NSaved=  17.
 NSaved=17 IEnMin=17 EnMin= -1092.89707309207     IErMin=17 ErrMin= 8.39D-08
 ErrMax= 8.39D-08  0.00D+00 EMaxC= 1.00D-01 BMatC= 1.25D-11 BMatP= 9.64D-11
 IDIUse=1 WtCom= 1.00D+00 WtEn= 0.00D+00
 Coeff-Com:  0.902D-06-0.128D-05 0.181D-04 0.399D-04 0.838D-04 0.209D-04
 Coeff-Com: -0.284D-03-0.647D-03 0.340D-03 0.373D-02 0.534D-02 0.157D-02
 Coeff-Com: -0.183D-01-0.985D-01 0.422D-01 0.250D+00 0.814D+00
 Coeff:      0.902D-06-0.128D-05 0.181D-04 0.399D-04 0.838D-04 0.209D-04
 Coeff:     -0.284D-03-0.647D-03 0.340D-03 0.373D-02 0.534D-02 0.157D-02
 Coeff:     -0.183D-01-0.985D-01 0.422D-01 0.250D+00 0.814D+00
 Gap=     0.145 Goal=   None    Shift=    0.000
 Gap=     0.090 Goal=   None    Shift=    0.000
 RMSDP=1.01D-08 MaxDP=8.34D-07 DE=-7.28D-11 OVMax= 2.88D-06

 Cycle  18  Pass 1  IDiag  1:
 RMSU=  5.56D-09    CP:  9.57D-01  1.97D+00  7.90D-01  6.14D-01  8.14D-01
                    CP:  1.33D+00  1.57D+00  1.53D+00  1.04D+00  1.25D+00
                    CP:  1.08D+00  1.30D+00  1.20D+00  1.48D+00  1.58D+00
                    CP:  1.26D+00  1.17D+00
 E= -1092.89707309213     Delta-E=       -0.000000000059 Rises=F Damp=F
 DIIS: error= 4.36D-08 at cycle  18 NSaved=  18.
 NSaved=18 IEnMin=18 EnMin= -1092.89707309213     IErMin=18 ErrMin= 4.36D-08
 ErrMax= 4.36D-08  0.00D+00 EMaxC= 1.00D-01 BMatC= 5.46D-12 BMatP= 1.25D-11
 IDIUse=1 WtCom= 1.00D+00 WtEn= 0.00D+00
 Coeff-Com: -0.125D-06-0.338D-06 0.187D-05 0.817D-05 0.341D-04 0.106D-03
 Coeff-Com:  0.108D-03-0.315D-03-0.777D-03-0.163D-02 0.536D-03 0.118D-01
 Coeff-Com:  0.159D-01-0.114D-01-0.130D+00-0.130D+00 0.465D+00 0.780D+00
 Coeff:     -0.125D-06-0.338D-06 0.187D-05 0.817D-05 0.341D-04 0.106D-03
 Coeff:      0.108D-03-0.315D-03-0.777D-03-0.163D-02 0.536D-03 0.118D-01
 Coeff:      0.159D-01-0.114D-01-0.130D+00-0.130D+00 0.465D+00 0.780D+00
 Gap=     0.145 Goal=   None    Shift=    0.000
 Gap=     0.090 Goal=   None    Shift=    0.000
 RMSDP=7.07D-09 MaxDP=5.73D-07 DE=-5.87D-11 OVMax= 2.50D-06

 Error on total polarization charges =  0.03842
 SCF Done:  E(UB3LYP) =  -1092.89707309     A.U. after   18 cycles
            NFock= 18  Conv=0.71D-08     -V/T= 2.0097
 <Sx>= 0.0000 <Sy>= 0.0000 <Sz>= 0.5000 <S**2>= 0.7726 S= 0.5113
 <L.S>= 0.000000000000E+00
 KE= 1.082448299454D+03 PE=-6.895006244899D+03 EE= 2.527784735901D+03
 Annihilation of the first spin contaminant:
 S**2 before annihilation     0.7726,   after     0.7504
 Leave Link  502 at Fri Dec 14 11:30:56 2018, MaxMem=  1342177280 cpu:            3316.8 elap:             210.8
 (Enter /gpfs/apps/hpc/Apps/Restricted/Gaussian/Rev_A.03/g16/l601.exe)
 Copying SCF densities to generalized density rwf, IOpCl= 1 IROHF=0.

 **********************************************************************

            Population analysis using the SCF density.

 **********************************************************************

 Alpha  occ. eigenvalues --  -19.17601 -14.43304 -14.43244 -14.34981 -10.33004
 Alpha  occ. eigenvalues --  -10.29740 -10.26952 -10.26777 -10.25380 -10.25242
 Alpha  occ. eigenvalues --  -10.25047 -10.23999 -10.23684 -10.23280 -10.22830
 Alpha  occ. eigenvalues --  -10.22312 -10.22051 -10.22023 -10.21998 -10.20121
 Alpha  occ. eigenvalues --  -10.19644 -10.18620 -10.18558 -10.18252 -10.18247
 Alpha  occ. eigenvalues --  -10.18009  -1.08970  -1.06488  -0.95916  -0.94059
 Alpha  occ. eigenvalues --   -0.90074  -0.88601  -0.83308  -0.82931  -0.80820
 Alpha  occ. eigenvalues --   -0.79352  -0.77217  -0.74597  -0.74058  -0.71857
 Alpha  occ. eigenvalues --   -0.70530  -0.69442  -0.68349  -0.66663  -0.64974
 Alpha  occ. eigenvalues --   -0.62069  -0.61464  -0.60298  -0.59106  -0.56736
 Alpha  occ. eigenvalues --   -0.55865  -0.54701  -0.53834  -0.52486  -0.51619
 Alpha  occ. eigenvalues --   -0.50905  -0.50862  -0.50078  -0.48154  -0.46758
 Alpha  occ. eigenvalues --   -0.46623  -0.46437  -0.45199  -0.45009  -0.44413
 Alpha  occ. eigenvalues --   -0.44358  -0.43981  -0.43071  -0.41970  -0.41818
 Alpha  occ. eigenvalues --   -0.41039  -0.40913  -0.40562  -0.39529  -0.39160
 Alpha  occ. eigenvalues --   -0.38873  -0.38810  -0.38332  -0.37801  -0.37488
 Alpha  occ. eigenvalues --   -0.35823  -0.35287  -0.34740  -0.33374  -0.32566
 Alpha  occ. eigenvalues --   -0.32404  -0.30938  -0.30213  -0.29553  -0.26951
 Alpha  occ. eigenvalues --   -0.26600  -0.25889  -0.23822
 Alpha virt. eigenvalues --   -0.09286  -0.05898  -0.03144  -0.01663   0.01272
 Alpha virt. eigenvalues --    0.03232   0.06770   0.08603   0.09168   0.09469
 Alpha virt. eigenvalues --    0.09862   0.11005   0.11657   0.11829   0.12112
 Alpha virt. eigenvalues --    0.12526   0.12914   0.12928   0.14576   0.14766
 Alpha virt. eigenvalues --    0.14890   0.15521   0.15824   0.16198   0.17142
 Alpha virt. eigenvalues --    0.17359   0.17416   0.17451   0.17841   0.18186
 Alpha virt. eigenvalues --    0.18339   0.18395   0.18781   0.19229   0.19374
 Alpha virt. eigenvalues --    0.21289   0.22095   0.22771   0.23444   0.23917
 Alpha virt. eigenvalues --    0.24095   0.24544   0.24780   0.25424   0.27559
 Alpha virt. eigenvalues --    0.27737   0.28843   0.29219   0.30350   0.30849
 Alpha virt. eigenvalues --    0.31824   0.32631   0.33035   0.35481   0.37068
 Alpha virt. eigenvalues --    0.38240   0.40701   0.41363   0.42747   0.45616
 Alpha virt. eigenvalues --    0.46473   0.46665   0.47962   0.48599   0.49635
 Alpha virt. eigenvalues --    0.49677   0.50353   0.50767   0.51189   0.51578
 Alpha virt. eigenvalues --    0.52050   0.53028   0.53242   0.53400   0.53767
 Alpha virt. eigenvalues --    0.54013   0.54249   0.54544   0.54867   0.55790
 Alpha virt. eigenvalues --    0.56260   0.56295   0.56588   0.57771   0.58349
 Alpha virt. eigenvalues --    0.58663   0.59158   0.59405   0.60034   0.61424
 Alpha virt. eigenvalues --    0.61586   0.61895   0.62871   0.63087   0.64904
 Alpha virt. eigenvalues --    0.65256   0.65717   0.66215   0.66833   0.68102
 Alpha virt. eigenvalues --    0.69569   0.70052   0.70394   0.71165   0.72575
 Alpha virt. eigenvalues --    0.72854   0.73745   0.74593   0.75018   0.75831
 Alpha virt. eigenvalues --    0.76148   0.76585   0.77729   0.78425   0.78869
 Alpha virt. eigenvalues --    0.79339   0.79486   0.80122   0.80693   0.81351
 Alpha virt. eigenvalues --    0.82542   0.82754   0.83250   0.83513   0.84307
 Alpha virt. eigenvalues --    0.85254   0.85810   0.85970   0.86233   0.86830
 Alpha virt. eigenvalues --    0.87718   0.88164   0.88596   0.88886   0.89323
 Alpha virt. eigenvalues --    0.90408   0.90743   0.91042   0.91101   0.91817
 Alpha virt. eigenvalues --    0.92136   0.92831   0.93481   0.94316   0.94911
 Alpha virt. eigenvalues --    0.95621   0.96647   0.97016   0.98658   0.99236
 Alpha virt. eigenvalues --    1.00607   1.02269   1.03596   1.04642   1.06265
 Alpha virt. eigenvalues --    1.06660   1.08479   1.09022   1.10507   1.13254
 Alpha virt. eigenvalues --    1.13560   1.14640   1.15754   1.16457   1.17249
 Alpha virt. eigenvalues --    1.19524   1.19786   1.21472   1.21815   1.23480
 Alpha virt. eigenvalues --    1.23804   1.24629   1.25290   1.25850   1.26061
 Alpha virt. eigenvalues --    1.26447   1.27433   1.27999   1.31069   1.31542
 Alpha virt. eigenvalues --    1.34142   1.35447   1.35970   1.36933   1.37037
 Alpha virt. eigenvalues --    1.37691   1.37888   1.38006   1.38783   1.40186
 Alpha virt. eigenvalues --    1.40431   1.41364   1.42808   1.43730   1.48325
 Alpha virt. eigenvalues --    1.49905   1.50529   1.51397   1.54814   1.57086
 Alpha virt. eigenvalues --    1.57685   1.59894   1.60705   1.61014   1.63318
 Alpha virt. eigenvalues --    1.66161   1.66787   1.68497   1.68800   1.69516
 Alpha virt. eigenvalues --    1.70683   1.71056   1.71869   1.71952   1.72802
 Alpha virt. eigenvalues --    1.73422   1.75789   1.75974   1.76162   1.78379
 Alpha virt. eigenvalues --    1.78924   1.79897   1.80035   1.81220   1.81482
 Alpha virt. eigenvalues --    1.81865   1.82450   1.84005   1.84326   1.84647
 Alpha virt. eigenvalues --    1.85567   1.87287   1.88151   1.88688   1.89253
 Alpha virt. eigenvalues --    1.90025   1.90240   1.90660   1.91131   1.92554
 Alpha virt. eigenvalues --    1.93009   1.94197   1.95178   1.95808   1.96066
 Alpha virt. eigenvalues --    1.98702   1.98769   1.99299   1.99955   2.01127
 Alpha virt. eigenvalues --    2.02373   2.02919   2.03391   2.03699   2.04939
 Alpha virt. eigenvalues --    2.06670   2.07072   2.08430   2.08665   2.09855
 Alpha virt. eigenvalues --    2.09941   2.11578   2.12184   2.12499   2.13887
 Alpha virt. eigenvalues --    2.14375   2.14844   2.15374   2.15741   2.16480
 Alpha virt. eigenvalues --    2.17190   2.17836   2.18823   2.20581   2.20698
 Alpha virt. eigenvalues --    2.20976   2.22927   2.23358   2.23779   2.24481
 Alpha virt. eigenvalues --    2.24840   2.25705   2.26235   2.27092   2.27798
 Alpha virt. eigenvalues --    2.29235   2.29310   2.33236   2.33880   2.34200
 Alpha virt. eigenvalues --    2.35492   2.36587   2.36853   2.37599   2.37738
 Alpha virt. eigenvalues --    2.38096   2.39199   2.40748   2.40846   2.41282
 Alpha virt. eigenvalues --    2.41442   2.45981   2.46162   2.47266   2.47689
 Alpha virt. eigenvalues --    2.48174   2.49913   2.50005   2.50325   2.50493
 Alpha virt. eigenvalues --    2.52358   2.53624   2.53735   2.54051   2.54709
 Alpha virt. eigenvalues --    2.55103   2.55154   2.57624   2.58069   2.58656
 Alpha virt. eigenvalues --    2.59599   2.59804   2.62373   2.62869   2.63710
 Alpha virt. eigenvalues --    2.63933   2.64991   2.65868   2.67638   2.67746
 Alpha virt. eigenvalues --    2.69512   2.69937   2.72176   2.72537   2.72988
 Alpha virt. eigenvalues --    2.74251   2.74793   2.74994   2.75700   2.76879
 Alpha virt. eigenvalues --    2.80535   2.80851   2.81262   2.81581   2.84352
 Alpha virt. eigenvalues --    2.84787   2.85048   2.85923   2.86328   2.87038
 Alpha virt. eigenvalues --    2.87224   2.88272   2.88460   2.89926   2.90832
 Alpha virt. eigenvalues --    2.92214   2.93005   2.94347   2.94724   2.98518
 Alpha virt. eigenvalues --    2.99775   3.02640   3.04119   3.05552   3.07291
 Alpha virt. eigenvalues --    3.10689   3.14904   3.16775   3.18323   3.19725
 Alpha virt. eigenvalues --    3.20728   3.21847   3.25130   3.27806   3.30004
 Alpha virt. eigenvalues --    3.30681   3.31459   3.33197   3.36915   3.38211
 Alpha virt. eigenvalues --    3.40466   3.41035   3.41801   3.41903   3.43972
 Alpha virt. eigenvalues --    3.45985   3.47056   3.47174   3.50914   3.52573
 Alpha virt. eigenvalues --    3.54702   3.55772   3.58972   3.61674   3.69110
 Alpha virt. eigenvalues --    3.79584   3.97508   4.05462   4.07255   4.09096
 Alpha virt. eigenvalues --    4.09931   4.12495   4.13114   4.22881   4.26587
 Alpha virt. eigenvalues --    4.30483   4.34210   4.37941   4.42597   4.42890
 Alpha virt. eigenvalues --    4.44162   4.48959   4.50008   4.52851   4.54294
 Alpha virt. eigenvalues --    4.61666   4.66625   4.73418   4.74727   4.78905
 Alpha virt. eigenvalues --    4.86179   4.89680
  Beta  occ. eigenvalues --  -19.16806 -14.43243 -14.43186 -14.34980 -10.33059
  Beta  occ. eigenvalues --  -10.29760 -10.26936 -10.26763 -10.25243 -10.25125
  Beta  occ. eigenvalues --  -10.24555 -10.23743 -10.23619 -10.23280 -10.22832
  Beta  occ. eigenvalues --  -10.22295 -10.22236 -10.22023 -10.21981 -10.20140
  Beta  occ. eigenvalues --  -10.19664 -10.18620 -10.18557 -10.18252 -10.18247
  Beta  occ. eigenvalues --  -10.18009  -1.08846  -1.05099  -0.95813  -0.94032
  Beta  occ. eigenvalues --   -0.89639  -0.88299  -0.83221  -0.82694  -0.80036
  Beta  occ. eigenvalues --   -0.79314  -0.77036  -0.74597  -0.74050  -0.71818
  Beta  occ. eigenvalues --   -0.70379  -0.69292  -0.68136  -0.66536  -0.64918
  Beta  occ. eigenvalues --   -0.61880  -0.61463  -0.59925  -0.58956  -0.56717
  Beta  occ. eigenvalues --   -0.55785  -0.54636  -0.53787  -0.52281  -0.51448
  Beta  occ. eigenvalues --   -0.50739  -0.50586  -0.49900  -0.48141  -0.46697
  Beta  occ. eigenvalues --   -0.46548  -0.45173  -0.44948  -0.44531  -0.44355
  Beta  occ. eigenvalues --   -0.44225  -0.43067  -0.42999  -0.41863  -0.41406
  Beta  occ. eigenvalues --   -0.41026  -0.40455  -0.40135  -0.39506  -0.39079
  Beta  occ. eigenvalues --   -0.38709  -0.38340  -0.38259  -0.37590  -0.37167
  Beta  occ. eigenvalues --   -0.35286  -0.34739  -0.33662  -0.33269  -0.32565
  Beta  occ. eigenvalues --   -0.32403  -0.30333  -0.30044  -0.28781  -0.26949
  Beta  occ. eigenvalues --   -0.26101  -0.25685
  Beta virt. eigenvalues --   -0.16637  -0.08820  -0.05387  -0.01539  -0.00689
  Beta virt. eigenvalues --    0.01976   0.03681   0.06781   0.08604   0.09173
  Beta virt. eigenvalues --    0.09480   0.09901   0.11070   0.11852   0.12155
  Beta virt. eigenvalues --    0.12525   0.12795   0.12927   0.13013   0.14641
  Beta virt. eigenvalues --    0.14818   0.14985   0.15584   0.15834   0.16258
  Beta virt. eigenvalues --    0.17174   0.17362   0.17482   0.17709   0.17905
  Beta virt. eigenvalues --    0.18187   0.18393   0.18815   0.18985   0.19309
  Beta virt. eigenvalues --    0.19459   0.21381   0.22279   0.22787   0.23673
  Beta virt. eigenvalues --    0.23923   0.24323   0.24598   0.24876   0.25637
  Beta virt. eigenvalues --    0.27649   0.27740   0.28874   0.29343   0.30434
  Beta virt. eigenvalues --    0.30973   0.32015   0.32758   0.33185   0.35632
  Beta virt. eigenvalues --    0.37082   0.38383   0.40739   0.41476   0.42912
  Beta virt. eigenvalues --    0.46090   0.46558   0.46938   0.48098   0.48663
  Beta virt. eigenvalues --    0.49677   0.49751   0.50514   0.50846   0.51238
  Beta virt. eigenvalues --    0.51620   0.52161   0.53037   0.53484   0.53768
  Beta virt. eigenvalues --    0.53982   0.54057   0.54543   0.54843   0.55016
  Beta virt. eigenvalues --    0.55819   0.56299   0.56341   0.56646   0.57820
  Beta virt. eigenvalues --    0.58389   0.58864   0.59314   0.59457   0.60092
  Beta virt. eigenvalues --    0.61461   0.61708   0.61940   0.63009   0.63113
  Beta virt. eigenvalues --    0.64840   0.65484   0.65732   0.66354   0.66965
  Beta virt. eigenvalues --    0.68106   0.69721   0.70374   0.71136   0.71287
  Beta virt. eigenvalues --    0.72859   0.73195   0.74016   0.74887   0.75120
  Beta virt. eigenvalues --    0.76102   0.76390   0.76680   0.78234   0.78453
  Beta virt. eigenvalues --    0.78929   0.79394   0.79628   0.80235   0.80623
  Beta virt. eigenvalues --    0.81404   0.82618   0.82860   0.83303   0.83791
  Beta virt. eigenvalues --    0.84337   0.85350   0.85992   0.86108   0.86286
  Beta virt. eigenvalues --    0.86843   0.87799   0.88225   0.88686   0.88895
  Beta virt. eigenvalues --    0.89357   0.90451   0.90836   0.91061   0.91166
  Beta virt. eigenvalues --    0.91893   0.92202   0.92973   0.93493   0.94327
  Beta virt. eigenvalues --    0.94919   0.95705   0.96981   0.97107   0.98780
  Beta virt. eigenvalues --    1.00723   1.01425   1.02311   1.03715   1.04771
  Beta virt. eigenvalues --    1.06401   1.06832   1.08630   1.09157   1.10528
  Beta virt. eigenvalues --    1.13320   1.13648   1.14653   1.15932   1.16663
  Beta virt. eigenvalues --    1.17341   1.19837   1.20432   1.21591   1.21933
  Beta virt. eigenvalues --    1.23599   1.24017   1.24781   1.25502   1.25886
[...]
 003162,0.00166149,-0.00665057,0.00065717,0.00026161,0.00075665,0.00045
 794,0.00008369,0.00059424,-0.00083783,-0.00007924,-0.00010766,-0.00010
 482,0.00007191,-0.00003430,0.00007201,0.03625220,-0.29137343,0.0376843
 0,0.00154441,0.00090562,-0.00012720,0.00030716,0.00073742,-0.00039347,
 0.00056837,-0.00931691,0.00161184,-0.00007358,0.00028405,0.00011200,0.
 00033566,0.00017166,0.00041718,0.00221169,-0.01540562,0.00229307,-0.04
 074439,0.31743568,0.00000346,-0.00001059,0.00000091,0.00000125,-0.0000
 0291,0.00000271,0.00000663,-0.00000229,-0.00000014,0.00000239,0.000003
 47,0.00000056,0.00000505,0.00000876,0.00000243,0.00000549,-0.00000735,
 -0.00002945,-0.00000938,-0.00000228,0.00000106,0.00000029,0.00000016,-
 0.00000008,0.00000148,-0.00000111,-0.00000007,-0.00000113,0.00000022,-
 0.00000081,0.00000687,-0.00000165,-0.00000025,-0.00000307,0.00000250,0
 .,0.00000114,0.00000106,0.00000013,-0.00000085,0.00000171,-0.00000029,
 -0.00000109,-0.00000193,0.00000021,0.00000296,-0.00000046,0.00000018,-
 0.00000253,-0.00000009,-0.00000012,0.00000029,-0.00000034,0.00000139,0
 .00000008,0.00000031,0.00000011,0.00000042,0.00000046,0.00000080,-0.00
 000045,-0.00000045,-0.00000041,0.00000016,0.00000032,0.00000093,0.0000
 0033,0.00000040,0.,0.00000066,-0.00000036,0.00000013,0.00000029,0.0000
 0017,-0.00000004,0.00000020,0.00000023,0.00000003,0.00000013,0.0000002
 5,0.00000003,0.00000375,-0.00000089,0.00000008,0.00001155,0.00001113,-
 0.00000095,-0.00001200,-0.00000627,0.00000041,-0.00005216,-0.00009615,
 0.00000117,0.00003165,0.00000970,0.00003522,-0.00002200,-0.00001910,-0
 .00004727,-0.00008733,0.00084082,0.00014063,0.00005209,-0.00013748,-0.
 00014313,0.00007164,-0.00024416,-0.00074912,-0.00014818,-0.00002211,0.
 00018230,-0.00020974,0.00107627,0.00166850,0.00005739,-0.00009262,0.00
 004149,-0.00007826,-0.00000598,-0.00000911,-0.00668624,0.03659218,-0.0
 5630847,0.00032370,0.00013095,0.00104181,-0.00044245,-0.00055620,0.000
 68342,-0.00380074,0.02926312,-0.00595930,0.00020061,-0.00028694,0.0002
 4816,-0.00011739,-0.00062888,-0.00019093,0.00422808,-0.02366334,0.0042
 5083,0.00447739,-0.04334516,0.05886332,-0.00001430,0.00003964,-0.00000
 100,-0.00000438,0.00000497,-0.00000032,-0.00002527,0.00001761,-0.00000
 096,-0.00002023,-0.00001824,0.00000027,-0.00000930,-0.00004137,0.00000
 281,-0.00000711,0.00003283,-0.00000522,0.00003987,0.00001838,0.0000002
 7,-0.00000121,-0.00000075,0.00000010,-0.00000588,0.00000424,-0.0000003
 6,0.00000516,-0.00000244,-0.00000005,-0.00003096,0.00000584,-0.0000011
 7,0.00001131,-0.00001223,0.00000092,-0.00000273,0.00000061,-0.00000012
 ,0.00000416,-0.00001828,0.00000128,0.00000244,0.00002108,-0.00000102,-
 0.00001187,0.00000161,-0.00000075,0.00001127,0.00000073,0.00000108,-0.
 00000111,0.00000354,-0.00000059,-0.00000067,-0.00000165,-0.00000002,0.
 00000310,-0.00000021,0.00000060,-0.00000005,-0.00000033,0.00000035,0.0
 0000025,-0.00000049,-0.00000038,-0.00000019,-0.00000187,0.00000002,-0.
 00000270,0.00000159,-0.00000066,-0.00000094,-0.00000076,0.00000010,-0.
 00000105,-0.00000076,-0.00000005,-0.00000069,-0.00000134,0.00000008,-0
 .00001381,0.00000013,-0.00000116,-0.00006036,-0.00004257,0.00000077,0.
 00005861,0.00003767,-0.00000103,0.00007289,-0.00009039,0.00000613,0.00
 002123,-0.00002303,0.00000239,-0.00008115,0.00007660,-0.00000288,0.000
 71957,0.00034943,-0.00003979,0.00062357,-0.00228541,-0.00286973,0.0006
 7378,-0.00148292,0.00319444,-0.00004105,-0.00007762,0.00000765,-0.0130
 7208,0.00360452,0.00035288,0.00014412,0.00009972,0.00005804,-0.0011286
 7,0.00014620,0.00009027,-0.01215088,0.00321310,-0.00074312,0.00015557,
 0.00007366,-0.00007592,-0.00108774,0.00012455,-0.00011066,-0.29661672,
 0.05796933,-0.00377979,0.00065414,0.00037654,-0.00028813,0.00068094,-0
 .00032754,0.00029075,0.00048002,0.00021092,0.00028267,0.00069952,-0.00
 045502,-0.00029577,0.32087315,-0.00000427,0.00001329,-0.00000029,-0.00
 000071,0.00000230,-0.00000004,-0.00000796,0.00000477,-0.00000029,-0.00
 000523,-0.00000377,0.00000066,-0.00000687,-0.00001373,0.00000129,0.000
 00190,0.00001575,-0.00000957,0.00000910,0.00000407,0.00000011,-0.00000
 019,-0.00000011,-0.00000006,-0.00000206,0.00000121,-0.00000017,0.00000
 067,0.00000075,-0.00000024,-0.00000727,0.00000158,-0.00000030,0.000001
 64,-0.00000278,0.00000010,-0.00000053,0.00000084,0.,0.00000025,-0.0000
 0515,0.00000031,-0.00000024,0.00000529,-0.00000036,-0.00000166,0.,-0.0
 0000006,0.00000146,0.00000019,0.00000013,-0.00000037,0.00000083,-0.000
 00026,-0.00000018,-0.00000027,-0.00000002,0.00000100,-0.00000014,0.000
 00021,-0.00000035,-0.00000046,-0.00000023,-0.00000024,-0.00000046,0.00
 000018,0.00000019,-0.00000026,0.00000002,-0.00000032,0.00000014,-0.000
 00008,-0.00000014,-0.00000013,-0.00000002,-0.00000015,-0.00000012,0.00
 000003,-0.00000015,-0.00000016,0.,-0.00000195,-0.00000007,-0.00000012,
 -0.00001646,-0.00001368,0.00000049,0.00001488,0.00001077,-0.00000125,0
 .00001685,-0.00004142,0.00001617,-0.00000689,-0.00000756,0.00000347,-0
 .00001205,0.00006226,0.00003062,0.00042286,0.00000446,-0.00010399,-0.0
 0078644,-0.00106769,-0.00252526,-0.00042741,0.00014219,0.00145565,-0.0
 0001896,-0.00005795,0.00002115,-0.01658242,0.00250204,-0.00054847,-0.0
 0029115,0.00028118,-0.00003769,-0.00085108,0.00029388,-0.00014799,-0.0
 1017520,0.00109044,0.00015150,-0.00034793,0.00028628,-0.00003677,-0.00
 037118,0.00033157,0.00007886,0.05969507,-0.06154116,0.00147089,0.00076
 577,0.00034536,0.00040395,0.00015345,0.00090582,0.00085556,0.00042069,
 0.00016981,-0.00023231,-0.00011152,0.00062528,-0.00067185,-0.06285784,
 0.06194140,0.00000042,-0.00000116,0.00000038,0.00000026,0.00000076,0.0
 0000068,0.00000034,-0.00000043,-0.00000012,0.00000078,0.,0.00000478,0.
 00000029,0.00000180,0.00000465,0.00000223,-0.00000126,-0.00006248,-0.0
 0000038,-0.00000125,0.00000029,0.00000009,-0.00000004,-0.00000070,0.00
 000031,-0.00000013,-0.00000055,-0.00000024,0.00000007,-0.00000181,0.00
 000170,0.00000008,0.00000004,-0.00000014,0.00000045,-0.00000051,0.0000
 0016,-0.00000026,0.00000032,-0.00000016,0.00000087,0.00000061,0.,-0.00
 000082,-0.00000008,0.00000028,0.00000003,0.00000009,-0.00000019,-0.000
 00002,-0.00000014,0.00000010,-0.00000031,-0.00000124,0.00000004,0.0000
 0004,-0.00000012,-0.00000003,0.00000003,-0.00000039,-0.00000019,0.0000
 0022,0.00000003,0.00000017,-0.00000007,0.00000011,-0.00000005,0.000000
 04,0.00000009,0.00000004,0.,0.00000002,-0.00000007,0.00000003,0.,0.000
 00012,0.00000001,0.00000002,0.00000003,0.00000001,-0.00000003,0.000000
 22,0.00000008,0.00000065,0.00000505,0.00000217,0.00000130,-0.00000498,
 -0.00000438,-0.00000669,-0.00001324,0.00001173,0.00009541,-0.00000423,
 0.00000823,0.00001154,0.00004572,0.00003789,0.00034072,-0.00008306,-0.
 00012612,-0.00086698,-0.00123860,-0.00354526,-0.00422219,0.00131831,0.
 00249751,-0.00556562,0.00000515,0.00002548,0.00012423,-0.02603151,0.00
 681393,-0.00067542,0.00032792,0.00003022,-0.00000743,-0.00190952,-0.00
 001220,0.00003527,0.02976392,-0.00762473,0.00080126,-0.00027655,-0.000
 08666,0.00000517,0.00209501,-0.00007792,-0.00001206,-0.00414250,0.0015
 3228,-0.04606687,0.00065246,0.00068336,0.00083464,0.00069703,0.0001276
 3,0.00097426,-0.00067615,-0.00049660,0.00123673,-0.00085583,0.00005285
 ,0.00121287,0.00397309,-0.00051406,0.05233969,0.00000317,-0.00000484,0
 .00000028,0.00000107,0.00000093,0.,0.00000196,-0.00000238,0.00000010,0
 .00000340,0.00000338,-0.00000010,-0.00000226,0.00000409,-0.00000008,0.
 00000224,0.00000966,-0.00000053,-0.00000458,-0.00000290,0.00000003,0.0
 0000026,0.00000019,0.,0.00000038,-0.00000043,0.00000006,-0.00000134,0.
 00000115,0.00000016,0.00000401,-0.00000026,0.00000013,-0.00000143,0.00
 000182,-0.00000012,0.00000036,-0.00000058,0.00000003,-0.00000049,0.000
 00344,-0.00000018,-0.00000027,-0.00000379,0.00000019,0.00000194,-0.000
 00022,0.00000012,-0.00000182,-0.00000011,-0.00000018,0.00000018,-0.000
 00056,0.00000004,0.00000010,0.00000027,0.,-0.00000053,0.00000002,-0.00
 000014,-0.00000003,0.00000017,0.00000004,-0.00000004,0.00000020,-0.000
 00003,-0.00000008,0.00000029,0.,0.00000044,-0.00000024,0.00000011,0.00
 000014,0.00000011,0.,0.00000016,0.00000011,0.,0.00000011,0.00000022,-0
 .00000002,0.00000198,0.00000031,0.00000016,0.00000692,0.00000330,-0.00
 000011,-0.00000642,-0.00000377,0.00000023,-0.00002324,-0.00001853,-0.0
 0000022,-0.00002169,0.00002825,0.00000247,0.00000121,0.00001529,0.0000
 0138,-0.00007493,0.00000327,-0.00000629,0.00094701,-0.00095159,0.00044
 704,0.00085971,-0.00104407,-0.00015606,0.00001162,0.00016558,-0.000020
 87,0.00030159,-0.01491863,0.00128494,-0.00015411,-0.00009053,-0.000022
 92,0.00016693,0.00018009,0.00000078,0.00029850,-0.01402479,0.00197515,
 -0.00022337,-0.00011556,0.00001230,0.00016229,0.00015934,-0.00005103,-
 0.05304765,0.02284533,-0.00254110,0.00024002,0.00037411,0.00039708,-0.
 00047707,-0.00171861,-0.00225372,0.00039656,0.00057541,-0.00042806,-0.
 00036186,-0.00107310,0.00247573,-0.00155280,0.03138953,-0.00365338,0.0
 5254356,-0.00000439,0.00001063,-0.00000009,-0.00000020,0.00000452,-0.0
 0000017,-0.00000934,0.00000219,-0.00000027,-0.00000128,-0.00000109,0.0
 0000005,-0.00001409,-0.00001546,0.00000054,0.00000189,0.00002640,-0.00
 000509,0.00001654,0.00000479,0.00000040,-0.00000037,-0.00000006,0.0000
 0005,-0.00000320,0.00000199,-0.00000008,0.00000178,0.00000276,0.000000
 04,-0.00001232,0.00000374,-0.00000053,0.00000582,-0.00000307,0.0000004
 3,-0.00000148,-0.00000376,0.00000009,0.00000147,0.00000306,0.00000015,
 0.00000385,-0.00000238,0.00000053,-0.00000410,0.00000108,-0.00000037,0
 .00000369,0.00000011,0.00000033,0.00000037,-0.00000050,-0.00000022,0.0
 0000018,-0.00000021,-0.00000001,-0.00000147,0.00000014,-0.00000056,0.0
 0000041,0.00000098,0.00000127,0.00000074,0.00000095,-0.00000107,-0.000
 00062,-0.00000026,0.,-0.00000088,0.00000052,-0.00000018,-0.00000034,-0
 .00000028,0.00000021,-0.00000031,-0.00000033,-0.00000019,-0.00000009,-
 0.00000024,0.00000001,-0.00000610,0.00000294,-0.00000057,-0.00002460,-
 0.00001507,-0.00000014,0.00002594,0.00001189,0.00000028,-0.00000995,-0
 .00011917,0.00000930,0.00005796,-0.00001216,-0.00000431,-0.00014914,0.
 00003781,0.00001645,0.00004076,0.00026159,-0.00006282,0.00081947,0.000
 48051,0.00067273,0.00050562,0.00032429,-0.00057365,0.00013573,-0.00003
 294,-0.00000301,0.00142904,-0.01598070,0.00090275,-0.00108483,0.000190
 05,0.00023801,-0.00008508,0.00033173,-0.00014232,0.00095184,-0.0089802
 9,0.00169576,-0.00110018,-0.00029791,-0.00010509,-0.00014130,0.0002951
 1,0.00005064,0.02160954,-0.29558559,0.02936459,-0.00001115,0.00012873,
 -0.00012836,-0.00172593,-0.00050729,-0.00291866,0.00014134,0.00061845,
 0.00045910,-0.00087665,0.00066743,0.00186539,0.00130210,-0.00628797,0.
 00066619,-0.02178938,0.32443238,0.00000022,-0.00000110,0.00000063,0.00
 000010,-0.00000026,0.00000006,0.00000085,-0.00000021,0.00000001,0.0000
 0019,-0.00000007,0.00000132,0.00000142,0.00000220,0.00000059,0.0000006
 2,-0.00000341,-0.00001622,-0.00000179,-0.00000097,-0.00000016,0.000000
 04,-0.00000002,-0.00000016,0.00000041,-0.00000021,0.00000005,-0.000000
 15,-0.00000013,0.00000051,0.00000160,-0.00000040,0.00000009,-0.0000005
 6,0.00000032,-0.00000029,0.00000018,0.00000039,0.00000015,-0.00000021,
 -0.00000023,0.00000039,-0.00000033,0.00000014,-0.00000007,0.00000039,-
 0.00000008,0.00000009,-0.00000034,-0.00000002,-0.00000011,0.,-0.000000
 07,-0.00000077,0.,0.00000003,-0.00000011,0.00000026,0.,-0.00000049,-0.
 00000016,-0.00000003,-0.00000014,-0.00000005,-0.00000015,0.00000025,0.
 00000005,0.00000004,0.00000007,0.00000008,-0.00000004,0.00000005,-0.00
 000002,0.00000005,-0.00000002,0.00000009,0.00000001,0.00000003,0.00000
 002,0.00000002,-0.00000005,0.00000058,-0.00000024,0.00000030,0.0000037
 3,0.00000191,0.00000029,-0.00000384,-0.00000228,-0.00000119,-0.0000003
 5,0.00001738,0.00002329,-0.00000336,0.00000531,0.00000039,0.00002791,0
 .00001042,0.00012424,-0.00001356,-0.00006942,-0.00027271,0.00119560,0.
 00003158,0.00094274,-0.00137626,0.00018352,0.00110618,-0.00001652,-0.0
 0000636,-0.00006092,0.00189813,-0.02781165,0.00142352,-0.00007446,0.00
 064381,0.00011276,0.00026121,0.00025103,-0.00009161,-0.00231308,0.0306
 2077,-0.00547627,0.00026591,-0.00069514,0.00024834,-0.00024061,-0.0003
 4368,-0.00003417,-0.00251112,0.02929974,-0.05186638,0.00080455,0.00083
 220,0.00121375,-0.00320214,-0.00295569,-0.00365642,-0.00063419,-0.0002
 5309,0.00138780,0.00343920,0.00190131,-0.00494209,-0.00004661,0.000340
 47,-0.00053328,0.00253664,-0.03199765,0.06036605,0.00265416,-0.0003610
 2,-0.00006701,0.00418240,-0.00696292,0.00063813,0.00070757,0.00126677,
 0.00004812,-0.00122037,-0.00010727,-0.00002317,0.00074940,-0.00021676,
 0.00003371,0.00083585,0.00020428,-0.00004660,-0.02088461,-0.00192351,-
 0.00044743,-0.00017212,0.00002198,-0.00024115,0.00005469,0.00012335,-0
 .00000861,0.00002572,0.00005638,-0.00000358,-0.39891842,-0.08340905,-0
 .01129841,0.00615546,0.00072514,0.00047987,0.00044531,-0.00042158,0.00
 025681,-0.00081516,-0.00017878,-0.00004677,0.00046726,0.00012231,0.000
 02981,-0.00052742,0.00040052,-0.00005596,-0.00078203,0.00047148,-0.000
 20831,-0.00009202,0.00008955,-0.00002309,-0.00013606,0.00007537,0.0000
 0008,-0.00020642,-0.00007696,-0.00002668,0.00000393,0.00003809,-0.0000
 0032,0.00000439,0.00003742,0.00000411,0.00002057,-0.00002822,0.0000053
 6,-0.00016013,-0.00002276,-0.00001509,-0.00003984,-0.00004358,0.000033
 43,-0.00002614,-0.00003369,-0.00002648,0.00000214,0.00002602,0.0000042
 5,-0.01063580,0.00235522,0.00004232,0.00400550,0.00383663,-0.00018270,
 -0.00022000,-0.00003346,-0.00010370,-0.00045964,0.00042379,-0.00003743
 ,0.00015815,0.00003027,0.00000102,0.00021841,-0.00027362,0.00003314,-0
 .00011259,0.00013963,-0.00002963,0.00005293,-0.00003611,0.00007542,0.0
 0004987,-0.00004988,-0.00005519,0.00004162,-0.00002774,0.00000567,-0.0
 0000876,0.00002327,-0.00003896,-0.00000460,0.00000072,0.00000084,-0.00
 000786,-0.00000250,-0.00000433,-0.00000780,0.00002862,0.00002987,-0.00
 000638,-0.00000218,-0.00000037,-0.00000665,-0.00000079,0.00000592,-0.0
 0000273,-0.00001265,0.00000163,0.00002501,-0.00000189,-0.00000520,0.00
 000326,-0.00000530,0.00000336,0.00002386,-0.00000005,0.00000528,0.0000
 0362,-0.00000590,-0.00000236,0.00001126,0.00000207,-0.00000024,-0.0000
 0180,0.00000271,-0.00000028,0.41455302,-0.00011008,-0.00676237,0.00032
 911,-0.02224486,-0.00050480,-0.00092856,0.00067921,0.00169540,-0.00023
 423,-0.00072913,-0.00006720,-0.00000248,0.00043833,-0.00020831,0.00000
 755,-0.00055932,0.00116702,-0.00001602,0.02013740,0.01990329,0.0000089
 0,0.00049218,-0.00021106,-0.00019190,0.00003711,0.00003135,-0.00000231
 ,0.00002848,0.00000580,0.00000093,-0.09207148,-0.09194082,0.00049644,0
 .01096867,-0.00732246,0.00093374,-0.00077245,-0.00091032,0.00008140,-0
 .00096483,0.00097050,-0.00010456,0.00044770,-0.00085923,0.00010993,-0.
 00043924,0.00056902,-0.00006655,-0.00156827,0.00065728,-0.00027854,-0.
 00030888,0.00015618,-0.00005587,-0.00020260,0.00024157,-0.00001425,-0.
 00050120,-0.00008152,-0.00008804,-0.00001801,0.00016297,-0.00000601,-0
 .00002642,0.00016806,0.00000693,-0.00002321,0.00005529,0.00000203,-0.0
 0010100,-0.00001369,-0.00000099,-0.00003235,-0.00000991,0.00007734,0.0
 0001177,0.00001446,-0.00006448,0.00006340,0.00012849,0.00000970,-0.006
 46022,0.00946566,-0.00101468,0.01017830,-0.00297189,0.00035954,-0.0003
 4080,0.00132067,-0.00001169,-0.00014680,-0.00031834,0.00001844,-0.0000
 7195,0.00007147,-0.00000688,0.00045178,0.00014203,0.00000172,-0.000086
 30,0.00017052,-0.00001366,0.00003711,-0.00001764,0.00003850,0.00004117
 ,-0.00002875,-0.00003059,0.00001936,-0.00002466,0.00000356,-0.00000542
 ,0.00001432,-0.00002236,-0.00000146,-0.00000059,-0.00000068,-0.0000050
 7,0.00000056,-0.00000308,-0.00000456,0.00001987,0.00001884,-0.00000272
 ,0.00000034,0.00000035,-0.00000427,0.00000143,0.00000268,-0.00000145,-
 0.00000594,0.00000106,0.00001305,-0.00000118,-0.00000252,0.00000241,-0
 .00000454,0.00000172,0.00001324,-0.00000069,0.00000242,0.00000218,-0.0
 0000472,-0.00000065,0.00000592,0.00000127,-0.00000030,-0.00000100,-0.0
 0000003,-0.00000006,0.08373659,0.07513585,0.00012734,0.00052842,0.0028
 4377,0.00152108,-0.00050485,-0.00544660,0.00001150,-0.00025957,-0.0012
 9937,-0.00000674,0.00001630,0.00002132,0.00000482,-0.00000145,-0.00024
 495,0.00006683,-0.00003218,0.00104459,-0.00112615,-0.00069472,-0.00283
 966,-0.00023347,-0.00020769,-0.00020482,0.00000180,0.00001043,0.000085
 83,0.00000008,0.00000381,0.00003075,-0.01188439,0.00047580,-0.01666748
 ,0.00034547,0.00032151,0.00023441,0.00004846,-0.00003345,-0.00252248,-
 0.00000701,-0.00000762,-0.00026025,-0.00000848,-0.00000384,0.00024252,
 0.00001122,0.00003278,-0.00002942,-0.00018698,0.00008421,0.00106682,-0
 .00000328,-0.00000131,-0.00005385,0.00000126,0.00000305,-0.00013171,-0
 .00000895,-0.00000213,0.00001857,0.00000366,-0.00000084,-0.00000209,-0
 .00000400,0.00000537,-0.00000281,0.00000108,-0.00000016,-0.00000762,-0
 .00000494,-0.00000119,-0.00004698,0.00000045,0.00000817,0.00001526,-0.
 00000753,-0.00001170,0.00000864,0.00000263,0.00000353,-0.00000109,0.00
 027352,-0.00065402,-0.00441289,-0.00017726,0.00020723,0.00328700,-0.00
 002636,0.00005340,0.00232328,-0.00001306,0.00004157,0.00021852,0.00001
 161,-0.00000320,-0.00004688,0.00000339,-0.00002766,-0.00021389,-0.0000
 0261,0.00000816,0.00004529,-0.00000761,0.00000294,-0.00000231,0.000009
 24,-0.00000868,-0.00000606,0.00000129,-0.00000084,-0.00000142,0.000000
 58,-0.00000183,0.00000247,0.00000060,-0.00000092,0.00000031,-0.0000005
 2,-0.00000136,-0.00000256,-0.00000047,0.00000459,0.00000427,-0.0000010
 6,0.00000125,-0.00000032,0.00000017,0.00000028,-0.00000208,-0.00000021
 ,-0.00000023,0.00000197,-0.00000015,0.00000063,-0.00000137,0.00000012,
 0.00000014,0.00000038,0.00000195,-0.00000100,-0.00000086,-0.00000007,-
 0.00000028,0.00000022,0.00000030,-0.00000008,-0.00000117,-0.00000003,0
 .00000012,-0.00000033,0.01126090,0.00064913,0.02295710\\-0.00000333,-0
 .00000199,0.00001638,-0.00000375,-0.00000457,0.00002416,-0.00000632,-0
 .00000460,0.00003450,-0.00000815,-0.00000466,0.00003631,-0.00000854,-0
 .00000088,0.00002816,-0.00000514,-0.00000050,0.00001813,0.00000027,-0.
 00000410,0.00000972,-0.00000656,-0.00000716,0.00004042,-0.00001055,-0.
 00000348,0.00004385,-0.00000956,0.00000017,0.00003013,-0.00000082,-0.0
 0000603,0.00001965,0.00000403,-0.00000687,0.00000533,0.00000322,-0.000
 00586,0.00000226,0.00000503,-0.00000278,-0.00000780,0.00000787,-0.0000
 0482,-0.00001525,0.00000871,-0.00000553,-0.00001162,0.00000756,-0.0000
 0742,-0.00000124,0.00000570,-0.00000225,-0.00001063,0.00001091,-0.0000
 0665,-0.00001725,0.00001108,-0.00000267,-0.00002565,0.00000646,0.00000
 300,-0.00002846,0.00001482,-0.00000750,-0.00002769,0.00001236,-0.00000
 366,-0.00003067,0.00000683,-0.00000925,0.00000185,0.00001029,-0.000014
 93,0.00000752,0.00000223,-0.00000477,0.00000619,0.00000983,-0.00001008
 ,-0.00000428,0.00000247,-0.00000817,0.00001538,-0.00000067,-0.00000244
 ,0.00000750,0.00000038,-0.00000059,0.00000093,-0.00000521,0.00000296,0
 .00000995,-0.00000670,0.00000352,0.00001185,-0.00000209,0.00000148,0.0
 0000060,-0.00000149,0.00000502,-0.00000744,-0.00000918,0.00001294,-0.0
 0000887,0.00000221,-0.00000060,-0.00000635,0.00000059,0.00000473,-0.00
 001452,-0.00000854,0.00001673,-0.00001688,-0.00001187,0.00001486,-0.00
 000120,-0.00001202,0.00001805,-0.00000834,0.00000362,0.00000248,-0.000
 01510,0.,-0.00000032,0.00000048,0.00000767,-0.00000683,-0.00000610,-0.
 00000451,0.00001123,-0.00001680,-0.00001384,0.00002294,-0.00001755,-0.
 00000611,0.00001628,-0.00002429,0.00000591,-0.00000204,-0.00001510,0.0
 0000587,0.00000144,-0.00002234,-0.00000353,0.00001265,-0.00002284,-0.0
 0000644,0.00001117,-0.00000966,-0.00000100,-0.00000762,0.00002269\\\@


 KINETICS       FACT
 ---------  =  -------
 MECHANISM     FICTION
 Job cpu time:       0 days  9 hours 45 minutes 36.1 seconds.
 Elapsed time:       0 days  0 hours 36 minutes 41.6 seconds.
 File lengths (MBytes):  RWF=   3152 Int=      0 D2E=      0 Chk=     52 Scr=      8
 Normal termination of Gaussian 16 at Fri Dec 14 12:08:03 2018.
