 Entering Gaussian System, Link 0=g16
 Initial command:
 /gpfs/apps/hpc/Apps/Restricted/Gaussian/Rev_A.03/g16/l1.exe "/gpfs/scratch60/fas/hammes_schiffer/jg2487/c42n03/Gau-16708.inp" -scrdir="/gpfs/scratch60/fas/hammes_schiffer/jg2487/c42n03/"
 Entering Link 1 = /gpfs/apps/hpc/Apps/Restricted/Gaussian/Rev_A.03/g16/l1.exe PID=     16709.
  
 Copyright (c) 1988,1990,1992,1993,1995,1998,2003,2009,2016,
            Gaussian, Inc.  All Rights Reserved.
  
 This is part of the Gaussian(R) 16 program.  It is based on
 the Gaussian(R) 09 system (copyright 2009, Gaussian, Inc.),
 the Gaussian(R) 03 system (copyright 2003, Gaussian, Inc.),
 the Gaussian(R) 98 system (copyright 1998, Gaussian, Inc.),
 the Gaussian(R) 94 system (copyright 1995, Gaussian, Inc.),
 the Gaussian 92(TM) system (copyright 1992, Gaussian, Inc.),
 the Gaussian 90(TM) system (copyright 1990, Gaussian, Inc.),
 the Gaussian 88(TM) system (copyright 1988, Gaussian, Inc.),
 the Gaussian 86(TM) system (copyright 1986, Carnegie Mellon
 University), and the Gaussian 82(TM) system (copyright 1983,
 Carnegie Mellon University). Gaussian is a federally registered
 trademark of Gaussian, Inc.
  
 This software contains proprietary and confidential information,
 including trade secrets, belonging to Gaussian, Inc.
  
 This software is provided under written license and may be
 used, copied, transmitted, or stored only in accord with that
 written license.
  
 The following legend is applicable only to US Government
 contracts under FAR:
  
                    RESTRICTED RIGHTS LEGEND
  
 Use, reproduction and disclosure by the US Government is
 subject to restrictions as set forth in subparagraphs (a)
 and (c) of the Commercial Computer Software - Restricted
 Rights clause in FAR 52.227-19.
  
 Gaussian, Inc.
 340 Quinnipiac St., Bldg. 40, Wallingford CT 06492
  
  
 ---------------------------------------------------------------
 Warning -- This program may not be used in any manner that
 competes with the business of Gaussian, Inc. or will provide
 assistance to any competitor of Gaussian, Inc.  The licensee
 of this program is prohibited from giving any competitor of
 Gaussian, Inc. access to this program.  By using this program,
 the user acknowledges that Gaussian, Inc. is engaged in the
 business of creating and licensing software in the field of
 computational chemistry and represents and warrants to the
 licensee that it is not a competitor of Gaussian, Inc. and that
 it will not use this program in any manner prohibited above.
 ---------------------------------------------------------------
  

 Cite this work as:
 Gaussian 16, Revision A.03,
 M. J. Frisch, G. W. Trucks, H. B. Schlegel, G. E. Scuseria, 
 M. A. Robb, J. R. Cheeseman, G. Scalmani, V. Barone, 
 G. A. Petersson, H. Nakatsuji, X. Li, M. Caricato, A. V. Marenich, 
 J. Bloino, B. G. Janesko, R. Gomperts, B. Mennucci, H. P. Hratchian, 
 J. V. Ortiz, A. F. Izmaylov, J. L. Sonnenberg, D. Williams-Young, 
 F. Ding, F. Lipparini, F. Egidi, J. Goings, B. Peng, A. Petrone, 
 T. Henderson, D. Ranasinghe, V. G. Zakrzewski, J. Gao, N. Rega, 
 G. Zheng, W. Liang, M. Hada, M. Ehara, K. Toyota, R. Fukuda, 
 J. Hasegawa, M. Ishida, T. Nakajima, Y. Honda, O. Kitao, H. Nakai, 
 T. Vreven, K. Throssell, J. A. Montgomery, Jr., J. E. Peralta, 
 F. Ogliaro, M. J. Bearpark, J. J. Heyd, E. N. Brothers, K. N. Kudin, 
 V. N. Staroverov, T. A. Keith, R. Kobayashi, J. Normand, 
 K. Raghavachari, A. P. Rendell, J. C. Burant, S. S. Iyengar, 
 J. Tomasi, M. Cossi, J. M. Millam, M. Klene, C. Adamo, R. Cammi, 
 J. W. Ochterski, R. L. Martin, K. Morokuma, O. Farkas, 
 J. B. Foresman, and D. J. Fox, Gaussian, Inc., Wallingford CT, 2016.
 
 ******************************************
 Gaussian 16:  ES64L-G16RevA.03 25-Dec-2016
                21-Dec-2018 
 ******************************************
 %chk=cyclohexyl-monoBIP-E1PT.chk
 %mem=10GB
 %nprocshared=16
 Will use up to   16 processors via shared memory.
 ----------------------------------------------------------------------
 #p opt=tight freq=internalmodes b3lyp/6-31g(d,p) scrf=(cpcm,solvent=di
 chloromethane,read) nosymm empiricaldispersion=gd3bj int=grid=ultrafin
 e
 ----------------------------------------------------------------------
 1/7=10,18=20,19=15,26=6,38=1,40=2/1,3;
 2/9=110,12=2,15=1,17=6,18=5,40=1/2;
 3/5=1,6=6,7=101,11=2,25=1,30=1,70=2103,71=1,72=9,74=-5,75=-5,124=41/1,2,3;
 4//1;
 5/5=2,38=5,53=9/2;
 6/7=2,8=2,9=2,10=2,28=1/1;
 7/30=1/1,2,3,16;
 1/7=10,18=20,19=15,26=6/3(2);
 2/9=110,15=1/2;
 99//99;
 2/9=110,15=1/2;
 3/5=1,6=6,7=101,11=2,25=1,30=1,70=2105,71=1,72=9,74=-5,75=-5,124=41/1,2,3;
 4/5=5,16=3,69=1/1;
 5/5=2,38=5,53=9/2;
 7/30=1/1,2,3,16;
 1/7=10,18=20,19=15,26=6/3(-5);
 2/9=110,15=1/2;
 6/7=2,8=2,9=2,10=2,19=2,28=1/1;
 99/9=1/99;
 Leave Link    1 at Fri Dec 21 13:48:05 2018, MaxMem=  1342177280 cpu:               7.1 elap:               0.5
 (Enter /gpfs/apps/hpc/Apps/Restricted/Gaussian/Rev_A.03/g16/l101.exe)
 ----------------------------------------------------------------------
 cyclohexylimine monoBIP oxidized, with first proton transferred optimi
 zation
 ----------------------------------------------------------------------
 Symbolic Z-matrix:
 Charge =  1 Multiplicity = 2
 C                    -0.5007    2.7951    0.36656 
 C                    -1.88876   2.98876   0.28515 
 C                    -2.43912   4.26953   0.19518 
 C                    -1.53935   5.33139   0.19742 
 C                    -0.14753   5.13366   0.28262 
 C                     0.41437   3.85794   0.36633 
 C                    -1.47288   0.78942   0.39701 
 H                    -3.50743   4.42345   0.12566 
 H                    -1.92062   6.34285   0.13204 
 H                     0.51108   5.99451   0.28217 
 N                    -2.44328   1.72096   0.30742 
 C                    -3.05117  -1.16508   0.325 
 C                    -1.68152  -0.63953   0.43673 
 C                    -0.60888  -1.49661   0.5638 
 C                    -0.78702  -2.89704   0.58528 
 C                    -2.09599  -3.41194   0.47724 
 C                    -3.22338  -2.62239   0.349 
 H                     0.3958   -1.10218   0.6509 
 H                    -2.21852  -4.48328   0.49594 
 C                     0.43955  -3.79158   0.69939 
 C                    -4.62052  -3.22401   0.23077 
 O                    -4.02614  -0.38029   0.21127 
 N                    -0.28716   1.43561   0.43371 
 H                     0.66289   1.06918   0.48251 
 C                     1.85567   3.62056   0.43897 
 H                     2.48759   4.51293   0.42906 
 N                     2.31993   2.42882   0.50462 
 C                     3.77694   2.24033   0.53674 
 C                     4.37327   2.43456  -0.86801 
 C                     4.51196   3.11688   1.56294 
 H                     3.93681   1.19426   0.82033 
 C                     5.87503   2.12974  -0.87277 
 H                     4.2026    3.47426  -1.17339 
 H                     3.84355   1.79724  -1.582 
 C                     6.01114   2.7977    1.56541 
 H                     4.37241   4.17504   1.31453 
 H                     4.07848   2.95753   2.55479 
 C                     6.62075   2.97022   0.1699 
 H                     6.28584   2.30987  -1.87064 
 H                     6.02572   1.0648   -0.65651 
 H                     6.52511   3.4386    2.28782 
 H                     6.15729   1.76304   1.90012 
 H                     7.68131   2.70187   0.18381 
 H                     6.56409   4.02753  -0.11751 
 H                    -3.41741   1.42569   0.25758 
 C                    -5.50881  -2.70914   1.38659 
 H                    -5.62784  -1.6284    1.33939 
 H                    -6.49499  -3.1758    1.31739 
 H                    -5.07255  -2.973     2.35362 
 C                    -4.58511  -4.75869   0.30562 
 H                    -3.99459  -5.19269  -0.50539 
 H                    -4.17534  -5.10681   1.25725 
 H                    -5.60493  -5.13894   0.21907 
 C                     0.08092  -5.28286   0.72902 
 H                    -0.53962  -5.53305   1.59335 
 H                    -0.44674  -5.58737  -0.17816 
 H                     0.99917  -5.86992   0.79472 
 C                     1.34773  -3.52009  -0.52165 
 H                     0.83368  -3.77387  -1.45182 
 H                     1.64949  -2.47147  -0.56956 
 H                     2.25045  -4.13164  -0.44832 
 C                     1.20727  -3.43826   1.99199 
 H                     0.58776  -3.61204   2.8746 
 H                     2.09518  -4.07081   2.06512 
 H                     1.53438  -2.39615   1.99895 
 C                    -5.24306  -2.82531  -1.12682 
 H                    -6.24004  -3.26667  -1.20651 
 H                    -5.33208  -1.74431  -1.2227 
 H                    -4.63764  -3.20266  -1.95496 
 
 ITRead=  0  0  0  0  0  0  0  0  0  0  0  0  0  0  0  0  0  0  0  0
 ITRead=  0  0  0  0  0  0  0  0  0  0  0  0  0  0  0  0  0  0  0  0
 ITRead=  0  0  0  0  0  0  0  0  0  0  0  0  0  0  0  0  0  0  0  0
 ITRead=  0  0  0  0  0  0  0  0  0
 MicOpt= -1 -1 -1 -1 -1 -1 -1 -1 -1 -1 -1 -1 -1 -1 -1 -1 -1 -1 -1 -1
 MicOpt= -1 -1 -1 -1 -1 -1 -1 -1 -1 -1 -1 -1 -1 -1 -1 -1 -1 -1 -1 -1
 MicOpt= -1 -1 -1 -1 -1 -1 -1 -1 -1 -1 -1 -1 -1 -1 -1 -1 -1 -1 -1 -1
 MicOpt= -1 -1 -1 -1 -1 -1 -1 -1 -1
 NAtoms=     69 NQM=       69 NQMF=       0 NMMI=      0 NMMIF=      0
                NMic=       0 NMicF=      0.
                    Isotopes and Nuclear Properties:
 (Nuclear quadrupole moments (NQMom) in fm**2, nuclear magnetic moments (NMagM)
  in nuclear magnetons)

  Atom         1           2           3           4           5           6           7           8           9          10
 IAtWgt=          12          12          12          12          12          12          12           1           1           1
 AtmWgt=  12.0000000  12.0000000  12.0000000  12.0000000  12.0000000  12.0000000  12.0000000   1.0078250   1.0078250   1.0078250
 NucSpn=           0           0           0           0           0           0           0           1           1           1
 AtZEff=  -0.0000000  -0.0000000  -0.0000000  -0.0000000  -0.0000000  -0.0000000  -0.0000000  -0.0000000  -0.0000000  -0.0000000
 NQMom=    0.0000000   0.0000000   0.0000000   0.0000000   0.0000000   0.0000000   0.0000000   0.0000000   0.0000000   0.0000000
 NMagM=    0.0000000   0.0000000   0.0000000   0.0000000   0.0000000   0.0000000   0.0000000   2.7928460   2.7928460   2.7928460
 AtZNuc=   6.0000000   6.0000000   6.0000000   6.0000000   6.0000000   6.0000000   6.0000000   1.0000000   1.0000000   1.0000000

  Atom        11          12          13          14          15          16          17          18          19          20
 IAtWgt=          14          12          12          12          12          12          12           1           1          12
 AtmWgt=  14.0030740  12.0000000  12.0000000  12.0000000  12.0000000  12.0000000  12.0000000   1.0078250   1.0078250  12.0000000
 NucSpn=           2           0           0           0           0           0           0           1           1           0
 AtZEff=  -0.0000000  -0.0000000  -0.0000000  -0.0000000  -0.0000000  -0.0000000  -0.0000000  -0.0000000  -0.0000000  -0.0000000
 NQMom=    2.0440000   0.0000000   0.0000000   0.0000000   0.0000000   0.0000000   0.0000000   0.0000000   0.0000000   0.0000000
 NMagM=    0.4037610   0.0000000   0.0000000   0.0000000   0.0000000   0.0000000   0.0000000   2.7928460   2.7928460   0.0000000
 AtZNuc=   7.0000000   6.0000000   6.0000000   6.0000000   6.0000000   6.0000000   6.0000000   1.0000000   1.0000000   6.0000000

  Atom        21          22          23          24          25          26          27          28          29          30
 IAtWgt=          12          16          14           1          12           1          14          12          12          12
 AtmWgt=  12.0000000  15.9949146  14.0030740   1.0078250  12.0000000   1.0078250  14.0030740  12.0000000  12.0000000  12.0000000
 NucSpn=           0           0           2           1           0           1           2           0           0           0
 AtZEff=  -0.0000000  -0.0000000  -0.0000000  -0.0000000  -0.0000000  -0.0000000  -0.0000000  -0.0000000  -0.0000000  -0.0000000
 NQMom=    0.0000000   0.0000000   2.0440000   0.0000000   0.0000000   0.0000000   2.0440000   0.0000000   0.0000000   0.0000000
 NMagM=    0.0000000   0.0000000   0.4037610   2.7928460   0.0000000   2.7928460   0.4037610   0.0000000   0.0000000   0.0000000
 AtZNuc=   6.0000000   8.0000000   7.0000000   1.0000000   6.0000000   1.0000000   7.0000000   6.0000000   6.0000000   6.0000000

  Atom        31          32          33          34          35          36          37          38          39          40
 IAtWgt=           1          12           1           1          12           1           1          12           1           1
 AtmWgt=   1.0078250  12.0000000   1.0078250   1.0078250  12.0000000   1.0078250   1.0078250  12.0000000   1.0078250   1.0078250
 NucSpn=           1           0           1           1           0           1           1           0           1           1
 AtZEff=  -0.0000000  -0.0000000  -0.0000000  -0.0000000  -0.0000000  -0.0000000  -0.0000000  -0.0000000  -0.0000000  -0.0000000
 NQMom=    0.0000000   0.0000000   0.0000000   0.0000000   0.0000000   0.0000000   0.0000000   0.0000000   0.0000000   0.0000000
 NMagM=    2.7928460   0.0000000   2.7928460   2.7928460   0.0000000   2.7928460   2.7928460   0.0000000   2.7928460   2.7928460
 AtZNuc=   1.0000000   6.0000000   1.0000000   1.0000000   6.0000000   1.0000000   1.0000000   6.0000000   1.0000000   1.0000000

  Atom        41          42          43          44          45          46          47          48          49          50
 IAtWgt=           1           1           1           1           1          12           1           1           1          12
 AtmWgt=   1.0078250   1.0078250   1.0078250   1.0078250   1.0078250  12.0000000   1.0078250   1.0078250   1.0078250  12.0000000
 NucSpn=           1           1           1           1           1           0           1           1           1           0
 AtZEff=  -0.0000000  -0.0000000  -0.0000000  -0.0000000  -0.0000000  -0.0000000  -0.0000000  -0.0000000  -0.0000000  -0.0000000
 NQMom=    0.0000000   0.0000000   0.0000000   0.0000000   0.0000000   0.0000000   0.0000000   0.0000000   0.0000000   0.0000000
 NMagM=    2.7928460   2.7928460   2.7928460   2.7928460   2.7928460   0.0000000   2.7928460   2.7928460   2.7928460   0.0000000
 AtZNuc=   1.0000000   1.0000000   1.0000000   1.0000000   1.0000000   6.0000000   1.0000000   1.0000000   1.0000000   6.0000000

  Atom        51          52          53          54          55          56          57          58          59          60
 IAtWgt=           1           1           1          12           1           1           1          12           1           1
 AtmWgt=   1.0078250   1.0078250   1.0078250  12.0000000   1.0078250   1.0078250   1.0078250  12.0000000   1.0078250   1.0078250
 NucSpn=           1           1           1           0           1           1           1           0           1           1
 AtZEff=  -0.0000000  -0.0000000  -0.0000000  -0.0000000  -0.0000000  -0.0000000  -0.0000000  -0.0000000  -0.0000000  -0.0000000
 NQMom=    0.0000000   0.0000000   0.0000000   0.0000000   0.0000000   0.0000000   0.0000000   0.0000000   0.0000000   0.0000000
 NMagM=    2.7928460   2.7928460   2.7928460   0.0000000   2.7928460   2.7928460   2.7928460   0.0000000   2.7928460   2.7928460
 AtZNuc=   1.0000000   1.0000000   1.0000000   6.0000000   1.0000000   1.0000000   1.0000000   6.0000000   1.0000000   1.0000000

  Atom        61          62          63          64          65          66          67          68          69
 IAtWgt=           1          12           1           1           1          12           1           1           1
 AtmWgt=   1.0078250  12.0000000   1.0078250   1.0078250   1.0078250  12.0000000   1.0078250   1.0078250   1.0078250
 NucSpn=           1           0           1           1           1           0           1           1           1
 AtZEff=  -0.0000000  -0.0000000  -0.0000000  -0.0000000  -0.0000000  -0.0000000  -0.0000000  -0.0000000  -0.0000000
 NQMom=    0.0000000   0.0000000   0.0000000   0.0000000   0.0000000   0.0000000   0.0000000   0.0000000   0.0000000
 NMagM=    2.7928460   0.0000000   2.7928460   2.7928460   2.7928460   0.0000000   2.7928460   2.7928460   2.7928460
 AtZNuc=   1.0000000   6.0000000   1.0000000   1.0000000   1.0000000   6.0000000   1.0000000   1.0000000   1.0000000
 Leave Link  101 at Fri Dec 21 13:48:06 2018, MaxMem=  1342177280 cpu:               5.6 elap:               0.4
 (Enter /gpfs/apps/hpc/Apps/Restricted/Gaussian/Rev_A.03/g16/l103.exe)

 GradGradGradGradGradGradGradGradGradGradGradGradGradGradGradGradGradGrad
 Berny optimization.
 Initialization pass.
                           ----------------------------
                           !    Initial Parameters    !
                           ! (Angstroms and Degrees)  !
 --------------------------                            --------------------------
 ! Name  Definition              Value          Derivative Info.                !
 --------------------------------------------------------------------------------
 ! R1    R(1,2)                  1.4039         estimate D2E/DX2                !
 ! R2    R(1,6)                  1.4025         estimate D2E/DX2                !
 ! R3    R(1,23)                 1.3778         estimate D2E/DX2                !
 ! R4    R(2,3)                  1.3969         estimate D2E/DX2                !
 ! R5    R(2,11)                 1.3839         estimate D2E/DX2                !
 ! R6    R(3,4)                  1.3918         estimate D2E/DX2                !
 ! R7    R(3,8)                  1.0816         estimate D2E/DX2                !
 ! R8    R(4,5)                  1.4084         estimate D2E/DX2                !
 ! R9    R(4,9)                  1.0829         estimate D2E/DX2                !
 ! R10   R(5,6)                  1.3965         estimate D2E/DX2                !
 ! R11   R(5,10)                 1.0839         estimate D2E/DX2                !
 ! R12   R(6,25)                 1.4625         estimate D2E/DX2                !
 ! R13   R(7,11)                 1.3481         estimate D2E/DX2                !
 ! R14   R(7,13)                 1.4447         estimate D2E/DX2                !
 ! R15   R(7,23)                 1.3509         estimate D2E/DX2                !
 ! R16   R(11,45)                1.0191         estimate D2E/DX2                !
 ! R17   R(12,13)                1.4713         estimate D2E/DX2                !
 ! R18   R(12,17)                1.4676         estimate D2E/DX2                !
 ! R19   R(12,22)                1.2567         estimate D2E/DX2                !
 ! R20   R(13,14)                1.3789         estimate D2E/DX2                !
 ! R21   R(14,15)                1.4119         estimate D2E/DX2                !
 ! R22   R(14,18)                1.0828         estimate D2E/DX2                !
 ! R23   R(15,16)                1.4107         estimate D2E/DX2                !
 ! R24   R(15,20)                1.5224         estimate D2E/DX2                !
 ! R25   R(16,17)                1.3823         estimate D2E/DX2                !
 ! R26   R(16,19)                1.0785         estimate D2E/DX2                !
 ! R27   R(17,21)                1.5258         estimate D2E/DX2                !
 ! R28   R(20,54)                1.5341         estimate D2E/DX2                !
 ! R29   R(20,58)                1.5458         estimate D2E/DX2                !
 ! R30   R(20,62)                1.5444         estimate D2E/DX2                !
 ! R31   R(21,46)                1.546          estimate D2E/DX2                !
 ! R32   R(21,50)                1.5369         estimate D2E/DX2                !
 ! R33   R(21,66)                1.5458         estimate D2E/DX2                !
 ! R34   R(23,24)                1.0194         estimate D2E/DX2                !
 ! R35   R(25,26)                1.0935         estimate D2E/DX2                !
 ! R36   R(25,27)                1.2807         estimate D2E/DX2                !
 ! R37   R(27,28)                1.4695         estimate D2E/DX2                !
 ! R38   R(28,29)                1.5384         estimate D2E/DX2                !
 ! R39   R(28,30)                1.5368         estimate D2E/DX2                !
 ! R40   R(28,31)                1.0956         estimate D2E/DX2                !
 ! R41   R(29,32)                1.5324         estimate D2E/DX2                !
 ! R42   R(29,33)                1.097          estimate D2E/DX2                !
 ! R43   R(29,34)                1.0939         estimate D2E/DX2                !
 ! R44   R(30,35)                1.5328         estimate D2E/DX2                !
 ! R45   R(30,36)                1.0959         estimate D2E/DX2                !
 ! R46   R(30,37)                1.0941         estimate D2E/DX2                !
 ! R47   R(32,38)                1.5329         estimate D2E/DX2                !
 ! R48   R(32,39)                1.0941         estimate D2E/DX2                !
 ! R49   R(32,40)                1.0971         estimate D2E/DX2                !
 ! R50   R(35,38)                1.5326         estimate D2E/DX2                !
 ! R51   R(35,41)                1.094          estimate D2E/DX2                !
 ! R52   R(35,42)                1.0972         estimate D2E/DX2                !
 ! R53   R(38,43)                1.0941         estimate D2E/DX2                !
 ! R54   R(38,44)                1.0971         estimate D2E/DX2                !
 ! R55   R(46,47)                1.0883         estimate D2E/DX2                !
 ! R56   R(46,48)                1.0932         estimate D2E/DX2                !
 ! R57   R(46,49)                1.0932         estimate D2E/DX2                !
 ! R58   R(50,51)                1.0931         estimate D2E/DX2                !
 ! R59   R(50,52)                1.093          estimate D2E/DX2                !
 ! R60   R(50,53)                1.0918         estimate D2E/DX2                !
 ! R61   R(54,55)                1.093          estimate D2E/DX2                !
 ! R62   R(54,56)                1.0928         estimate D2E/DX2                !
 ! R63   R(54,57)                1.0919         estimate D2E/DX2                !
 ! R64   R(58,59)                1.0926         estimate D2E/DX2                !
 ! R65   R(58,60)                1.0922         estimate D2E/DX2                !
 ! R66   R(58,61)                1.0928         estimate D2E/DX2                !
 ! R67   R(62,63)                1.0922         estimate D2E/DX2                !
 ! R68   R(62,64)                1.0926         estimate D2E/DX2                !
 ! R69   R(62,65)                1.0923         estimate D2E/DX2                !
 ! R70   R(66,67)                1.0932         estimate D2E/DX2                !
 ! R71   R(66,68)                1.0889         estimate D2E/DX2                !
 ! R72   R(66,69)                1.093          estimate D2E/DX2                !
 ! A1    A(2,1,6)              122.7223         estimate D2E/DX2                !
 ! A2    A(2,1,23)             106.9884         estimate D2E/DX2                !
 ! A3    A(6,1,23)             130.2888         estimate D2E/DX2                !
 ! A4    A(1,2,3)              121.316          estimate D2E/DX2                !
 ! A5    A(1,2,11)             105.5971         estimate D2E/DX2                !
 ! A6    A(3,2,11)             133.0853         estimate D2E/DX2                !
 ! A7    A(2,3,4)              116.4042         estimate D2E/DX2                !
 ! A8    A(2,3,8)              121.5851         estimate D2E/DX2                !
 ! A9    A(4,3,8)              122.0106         estimate D2E/DX2                !
 ! A10   A(3,4,5)              122.1311         estimate D2E/DX2                !
 ! A11   A(3,4,9)              119.0056         estimate D2E/DX2                !
 ! A12   A(5,4,9)              118.8633         estimate D2E/DX2                !
 ! A13   A(4,5,6)              121.9728         estimate D2E/DX2                !
 ! A14   A(4,5,10)             119.2717         estimate D2E/DX2                !
 ! A15   A(6,5,10)             118.7554         estimate D2E/DX2                !
 ! A16   A(1,6,5)              115.4525         estimate D2E/DX2                !
 ! A17   A(1,6,25)             121.3313         estimate D2E/DX2                !
 ! A18   A(5,6,25)             123.2144         estimate D2E/DX2                !
 ! A19   A(11,7,13)            125.5454         estimate D2E/DX2                !
 ! A20   A(11,7,23)            107.6425         estimate D2E/DX2                !
 ! A21   A(13,7,23)            126.811          estimate D2E/DX2                !
 ! A22   A(2,11,7)             110.2215         estimate D2E/DX2                !
 ! A23   A(2,11,45)            130.3627         estimate D2E/DX2                !
 ! A24   A(7,11,45)            119.4118         estimate D2E/DX2                !
 ! A25   A(13,12,17)           117.5605         estimate D2E/DX2                !
 ! A26   A(13,12,22)           120.3993         estimate D2E/DX2                !
 ! A27   A(17,12,22)           122.0401         estimate D2E/DX2                !
 ! A28   A(7,13,12)            119.0575         estimate D2E/DX2                !
 ! A29   A(7,13,14)            120.3318         estimate D2E/DX2                !
 ! A30   A(12,13,14)           120.6074         estimate D2E/DX2                !
 ! A31   A(13,14,15)           121.3182         estimate D2E/DX2                !
 ! A32   A(13,14,18)           120.1834         estimate D2E/DX2                !
 ! A33   A(15,14,18)           118.4985         estimate D2E/DX2                !
 ! A34   A(14,15,16)           118.5501         estimate D2E/DX2                !
 ! A35   A(14,15,20)           118.8362         estimate D2E/DX2                !
 ! A36   A(16,15,20)           122.6049         estimate D2E/DX2                !
 ! A37   A(15,16,17)           123.7363         estimate D2E/DX2                !
 ! A38   A(15,16,19)           117.8174         estimate D2E/DX2                !
 ! A39   A(17,16,19)           118.4463         estimate D2E/DX2                !
 ! A40   A(12,17,16)           118.2272         estimate D2E/DX2                !
 ! A41   A(12,17,21)           119.8487         estimate D2E/DX2                !
 ! A42   A(16,17,21)           121.924          estimate D2E/DX2                !
 ! A43   A(15,20,54)           112.5995         estimate D2E/DX2                !
 ! A44   A(15,20,58)           108.1165         estimate D2E/DX2                !
 ! A45   A(15,20,62)           109.1973         estimate D2E/DX2                !
 ! A46   A(54,20,58)           108.8647         estimate D2E/DX2                !
 ! A47   A(54,20,62)           108.8108         estimate D2E/DX2                !
 ! A48   A(58,20,62)           109.2025         estimate D2E/DX2                !
 ! A49   A(17,21,46)           109.6876         estimate D2E/DX2                !
 ! A50   A(17,21,50)           111.6452         estimate D2E/DX2                !
 ! A51   A(17,21,66)           109.5805         estimate D2E/DX2                !
 ! A52   A(46,21,50)           108.0223         estimate D2E/DX2                !
 ! A53   A(46,21,66)           109.8341         estimate D2E/DX2                !
 ! A54   A(50,21,66)           108.0347         estimate D2E/DX2                !
 ! A55   A(1,23,7)             109.5505         estimate D2E/DX2                !
 ! A56   A(1,23,24)            120.0953         estimate D2E/DX2                !
 ! A57   A(7,23,24)            130.343          estimate D2E/DX2                !
 ! A58   A(6,25,26)            115.8876         estimate D2E/DX2                !
 ! A59   A(6,25,27)            120.7195         estimate D2E/DX2                !
 ! A60   A(26,25,27)           123.3925         estimate D2E/DX2                !
 ! A61   A(25,27,28)           118.6795         estimate D2E/DX2                !
 ! A62   A(27,28,29)           110.3766         estimate D2E/DX2                !
 ! A63   A(27,28,30)           114.5611         estimate D2E/DX2                !
 ! A64   A(27,28,31)           105.8319         estimate D2E/DX2                !
 ! A65   A(29,28,30)           110.6303         estimate D2E/DX2                !
 ! A66   A(29,28,31)           107.4783         estimate D2E/DX2                !
 ! A67   A(30,28,31)           107.5757         estimate D2E/DX2                !
 ! A68   A(28,29,32)           110.9537         estimate D2E/DX2                !
 ! A69   A(28,29,33)           108.2729         estimate D2E/DX2                !
 ! A70   A(28,29,34)           109.5567         estimate D2E/DX2                !
 ! A71   A(32,29,33)           109.8855         estimate D2E/DX2                !
 ! A72   A(32,29,34)           110.8954         estimate D2E/DX2                !
 ! A73   A(33,29,34)           107.1665         estimate D2E/DX2                !
 ! A74   A(28,30,35)           110.4939         estimate D2E/DX2                !
 ! A75   A(28,30,36)           109.7842         estimate D2E/DX2                !
 ! A76   A(28,30,37)           109.4379         estimate D2E/DX2                !
 ! A77   A(35,30,36)           109.0261         estimate D2E/DX2                !
 ! A78   A(35,30,37)           110.8376         estimate D2E/DX2                !
 ! A79   A(36,30,37)           107.1981         estimate D2E/DX2                !
 ! A80   A(29,32,38)           111.4434         estimate D2E/DX2                !
 ! A81   A(29,32,39)           109.76           estimate D2E/DX2                !
 ! A82   A(29,32,40)           109.0921         estimate D2E/DX2                !
 ! A83   A(38,32,39)           110.3319         estimate D2E/DX2                !
 ! A84   A(38,32,40)           109.3497         estimate D2E/DX2                !
 ! A85   A(39,32,40)           106.7406         estimate D2E/DX2                !
 ! A86   A(30,35,38)           111.3542         estimate D2E/DX2                !
 ! A87   A(30,35,41)           109.791          estimate D2E/DX2                !
 ! A88   A(30,35,42)           109.0947         estimate D2E/DX2                !
 ! A89   A(38,35,41)           110.3931         estimate D2E/DX2                !
 ! A90   A(38,35,42)           109.3256         estimate D2E/DX2                !
 ! A91   A(41,35,42)           106.7633         estimate D2E/DX2                !
 ! A92   A(32,38,35)           111.3548         estimate D2E/DX2                !
 ! A93   A(32,38,43)           110.2275         estimate D2E/DX2                !
 ! A94   A(32,38,44)           108.9712         estimate D2E/DX2                !
 ! A95   A(35,38,43)           110.2667         estimate D2E/DX2                !
 ! A96   A(35,38,44)           109.055          estimate D2E/DX2                !
 ! A97   A(43,38,44)           106.8433         estimate D2E/DX2                !
 ! A98   A(21,46,47)           111.1703         estimate D2E/DX2                !
 ! A99   A(21,46,48)           109.1978         estimate D2E/DX2                !
 ! A100  A(21,46,49)           110.589          estimate D2E/DX2                !
 ! A101  A(47,46,48)           108.8145         estimate D2E/DX2                !
 ! A102  A(47,46,49)           108.7653         estimate D2E/DX2                !
 ! A103  A(48,46,49)           108.2379         estimate D2E/DX2                !
 ! A104  A(21,50,51)           111.8875         estimate D2E/DX2                !
 ! A105  A(21,50,52)           111.6582         estimate D2E/DX2                !
 ! A106  A(21,50,53)           108.8064         estimate D2E/DX2                !
 ! A107  A(51,50,52)           108.4813         estimate D2E/DX2                !
 ! A108  A(51,50,53)           107.9091         estimate D2E/DX2                !
 ! A109  A(52,50,53)           107.9545         estimate D2E/DX2                !
 ! A110  A(20,54,55)           111.7465         estimate D2E/DX2                !
 ! A111  A(20,54,56)           111.5764         estimate D2E/DX2                !
 ! A112  A(20,54,57)           109.1007         estimate D2E/DX2                !
 ! A113  A(55,54,56)           108.575          estimate D2E/DX2                !
 ! A114  A(55,54,57)           107.8662         estimate D2E/DX2                !
 ! A115  A(56,54,57)           107.8315         estimate D2E/DX2                !
 ! A116  A(20,58,59)           110.8099         estimate D2E/DX2                !
 ! A117  A(20,58,60)           111.444          estimate D2E/DX2                !
 ! A118  A(20,58,61)           109.5136         estimate D2E/DX2                !
 ! A119  A(59,58,60)           108.3985         estimate D2E/DX2                !
 ! A120  A(59,58,61)           108.4069         estimate D2E/DX2                !
 ! A121  A(60,58,61)           108.1787         estimate D2E/DX2                !
 ! A122  A(20,62,63)           110.9766         estimate D2E/DX2                !
 ! A123  A(20,62,64)           109.1194         estimate D2E/DX2                !
 ! A124  A(20,62,65)           111.8686         estimate D2E/DX2                !
 ! A125  A(63,62,64)           108.3444         estimate D2E/DX2                !
 ! A126  A(63,62,65)           108.4521         estimate D2E/DX2                !
 ! A127  A(64,62,65)           107.9717         estimate D2E/DX2                !
 ! A128  A(21,66,67)           109.0967         estimate D2E/DX2                !
 ! A129  A(21,66,68)           111.488          estimate D2E/DX2                !
 ! A130  A(21,66,69)           110.6887         estimate D2E/DX2                !
 ! A131  A(67,66,68)           108.6524         estimate D2E/DX2                !
 ! A132  A(67,66,69)           108.0908         estimate D2E/DX2                !
 ! A133  A(68,66,69)           108.7407         estimate D2E/DX2                !
 ! D1    D(6,1,2,3)              0.1519         estimate D2E/DX2                !
 ! D2    D(6,1,2,11)           179.7375         estimate D2E/DX2                !
 ! D3    D(23,1,2,3)          -179.6056         estimate D2E/DX2                !
 ! D4    D(23,1,2,11)           -0.0201         estimate D2E/DX2                !
 ! D5    D(2,1,6,5)              0.1574         estimate D2E/DX2                !
 ! D6    D(2,1,6,25)          -179.3808         estimate D2E/DX2                !
 ! D7    D(23,1,6,5)           179.8534         estimate D2E/DX2                !
 ! D8    D(23,1,6,25)            0.3153         estimate D2E/DX2                !
 ! D9    D(2,1,23,7)             0.0226         estimate D2E/DX2                !
 ! D10   D(2,1,23,24)          178.9282         estimate D2E/DX2                !
 ! D11   D(6,1,23,7)          -179.71           estimate D2E/DX2                !
 ! D12   D(6,1,23,24)           -0.8044         estimate D2E/DX2                !
 ! D13   D(1,2,3,4)             -0.2918         estimate D2E/DX2                !
 ! D14   D(1,2,3,8)            179.5886         estimate D2E/DX2                !
 ! D15   D(11,2,3,4)          -179.7452         estimate D2E/DX2                !
 ! D16   D(11,2,3,8)             0.1352         estimate D2E/DX2                !
 ! D17   D(1,2,11,7)             0.011          estimate D2E/DX2                !
 ! D18   D(1,2,11,45)         -179.2438         estimate D2E/DX2                !
 ! D19   D(3,2,11,7)           179.5262         estimate D2E/DX2                !
 ! D20   D(3,2,11,45)            0.2715         estimate D2E/DX2                !
 ! D21   D(2,3,4,5)              0.1311         estimate D2E/DX2                !
 ! D22   D(2,3,4,9)           -179.8403         estimate D2E/DX2                !
 ! D23   D(8,3,4,5)           -179.7488         estimate D2E/DX2                !
 ! D24   D(8,3,4,9)              0.2799         estimate D2E/DX2                !
 ! D25   D(3,4,5,6)              0.1837         estimate D2E/DX2                !
 ! D26   D(3,4,5,10)          -179.902          estimate D2E/DX2                !
 ! D27   D(9,4,5,6)           -179.8449         estimate D2E/DX2                !
 ! D28   D(9,4,5,10)             0.0694         estimate D2E/DX2                !
 ! D29   D(4,5,6,1)             -0.3194         estimate D2E/DX2                !
 ! D30   D(4,5,6,25)           179.2091         estimate D2E/DX2                !
 ! D31   D(10,5,6,1)           179.7659         estimate D2E/DX2                !
 ! D32   D(10,5,6,25)           -0.7056         estimate D2E/DX2                !
 ! D33   D(1,6,25,26)          179.785          estimate D2E/DX2                !
 ! D34   D(1,6,25,27)            0.0188         estimate D2E/DX2                !
 ! D35   D(5,6,25,26)            0.2834         estimate D2E/DX2                !
 ! D36   D(5,6,25,27)         -179.4828         estimate D2E/DX2                !
 ! D37   D(13,7,11,2)         -179.6352         estimate D2E/DX2                !
 ! D38   D(13,7,11,45)          -0.2871         estimate D2E/DX2                !
 ! D39   D(23,7,11,2)            0.0027         estimate D2E/DX2                !
 ! D40   D(23,7,11,45)         179.3508         estimate D2E/DX2                !
 ! D41   D(11,7,13,12)           2.3083         estimate D2E/DX2                !
 ! D42   D(11,7,13,14)        -178.3525         estimate D2E/DX2                !
 ! D43   D(23,7,13,12)        -177.2607         estimate D2E/DX2                !
 ! D44   D(23,7,13,14)           2.0786         estimate D2E/DX2                !
 ! D45   D(11,7,23,1)           -0.0159         estimate D2E/DX2                !
 ! D46   D(11,7,23,24)        -178.7736         estimate D2E/DX2                !
 ! D47   D(13,7,23,1)          179.6161         estimate D2E/DX2                !
 ! D48   D(13,7,23,24)           0.8584         estimate D2E/DX2                !
 ! D49   D(17,12,13,7)         179.1037         estimate D2E/DX2                !
 ! D50   D(17,12,13,14)         -0.2337         estimate D2E/DX2                !
 ! D51   D(22,12,13,7)          -0.7654         estimate D2E/DX2                !
 ! D52   D(22,12,13,14)        179.8973         estimate D2E/DX2                !
 ! D53   D(13,12,17,16)          0.1325         estimate D2E/DX2                !
 ! D54   D(13,12,17,21)       -179.7395         estimate D2E/DX2                !
 ! D55   D(22,12,17,16)        179.9993         estimate D2E/DX2                !
 ! D56   D(22,12,17,21)          0.1273         estimate D2E/DX2                !
 ! D57   D(7,13,14,15)        -179.0673         estimate D2E/DX2                !
 ! D58   D(7,13,14,18)           1.0009         estimate D2E/DX2                !
 ! D59   D(12,13,14,15)          0.2616         estimate D2E/DX2                !
 ! D60   D(12,13,14,18)       -179.6702         estimate D2E/DX2                !
 ! D61   D(13,14,15,16)         -0.1816         estimate D2E/DX2                !
 ! D62   D(13,14,15,20)        178.7671         estimate D2E/DX2                !
 ! D63   D(18,14,15,16)        179.7514         estimate D2E/DX2                !
 ! D64   D(18,14,15,20)         -1.2999         estimate D2E/DX2                !
 ! D65   D(14,15,16,17)          0.0816         estimate D2E/DX2                !
 ! D66   D(14,15,16,19)       -179.9409         estimate D2E/DX2                !
 ! D67   D(20,15,16,17)       -178.8252         estimate D2E/DX2                !
 ! D68   D(20,15,16,19)          1.1523         estimate D2E/DX2                !
 ! D69   D(14,15,20,54)        179.2173         estimate D2E/DX2                !
 ! D70   D(14,15,20,58)        -60.4727         estimate D2E/DX2                !
 ! D71   D(14,15,20,62)         58.2359         estimate D2E/DX2                !
 ! D72   D(16,15,20,54)         -1.8789         estimate D2E/DX2                !
 ! D73   D(16,15,20,58)        118.4311         estimate D2E/DX2                !
 ! D74   D(16,15,20,62)       -122.8603         estimate D2E/DX2                !
 ! D75   D(15,16,17,12)         -0.0627         estimate D2E/DX2                !
 ! D76   D(15,16,17,21)        179.8065         estimate D2E/DX2                !
 ! D77   D(19,16,17,12)        179.9599         estimate D2E/DX2                !
 ! D78   D(19,16,17,21)         -0.1709         estimate D2E/DX2                !
 ! D79   D(12,17,21,46)        -59.1542         estimate D2E/DX2                !
 ! D80   D(12,17,21,50)       -178.8581         estimate D2E/DX2                !
 ! D81   D(12,17,21,66)         61.4933         estimate D2E/DX2                !
 ! D82   D(16,17,21,46)        120.9786         estimate D2E/DX2                !
 ! D83   D(16,17,21,50)          1.2748         estimate D2E/DX2                !
 ! D84   D(16,17,21,66)       -118.3738         estimate D2E/DX2                !
 ! D85   D(15,20,54,55)        -61.7395         estimate D2E/DX2                !
 ! D86   D(15,20,54,56)         60.0323         estimate D2E/DX2                !
 ! D87   D(15,20,54,57)        179.0724         estimate D2E/DX2                !
 ! D88   D(58,20,54,55)        178.3822         estimate D2E/DX2                !
 ! D89   D(58,20,54,56)        -59.846          estimate D2E/DX2                !
 ! D90   D(58,20,54,57)         59.1941         estimate D2E/DX2                !
 ! D91   D(62,20,54,55)         59.4626         estimate D2E/DX2                !
 ! D92   D(62,20,54,56)       -178.7656         estimate D2E/DX2                !
 ! D93   D(62,20,54,57)        -59.7255         estimate D2E/DX2                !
 ! D94   D(15,20,58,59)        -62.018          estimate D2E/DX2                !
 ! D95   D(15,20,58,60)         58.7821         estimate D2E/DX2                !
 ! D96   D(15,20,58,61)        178.4392         estimate D2E/DX2                !
 ! D97   D(54,20,58,59)         60.6025         estimate D2E/DX2                !
 ! D98   D(54,20,58,60)       -178.5974         estimate D2E/DX2                !
 ! D99   D(54,20,58,61)        -58.9404         estimate D2E/DX2                !
 ! D100  D(62,20,58,59)        179.2767         estimate D2E/DX2                !
 ! D101  D(62,20,58,60)        -59.9232         estimate D2E/DX2                !
 ! D102  D(62,20,58,61)         59.7338         estimate D2E/DX2                !
 ! D103  D(15,20,62,63)         61.5093         estimate D2E/DX2                !
 ! D104  D(15,20,62,64)       -179.1729         estimate D2E/DX2                !
 ! D105  D(15,20,62,65)        -59.7653         estimate D2E/DX2                !
 ! D106  D(54,20,62,63)        -61.7535         estimate D2E/DX2                !
 ! D107  D(54,20,62,64)         57.5643         estimate D2E/DX2                !
 ! D108  D(54,20,62,65)        176.9719         estimate D2E/DX2                !
 ! D109  D(58,20,62,63)        179.5388         estimate D2E/DX2                !
 ! D110  D(58,20,62,64)        -61.1434         estimate D2E/DX2                !
 ! D111  D(58,20,62,65)         58.2641         estimate D2E/DX2                !
 ! D112  D(17,21,46,47)         62.1823         estimate D2E/DX2                !
 ! D113  D(17,21,46,48)       -177.7476         estimate D2E/DX2                !
 ! D114  D(17,21,46,49)        -58.748          estimate D2E/DX2                !
 ! D115  D(50,21,46,47)       -175.9212         estimate D2E/DX2                !
 ! D116  D(50,21,46,48)        -55.8512         estimate D2E/DX2                !
 ! D117  D(50,21,46,49)         63.1484         estimate D2E/DX2                !
 ! D118  D(66,21,46,47)        -58.3114         estimate D2E/DX2                !
 ! D119  D(66,21,46,48)         61.7587         estimate D2E/DX2                !
 ! D120  D(66,21,46,49)       -179.2417         estimate D2E/DX2                !
 ! D121  D(17,21,50,51)        -60.9995         estimate D2E/DX2                !
 ! D122  D(17,21,50,52)         60.8105         estimate D2E/DX2                !
 ! D123  D(17,21,50,53)        179.8635         estimate D2E/DX2                !
 ! D124  D(46,21,50,51)        178.3192         estimate D2E/DX2                !
 ! D125  D(46,21,50,52)        -59.8708         estimate D2E/DX2                !
 ! D126  D(46,21,50,53)         59.1822         estimate D2E/DX2                !
 ! D127  D(66,21,50,51)         59.5573         estimate D2E/DX2                !
 ! D128  D(66,21,50,52)       -178.6327         estimate D2E/DX2                !
 ! D129  D(66,21,50,53)        -59.5797         estimate D2E/DX2                !
 ! D130  D(17,21,66,67)        179.5603         estimate D2E/DX2                !
 ! D131  D(17,21,66,68)        -60.4378         estimate D2E/DX2                !
 ! D132  D(17,21,66,69)         60.7438         estimate D2E/DX2                !
 ! D133  D(46,21,66,67)        -59.8812         estimate D2E/DX2                !
 ! D134  D(46,21,66,68)         60.1207         estimate D2E/DX2                !
 ! D135  D(46,21,66,69)       -178.6976         estimate D2E/DX2                !
 ! D136  D(50,21,66,67)         57.721          estimate D2E/DX2                !
 ! D137  D(50,21,66,68)        177.7228         estimate D2E/DX2                !
 ! D138  D(50,21,66,69)        -61.0955         estimate D2E/DX2                !
 ! D139  D(6,25,27,28)         178.2532         estimate D2E/DX2                !
 ! D140  D(26,25,27,28)         -1.4949         estimate D2E/DX2                !
 ! D141  D(25,27,28,29)        -76.5805         estimate D2E/DX2                !
 ! D142  D(25,27,28,30)         49.0811         estimate D2E/DX2                !
 ! D143  D(25,27,28,31)        167.4205         estimate D2E/DX2                !
 ! D144  D(27,28,29,32)       -175.3976         estimate D2E/DX2                !
 ! D145  D(27,28,29,33)         63.9377         estimate D2E/DX2                !
 ! D146  D(27,28,29,34)        -52.6231         estimate D2E/DX2                !
 ! D147  D(30,28,29,32)         56.7501         estimate D2E/DX2                !
 ! D148  D(30,28,29,33)        -63.9147         estimate D2E/DX2                !
 ! D149  D(30,28,29,34)        179.5245         estimate D2E/DX2                !
 ! D150  D(31,28,29,32)        -60.4321         estimate D2E/DX2                !
 ! D151  D(31,28,29,33)        178.9031         estimate D2E/DX2                !
 ! D152  D(31,28,29,34)         62.3423         estimate D2E/DX2                !
 ! D153  D(27,28,30,35)        177.2592         estimate D2E/DX2                !
 ! D154  D(27,28,30,36)        -62.4556         estimate D2E/DX2                !
 ! D155  D(27,28,30,37)         54.9417         estimate D2E/DX2                !
 ! D156  D(29,28,30,35)        -57.2118         estimate D2E/DX2                !
 ! D157  D(29,28,30,36)         63.0734         estimate D2E/DX2                !
 ! D158  D(29,28,30,37)       -179.5292         estimate D2E/DX2                !
 ! D159  D(31,28,30,35)         59.9105         estimate D2E/DX2                !
 ! D160  D(31,28,30,36)       -179.8043         estimate D2E/DX2                !
 ! D161  D(31,28,30,37)        -62.407          estimate D2E/DX2                !
 ! D162  D(28,29,32,38)        -55.3626         estimate D2E/DX2                !
 ! D163  D(28,29,32,39)       -177.8932         estimate D2E/DX2                !
 ! D164  D(28,29,32,40)         65.4774         estimate D2E/DX2                !
 ! D165  D(33,29,32,38)         64.3433         estimate D2E/DX2                !
 ! D166  D(33,29,32,39)        -58.1873         estimate D2E/DX2                !
 ! D167  D(33,29,32,40)       -174.8167         estimate D2E/DX2                !
 ! D168  D(34,29,32,38)       -177.3593         estimate D2E/DX2                !
 ! D169  D(34,29,32,39)         60.1101         estimate D2E/DX2                !
 ! D170  D(34,29,32,40)        -56.5194         estimate D2E/DX2                !
 ! D171  D(28,30,35,38)         56.5349         estimate D2E/DX2                !
 ! D172  D(28,30,35,41)        179.1043         estimate D2E/DX2                !
 ! D173  D(28,30,35,42)        -64.22           estimate D2E/DX2                !
 ! D174  D(36,30,35,38)        -64.2035         estimate D2E/DX2                !
 ! D175  D(36,30,35,41)         58.3659         estimate D2E/DX2                !
 ! D176  D(36,30,35,42)        175.0416         estimate D2E/DX2                !
 ! D177  D(37,30,35,38)        178.0279         estimate D2E/DX2                !
 ! D178  D(37,30,35,41)        -59.4027         estimate D2E/DX2                !
 ! D179  D(37,30,35,42)         57.273          estimate D2E/DX2                !
 ! D180  D(29,32,38,35)         54.5019         estimate D2E/DX2                !
 ! D181  D(29,32,38,43)        177.2154         estimate D2E/DX2                !
 ! D182  D(29,32,38,44)        -65.8351         estimate D2E/DX2                !
 ! D183  D(39,32,38,35)        176.7032         estimate D2E/DX2                !
 ! D184  D(39,32,38,43)        -60.5832         estimate D2E/DX2                !
 ! D185  D(39,32,38,44)         56.3663         estimate D2E/DX2                !
 ! D186  D(40,32,38,35)        -66.1873         estimate D2E/DX2                !
 ! D187  D(40,32,38,43)         56.5262         estimate D2E/DX2                !
 ! D188  D(40,32,38,44)        173.4758         estimate D2E/DX2                !
 ! D189  D(30,35,38,32)        -55.176          estimate D2E/DX2                !
 ! D190  D(30,35,38,43)       -177.867          estimate D2E/DX2                !
 ! D191  D(30,35,38,44)         65.1116         estimate D2E/DX2                !
 ! D192  D(41,35,38,32)       -177.3983         estimate D2E/DX2                !
 ! D193  D(41,35,38,43)         59.9107         estimate D2E/DX2                !
 ! D194  D(41,35,38,44)        -57.1107         estimate D2E/DX2                !
 ! D195  D(42,35,38,32)         65.4433         estimate D2E/DX2                !
 ! D196  D(42,35,38,43)        -57.2477         estimate D2E/DX2                !
 ! D197  D(42,35,38,44)       -174.2691         estimate D2E/DX2                !
 --------------------------------------------------------------------------------
 Trust Radius=3.00D-01 FncErr=5.00D-06 GrdErr=5.00D-06 EigMax=2.50D+02 EigMin=1.00D-04
 Number of steps in this run=    412 maximum allowed number of steps=    414.
 GradGradGradGradGradGradGradGradGradGradGradGradGradGradGradGradGradGrad

 Leave Link  103 at Fri Dec 21 13:48:06 2018, MaxMem=  1342177280 cpu:               0.3 elap:               0.0
 (Enter /gpfs/apps/hpc/Apps/Restricted/Gaussian/Rev_A.03/g16/l202.exe)
 Symmetry turned off by external request.
 Stoichiometry    C28H37N3O(1+,2)
 Framework group  C1[X(C28H37N3O)]
 Deg. of freedom   201
 Full point group                 C1      NOp   1
                          Input orientation:                          
 ---------------------------------------------------------------------
 Center     Atomic      Atomic             Coordinates (Angstroms)
 Number     Number       Type             X           Y           Z
 ---------------------------------------------------------------------
      1          6           0       -0.500700    2.795099    0.366564
      2          6           0       -1.888756    2.988755    0.285152
      3          6           0       -2.439117    4.269532    0.195180
      4          6           0       -1.539354    5.331386    0.197421
      5          6           0       -0.147530    5.133655    0.282622
      6          6           0        0.414372    3.857939    0.366325
      7          6           0       -1.472879    0.789421    0.397006
      8          1           0       -3.507434    4.423448    0.125656
      9          1           0       -1.920620    6.342852    0.132039
     10          1           0        0.511075    5.994513    0.282171
     11          7           0       -2.443276    1.720964    0.307419
     12          6           0       -3.051167   -1.165079    0.324995
     13          6           0       -1.681522   -0.639533    0.436730
     14          6           0       -0.608879   -1.496606    0.563803
     15          6           0       -0.787015   -2.897044    0.585282
     16          6           0       -2.095986   -3.411943    0.477239
     17          6           0       -3.223380   -2.622391    0.349004
     18          1           0        0.395795   -1.102185    0.650899
     19          1           0       -2.218517   -4.483276    0.495940
     20          6           0        0.439552   -3.791576    0.699391
     21          6           0       -4.620524   -3.224009    0.230773
     22          8           0       -4.026144   -0.380290    0.211266
     23          7           0       -0.287163    1.435613    0.433712
     24          1           0        0.662886    1.069181    0.482507
     25          6           0        1.855667    3.620564    0.438970
     26          1           0        2.487593    4.512926    0.429056
     27          7           0        2.319926    2.428818    0.504615
     28          6           0        3.776936    2.240335    0.536736
     29          6           0        4.373273    2.434557   -0.868008
     30          6           0        4.511964    3.116880    1.562939
     31          1           0        3.936810    1.194257    0.820326
     32          6           0        5.875025    2.129741   -0.872772
     33          1           0        4.202597    3.474257   -1.173386
     34          1           0        3.843548    1.797243   -1.582001
     35          6           0        6.011139    2.797698    1.565411
     36          1           0        4.372407    4.175044    1.314526
     37          1           0        4.078484    2.957532    2.554789
     38          6           0        6.620745    2.970221    0.169900
     39          1           0        6.285843    2.309867   -1.870635
     40          1           0        6.025716    1.064803   -0.656505
     41          1           0        6.525113    3.438601    2.287819
     42          1           0        6.157286    1.763038    1.900122
     43          1           0        7.681306    2.701871    0.183810
     44          1           0        6.564094    4.027534   -0.117509
     45          1           0       -3.417409    1.425694    0.257575
     46          6           0       -5.508812   -2.709140    1.386591
     47          1           0       -5.627835   -1.628402    1.339394
     48          1           0       -6.494993   -3.175805    1.317385
     49          1           0       -5.072553   -2.972996    2.353618
     50          6           0       -4.585105   -4.758692    0.305618
     51          1           0       -3.994593   -5.192688   -0.505392
     52          1           0       -4.175341   -5.106811    1.257247
     53          1           0       -5.604931   -5.138941    0.219065
     54          6           0        0.080920   -5.282855    0.729016
     55          1           0       -0.539622   -5.533050    1.593350
     56          1           0       -0.446737   -5.587369   -0.178160
     57          1           0        0.999174   -5.869919    0.794722
     58          6           0        1.347725   -3.520089   -0.521647
     59          1           0        0.833683   -3.773873   -1.451824
     60          1           0        1.649485   -2.471465   -0.569562
     61          1           0        2.250453   -4.131637   -0.448319
     62          6           0        1.207268   -3.438260    1.991994
     63          1           0        0.587763   -3.612041    2.874598
     64          1           0        2.095175   -4.070806    2.065117
     65          1           0        1.534375   -2.396151    1.998954
     66          6           0       -5.243062   -2.825314   -1.126819
     67          1           0       -6.240036   -3.266669   -1.206510
     68          1           0       -5.332081   -1.744307   -1.222704
     69          1           0       -4.637640   -3.202658   -1.954963
 ---------------------------------------------------------------------
 Rotational constants (GHZ):           0.1825543           0.0735026           0.0548526
 Leave Link  202 at Fri Dec 21 13:48:06 2018, MaxMem=  1342177280 cpu:               0.4 elap:               0.0
 (Enter /gpfs/apps/hpc/Apps/Restricted/Gaussian/Rev_A.03/g16/l301.exe)
 Standard basis: 6-31G(d,p) (6D, 7F)
 Ernie: Thresh=  0.10000D-02 Tol=  0.10000D-05 Strict=F.
   665 basis functions,  1155 primitive gaussians,   665 cartesian basis functions
   117 alpha electrons      116 beta electrons
       nuclear repulsion energy      3175.5994405053 Hartrees.
 IExCor=  402 DFT=T Ex+Corr=B3LYP ExCW=0 ScaHFX=  0.200000
 ScaDFX=  0.800000  0.720000  1.000000  0.810000 ScalE2=  1.000000  1.000000
 IRadAn=      5 IRanWt=     -1 IRanGd=            0 ICorTp=0 IEmpDi=141
 NAtoms=   69 NActive=   69 NUniq=   69 SFac= 1.00D+00 NAtFMM=   60 NAOKFM=T Big=T
 Integral buffers will be    131072 words long.
 Raffenetti 2 integral format.
 Two-electron integral symmetry is turned off.
 R6Disp:  Grimme-D3(BJ) Dispersion energy=       -0.1505983888 Hartrees.
 Nuclear repulsion after empirical dispersion term =     3175.4488421166 Hartrees.
 Using the following non-standard input for PCM:
 radii=bondi
 dis
 rep
 cav
 --- end of non-standard input.
 ------------------------------------------------------------------------------
 Polarizable Continuum Model (PCM)
 =================================
 Model                : C-PCM.
 Atomic radii         : Bondi.
 Polarization charges : Total charges.
 Charge compensation  : None.
 Solution method      : On-the-fly selection.
 Cavity type          : Scaled VdW (van der Waals Surface) (Alpha=1.100).
 Cavity algorithm     : GePol (No added spheres)
                        Default sphere list used, NSphG=   69.
                        Lebedev-Laikov grids with approx.  5.0 points / Ang**2.
                        Smoothing algorithm: York/Karplus (Gamma=1.0000).
                        Polarization charges: spherical gaussians, with
                                              point-specific exponents (IZeta= 3).
                        Self-potential: point-specific (ISelfS= 7).
                        Self-field    : sphere-specific E.n sum rule (ISelfD= 2).
 1st derivatives      : Analytical E(r).r(x)/FMM algorithm (CHGder, D1EAlg=3).
                        Cavity 1st derivative terms included.
 Solvent              : Dichloromethane, Eps=   8.930000 Eps(inf)=   2.028346
 ------------------------------------------------------------------------------
 GePol: Number of generator spheres                  =      69
 GePol: Total number of spheres                      =      69
 GePol: Number of exposed spheres                    =      69 (100.00%)
 GePol: Number of points                             =    4347
 GePol: Average weight of points                     =       0.12
 GePol: Minimum weight of points                     =   0.16D-11
 GePol: Maximum weight of points                     =    0.21770
 GePol: Number of points with low weight             =     315
 GePol: Fraction of low-weight points (<1% of avg)   =       7.25%
 GePol: Cavity surface area                          =    517.597 Ang**2
 GePol: Cavity volume                                =    499.834 Ang**3
 PCM non-electrostatic energy =         0.0257501950 Hartrees.
 Nuclear repulsion after PCM non-electrostatic terms =     3175.4745923115 Hartrees.
 Leave Link  301 at Fri Dec 21 13:48:06 2018, MaxMem=  1342177280 cpu:               3.1 elap:               0.2
 (Enter /gpfs/apps/hpc/Apps/Restricted/Gaussian/Rev_A.03/g16/l302.exe)
 NPDir=0 NMtPBC=     1 NCelOv=     1 NCel=       1 NClECP=     1 NCelD=      1
         NCelK=      1 NCelE2=     1 NClLst=     1 CellRange=     0.0.
 One-electron integrals computed using PRISM.
 NBasis=   665 RedAO= T EigKep=  2.94D-04  NBF=   665
 NBsUse=   665 1.00D-06 EigRej= -1.00D+00 NBFU=   665
 Precomputing XC quadrature grid using
 IXCGrd= 4 IRadAn=           5 IRanWt=          -1 IRanGd=           0 AccXCQ= 0.00D+00.
 Generated NRdTot=       0 NPtTot=           0 NUsed=           0 NTot=          32
 NSgBfM=   650   650   650   650   650 MxSgAt=    69 MxSgA2=    69.
 Leave Link  302 at Fri Dec 21 13:48:07 2018, MaxMem=  1342177280 cpu:              17.6 elap:               1.2
 (Enter /gpfs/apps/hpc/Apps/Restricted/Gaussian/Rev_A.03/g16/l303.exe)
 DipDrv:  MaxL=1.
 Leave Link  303 at Fri Dec 21 13:48:07 2018, MaxMem=  1342177280 cpu:               1.3 elap:               0.1
 (Enter /gpfs/apps/hpc/Apps/Restricted/Gaussian/Rev_A.03/g16/l401.exe)
 ExpMin= 1.61D-01 ExpMax= 5.48D+03 ExpMxC= 8.25D+02 IAcc=3 IRadAn=         5 AccDes= 0.00D+00
 Harris functional with IExCor=  402 and IRadAn=       5 diagonalized for initial guess.
 HarFok:  IExCor=  402 AccDes= 0.00D+00 IRadAn=         5 IDoV= 1 UseB2=F ITyADJ=14
 ICtDFT=  3500011 ScaDFX=  1.000000  1.000000  1.000000  1.000000
 FoFCou: FMM=F IPFlag=           0 FMFlag=      100000 FMFlg1=        2001
         NFxFlg=           0 DoJE=T BraDBF=F KetDBF=T FulRan=T
         wScrn=  0.000000 ICntrl=       500 IOpCl=  0 I1Cent=   200000004 NGrid=           0
         NMat0=    1 NMatS0=      1 NMatT0=    0 NMatD0=    1 NMtDS0=    0 NMtDT0=    0
 Symmetry not used in FoFCou.
 Harris En= -1328.79013335710    
 JPrj=0 DoOrth=F DoCkMO=F.
 Initial guess <Sx>= 0.0000 <Sy>= 0.0000 <Sz>= 0.5000 <S**2>= 0.7500 S= 0.5000
 Leave Link  401 at Fri Dec 21 13:48:11 2018, MaxMem=  1342177280 cpu:              63.6 elap:               4.0
 (Enter /gpfs/apps/hpc/Apps/Restricted/Gaussian/Rev_A.03/g16/l502.exe)
 Two-electron integral symmetry not used.
 UHF open shell SCF:
 Using DIIS extrapolation, IDIIS=  1040.
 NGot=  1342177280 LenX=  1341276554 LenY=  1340833664
 Requested convergence on RMS density matrix=1.00D-08 within 128 cycles.
 Requested convergence on MAX density matrix=1.00D-06.
 Requested convergence on             energy=1.00D-06.
 No special actions if energy rises.
 Fock matrices will be formed incrementally for  20 cycles.

 Cycle   1  Pass 1  IDiag  1:
 FoFJK:  IHMeth= 1 ICntrl=       0 DoSepK=F KAlg= 0 I1Cent=           0 FoldK=F
 IRaf= 770000000 NMat=       1 IRICut=       1 DoRegI=T DoRafI=F ISym2E= 0 IDoP0=0 IntGTp=1.
 FoFCou: FMM=T IPFlag=           0 FMFlag=      100000 FMFlg1=        2001
         NFxFlg=           0 DoJE=F BraDBF=F KetDBF=F FulRan=T
         wScrn=  0.000000 ICntrl=         0 IOpCl=  1 I1Cent=           0 NGrid=           0
         NMat0=    1 NMatS0=      1 NMatT0=    0 NMatD0=    1 NMtDS0=    0 NMtDT0=    0
 Symmetry not used in FoFCou.
 FMM levels:  10  Number of levels for PrismC:   9
 Inv3:  Mode=1 IEnd=    56689227.
 Iteration    1 A*A^-1 deviation from unit magnitude is 9.55D-15 for   1211.
 Iteration    1 A*A^-1 deviation from orthogonality  is 6.32D-15 for   3295    665.
 Iteration    1 A^-1*A deviation from unit magnitude is 7.99D-15 for    665.
 Iteration    1 A^-1*A deviation from orthogonality  is 3.54D-15 for   4336   3106.
 E= -1327.98358048845    
 DIIS: error= 2.92D-02 at cycle   1 NSaved=   1.
 NSaved= 1 IEnMin= 1 EnMin= -1327.98358048845     IErMin= 1 ErrMin= 2.92D-02
 ErrMax= 2.92D-02  0.00D+00 EMaxC= 1.00D-01 BMatC= 3.14D+00 BMatP= 3.14D+00
 IDIUse=3 WtCom= 7.08D-01 WtEn= 2.92D-01
 Coeff-Com:  0.100D+01
 Coeff-En:   0.100D+01
 Coeff:      0.100D+01
 Gap=     0.139 Goal=   None    Shift=    0.000
 Gap=     0.090 Goal=   None    Shift=    0.000
 GapD=    0.090 DampG=0.500 DampE=0.500 DampFc=0.2500 IDamp=-1.
 Damping current iteration by 2.50D-01
 RMSDP=3.22D-03 MaxDP=1.76D-01              OVMax= 2.90D-01

 Cycle   2  Pass 1  IDiag  1:
 RMSU=  7.86D-04    CP:  9.85D-01
 E= -1328.28370778625     Delta-E=       -0.300127297800 Rises=F Damp=T
 DIIS: error= 1.53D-02 at cycle   2 NSaved=   2.
 NSaved= 2 IEnMin= 2 EnMin= -1328.28370778625     IErMin= 2 ErrMin= 1.53D-02
 ErrMax= 1.53D-02  0.00D+00 EMaxC= 1.00D-01 BMatC= 8.08D-01 BMatP= 3.14D+00
 IDIUse=3 WtCom= 8.47D-01 WtEn= 1.53D-01
 Coeff-Com: -0.816D+00 0.182D+01
 Coeff-En:   0.000D+00 0.100D+01
 Coeff:     -0.691D+00 0.169D+01
 Gap=     0.172 Goal=   None    Shift=    0.000
 Gap=     0.126 Goal=   None    Shift=    0.000
 RMSDP=1.17D-03 MaxDP=5.64D-02 DE=-3.00D-01 OVMax= 2.02D-01

 Cycle   3  Pass 1  IDiag  1:
 RMSU=  8.46D-04    CP:  9.55D-01  1.92D+00
 E= -1328.78258845079     Delta-E=       -0.498880664549 Rises=F Damp=F
 DIIS: error= 8.18D-03 at cycle   3 NSaved=   3.
 NSaved= 3 IEnMin= 3 EnMin= -1328.78258845079     IErMin= 3 ErrMin= 8.18D-03
 ErrMax= 8.18D-03  0.00D+00 EMaxC= 1.00D-01 BMatC= 1.36D-01 BMatP= 8.08D-01
 IDIUse=3 WtCom= 9.18D-01 WtEn= 8.18D-02
 Coeff-Com: -0.352D+00 0.777D+00 0.575D+00
 Coeff-En:   0.000D+00 0.000D+00 0.100D+01
 Coeff:     -0.323D+00 0.714D+00 0.610D+00
 Gap=     0.140 Goal=   None    Shift=    0.000
 Gap=     0.088 Goal=   None    Shift=    0.000
 RMSDP=4.63D-04 MaxDP=6.91D-02 DE=-4.99D-01 OVMax= 7.94D-02

 Cycle   4  Pass 1  IDiag  1:
 RMSU=  3.77D-04    CP:  9.59D-01  1.97D+00  6.89D-01
 E= -1328.80154801341     Delta-E=       -0.018959562618 Rises=F Damp=F
 DIIS: error= 6.57D-03 at cycle   4 NSaved=   4.
 NSaved= 4 IEnMin= 4 EnMin= -1328.80154801341     IErMin= 4 ErrMin= 6.57D-03
 ErrMax= 6.57D-03  0.00D+00 EMaxC= 1.00D-01 BMatC= 6.65D-02 BMatP= 1.36D-01
 IDIUse=3 WtCom= 9.34D-01 WtEn= 6.57D-02
 Coeff-Com: -0.559D-01 0.139D+00 0.403D+00 0.513D+00
 Coeff-En:   0.000D+00 0.000D+00 0.318D+00 0.682D+00
 Coeff:     -0.522D-01 0.130D+00 0.398D+00 0.524D+00
 Gap=     0.143 Goal=   None    Shift=    0.000
 Gap=     0.086 Goal=   None    Shift=    0.000
 RMSDP=2.26D-04 MaxDP=3.49D-02 DE=-1.90D-02 OVMax= 3.30D-02

 Cycle   5  Pass 1  IDiag  1:
 RMSU=  1.21D-04    CP:  9.58D-01  1.93D+00  7.91D-01  5.55D-01
 E= -1328.81447536454     Delta-E=       -0.012927351131 Rises=F Damp=F
 DIIS: error= 1.58D-03 at cycle   5 NSaved=   5.
 NSaved= 5 IEnMin= 5 EnMin= -1328.81447536454     IErMin= 5 ErrMin= 1.58D-03
 ErrMax= 1.58D-03  0.00D+00 EMaxC= 1.00D-01 BMatC= 4.22D-03 BMatP= 6.65D-02
 IDIUse=3 WtCom= 9.84D-01 WtEn= 1.58D-02
 Coeff-Com:  0.150D-02 0.553D-02 0.173D+00 0.291D+00 0.530D+00
 Coeff-En:   0.000D+00 0.000D+00 0.000D+00 0.000D+00 0.100D+01
 Coeff:      0.148D-02 0.545D-02 0.170D+00 0.286D+00 0.537D+00
 Gap=     0.143 Goal=   None    Shift=    0.000
 Gap=     0.088 Goal=   None    Shift=    0.000
 RMSDP=6.64D-05 MaxDP=1.11D-02 DE=-1.29D-02 OVMax= 1.65D-02

 Cycle   6  Pass 1  IDiag  1:
 RMSU=  4.25D-05    CP:  9.58D-01  1.93D+00  8.04D-01  6.13D-01  6.33D-01
 E= -1328.81542330497     Delta-E=       -0.000947940424 Rises=F Damp=F
 DIIS: error= 4.67D-04 at cycle   6 NSaved=   6.
 NSaved= 6 IEnMin= 6 EnMin= -1328.81542330497     IErMin= 6 ErrMin= 4.67D-04
 ErrMax= 4.67D-04  0.00D+00 EMaxC= 1.00D-01 BMatC= 4.94D-04 BMatP= 4.22D-03
 IDIUse=3 WtCom= 9.95D-01 WtEn= 4.67D-03
 Coeff-Com:  0.626D-02-0.102D-01 0.514D-01 0.952D-01 0.295D+00 0.562D+00
 Coeff-En:   0.000D+00 0.000D+00 0.000D+00 0.000D+00 0.000D+00 0.100D+01
 Coeff:      0.623D-02-0.101D-01 0.512D-01 0.947D-01 0.294D+00 0.564D+00
 Gap=     0.144 Goal=   None    Shift=    0.000
 Gap=     0.089 Goal=   None    Shift=    0.000
 RMSDP=2.34D-05 MaxDP=3.00D-03 DE=-9.48D-04 OVMax= 6.98D-03

 Cycle   7  Pass 1  IDiag  1:
 RMSU=  1.93D-05    CP:  9.58D-01  1.93D+00  8.05D-01  6.11D-01  7.31D-01
                    CP:  8.83D-01
 E= -1328.81557446059     Delta-E=       -0.000151155624 Rises=F Damp=F
 DIIS: error= 1.94D-04 at cycle   7 NSaved=   7.
 NSaved= 7 IEnMin= 7 EnMin= -1328.81557446059     IErMin= 7 ErrMin= 1.94D-04
 ErrMax= 1.94D-04  0.00D+00 EMaxC= 1.00D-01 BMatC= 6.79D-05 BMatP= 4.94D-04
 IDIUse=3 WtCom= 9.98D-01 WtEn= 1.94D-03
 Coeff-Com:  0.215D-02-0.493D-02-0.146D-01-0.278D-01 0.130D-01 0.230D+00
 Coeff-Com:  0.802D+00
 Coeff-En:   0.000D+00 0.000D+00 0.000D+00 0.000D+00 0.000D+00 0.000D+00
 Coeff-En:   0.100D+01
 Coeff:      0.214D-02-0.492D-02-0.146D-01-0.277D-01 0.130D-01 0.230D+00
 Coeff:      0.803D+00
 Gap=     0.145 Goal=   None    Shift=    0.000
 Gap=     0.089 Goal=   None    Shift=    0.000
 RMSDP=1.41D-05 MaxDP=2.41D-03 DE=-1.51D-04 OVMax= 4.07D-03

 Cycle   8  Pass 1  IDiag  1:
 RMSU=  8.98D-06    CP:  9.58D-01  1.93D+00  8.08D-01  6.15D-01  7.72D-01
                    CP:  1.10D+00  1.05D+00
 E= -1328.81562216766     Delta-E=       -0.000047707064 Rises=F Damp=F
 DIIS: error= 1.02D-04 at cycle   8 NSaved=   8.
 NSaved= 8 IEnMin= 8 EnMin= -1328.81562216766     IErMin= 8 ErrMin= 1.02D-04
 ErrMax= 1.02D-04  0.00D+00 EMaxC= 1.00D-01 BMatC= 2.36D-05 BMatP= 6.79D-05
 IDIUse=3 WtCom= 9.99D-01 WtEn= 1.02D-03
 Coeff-Com: -0.991D-03 0.129D-02-0.220D-01-0.464D-01-0.882D-01-0.111D+00
 Coeff-Com:  0.364D+00 0.903D+00
 Coeff-En:   0.000D+00 0.000D+00 0.000D+00 0.000D+00 0.000D+00 0.000D+00
 Coeff-En:   0.000D+00 0.100D+01
 Coeff:     -0.990D-03 0.129D-02-0.220D-01-0.464D-01-0.881D-01-0.111D+00
 Coeff:      0.364D+00 0.903D+00
 Gap=     0.145 Goal=   None    Shift=    0.000
 Gap=     0.090 Goal=   None    Shift=    0.000
 RMSDP=1.11D-05 MaxDP=1.70D-03 DE=-4.77D-05 OVMax= 3.21D-03

 Cycle   9  Pass 1  IDiag  1:
 RMSU=  5.21D-06    CP:  9.58D-01  1.93D+00  8.09D-01  6.15D-01  8.08D-01
                    CP:  1.22D+00  1.39D+00  1.20D+00
 E= -1328.81563995056     Delta-E=       -0.000017782902 Rises=F Damp=F
 DIIS: error= 6.00D-05 at cycle   9 NSaved=   9.
 NSaved= 9 IEnMin= 9 EnMin= -1328.81563995056     IErMin= 9 ErrMin= 6.00D-05
 ErrMax= 6.00D-05  0.00D+00 EMaxC= 1.00D-01 BMatC= 8.02D-06 BMatP= 2.36D-05
 IDIUse=1 WtCom= 1.00D+00 WtEn= 0.00D+00
 Coeff-Com: -0.796D-03 0.145D-02-0.986D-02-0.225D-01-0.541D-01-0.127D+00
 Coeff-Com:  0.477D-01 0.542D+00 0.623D+00
 Coeff:     -0.796D-03 0.145D-02-0.986D-02-0.225D-01-0.541D-01-0.127D+00
 Coeff:      0.477D-01 0.542D+00 0.623D+00
 Gap=     0.145 Goal=   None    Shift=    0.000
 Gap=     0.090 Goal=   None    Shift=    0.000
 RMSDP=4.54D-06 MaxDP=7.75D-04 DE=-1.78D-05 OVMax= 1.31D-03

 Cycle  10  Pass 1  IDiag  1:
 RMSU=  2.42D-06    CP:  9.58D-01  1.93D+00  8.10D-01  6.15D-01  8.19D-01
                    CP:  1.27D+00  1.50D+00  1.42D+00  7.89D-01
 E= -1328.81564356649     Delta-E=       -0.000003615933 Rises=F Damp=F
 DIIS: error= 1.81D-05 at cycle  10 NSaved=  10.
 NSaved=10 IEnMin=10 EnMin= -1328.81564356649     IErMin=10 ErrMin= 1.81D-05
 ErrMax= 1.81D-05  0.00D+00 EMaxC= 1.00D-01 BMatC= 1.31D-06 BMatP= 8.02D-06
 IDIUse=1 WtCom= 1.00D+00 WtEn= 0.00D+00
 Coeff-Com: -0.902D-04 0.292D-03-0.277D-03-0.165D-02-0.767D-02-0.439D-01
 Coeff-Com: -0.440D-01 0.718D-01 0.322D+00 0.703D+00
 Coeff:     -0.902D-04 0.292D-03-0.277D-03-0.165D-02-0.767D-02-0.439D-01
 Coeff:     -0.440D-01 0.718D-01 0.322D+00 0.703D+00
 Gap=     0.145 Goal=   None    Shift=    0.000
 Gap=     0.090 Goal=   None    Shift=    0.000
 RMSDP=1.82D-06 MaxDP=3.81D-04 DE=-3.62D-06 OVMax= 5.66D-04

 Cycle  11  Pass 1  IDiag  1:
 RMSU=  1.08D-06    CP:  9.58D-01  1.93D+00  8.10D-01  6.14D-01  8.22D-01
                    CP:  1.28D+00  1.53D+00  1.49D+00  9.82D-01  9.69D-01
 E= -1328.81564410123     Delta-E=       -0.000000534742 Rises=F Damp=F
 DIIS: error= 7.38D-06 at cycle  11 NSaved=  11.
 NSaved=11 IEnMin=11 EnMin= -1328.81564410123     IErMin=11 ErrMin= 7.38D-06
 ErrMax= 7.38D-06  0.00D+00 EMaxC= 1.00D-01 BMatC= 2.95D-07 BMatP= 1.31D-06
 IDIUse=1 WtCom= 1.00D+00 WtEn= 0.00D+00
 Coeff-Com:  0.107D-03-0.113D-03 0.201D-02 0.395D-02 0.777D-02 0.221D-02
 Coeff-Com: -0.305D-01-0.789D-01 0.525D-01 0.396D+00 0.645D+00
 Coeff:      0.107D-03-0.113D-03 0.201D-02 0.395D-02 0.777D-02 0.221D-02
 Coeff:     -0.305D-01-0.789D-01 0.525D-01 0.396D+00 0.645D+00
 Gap=     0.145 Goal=   None    Shift=    0.000
 Gap=     0.090 Goal=   None    Shift=    0.000
 RMSDP=7.10D-07 MaxDP=9.56D-05 DE=-5.35D-07 OVMax= 1.92D-04

 Cycle  12  Pass 1  IDiag  1:
 RMSU=  4.18D-07    CP:  9.58D-01  1.93D+00  8.10D-01  6.14D-01  8.23D-01
                    CP:  1.28D+00  1.54D+00  1.51D+00  1.03D+00  1.13D+00
                    CP:  8.99D-01
 E= -1328.81564421666     Delta-E=       -0.000000115428 Rises=F Damp=F
 DIIS: error= 5.65D-06 at cycle  12 NSaved=  12.
 NSaved=12 IEnMin=12 EnMin= -1328.81564421666     IErMin=12 ErrMin= 5.65D-06
 ErrMax= 5.65D-06  0.00D+00 EMaxC= 1.00D-01 BMatC= 3.55D-08 BMatP= 2.95D-07
 IDIUse=1 WtCom= 1.00D+00 WtEn= 0.00D+00
 Coeff-Com:  0.609D-04-0.103D-03 0.930D-03 0.208D-02 0.485D-02 0.839D-02
 Coeff-Com: -0.557D-02-0.489D-01-0.286D-01 0.563D-01 0.269D+00 0.742D+00
 Coeff:      0.609D-04-0.103D-03 0.930D-03 0.208D-02 0.485D-02 0.839D-02
 Coeff:     -0.557D-02-0.489D-01-0.286D-01 0.563D-01 0.269D+00 0.742D+00
 Gap=     0.145 Goal=   None    Shift=    0.000
 Gap=     0.090 Goal=   None    Shift=    0.000
 RMSDP=3.26D-07 MaxDP=4.77D-05 DE=-1.15D-07 OVMax= 9.93D-05

 Cycle  13  Pass 1  IDiag  1:
 RMSU=  2.16D-07    CP:  9.58D-01  1.93D+00  8.10D-01  6.14D-01  8.22D-01
                    CP:  1.27D+00  1.54D+00  1.52D+00  1.05D+00  1.19D+00
                    CP:  1.03D+00  9.10D-01
 E= -1328.81564423299     Delta-E=       -0.000000016325 Rises=F Damp=F
 DIIS: error= 2.43D-06 at cycle  13 NSaved=  13.
 NSaved=13 IEnMin=13 EnMin= -1328.81564423299     IErMin=13 ErrMin= 2.43D-06
 ErrMax= 2.43D-06  0.00D+00 EMaxC= 1.00D-01 BMatC= 2.09D-08 BMatP= 3.55D-08
 IDIUse=1 WtCom= 1.00D+00 WtEn= 0.00D+00
 Coeff-Com:  0.684D-05-0.315D-04 0.893D-04 0.377D-03 0.120D-02 0.496D-02
 Coeff-Com:  0.387D-02-0.130D-01-0.310D-01-0.627D-01 0.137D-01 0.506D+00
 Coeff-Com:  0.576D+00
 Coeff:      0.684D-05-0.315D-04 0.893D-04 0.377D-03 0.120D-02 0.496D-02
 Coeff:      0.387D-02-0.130D-01-0.310D-01-0.627D-01 0.137D-01 0.506D+00
 Coeff:      0.576D+00
 Gap=     0.145 Goal=   None    Shift=    0.000
 Gap=     0.090 Goal=   None    Shift=    0.000
 RMSDP=1.80D-07 MaxDP=3.50D-05 DE=-1.63D-08 OVMax= 5.82D-05

 Cycle  14  Pass 1  IDiag  1:
 RMSU=  9.92D-08    CP:  9.58D-01  1.93D+00  8.10D-01  6.14D-01  8.22D-01
                    CP:  1.27D+00  1.54D+00  1.52D+00  1.06D+00  1.22D+00
                    CP:  1.08D+00  1.14D+00  7.98D-01
 E= -1328.81564424082     Delta-E=       -0.000000007836 Rises=F Damp=F
 DIIS: error= 1.04D-06 at cycle  14 NSaved=  14.
 NSaved=14 IEnMin=14 EnMin= -1328.81564424082     IErMin=14 ErrMin= 1.04D-06
 ErrMax= 1.04D-06  0.00D+00 EMaxC= 1.00D-01 BMatC= 1.36D-09 BMatP= 2.09D-08
 IDIUse=1 WtCom= 1.00D+00 WtEn= 0.00D+00
 Coeff-Com: -0.175D-04 0.223D-04-0.167D-03-0.300D-03-0.687D-03-0.189D-03
 Coeff-Com:  0.220D-02 0.614D-02-0.262D-02-0.313D-01-0.517D-01-0.983D-03
 Coeff-Com:  0.160D+00 0.920D+00
 Coeff:     -0.175D-04 0.223D-04-0.167D-03-0.300D-03-0.687D-03-0.189D-03
 Coeff:      0.220D-02 0.614D-02-0.262D-02-0.313D-01-0.517D-01-0.983D-03
 Coeff:      0.160D+00 0.920D+00
 Gap=     0.145 Goal=   None    Shift=    0.000
 Gap=     0.090 Goal=   None    Shift=    0.000
 RMSDP=8.25D-08 MaxDP=1.06D-05 DE=-7.84D-09 OVMax= 2.44D-05

 Cycle  15  Pass 1  IDiag  1:
 RMSU=  3.86D-08    CP:  9.58D-01  1.93D+00  8.10D-01  6.14D-01  8.22D-01
                    CP:  1.28D+00  1.54D+00  1.52D+00  1.06D+00  1.23D+00
                    CP:  1.11D+00  1.23D+00  1.00D+00  1.15D+00
 E= -1328.81564424206     Delta-E=       -0.000000001238 Rises=F Damp=F
 DIIS: error= 5.91D-07 at cycle  15 NSaved=  15.
 NSaved=15 IEnMin=15 EnMin= -1328.81564424206     IErMin=15 ErrMin= 5.91D-07
 ErrMax= 5.91D-07  0.00D+00 EMaxC= 1.00D-01 BMatC= 4.51D-10 BMatP= 1.36D-09
 IDIUse=1 WtCom= 1.00D+00 WtEn= 0.00D+00
 Coeff-Com: -0.970D-05 0.162D-04-0.870D-04-0.180D-03-0.499D-03-0.866D-03
 Coeff-Com:  0.188D-03 0.460D-02 0.381D-02-0.365D-02-0.245D-01-0.807D-01
 Coeff-Com: -0.235D-01 0.426D+00 0.700D+00
 Coeff:     -0.970D-05 0.162D-04-0.870D-04-0.180D-03-0.499D-03-0.866D-03
 Coeff:      0.188D-03 0.460D-02 0.381D-02-0.365D-02-0.245D-01-0.807D-01
 Coeff:     -0.235D-01 0.426D+00 0.700D+00
 Gap=     0.145 Goal=   None    Shift=    0.000
 Gap=     0.090 Goal=   None    Shift=    0.000
 RMSDP=3.54D-08 MaxDP=4.57D-06 DE=-1.24D-09 OVMax= 1.14D-05

 Cycle  16  Pass 1  IDiag  1:
 RMSU=  2.02D-08    CP:  9.58D-01  1.93D+00  8.10D-01  6.14D-01  8.22D-01
                    CP:  1.28D+00  1.54D+00  1.52D+00  1.07D+00  1.23D+00
                    CP:  1.12D+00  1.26D+00  1.05D+00  1.35D+00  9.74D-01
 E= -1328.81564424222     Delta-E=       -0.000000000164 Rises=F Damp=F
 DIIS: error= 3.81D-07 at cycle  16 NSaved=  16.
 NSaved=16 IEnMin=16 EnMin= -1328.81564424222     IErMin=16 ErrMin= 3.81D-07
 ErrMax= 3.81D-07  0.00D+00 EMaxC= 1.00D-01 BMatC= 1.18D-10 BMatP= 4.51D-10
 IDIUse=1 WtCom= 1.00D+00 WtEn= 0.00D+00
 Coeff-Com:  0.131D-05-0.215D-06 0.182D-04 0.291D-04 0.881D-05-0.327D-03
 Coeff-Com: -0.729D-03-0.109D-03 0.267D-02 0.999D-02 0.741D-02-0.358D-01
 Coeff-Com: -0.687D-01-0.125D+00 0.337D+00 0.874D+00
 Coeff:      0.131D-05-0.215D-06 0.182D-04 0.291D-04 0.881D-05-0.327D-03
 Coeff:     -0.729D-03-0.109D-03 0.267D-02 0.999D-02 0.741D-02-0.358D-01
 Coeff:     -0.687D-01-0.125D+00 0.337D+00 0.874D+00
 Gap=     0.145 Goal=   None    Shift=    0.000
 Gap=     0.090 Goal=   None    Shift=    0.000
 RMSDP=2.32D-08 MaxDP=2.96D-06 DE=-1.64D-10 OVMax= 8.18D-06

 Cycle  17  Pass 1  IDiag  1:
 RMSU=  1.04D-08    CP:  9.58D-01  1.93D+00  8.10D-01  6.14D-01  8.22D-01
                    CP:  1.28D+00  1.54D+00  1.52D+00  1.07D+00  1.23D+00
                    CP:  1.12D+00  1.27D+00  1.09D+00  1.46D+00  1.30D+00
                    CP:  1.15D+00
 E= -1328.81564424234     Delta-E=       -0.000000000118 Rises=F Damp=F
 DIIS: error= 1.99D-07 at cycle  17 NSaved=  17.
 NSaved=17 IEnMin=17 EnMin= -1328.81564424234     IErMin=17 ErrMin= 1.99D-07
 ErrMax= 1.99D-07  0.00D+00 EMaxC= 1.00D-01 BMatC= 2.62D-11 BMatP= 1.18D-10
 IDIUse=1 WtCom= 1.00D+00 WtEn= 0.00D+00
 Coeff-Com:  0.166D-05-0.190D-05 0.201D-04 0.399D-04 0.714D-04-0.476D-04
 Coeff-Com: -0.382D-03-0.663D-03 0.804D-03 0.551D-02 0.650D-02-0.643D-02
 Coeff-Com: -0.291D-01-0.120D+00 0.721D-01 0.418D+00 0.654D+00
 Coeff:      0.166D-05-0.190D-05 0.201D-04 0.399D-04 0.714D-04-0.476D-04
 Coeff:     -0.382D-03-0.663D-03 0.804D-03 0.551D-02 0.650D-02-0.643D-02
 Coeff:     -0.291D-01-0.120D+00 0.721D-01 0.418D+00 0.654D+00
 Gap=     0.145 Goal=   None    Shift=    0.000
 Gap=     0.090 Goal=   None    Shift=    0.000
 RMSDP=8.42D-09 MaxDP=1.12D-06 DE=-1.18D-10 OVMax= 2.76D-06

 Cycle  18  Pass 1  IDiag  1:
 RMSU=  5.42D-09    CP:  9.58D-01  1.93D+00  8.10D-01  6.14D-01  8.22D-01
                    CP:  1.28D+00  1.54D+00  1.52D+00  1.07D+00  1.23D+00
                    CP:  1.12D+00  1.28D+00  1.10D+00  1.48D+00  1.38D+00
                    CP:  1.34D+00  1.05D+00
 E= -1328.81564424232     Delta-E=        0.000000000025 Rises=F Damp=F
 DIIS: error= 1.12D-07 at cycle  18 NSaved=  18.
 NSaved=18 IEnMin=17 EnMin= -1328.81564424234     IErMin=18 ErrMin= 1.12D-07
 ErrMax= 1.12D-07  0.00D+00 EMaxC= 1.00D-01 BMatC= 8.68D-12 BMatP= 2.62D-11
 IDIUse=1 WtCom= 1.00D+00 WtEn= 0.00D+00
 Coeff-Com:  0.222D-06-0.759D-06 0.416D-05 0.127D-04 0.417D-04 0.115D-03
 Coeff-Com:  0.980D-04-0.375D-03-0.713D-03-0.995D-03 0.394D-03 0.124D-01
 Coeff-Com:  0.149D-01-0.194D-01-0.103D+00-0.142D+00 0.368D+00 0.871D+00
 Coeff:      0.222D-06-0.759D-06 0.416D-05 0.127D-04 0.417D-04 0.115D-03
 Coeff:      0.980D-04-0.375D-03-0.713D-03-0.995D-03 0.394D-03 0.124D-01
 Coeff:      0.149D-01-0.194D-01-0.103D+00-0.142D+00 0.368D+00 0.871D+00
 Gap=     0.145 Goal=   None    Shift=    0.000
 Gap=     0.090 Goal=   None    Shift=    0.000
 RMSDP=7.38D-09 MaxDP=8.48D-07 DE= 2.46D-11 OVMax= 3.28D-06

 Error on total polarization charges =  0.04472
 SCF Done:  E(UB3LYP) =  -1328.81564424     A.U. after   18 cycles
            NFock= 18  Conv=0.74D-08     -V/T= 2.0097
 <Sx>= 0.0000 <Sy>= 0.0000 <Sz>= 0.5000 <S**2>= 0.7721 S= 0.5110
 <L.S>= 0.000000000000E+00
[...]
 0000176,0.00000185,-0.00000103,0.00000035,-0.00000002,-0.00000089,-0.0
 0002703,0.00002231,-0.00001200,0.00000066,0.00000044,-0.00000104,0.000
 00407,-0.00000070,-0.00000278,-0.00000469,-0.00000063,0.00000817,0.000
 01324,-0.00002114,-0.00001452,-0.00000068,-0.00000029,-0.00000131,0.00
 000400,0.00000583,0.00000714,0.00000267,0.00000363,0.00000159,-0.10048
 773,-0.09189815,-0.00723247,0.10874915,0.09555461,0.00003931,-0.000158
 70,0.00000029,-0.00009666,-0.00013444,-0.00000280,-0.00002552,0.000105
 62,-0.00000468,-0.00012889,-0.00006761,-0.00000418,0.00010685,-0.00009
 824,0.00001112,0.00003563,0.00008934,-0.00000392,0.00000903,0.00025784
 ,0.00001548,0.00000657,-0.00000296,0.00000024,-0.00000107,-0.00000668,
 -0.00000023,-0.00000170,-0.00000592,0.00000084,0.00004733,0.00002191,0
 .00001355,-0.00036244,-0.00020968,0.00008060,0.00008445,-0.00001895,-0
 .00000437,-0.00004465,-0.00029868,-0.00000051,0.00053385,0.00073581,0.
 00056882,-0.00220078,-0.00053250,0.00028108,0.00006260,0.00264655,-0.0
 0433274,-0.00002639,-0.00003071,-0.00001255,0.00000359,-0.00002531,-0.
 00025650,-0.00002944,-0.00013509,-0.00017380,-0.02796119,-0.01140001,-
 0.00571483,0.00018918,-0.00033099,-0.00001612,-0.00006900,0.00002721,-
 0.00000231,0.00005867,0.00000818,0.00000025,0.00004174,-0.00000428,0.0
 0000203,-0.00000862,-0.00000411,-0.00000025,-0.00002989,0.00001270,-0.
 00000296,0.00001023,-0.00001181,0.00000593,-0.00000547,0.00000239,-0.0
 0000923,-0.00000484,0.00000560,0.00000414,-0.00000363,0.00000198,-0.00
 000114,0.00000118,-0.00000167,0.00000433,0.00000019,-0.00000044,0.0000
 0032,0.00000089,0.00000032,0.,0.00000090,-0.00000285,-0.00000244,0.000
 00079,-0.00000001,-0.00000006,0.00000045,-0.00000008,-0.00000046,0.000
 00037,0.00000129,-0.00000043,-0.00000268,0.00000033,0.00000073,-0.0000
 0017,0.00000032,-0.00000040,-0.00000242,-0.00000013,-0.00000051,-0.000
 00024,0.00000045,0.00000024,-0.00000125,-0.00000012,0.00000008,0.00000
 018,-0.00000046,0.00000011,-0.00000297,0.00010100,-0.00000973,-0.00070
 991,-0.00064574,0.00140832,0.00008761,-0.00007407,-0.00005257,0.000811
 80,0.00006565,-0.00011959,0.00010473,0.00019626,0.00040271,-0.00035667
 ,-0.00105514,0.00085163,0.00010426,0.00014851,0.00002804,0.00028583,-0
 .00031507,0.00006956,0.00043236,0.00048796,0.00020456,-0.00005004,-0.0
 0001329,-0.00000040,0.00000498,-0.00000407,0.00001126,0.00001170,-0.00
 000672,-0.00000680,-0.00001573,0.00001989,0.00000011,0.00000806,0.0000
 2658,-0.00004937,0.00000386,0.00000101,0.00001114,0.00000353,-0.000001
 43,-0.00000093,-0.00002210,0.00000745,0.00002057,-0.00004898,0.0000872
 8,0.00008176,0.00000602,0.00000062,-0.00000511,-0.00002977,-0.00000799
 ,-0.00004086,0.00000345,-0.00000603,-0.00000083,-0.01336387,-0.0064322
 1,-0.04528022,0.01845594,0.00524072,0.05058804,0.00001091,0.00002913,0
 .00000418,0.00002800,-0.00000807,0.00000817,0.00001268,-0.00002905,0.0
 0000158,0.00003782,0.00002295,0.00000094,-0.00002931,0.00003237,-0.000
 00320,-0.00000595,-0.00002471,0.00000055,-0.00006559,-0.00014380,-0.00
 001081,-0.00000205,0.00000120,-0.00000008,0.00000096,0.00000369,-0.000
 00019,0.00000094,0.00000278,-0.00000038,0.00005186,0.00010573,-0.00001
 036,-0.00223722,0.00066303,-0.00070261,0.00015320,0.00002058,-0.000050
 54,0.00010723,-0.00012278,-0.00001378,0.00012515,0.00021438,-0.0000053
 2,-0.00025854,-0.00000417,0.00004998,0.00069028,0.00060956,0.00058723,
 0.00002454,-0.00000858,0.00001818,0.00008508,-0.00002102,-0.00000130,0
 .00002627,0.00003762,-0.00002291,-0.00266704,0.01357885,-0.00074001,0.
 00210930,-0.00032216,0.00081394,0.00006552,0.00003619,0.00000364,-0.00
 002811,-0.00000415,-0.00000267,-0.00002013,0.00000305,-0.00000047,0.00
 000438,0.00000238,-0.00000020,0.00001587,-0.00000427,0.00000231,-0.000
 00641,0.00000591,-0.00000306,0.00000229,-0.00000156,0.00000391,0.00000
 244,-0.00000287,-0.00000211,0.00000162,-0.00000088,0.00000045,-0.00000
 087,0.00000090,-0.00000190,-0.00000006,0.00000024,-0.00000018,-0.00000
 035,0.00000017,0.00000048,-0.00000066,0.00000157,0.00000123,-0.0000003
 5,0.00000005,0.,-0.00000023,0.00000004,0.00000026,-0.00000013,-0.00000
 089,0.00000007,0.00000139,-0.00000014,-0.00000049,0.00000008,-0.000000
 16,0.00000021,0.00000144,0.00000022,0.00000046,0.00000009,-0.00000031,
 -0.00000020,0.00000101,0.00000008,0.00000005,-0.00000017,0.00000034,-0
 .00000003,-0.00004527,-0.00020377,0.00000691,0.00019791,-0.00055569,0.
 00083212,0.00059758,-0.00027022,-0.00010826,0.00001293,-0.00007200,-0.
 00003717,-0.00015407,-0.00005781,0.00002458,-0.00093895,0.00006743,-0.
 00252386,0.00000709,-0.00036741,-0.00007674,0.00042284,0.00093184,-0.0
 0034357,0.00034245,0.00023051,0.00003531,0.00002059,0.00000599,0.00000
 156,-0.00000230,-0.00000238,0.00000231,-0.00000147,-0.00000174,-0.0000
 0136,0.00000204,-0.00000990,0.00000080,0.00001407,-0.00003557,0.000033
 64,-0.00000225,0.00000091,-0.00000493,-0.00000787,-0.00000160,0.000003
 84,0.00001341,-0.00000295,-0.00001557,0.00000807,-0.00003092,-0.000027
 16,-0.00000191,0.00000042,0.00000465,0.00000969,-0.00000096,0.00001380
 ,-0.00000638,-0.00000185,-0.00000341,-0.04976670,0.01993446,0.00030702
 ,0.00352901,-0.02921485,0.00239629,0.04890122,-0.00000992,0.00001790,0
 .00000921,0.00000223,0.00003095,0.00001852,0.00000145,-0.00001557,-0.0
 0000138,0.00001690,0.00000806,-0.00000018,-0.00001466,0.00001188,-0.00
 000218,-0.00000669,-0.00001150,-0.00000036,0.00003381,-0.00005400,-0.0
 0003190,-0.00000216,-0.00000053,0.00000055,0.00000003,0.00000052,-0.00
 000017,0.00000011,0.00000042,-0.00000049,-0.00005000,-0.00005673,-0.00
 002237,0.00007813,-0.00002445,-0.00021718,0.00010466,0.00013439,0.0004
 8025,-0.00005228,0.00014754,-0.00007201,-0.00012036,-0.00019166,0.0000
 0736,0.00026407,-0.00005533,-0.00000035,-0.00037132,-0.00017353,-0.000
 04629,0.00000091,0.00000847,-0.00006866,-0.00006246,0.00001232,0.00000
 794,-0.00000588,0.00000571,0.00001198,0.00028018,-0.00689820,-0.000112
 64,-0.00147135,-0.00187514,-0.00245983,0.00000600,-0.00000350,-0.00000
 476,-0.00000465,0.00000053,0.00000121,-0.00000254,-0.00000082,0.000001
 04,0.00000047,0.00000028,0.00000026,0.00000145,-0.00000039,-0.00000068
 ,-0.00000008,0.00000010,0.,0.00000040,-0.00000012,0.00000075,0.0000002
 2,-0.00000025,-0.00000014,0.00000013,0.00000008,-0.00000002,-0.0000000
 3,-0.00000013,-0.00000017,-0.00000002,0.00000025,-0.00000005,-0.000000
 11,-0.00000028,-0.00000018,0.,-0.00000012,0.00000016,-0.00000008,0.000
 00017,-0.00000002,0.,-0.00000008,-0.00000006,-0.00000008,-0.00000008,0
 .00000017,0.00000019,-0.00000002,-0.00000012,-0.00000007,0.00000017,-0
 .00000002,0.00000007,-0.00000003,-0.00000004,-0.00000003,0.00000017,-0
 .00000004,-0.00000005,-0.00000005,-0.00000006,0.00000003,0.00000017,-0
 .00000006,0.00001256,0.00005773,-0.00000606,-0.00013760,0.00027938,-0.
 00054614,-0.00038678,0.00038169,0.00026516,0.00000811,0.00000880,0.000
 04554,0.00003253,0.00016366,0.00003394,0.00119372,0.00073170,0.0023704
 9,-0.00005524,0.00015742,-0.00013031,0.00003053,-0.00056172,-0.0000067
 9,0.00002613,0.00025406,-0.00012962,-0.00000214,-0.00000123,-0.0000021
 8,-0.00000009,0.00000264,-0.00000532,-0.00000153,0.00000238,0.00000456
 ,0.00000368,0.00000076,0.00000014,-0.00000127,0.00000419,-0.00000167,-
 0.00000023,-0.00000087,0.00000033,0.00000250,0.00000075,-0.00000143,-0
 .00000019,-0.00000054,0.00000033,-0.00000442,0.00000218,-0.00000380,-0
 .00000003,-0.00000056,-0.00000157,0.00000151,0.00000225,-0.00000015,0.
 00000410,0.00000479,0.00000272,0.02262577,-0.32286735,0.02327868,0.001
 63951,-0.00990826,0.00057741,-0.02363966,0.34843524,0.00001690,0.00001
 025,0.00000714,0.00001757,-0.00003321,0.00001187,0.00000744,-0.0000091
 0,0.00000048,0.00001516,0.00001115,-0.00000014,-0.00001114,0.00001537,
 -0.00000189,0.00000162,-0.00001069,0.00000067,-0.00009988,-0.00009152,
 0.00000033,-0.00000174,0.00000040,0.00000172,0.00000063,0.00000236,0.0
 0000011,0.00000070,0.00000169,-0.00000012,0.00007237,0.00012516,-0.000
 02149,-0.00194744,0.00135631,-0.00067902,0.00019302,-0.00016368,-0.000
 00645,0.00012012,-0.00010981,-0.00001022,0.00020042,0.00024149,-0.0000
 0334,-0.00045497,0.00006630,0.00008267,0.00123682,-0.00021929,0.000898
 32,0.00002568,-0.00001867,0.00001106,0.00012608,-0.00002380,-0.0000140
 1,0.00001855,0.00001793,-0.00002695,-0.00129853,0.02874327,-0.00267625
 ,0.00157127,-0.00075605,0.00085322,0.00005403,0.00003006,0.00000065,-0
 .00001706,-0.00000156,0.00000067,-0.00001283,0.00000358,0.00000005,0.0
 0000286,0.00000139,0.00000021,0.00000991,-0.00000366,0.00000029,-0.000
 00388,0.00000396,-0.00000147,0.00000168,-0.00000068,0.00000291,0.00000
 158,-0.00000175,-0.00000112,0.00000105,-0.00000058,0.00000032,-0.00000
 038,0.00000052,-0.00000134,0.,0.00000019,-0.00000009,-0.00000029,-0.00
 000015,0.00000006,-0.00000039,0.00000093,0.00000077,-0.00000024,-0.000
 00002,0.00000003,-0.00000011,0.00000003,-0.00000009,-0.00000006,-0.000
 00043,0.00000019,0.00000094,-0.00000007,-0.00000036,0.00000003,-0.0000
 0010,0.00000016,0.00000078,0.00000005,0.00000015,0.00000009,-0.0000001
 6,-0.00000009,0.00000050,0.00000004,-0.00000006,-0.00000008,0.00000016
 ,-0.00000003,-0.00006272,-0.00022089,0.00002191,-0.00003486,0.00055582
 ,0.00181185,0.00026910,-0.00032487,-0.00032416,0.00003866,-0.00001906,
 -0.00008147,-0.00013015,-0.00015373,0.00022181,-0.00271557,0.00066576,
 -0.00537777,-0.00020465,0.00001572,0.00019538,-0.00036057,0.00208049,-
 0.00017015,0.00008985,-0.00034054,-0.00004187,0.00001315,0.00000290,-0
 .00000172,0.00000030,-0.00000289,0.00000533,-0.00000015,-0.00000198,-0
 .00000265,-0.00000097,-0.00000645,0.00000088,0.00001303,-0.00002574,0.
 00001947,-0.00000081,-0.00000064,-0.00000222,-0.00000643,-0.00000214,0
 .00000483,0.00000814,-0.00000257,-0.00001094,0.00000210,-0.00001528,-0
 .00001475,-0.00000084,0.00000054,0.00000318,0.00000494,-0.00000135,0.0
 0000695,-0.00000516,-0.00000236,-0.00000265,0.00039121,0.01850852,-0.0
 4924382,0.00038583,-0.00149133,-0.00078411,0.00202678,-0.02416629,0.05
 246994,-0.00001062,0.00003468,-0.00000083,0.00002160,0.00002694,-0.000
 00032,0.00000533,-0.00002341,0.00000085,0.00002978,0.00001510,0.000000
 79,-0.00002457,0.00002262,-0.00000259,-0.00000711,-0.00002060,0.000000
 60,-0.00001565,-0.00004718,-0.00000072,-0.00000142,0.00000001,0.000000
 22,0.00000014,0.00000150,0.00000022,0.00000054,0.00000141,0.00000001,-
 0.00000608,-0.00000952,0.00000004,0.00022614,0.00027179,0.00004426,0.0
 0000683,-0.00004392,-0.00000958,0.00000767,0.00008914,-0.00001870,-0.0
 0020317,-0.00016285,-0.00003666,0.00064033,0.00023727,0.00003684,0.000
 96488,-0.00053262,-0.00062538,0.00000500,0.00000615,0.00000417,0.00000
 531,0.00000933,0.00000292,0.00000786,0.00002375,0.00001514,0.00667877,
 -0.00523858,-0.01104905,-0.00002466,-0.00001111,0.00014299,0.00001636,
 -0.00001056,0.00000039,-0.00001422,-0.00000204,-0.00000003,-0.00001132
 ,0.00000094,-0.00000049,0.00000217,0.00000119,0.00000013,0.00000803,-0
 .00000320,0.00000040,-0.00000323,0.00000308,-0.00000152,0.00000145,-0.
 00000067,0.00000267,0.00000129,-0.00000155,-0.00000103,0.00000092,-0.0
 0000049,0.00000029,-0.00000049,0.00000050,-0.00000111,-0.00000003,0.00
 000016,-0.00000012,-0.00000040,-0.00000019,-0.00000007,-0.00000039,0.0
 0000082,0.00000068,-0.00000021,0.,0.00000004,-0.00000008,0.00000002,-0
 .00000006,-0.00000011,-0.00000040,0.00000019,0.00000088,-0.00000005,-0
 .00000042,0.00000002,-0.00000014,0.00000016,0.00000069,0.00000003,0.00
 000011,0.00000006,-0.00000013,-0.00000008,0.00000053,0.00000001,-0.000
 00004,-0.00000008,0.00000016,-0.00000005,-0.00000189,-0.00001835,0.000
 00008,-0.00064137,0.00069646,-0.00224667,-0.00017027,0.00004967,0.0000
 3812,0.00025327,0.00011877,-0.00015292,0.00074214,-0.00006049,-0.00063
 263,0.00031614,-0.00050329,0.00000109,0.00008138,-0.00008902,0.0003090
 8,0.00000949,-0.00023743,0.00000929,0.00000235,0.00009759,0.00002629,0
 .00001016,0.00000280,0.00000016,-0.00000184,0.00000151,-0.00000257,-0.
 00000416,0.00000192,-0.00000360,0.00000367,-0.00000447,0.00000009,-0.0
 0000332,-0.00000994,0.00001310,-0.00004478,0.00000481,-0.00002320,-0.0
 0000153,0.00000053,-0.00000082,0.00000563,-0.00000056,-0.00000531,0.00
 000608,-0.00001701,-0.00001608,-0.00000138,0.00000014,0.00000118,0.000
 00613,0.00000073,0.00000782,-0.00000113,0.00000071,-0.00000015,-0.1344
 2625,0.05261410,0.11408543,-0.01486744,0.01126927,0.02165257,-0.001388
 95,0.00003195,0.00043102,0.14180910,0.00000229,-0.00002256,0.00000298,
 -0.00001802,-0.00000687,0.00000299,-0.00000258,0.00001033,-0.00000033,
 -0.00001447,-0.00000758,-0.00000015,0.00001179,-0.00001149,0.00000122,
 0.00000224,0.00001017,-0.00000081,0.00002313,0.00002149,-0.00000790,0.
 00000096,-0.00000023,-0.00000052,-0.00000013,-0.00000089,-0.00000044,-
 0.00000024,-0.00000079,-0.00000027,-0.00001717,-0.00002722,-0.00000296
 ,0.00032946,-0.00021445,0.00000805,0.00001086,0.00004312,0.00008857,-0
 .00003424,0.00004900,-0.00001804,0.00003800,-0.00002555,0.00004848,-0.
 00010105,-0.00008129,-0.00007229,-0.00010274,0.00009128,-0.00025211,-0
 .00000829,0.00000058,-0.00000886,0.00002239,0.00001099,-0.00000854,-0.
 00001157,-0.00001084,-0.00002384,-0.00504041,0.00115134,0.00604441,-0.
 00070665,-0.00044297,-0.00048453,-0.00001434,0.00000449,-0.00000063,0.
 00000679,0.00000014,-0.00000222,0.00000579,-0.00000212,0.00000042,-0.0
 0000124,-0.00000030,-0.00000037,-0.00000353,0.00000301,0.00000097,0.00
 000086,-0.00000163,0.00000020,-0.00000109,-0.00000019,-0.00000188,-0.0
 0000066,0.00000062,0.00000030,-0.00000055,0.00000025,-0.00000022,-0.00
 000010,-0.00000007,0.00000071,0.,-0.00000010,0.00000004,0.00000030,0.0
 0000043,0.00000045,0.,-0.00000018,-0.00000034,0.00000013,0.00000004,0.
 ,0.,0.00000001,0.00000021,0.00000005,-0.00000004,-0.00000026,-0.000000
 42,0.00000001,0.00000017,-0.00000002,0.00000004,-0.00000010,-0.0000001
 0,0.00000013,0.00000016,-0.00000005,-0.00000005,-0.00000002,0.00000010
 ,0.00000001,0.00000012,-0.00000002,0.,0.00000005,0.00001792,0.00005602
 ,-0.00000426,0.00049581,-0.00006484,0.00162419,-0.00009520,0.00015823,
 0.00013895,0.00023498,-0.00006821,-0.00011488,-0.00010480,0.00049515,0
 .00040695,-0.00064113,0.00063736,0.00083584,0.00020759,-0.00019376,-0.
 00008448,-0.00009762,0.00011783,-0.00016404,-0.00004179,-0.00002025,0.
 00001752,-0.00000589,-0.00000160,0.00000172,0.00000070,-0.00000002,0.0
 0000243,0.00000423,0.00000130,0.00000127,-0.00000154,0.00000245,-0.000
 00018,0.00000279,0.00000716,-0.00001266,0.00000332,0.00000354,0.000004
 88,-0.00000006,-0.00000150,-0.00000113,-0.00000264,0.00000031,0.000005
 16,-0.00000818,0.00001754,0.00001387,0.00000091,0.00000005,-0.00000030
 ,-0.00000375,-0.00000096,-0.00000740,0.00000150,-0.00000092,0.00000097
 ,0.05285724,-0.08328017,-0.07145986,-0.00723638,0.00466421,0.01116602,
 0.01862428,-0.00816662,-0.02423925,-0.05858778,0.08509765,-0.00000563,
 -0.00001610,-0.00000215,-0.00000826,-0.00000508,-0.00000650,-0.0000035
 6,0.00001165,0.00000037,-0.00001399,-0.00000859,0.00000019,0.00001100,
 -0.00001229,0.00000170,0.00000272,0.00000962,0.00000024,-0.00000592,0.
 00005723,-0.00001422,0.00000098,-0.00000014,-0.00000089,-0.00000020,-0
 .00000091,-0.00000015,-0.00000018,-0.00000102,-0.00000018,-0.00000777,
 -0.00002294,0.00001627,0.00014341,-0.00029113,-0.00009023,-0.00000246,
 -0.00009909,-0.00002834,-0.00000723,-0.00000259,0.00000111,0.00001970,
 0.00008966,-0.00010541,-0.00046015,0.00002718,-0.00012798,0.00214232,0
 .00027721,0.00024916,-0.00001004,-0.00000184,0.00000784,-0.00000826,0.
 00001219,0.00002939,-0.00000870,-0.00002863,0.00004387,0.01470157,-0.0
 0974164,-0.02055412,-0.00034304,-0.00012379,0.00000222,-0.00002264,-0.
 00001799,0.00000344,0.00001055,-0.00000023,-0.00000273,0.00000832,-0.0
 0000217,0.00000004,-0.00000142,-0.00000052,-0.00000039,-0.00000549,0.0
 0000400,0.00000085,0.00000198,-0.00000296,0.00000078,-0.00000143,-0.00
 000006,-0.00000242,-0.00000099,0.00000097,0.00000038,-0.00000077,0.000
 00056,-0.00000042,0.00000018,-0.00000053,0.00000105,0.00000002,0.00000
 011,0.00000009,0.00000052,0.00000036,0.00000059,0.00000020,-0.00000055
 ,-0.00000042,0.00000020,0.00000017,-0.00000003,0.00000001,-0.00000002,
 0.00000031,0.00000006,0.00000006,-0.00000036,-0.00000061,0.00000002,0.
 00000028,-0.00000010,0.00000028,-0.00000022,-0.00000026,0.00000015,0.0
 0000014,-0.00000011,0.00000010,-0.00000008,-0.00000015,0.,0.00000015,0
 .00000003,0.00000008,0.00000008,0.00001819,0.00005397,-0.00001023,-0.0
 0395148,0.00215005,-0.00478543,-0.00010704,0.00000660,0.00024642,-0.00
 005031,0.00018052,0.00034635,0.00116653,-0.00060208,-0.00159932,0.0006
 9655,-0.00143258,0.00074694,-0.00013900,0.00059883,0.00020446,-0.00027
 860,-0.00003782,0.00027966,-0.00002517,0.00010346,-0.00002074,-0.00001
 010,-0.00000484,-0.00000439,0.00000246,-0.00000123,0.00000288,0.000003
 01,0.00000149,0.00000504,-0.00000098,0.00000438,0.00000084,-0.00001472
 ,0.00002031,-0.00002472,0.00001805,0.00000139,0.00001470,0.00000249,-0
 .00000018,-0.00000037,-0.00000653,-0.00000131,0.00001162,0.00000002,0.
 00000767,0.00000612,0.00000068,-0.00000079,0.00000059,-0.00000437,0.00
 000123,-0.00000381,0.00000200,0.00000046,0.00000080,0.11264082,-0.0700
 0823,-0.19664143,-0.00161772,0.00136704,0.00223008,-0.00247259,0.00092
 504,0.00286724,-0.12199663,0.07655580,0.21670340\\0.00000039,0.0000002
 7,0.00000150,0.00000031,0.00000058,0.00000170,0.00000058,-0.00000010,0
 .00000232,0.00000044,0.00000028,0.00000279,0.00000145,-0.00000010,0.00
 000265,0.00000044,0.00000048,0.00000193,-0.00000028,0.00000043,0.00000
 055,0.00000071,0.00000070,0.00000262,0.00000100,0.00000062,0.00000331,
 0.00000086,-0.00000015,0.00000285,0.00000008,0.00000023,0.00000124,-0.
 00000016,0.00000071,-0.00000007,-0.00000011,0.00000009,0.00000007,-0.0
 0000051,0.00000021,-0.00000061,0.00000054,-0.00000006,-0.00000103,-0.0
 0000122,-0.00000042,-0.00000140,0.00000011,0.00000016,-0.00000069,0.00
 000022,-0.00000011,-0.00000044,-0.00000064,0.00000079,-0.00000175,-0.0
 0000087,0.00000023,-0.00000133,-0.00000070,0.00000075,-0.00000150,-0.0
 0000020,0.00000087,0.00000035,0.00000070,-0.00000013,0.00000078,0.0000
 0019,-0.00000010,0.00000055,0.00000054,0.00000015,0.00000153,0.0000005
 9,-0.00000057,0.00000196,0.00000096,-0.00000086,0.00000099,0.00000024,
 -0.00000022,0.00000063,0.00000006,-0.00000025,0.00000071,0.00000022,-0
 .00000139,0.00000143,0.00000020,-0.00000073,0.00000021,0.00000003,-0.0
 0000080,0.00000058,0.00000035,0.00000011,0.00000133,0.00000022,0.00000
 051,0.00000068,0.00000084,-0.00000199,0.00000058,0.00000072,-0.0000011
 1,0.00000157,0.00000087,-0.00000150,0.00000071,0.00000026,-0.00000078,
 0.00000106,0.00000014,0.00000017,0.00000040,0.00000003,-0.00000001,-0.
 00000017,0.00000080,-0.00000173,0.00000110,0.00000039,-0.00000120,0.00
 000009,0.00000073,-0.00000115,0.00000050,0.00000052,-0.00000055,0.0000
 0123,0.00000049,0.00000067,0.00000118,-0.00000026,0.00000041,-0.000000
 51,-0.00000017,0.00000037,-0.00000002,-0.00000029,0.00000061,-0.000000
 67,-0.00000021,-0.00000017,-0.00000065,-0.00000039,0.00000074,-0.00000
 067,-0.00000077,0.00000096,-0.00000214,-0.00000091,0.00000037,-0.00000
 234,-0.00000078,0.00000090,-0.00000174,-0.00000116,-0.00000019,-0.0000
 0281,-0.00000065,-0.00000047,-0.00000236,-0.00000069,0.00000044,-0.000
 00222,-0.00000050,-0.00000057,-0.00000272,-0.00000080,0.00000023,-0.00
 000228,-0.00000045,0.00000082,-0.00000136,-0.00000045,0.00000025,-0.00
 000121,-0.00000065,0.00000001,-0.00000215,-0.00000047,-0.00000072,-0.0
 0000204,-0.00000032,-0.00000128,-0.00000150,-0.00000024,-0.00000116,-0
 .00000203,-0.00000014,-0.00000110,-0.00000120,-0.00000081,0.00000190,0
 .00000012,-0.00000060,0.00000172,-0.00000079,-0.00000037,0.00000124,-0
 .00000012,-0.00000046,0.00000167,-0.00000125\\\@


 Everything starts as somebody's daydream.
                           -- Larry Niven
 Job cpu time:       0 days 14 hours 21 minutes 33.0 seconds.
 Elapsed time:       0 days  0 hours 54 minutes  4.4 seconds.
 File lengths (MBytes):  RWF=   5892 Int=      0 D2E=      0 Chk=     84 Scr=      8
 Normal termination of Gaussian 16 at Fri Dec 21 14:46:28 2018.
