 Entering Gaussian System, Link 0=g16
 Initial command:
 /gpfs/apps/hpc/Apps/Restricted/Gaussian/g16/Rev_B.01-AVX/g16/l1.exe "/gpfs/scratch60/fas/hammes_schiffer/jg2487/c42n03/Gau-289368.inp" -scrdir="/gpfs/scratch60/fas/hammes_schiffer/jg2487/c42n03/"
 Entering Link 1 = /gpfs/apps/hpc/Apps/Restricted/Gaussian/g16/Rev_B.01-AVX/g16/l1.exe PID=    289369.
  
 Copyright (c) 1988-2017, Gaussian, Inc.  All Rights Reserved.
  
 This is part of the Gaussian(R) 16 program.  It is based on
 the Gaussian(R) 09 system (copyright 2009, Gaussian, Inc.),
 the Gaussian(R) 03 system (copyright 2003, Gaussian, Inc.),
 the Gaussian(R) 98 system (copyright 1998, Gaussian, Inc.),
 the Gaussian(R) 94 system (copyright 1995, Gaussian, Inc.),
 the Gaussian 92(TM) system (copyright 1992, Gaussian, Inc.),
 the Gaussian 90(TM) system (copyright 1990, Gaussian, Inc.),
 the Gaussian 88(TM) system (copyright 1988, Gaussian, Inc.),
 the Gaussian 86(TM) system (copyright 1986, Carnegie Mellon
 University), and the Gaussian 82(TM) system (copyright 1983,
 Carnegie Mellon University). Gaussian is a federally registered
 trademark of Gaussian, Inc.
  
 This software contains proprietary and confidential information,
 including trade secrets, belonging to Gaussian, Inc.
  
 This software is provided under written license and may be
 used, copied, transmitted, or stored only in accord with that
 written license.
  
 The following legend is applicable only to US Government
 contracts under FAR:
  
                    RESTRICTED RIGHTS LEGEND
  
 Use, reproduction and disclosure by the US Government is
 subject to restrictions as set forth in subparagraphs (a)
 and (c) of the Commercial Computer Software - Restricted
 Rights clause in FAR 52.227-19.
  
 Gaussian, Inc.
 340 Quinnipiac St., Bldg. 40, Wallingford CT 06492
  
  
 ---------------------------------------------------------------
 Warning -- This program may not be used in any manner that
 competes with the business of Gaussian, Inc. or will provide
 assistance to any competitor of Gaussian, Inc.  The licensee
 of this program is prohibited from giving any competitor of
 Gaussian, Inc. access to this program.  By using this program,
 the user acknowledges that Gaussian, Inc. is engaged in the
 business of creating and licensing software in the field of
 computational chemistry and represents and warrants to the
 licensee that it is not a competitor of Gaussian, Inc. and that
 it will not use this program in any manner prohibited above.
 ---------------------------------------------------------------
  

 Cite this work as:
 Gaussian 16, Revision B.01,
 M. J. Frisch, G. W. Trucks, H. B. Schlegel, G. E. Scuseria, 
 M. A. Robb, J. R. Cheeseman, G. Scalmani, V. Barone, 
 G. A. Petersson, H. Nakatsuji, X. Li, M. Caricato, A. V. Marenich, 
 J. Bloino, B. G. Janesko, R. Gomperts, B. Mennucci, H. P. Hratchian, 
 J. V. Ortiz, A. F. Izmaylov, J. L. Sonnenberg, D. Williams-Young, 
 F. Ding, F. Lipparini, F. Egidi, J. Goings, B. Peng, A. Petrone, 
 T. Henderson, D. Ranasinghe, V. G. Zakrzewski, J. Gao, N. Rega, 
 G. Zheng, W. Liang, M. Hada, M. Ehara, K. Toyota, R. Fukuda, 
 J. Hasegawa, M. Ishida, T. Nakajima, Y. Honda, O. Kitao, H. Nakai, 
 T. Vreven, K. Throssell, J. A. Montgomery, Jr., J. E. Peralta, 
 F. Ogliaro, M. J. Bearpark, J. J. Heyd, E. N. Brothers, K. N. Kudin, 
 V. N. Staroverov, T. A. Keith, R. Kobayashi, J. Normand, 
 K. Raghavachari, A. P. Rendell, J. C. Burant, S. S. Iyengar, 
 J. Tomasi, M. Cossi, J. M. Millam, M. Klene, C. Adamo, R. Cammi, 
 J. W. Ochterski, R. L. Martin, K. Morokuma, O. Farkas, 
 J. B. Foresman, and D. J. Fox, Gaussian, Inc., Wallingford CT, 2016.
 
 ******************************************
 Gaussian 16:  ES64L-G16RevB.01 20-Dec-2017
                12-Feb-2019 
 ******************************************
 %chk=amide-monoBIP-E2PTz.chk
 %mem=10GB
 %nprocshared=16
 Will use up to   16 processors via shared memory.
 ----------------------------------------------------------------------
 #p opt=tight freq=internalmodes b3lyp/6-31g(d,p) scrf=(cpcm,solvent=di
 chloromethane,read) nosymm empiricaldispersion=gd3bj int=grid=ultrafin
 e
 ----------------------------------------------------------------------
 1/7=10,18=20,19=15,26=6,38=1,40=2/1,3;
 2/9=110,12=2,15=1,17=6,18=5,40=1/2;
 3/5=1,6=6,7=101,11=2,25=1,30=1,70=2103,71=1,72=9,74=-5,75=-5,124=41/1,2,3;
 4//1;
 5/5=2,38=5,53=9/2;
 6/7=2,8=2,9=2,10=2,28=1/1;
 7/30=1/1,2,3,16;
 1/7=10,18=20,19=15,26=6/3(2);
 2/9=110,15=1/2;
 99//99;
 2/9=110,15=1/2;
 3/5=1,6=6,7=101,11=2,25=1,30=1,70=2105,71=1,72=9,74=-5,75=-5,124=41/1,2,3;
 4/5=5,16=3,69=1/1;
 5/5=2,38=5,53=9/2;
 7/30=1/1,2,3,16;
 1/7=10,18=20,19=15,26=6/3(-5);
 2/9=110,15=1/2;
 6/7=2,8=2,9=2,10=2,19=2,28=1/1;
 99/9=1/99;
 Leave Link    1 at Tue Feb 12 18:04:26 2019, MaxMem=  1342177280 cpu:               7.3 elap:               0.5
 (Enter /gpfs/apps/hpc/Apps/Restricted/Gaussian/g16/Rev_B.01-AVX/g16/l101.exe)
 ----------------------------------------------------------------------
 Simple amide-monoBIP E2PT optimization, final proton on amide nitrogen
 ----------------------------------------------------------------------
 Symbolic Z-matrix:
 Charge =  1 Multiplicity = 2
 C                    -0.46043   2.73552   0.44632 
 C                    -1.86938   2.86098   0.31912 
 C                    -2.45923   4.12806   0.21212 
 C                    -1.61183   5.2264    0.23978 
 C                    -0.21295   5.08783   0.36666 
 C                     0.40348   3.84109   0.47084 
 C                    -1.40216   0.73696   0.43937 
 H                    -3.53118   4.23901   0.11128 
 H                    -2.02798   6.22321   0.16285 
 H                     0.38515   5.99075   0.38624 
 N                    -2.41829   1.60056   0.32007 
 C                    -2.98182  -1.17836   0.35049 
 C                    -1.61015  -0.69135   0.4564 
 C                    -0.57508  -1.6008    0.54441 
 C                    -0.8251   -2.9862    0.53631 
 C                    -2.16795  -3.43647   0.44223 
 C                    -3.25664  -2.59666   0.3529 
 H                     0.44529  -1.24766   0.61456 
 H                    -2.34015  -4.49989   0.44021 
 C                     0.34458  -3.95344   0.60054 
 C                    -4.68749  -3.12415   0.25374 
 O                    -3.96411  -0.33474   0.24371 
 N                    -0.20671   1.39093   0.52119 
 C                     1.86856   3.58919   0.59277 
 C                     1.23136  -3.71279  -0.64446 
 H                     1.5986   -2.68539  -0.68099 
 H                     2.09334  -4.38335  -0.60486 
 H                     0.67709  -3.91621  -1.5635 
 C                     1.17192  -3.66553   1.87407 
 H                     0.57311  -3.82569   2.77332 
 H                     2.02653  -4.34577   1.90307 
 H                     1.55379  -2.64293   1.88896 
 C                    -0.09979  -5.42173   0.62071 
 H                    -0.71756  -5.64563   1.49408 
 H                    -0.65775  -5.68884  -0.28029 
 H                     0.78521  -6.05917   0.66566 
 C                    -5.31826  -2.68134  -1.08627 
 H                    -6.3275   -3.0945   -1.15551 
 H                    -5.38528  -1.59744  -1.16896 
 H                    -4.73623  -3.06142  -1.92932 
 C                    -5.52564  -2.59131   1.4386 
 H                    -5.6152   -1.50635   1.41633 
 H                    -6.5285   -3.02215   1.38675 
 H                    -5.07547  -2.8852    2.3899 
 C                    -4.71416  -4.6602    0.30564 
 H                    -4.1592   -5.1041   -0.52484 
 H                    -4.29884  -5.03995   1.24254 
 H                    -5.75016  -4.99682   0.23544 
 O                     2.29259   2.42583   0.70211 
 N                     2.69305   4.65335   0.58715 
 H                     2.35968   5.32984  -0.06953 
 H                     3.61306   4.36084   0.32638 
 H                    -3.38917   1.37272   0.24597 
 H                     2.71884   5.05985   1.50043 
 
 ITRead=  0  0  0  0  0  0  0  0  0  0  0  0  0  0  0  0  0  0  0  0
 ITRead=  0  0  0  0  0  0  0  0  0  0  0  0  0  0  0  0  0  0  0  0
 ITRead=  0  0  0  0  0  0  0  0  0  0  0  0  0  0
 MicOpt= -1 -1 -1 -1 -1 -1 -1 -1 -1 -1 -1 -1 -1 -1 -1 -1 -1 -1 -1 -1
 MicOpt= -1 -1 -1 -1 -1 -1 -1 -1 -1 -1 -1 -1 -1 -1 -1 -1 -1 -1 -1 -1
 MicOpt= -1 -1 -1 -1 -1 -1 -1 -1 -1 -1 -1 -1 -1 -1
 NAtoms=     54 NQM=       54 NQMF=       0 NMMI=      0 NMMIF=      0
                NMic=       0 NMicF=      0.
                    Isotopes and Nuclear Properties:
 (Nuclear quadrupole moments (NQMom) in fm**2, nuclear magnetic moments (NMagM)
  in nuclear magnetons)

  Atom         1           2           3           4           5           6           7           8           9          10
 IAtWgt=          12          12          12          12          12          12          12           1           1           1
 AtmWgt=  12.0000000  12.0000000  12.0000000  12.0000000  12.0000000  12.0000000  12.0000000   1.0078250   1.0078250   1.0078250
 NucSpn=           0           0           0           0           0           0           0           1           1           1
 AtZEff=  -0.0000000  -0.0000000  -0.0000000  -0.0000000  -0.0000000  -0.0000000  -0.0000000  -0.0000000  -0.0000000  -0.0000000
 NQMom=    0.0000000   0.0000000   0.0000000   0.0000000   0.0000000   0.0000000   0.0000000   0.0000000   0.0000000   0.0000000
 NMagM=    0.0000000   0.0000000   0.0000000   0.0000000   0.0000000   0.0000000   0.0000000   2.7928460   2.7928460   2.7928460
 AtZNuc=   6.0000000   6.0000000   6.0000000   6.0000000   6.0000000   6.0000000   6.0000000   1.0000000   1.0000000   1.0000000

  Atom        11          12          13          14          15          16          17          18          19          20
 IAtWgt=          14          12          12          12          12          12          12           1           1          12
 AtmWgt=  14.0030740  12.0000000  12.0000000  12.0000000  12.0000000  12.0000000  12.0000000   1.0078250   1.0078250  12.0000000
 NucSpn=           2           0           0           0           0           0           0           1           1           0
 AtZEff=  -0.0000000  -0.0000000  -0.0000000  -0.0000000  -0.0000000  -0.0000000  -0.0000000  -0.0000000  -0.0000000  -0.0000000
 NQMom=    2.0440000   0.0000000   0.0000000   0.0000000   0.0000000   0.0000000   0.0000000   0.0000000   0.0000000   0.0000000
 NMagM=    0.4037610   0.0000000   0.0000000   0.0000000   0.0000000   0.0000000   0.0000000   2.7928460   2.7928460   0.0000000
 AtZNuc=   7.0000000   6.0000000   6.0000000   6.0000000   6.0000000   6.0000000   6.0000000   1.0000000   1.0000000   6.0000000

  Atom        21          22          23          24          25          26          27          28          29          30
 IAtWgt=          12          16          14          12          12           1           1           1          12           1
 AtmWgt=  12.0000000  15.9949146  14.0030740  12.0000000  12.0000000   1.0078250   1.0078250   1.0078250  12.0000000   1.0078250
 NucSpn=           0           0           2           0           0           1           1           1           0           1
 AtZEff=  -0.0000000  -0.0000000  -0.0000000  -0.0000000  -0.0000000  -0.0000000  -0.0000000  -0.0000000  -0.0000000  -0.0000000
 NQMom=    0.0000000   0.0000000   2.0440000   0.0000000   0.0000000   0.0000000   0.0000000   0.0000000   0.0000000   0.0000000
 NMagM=    0.0000000   0.0000000   0.4037610   0.0000000   0.0000000   2.7928460   2.7928460   2.7928460   0.0000000   2.7928460
 AtZNuc=   6.0000000   8.0000000   7.0000000   6.0000000   6.0000000   1.0000000   1.0000000   1.0000000   6.0000000   1.0000000

  Atom        31          32          33          34          35          36          37          38          39          40
 IAtWgt=           1           1          12           1           1           1          12           1           1           1
 AtmWgt=   1.0078250   1.0078250  12.0000000   1.0078250   1.0078250   1.0078250  12.0000000   1.0078250   1.0078250   1.0078250
 NucSpn=           1           1           0           1           1           1           0           1           1           1
 AtZEff=  -0.0000000  -0.0000000  -0.0000000  -0.0000000  -0.0000000  -0.0000000  -0.0000000  -0.0000000  -0.0000000  -0.0000000
 NQMom=    0.0000000   0.0000000   0.0000000   0.0000000   0.0000000   0.0000000   0.0000000   0.0000000   0.0000000   0.0000000
 NMagM=    2.7928460   2.7928460   0.0000000   2.7928460   2.7928460   2.7928460   0.0000000   2.7928460   2.7928460   2.7928460
 AtZNuc=   1.0000000   1.0000000   6.0000000   1.0000000   1.0000000   1.0000000   6.0000000   1.0000000   1.0000000   1.0000000

  Atom        41          42          43          44          45          46          47          48          49          50
 IAtWgt=          12           1           1           1          12           1           1           1          16          14
 AtmWgt=  12.0000000   1.0078250   1.0078250   1.0078250  12.0000000   1.0078250   1.0078250   1.0078250  15.9949146  14.0030740
 NucSpn=           0           1           1           1           0           1           1           1           0           2
 AtZEff=  -0.0000000  -0.0000000  -0.0000000  -0.0000000  -0.0000000  -0.0000000  -0.0000000  -0.0000000  -0.0000000  -0.0000000
 NQMom=    0.0000000   0.0000000   0.0000000   0.0000000   0.0000000   0.0000000   0.0000000   0.0000000   0.0000000   2.0440000
 NMagM=    0.0000000   2.7928460   2.7928460   2.7928460   0.0000000   2.7928460   2.7928460   2.7928460   0.0000000   0.4037610
 AtZNuc=   6.0000000   1.0000000   1.0000000   1.0000000   6.0000000   1.0000000   1.0000000   1.0000000   8.0000000   7.0000000

  Atom        51          52          53          54
 IAtWgt=           1           1           1           1
 AtmWgt=   1.0078250   1.0078250   1.0078250   1.0078250
 NucSpn=           1           1           1           1
 AtZEff=  -0.0000000  -0.0000000  -0.0000000  -0.0000000
 NQMom=    0.0000000   0.0000000   0.0000000   0.0000000
 NMagM=    2.7928460   2.7928460   2.7928460   2.7928460
 AtZNuc=   1.0000000   1.0000000   1.0000000   1.0000000
 Leave Link  101 at Tue Feb 12 18:04:27 2019, MaxMem=  1342177280 cpu:               4.2 elap:               0.3
 (Enter /gpfs/apps/hpc/Apps/Restricted/Gaussian/g16/Rev_B.01-AVX/g16/l103.exe)

 GradGradGradGradGradGradGradGradGradGradGradGradGradGradGradGradGradGrad
 Berny optimization.
 Initialization pass.
                           ----------------------------
                           !    Initial Parameters    !
                           ! (Angstroms and Degrees)  !
 --------------------------                            --------------------------
 ! Name  Definition              Value          Derivative Info.                !
 --------------------------------------------------------------------------------
 ! R1    R(1,2)                  1.4202         estimate D2E/DX2                !
 ! R2    R(1,6)                  1.4033         estimate D2E/DX2                !
 ! R3    R(1,23)                 1.3704         estimate D2E/DX2                !
 ! R4    R(2,3)                  1.4017         estimate D2E/DX2                !
 ! R5    R(2,11)                 1.3748         estimate D2E/DX2                !
 ! R6    R(3,4)                  1.3875         estimate D2E/DX2                !
 ! R7    R(3,8)                  1.0824         estimate D2E/DX2                !
 ! R8    R(4,5)                  1.4114         estimate D2E/DX2                !
 ! R9    R(4,9)                  1.0829         estimate D2E/DX2                !
 ! R10   R(5,6)                  1.3947         estimate D2E/DX2                !
 ! R11   R(5,10)                 1.0832         estimate D2E/DX2                !
 ! R12   R(6,24)                 1.4916         estimate D2E/DX2                !
 ! R13   R(7,11)                 1.3389         estimate D2E/DX2                !
 ! R14   R(7,13)                 1.4435         estimate D2E/DX2                !
 ! R15   R(7,23)                 1.3651         estimate D2E/DX2                !
 ! R16   R(11,53)                1.0            estimate D2E/DX2                !
 ! R17   R(12,13)                1.4594         estimate D2E/DX2                !
 ! R18   R(12,17)                1.4447         estimate D2E/DX2                !
 ! R19   R(12,22)                1.2992         estimate D2E/DX2                !
 ! R20   R(13,14)                1.3807         estimate D2E/DX2                !
 ! R21   R(14,15)                1.4078         estimate D2E/DX2                !
 ! R22   R(14,18)                1.082          estimate D2E/DX2                !
 ! R23   R(15,16)                1.4194         estimate D2E/DX2                !
 ! R24   R(15,20)                1.5191         estimate D2E/DX2                !
 ! R25   R(16,17)                1.3779         estimate D2E/DX2                !
 ! R26   R(16,19)                1.0773         estimate D2E/DX2                !
 ! R27   R(17,21)                1.5282         estimate D2E/DX2                !
 ! R28   R(20,25)                1.5474         estimate D2E/DX2                !
 ! R29   R(20,29)                1.5457         estimate D2E/DX2                !
 ! R30   R(20,33)                1.5342         estimate D2E/DX2                !
 ! R31   R(21,37)                1.5458         estimate D2E/DX2                !
 ! R32   R(21,41)                1.5461         estimate D2E/DX2                !
 ! R33   R(21,45)                1.5372         estimate D2E/DX2                !
 ! R34   R(24,49)                1.243          estimate D2E/DX2                !
 ! R35   R(24,50)                1.3462         estimate D2E/DX2                !
 ! R36   R(25,26)                1.0917         estimate D2E/DX2                !
 ! R37   R(25,27)                1.0928         estimate D2E/DX2                !
 ! R38   R(25,28)                1.0924         estimate D2E/DX2                !
 ! R39   R(29,30)                1.0922         estimate D2E/DX2                !
 ! R40   R(29,31)                1.0927         estimate D2E/DX2                !
 ! R41   R(29,32)                1.0917         estimate D2E/DX2                !
 ! R42   R(33,34)                1.093          estimate D2E/DX2                !
 ! R43   R(33,35)                1.0929         estimate D2E/DX2                !
 ! R44   R(33,36)                1.0916         estimate D2E/DX2                !
 ! R45   R(37,38)                1.0927         estimate D2E/DX2                !
 ! R46   R(37,39)                1.0891         estimate D2E/DX2                !
 ! R47   R(37,40)                1.0927         estimate D2E/DX2                !
 ! R48   R(41,42)                1.0889         estimate D2E/DX2                !
 ! R49   R(41,43)                1.0927         estimate D2E/DX2                !
 ! R50   R(41,44)                1.0927         estimate D2E/DX2                !
 ! R51   R(45,46)                1.093          estimate D2E/DX2                !
 ! R52   R(45,47)                1.0929         estimate D2E/DX2                !
 ! R53   R(45,48)                1.0916         estimate D2E/DX2                !
 ! R54   R(50,51)                1.0            estimate D2E/DX2                !
 ! R55   R(50,52)                1.0            estimate D2E/DX2                !
 ! R56   R(50,54)                1.0            estimate D2E/DX2                !
 ! A1    A(2,1,6)              122.8684         estimate D2E/DX2                !
 ! A2    A(2,1,23)             105.9761         estimate D2E/DX2                !
 ! A3    A(6,1,23)             131.1544         estimate D2E/DX2                !
 ! A4    A(1,2,3)              120.2741         estimate D2E/DX2                !
 ! A5    A(1,2,11)             108.3643         estimate D2E/DX2                !
 ! A6    A(3,2,11)             131.3606         estimate D2E/DX2                !
 ! A7    A(2,3,4)              117.1953         estimate D2E/DX2                !
 ! A8    A(2,3,8)              121.0981         estimate D2E/DX2                !
 ! A9    A(4,3,8)              121.7065         estimate D2E/DX2                !
 ! A10   A(3,4,5)              121.9634         estimate D2E/DX2                !
 ! A11   A(3,4,9)              119.5065         estimate D2E/DX2                !
 ! A12   A(5,4,9)              118.5301         estimate D2E/DX2                !
 ! A13   A(4,5,6)              122.176          estimate D2E/DX2                !
 ! A14   A(4,5,10)             117.8414         estimate D2E/DX2                !
 ! A15   A(6,5,10)             119.982          estimate D2E/DX2                !
 ! A16   A(1,6,5)              115.5221         estimate D2E/DX2                !
 ! A17   A(1,6,24)             118.2338         estimate D2E/DX2                !
 ! A18   A(5,6,24)             126.2423         estimate D2E/DX2                !
 ! A19   A(11,7,13)            122.0016         estimate D2E/DX2                !
 ! A20   A(11,7,23)            111.1596         estimate D2E/DX2                !
 ! A21   A(13,7,23)            126.8347         estimate D2E/DX2                !
 ! A22   A(2,11,7)             106.7626         estimate D2E/DX2                !
 ! A23   A(2,11,53)            126.6187         estimate D2E/DX2                !
 ! A24   A(7,11,53)            126.6187         estimate D2E/DX2                !
 ! A25   A(13,12,17)           120.4168         estimate D2E/DX2                !
 ! A26   A(13,12,22)           119.9924         estimate D2E/DX2                !
 ! A27   A(17,12,22)           119.589          estimate D2E/DX2                !
 ! A28   A(7,13,12)            117.6952         estimate D2E/DX2                !
 ! A29   A(7,13,14)            122.992          estimate D2E/DX2                !
 ! A30   A(12,13,14)           119.3032         estimate D2E/DX2                !
 ! A31   A(13,14,15)           120.9789         estimate D2E/DX2                !
 ! A32   A(13,14,18)           119.7438         estimate D2E/DX2                !
 ! A33   A(15,14,18)           119.2762         estimate D2E/DX2                !
 ! A34   A(14,15,16)           118.7215         estimate D2E/DX2                !
 ! A35   A(14,15,20)           119.313          estimate D2E/DX2                !
 ! A36   A(16,15,20)           121.9544         estimate D2E/DX2                !
 ! A37   A(15,16,17)           123.9488         estimate D2E/DX2                !
 ! A38   A(15,16,19)           117.6765         estimate D2E/DX2                !
 ! A39   A(17,16,19)           118.3747         estimate D2E/DX2                !
 ! A40   A(12,17,16)           116.6261         estimate D2E/DX2                !
 ! A41   A(12,17,21)           121.1227         estimate D2E/DX2                !
 ! A42   A(16,17,21)           122.2505         estimate D2E/DX2                !
 ! A43   A(15,20,25)           107.952          estimate D2E/DX2                !
 ! A44   A(15,20,29)           109.1692         estimate D2E/DX2                !
 ! A45   A(15,20,33)           112.7607         estimate D2E/DX2                !
 ! A46   A(25,20,29)           109.0989         estimate D2E/DX2                !
 ! A47   A(25,20,33)           108.9906         estimate D2E/DX2                !
 ! A48   A(29,20,33)           108.8116         estimate D2E/DX2                !
 ! A49   A(17,21,37)           109.8416         estimate D2E/DX2                !
 ! A50   A(17,21,41)           109.8095         estimate D2E/DX2                !
 ! A51   A(17,21,45)           111.0376         estimate D2E/DX2                !
 ! A52   A(37,21,41)           110.145          estimate D2E/DX2                !
 ! A53   A(37,21,45)           107.9652         estimate D2E/DX2                !
 ! A54   A(41,21,45)           108.0059         estimate D2E/DX2                !
 ! A55   A(1,23,7)             107.7369         estimate D2E/DX2                !
 ! A56   A(6,24,49)            120.0208         estimate D2E/DX2                !
 ! A57   A(6,24,50)            117.8876         estimate D2E/DX2                !
 ! A58   A(49,24,50)           122.0906         estimate D2E/DX2                !
 ! A59   A(20,25,26)           111.4739         estimate D2E/DX2                !
 ! A60   A(20,25,27)           109.1145         estimate D2E/DX2                !
 ! A61   A(20,25,28)           110.9275         estimate D2E/DX2                !
 ! A62   A(26,25,27)           108.2617         estimate D2E/DX2                !
 ! A63   A(26,25,28)           108.5295         estimate D2E/DX2                !
 ! A64   A(27,25,28)           108.4484         estimate D2E/DX2                !
 ! A65   A(20,29,30)           110.952          estimate D2E/DX2                !
 ! A66   A(20,29,31)           108.9378         estimate D2E/DX2                !
 ! A67   A(20,29,32)           111.897          estimate D2E/DX2                !
 ! A68   A(30,29,31)           108.4019         estimate D2E/DX2                !
 ! A69   A(30,29,32)           108.5371         estimate D2E/DX2                !
 ! A70   A(31,29,32)           108.0112         estimate D2E/DX2                !
 ! A71   A(20,33,34)           111.7332         estimate D2E/DX2                !
 ! A72   A(20,33,35)           111.7733         estimate D2E/DX2                !
 ! A73   A(20,33,36)           108.9406         estimate D2E/DX2                !
 ! A74   A(34,33,35)           108.6712         estimate D2E/DX2                !
 ! A75   A(34,33,36)           107.8015         estimate D2E/DX2                !
 ! A76   A(35,33,36)           107.7658         estimate D2E/DX2                !
 ! A77   A(21,37,38)           108.8737         estimate D2E/DX2                !
 ! A78   A(21,37,39)           112.0867         estimate D2E/DX2                !
 ! A79   A(21,37,40)           110.5985         estimate D2E/DX2                !
 ! A80   A(38,37,39)           108.3398         estimate D2E/DX2                !
 ! A81   A(38,37,40)           108.1531         estimate D2E/DX2                !
 ! A82   A(39,37,40)           108.686          estimate D2E/DX2                !
 ! A83   A(21,41,42)           111.859          estimate D2E/DX2                !
 ! A84   A(21,41,43)           108.9829         estimate D2E/DX2                !
 ! A85   A(21,41,44)           110.5587         estimate D2E/DX2                !
 ! A86   A(42,41,43)           108.4454         estimate D2E/DX2                !
 ! A87   A(42,41,44)           108.6433         estimate D2E/DX2                !
 ! A88   A(43,41,44)           108.2623         estimate D2E/DX2                !
 ! A89   A(21,45,46)           111.7996         estimate D2E/DX2                !
 ! A90   A(21,45,47)           111.6889         estimate D2E/DX2                !
 ! A91   A(21,45,48)           108.8116         estimate D2E/DX2                !
 ! A92   A(46,45,47)           108.4975         estimate D2E/DX2                !
 ! A93   A(46,45,48)           107.9249         estimate D2E/DX2                !
 ! A94   A(47,45,48)           107.9778         estimate D2E/DX2                !
 ! A95   A(24,50,51)           109.4712         estimate D2E/DX2                !
 ! A96   A(24,50,52)           109.4712         estimate D2E/DX2                !
 ! A97   A(24,50,54)           109.4712         estimate D2E/DX2                !
 ! A98   A(51,50,52)           109.4712         estimate D2E/DX2                !
 ! A99   A(51,50,54)           109.4712         estimate D2E/DX2                !
 ! A100  A(52,50,54)           109.4712         estimate D2E/DX2                !
 ! D1    D(6,1,2,3)             -0.0562         estimate D2E/DX2                !
 ! D2    D(6,1,2,11)           179.6197         estimate D2E/DX2                !
 ! D3    D(23,1,2,3)          -179.7173         estimate D2E/DX2                !
 ! D4    D(23,1,2,11)           -0.0414         estimate D2E/DX2                !
 ! D5    D(2,1,6,5)              0.2436         estimate D2E/DX2                !
 ! D6    D(2,1,6,24)          -179.3126         estimate D2E/DX2                !
 ! D7    D(23,1,6,5)           179.8109         estimate D2E/DX2                !
 ! D8    D(23,1,6,24)            0.2548         estimate D2E/DX2                !
 ! D9    D(2,1,23,7)             0.166          estimate D2E/DX2                !
 ! D10   D(6,1,23,7)          -179.4561         estimate D2E/DX2                !
 ! D11   D(1,2,3,4)             -0.1424         estimate D2E/DX2                !
 ! D12   D(1,2,3,8)            179.7924         estimate D2E/DX2                !
 ! D13   D(11,2,3,4)          -179.7325         estimate D2E/DX2                !
 ! D14   D(11,2,3,8)             0.2022         estimate D2E/DX2                !
 ! D15   D(1,2,11,7)            -0.1013         estimate D2E/DX2                !
 ! D16   D(1,2,11,53)          179.8987         estimate D2E/DX2                !
 ! D17   D(3,2,11,7)           179.5258         estimate D2E/DX2                !
 ! D18   D(3,2,11,53)           -0.4742         estimate D2E/DX2                !
 ! D19   D(2,3,4,5)              0.1458         estimate D2E/DX2                !
 ! D20   D(2,3,4,9)           -179.8185         estimate D2E/DX2                !
 ! D21   D(8,3,4,5)           -179.7885         estimate D2E/DX2                !
 ! D22   D(8,3,4,9)              0.2472         estimate D2E/DX2                !
 ! D23   D(3,4,5,6)              0.0521         estimate D2E/DX2                !
 ! D24   D(3,4,5,10)          -179.6795         estimate D2E/DX2                !
 ! D25   D(9,4,5,6)           -179.9833         estimate D2E/DX2                !
 ! D26   D(9,4,5,10)             0.2851         estimate D2E/DX2                !
 ! D27   D(4,5,6,1)             -0.2408         estimate D2E/DX2                !
 ! D28   D(4,5,6,24)           179.2743         estimate D2E/DX2                !
 ! D29   D(10,5,6,1)           179.4851         estimate D2E/DX2                !
 ! D30   D(10,5,6,24)           -0.9997         estimate D2E/DX2                !
 ! D31   D(1,6,24,49)           -1.7432         estimate D2E/DX2                !
 ! D32   D(1,6,24,50)          178.6243         estimate D2E/DX2                !
 ! D33   D(5,6,24,49)          178.7534         estimate D2E/DX2                !
 ! D34   D(5,6,24,50)           -0.8791         estimate D2E/DX2                !
 ! D35   D(13,7,11,2)         -179.0988         estimate D2E/DX2                !
 ! D36   D(13,7,11,53)           0.9012         estimate D2E/DX2                !
 ! D37   D(23,7,11,2)            0.2116         estimate D2E/DX2                !
 ! D38   D(23,7,11,53)        -179.7884         estimate D2E/DX2                !
 ! D39   D(11,7,13,12)          -0.5491         estimate D2E/DX2                !
 ! D40   D(11,7,13,14)         178.3123         estimate D2E/DX2                !
 ! D41   D(23,7,13,12)        -179.7457         estimate D2E/DX2                !
 ! D42   D(23,7,13,14)          -0.8842         estimate D2E/DX2                !
 ! D43   D(11,7,23,1)           -0.2413         estimate D2E/DX2                !
 ! D44   D(13,7,23,1)          179.0281         estimate D2E/DX2                !
 ! D45   D(17,12,13,7)         179.6043         estimate D2E/DX2                !
 ! D46   D(17,12,13,14)          0.6993         estimate D2E/DX2                !
 ! D47   D(22,12,13,7)           0.0917         estimate D2E/DX2                !
 ! D48   D(22,12,13,14)       -178.8132         estimate D2E/DX2                !
 ! D49   D(13,12,17,16)         -0.7726         estimate D2E/DX2                !
 ! D50   D(13,12,17,21)        179.5212         estimate D2E/DX2                !
 ! D51   D(22,12,17,16)        178.7419         estimate D2E/DX2                !
 ! D52   D(22,12,17,21)         -0.9643         estimate D2E/DX2                !
 ! D53   D(7,13,14,15)        -178.9849         estimate D2E/DX2                !
 ! D54   D(7,13,14,18)           0.6274         estimate D2E/DX2                !
 ! D55   D(12,13,14,15)         -0.1409         estimate D2E/DX2                !
 ! D56   D(12,13,14,18)        179.4714         estimate D2E/DX2                !
 ! D57   D(13,14,15,16)         -0.3096         estimate D2E/DX2                !
 ! D58   D(13,14,15,20)        178.5021         estimate D2E/DX2                !
 ! D59   D(18,14,15,16)       -179.9237         estimate D2E/DX2                !
 ! D60   D(18,14,15,20)         -1.112          estimate D2E/DX2                !
 ! D61   D(14,15,16,17)          0.2172         estimate D2E/DX2                !
 ! D62   D(14,15,16,19)       -179.8339         estimate D2E/DX2                !
 ! D63   D(20,15,16,17)       -178.5616         estimate D2E/DX2                !
 ! D64   D(20,15,16,19)          1.3873         estimate D2E/DX2                !
 ! D65   D(14,15,20,25)        -61.0841         estimate D2E/DX2                !
 ! D66   D(14,15,20,29)         57.3904         estimate D2E/DX2                !
 ! D67   D(14,15,20,33)        178.4592         estimate D2E/DX2                !
 ! D68   D(16,15,20,25)        117.6877         estimate D2E/DX2                !
 ! D69   D(16,15,20,29)       -123.8378         estimate D2E/DX2                !
 ! D70   D(16,15,20,33)         -2.769          estimate D2E/DX2                !
 ! D71   D(15,16,17,12)          0.3226         estimate D2E/DX2                !
 ! D72   D(15,16,17,21)       -179.9748         estimate D2E/DX2                !
 ! D73   D(19,16,17,12)       -179.626          estimate D2E/DX2                !
 ! D74   D(19,16,17,21)          0.0767         estimate D2E/DX2                !
 ! D75   D(12,17,21,37)         61.8026         estimate D2E/DX2                !
 ! D76   D(12,17,21,41)        -59.472          estimate D2E/DX2                !
 ! D77   D(12,17,21,45)       -178.8498         estimate D2E/DX2                !
 ! D78   D(16,17,21,37)       -117.8869         estimate D2E/DX2                !
 ! D79   D(16,17,21,41)        120.8385         estimate D2E/DX2                !
 ! D80   D(16,17,21,45)          1.4608         estimate D2E/DX2                !
 ! D81   D(15,20,25,26)         59.114          estimate D2E/DX2                !
 ! D82   D(15,20,25,27)        178.6331         estimate D2E/DX2                !
 ! D83   D(15,20,25,28)        -61.9539         estimate D2E/DX2                !
 ! D84   D(29,20,25,26)        -59.4054         estimate D2E/DX2                !
 ! D85   D(29,20,25,27)         60.1137         estimate D2E/DX2                !
 ! D86   D(29,20,25,28)        179.5267         estimate D2E/DX2                !
 ! D87   D(33,20,25,26)       -178.094          estimate D2E/DX2                !
 ! D88   D(33,20,25,27)        -58.5748         estimate D2E/DX2                !
 ! D89   D(33,20,25,28)         60.8382         estimate D2E/DX2                !
 ! D90   D(15,20,29,30)         62.201          estimate D2E/DX2                !
 ! D91   D(15,20,29,31)       -178.5403         estimate D2E/DX2                !
 ! D92   D(15,20,29,32)        -59.185          estimate D2E/DX2                !
 ! D93   D(25,20,29,30)        179.9562         estimate D2E/DX2                !
 ! D94   D(25,20,29,31)        -60.7851         estimate D2E/DX2                !
 ! D95   D(25,20,29,32)         58.5701         estimate D2E/DX2                !
 ! D96   D(33,20,29,30)        -61.2436         estimate D2E/DX2                !
 ! D97   D(33,20,29,31)         58.0151         estimate D2E/DX2                !
 ! D98   D(33,20,29,32)        177.3704         estimate D2E/DX2                !
 ! D99   D(15,20,33,34)        -61.0795         estimate D2E/DX2                !
 ! D100  D(15,20,33,35)         60.9483         estimate D2E/DX2                !
 ! D101  D(15,20,33,36)        179.9246         estimate D2E/DX2                !
 ! D102  D(25,20,33,34)        179.0609         estimate D2E/DX2                !
 ! D103  D(25,20,33,35)        -58.9113         estimate D2E/DX2                !
 ! D104  D(25,20,33,36)         60.065          estimate D2E/DX2                !
 ! D105  D(29,20,33,34)         60.1928         estimate D2E/DX2                !
 ! D106  D(29,20,33,35)       -177.7794         estimate D2E/DX2                !
 ! D107  D(29,20,33,36)        -58.8031         estimate D2E/DX2                !
 ! D108  D(17,21,37,38)        178.1154         estimate D2E/DX2                !
 ! D109  D(17,21,37,39)        -62.0439         estimate D2E/DX2                !
 ! D110  D(17,21,37,40)         59.4146         estimate D2E/DX2                !
 ! D111  D(41,21,37,38)        -60.8115         estimate D2E/DX2                !
 ! D112  D(41,21,37,39)         59.0291         estimate D2E/DX2                !
 ! D113  D(41,21,37,40)       -179.5123         estimate D2E/DX2                !
 ! D114  D(45,21,37,38)         56.9039         estimate D2E/DX2                !
 ! D115  D(45,21,37,39)        176.7446         estimate D2E/DX2                !
 ! D116  D(45,21,37,40)        -61.7969         estimate D2E/DX2                !
 ! D117  D(17,21,41,42)         63.3417         estimate D2E/DX2                !
 ! D118  D(17,21,41,43)       -176.7565         estimate D2E/DX2                !
 ! D119  D(17,21,41,44)        -57.8784         estimate D2E/DX2                !
 ! D120  D(37,21,41,42)        -57.7505         estimate D2E/DX2                !
 ! D121  D(37,21,41,43)         62.1514         estimate D2E/DX2                !
 ! D122  D(37,21,41,44)       -178.9706         estimate D2E/DX2                !
 ! D123  D(45,21,41,42)       -175.4408         estimate D2E/DX2                !
 ! D124  D(45,21,41,43)        -55.5389         estimate D2E/DX2                !
 ! D125  D(45,21,41,44)         63.3391         estimate D2E/DX2                !
 ! D126  D(17,21,45,46)        -61.0697         estimate D2E/DX2                !
 ! D127  D(17,21,45,47)         60.7202         estimate D2E/DX2                !
 ! D128  D(17,21,45,48)        179.8241         estimate D2E/DX2                !
 ! D129  D(37,21,45,46)         59.3952         estimate D2E/DX2                !
 ! D130  D(37,21,45,47)       -178.8149         estimate D2E/DX2                !
 ! D131  D(37,21,45,48)        -59.711          estimate D2E/DX2                !
 ! D132  D(41,21,45,46)        178.4788         estimate D2E/DX2                !
 ! D133  D(41,21,45,47)        -59.7313         estimate D2E/DX2                !
 ! D134  D(41,21,45,48)         59.3726         estimate D2E/DX2                !
 ! D135  D(6,24,50,51)         -38.5971         estimate D2E/DX2                !
 ! D136  D(6,24,50,52)        -158.5971         estimate D2E/DX2                !
 ! D137  D(6,24,50,54)          81.4029         estimate D2E/DX2                !
 ! D138  D(49,24,50,51)        141.7785         estimate D2E/DX2                !
 ! D139  D(49,24,50,52)         21.7785         estimate D2E/DX2                !
 ! D140  D(49,24,50,54)        -98.2215         estimate D2E/DX2                !
 --------------------------------------------------------------------------------
 Trust Radius=3.00D-01 FncErr=5.00D-06 GrdErr=5.00D-06 EigMax=2.50D+02 EigMin=1.00D-04
 Number of steps in this run=    306 maximum allowed number of steps=    324.
 GradGradGradGradGradGradGradGradGradGradGradGradGradGradGradGradGradGrad

 Leave Link  103 at Tue Feb 12 18:04:27 2019, MaxMem=  1342177280 cpu:               0.8 elap:               0.1
 (Enter /gpfs/apps/hpc/Apps/Restricted/Gaussian/g16/Rev_B.01-AVX/g16/l202.exe)
 Symmetry turned off by external request.
 Stoichiometry    C22H27N3O2(1+,2)
 Framework group  C1[X(C22H27N3O2)]
 Deg. of freedom   156
 Full point group                 C1      NOp   1
                          Input orientation:                          
 ---------------------------------------------------------------------
 Center     Atomic      Atomic             Coordinates (Angstroms)
 Number     Number       Type             X           Y           Z
 ---------------------------------------------------------------------
      1          6           0       -0.460428    2.735524    0.446323
      2          6           0       -1.869381    2.860977    0.319116
      3          6           0       -2.459229    4.128064    0.212122
      4          6           0       -1.611825    5.226396    0.239775
      5          6           0       -0.212952    5.087825    0.366656
      6          6           0        0.403475    3.841091    0.470839
      7          6           0       -1.402162    0.736962    0.439368
      8          1           0       -3.531181    4.239008    0.111281
      9          1           0       -2.027980    6.223212    0.162846
     10          1           0        0.385150    5.990746    0.386241
     11          7           0       -2.418291    1.600557    0.320074
     12          6           0       -2.981818   -1.178361    0.350492
     13          6           0       -1.610147   -0.691347    0.456400
     14          6           0       -0.575082   -1.600797    0.544414
     15          6           0       -0.825096   -2.986204    0.536308
     16          6           0       -2.167945   -3.436468    0.442229
     17          6           0       -3.256643   -2.596661    0.352900
     18          1           0        0.445286   -1.247657    0.614560
     19          1           0       -2.340147   -4.499892    0.440209
     20          6           0        0.344584   -3.953436    0.600540
     21          6           0       -4.687489   -3.124153    0.253744
     22          8           0       -3.964111   -0.334742    0.243709
     23          7           0       -0.206714    1.390931    0.521193
     24          6           0        1.868559    3.589190    0.592767
     25          6           0        1.231363   -3.712792   -0.644456
     26          1           0        1.598602   -2.685387   -0.680988
     27          1           0        2.093341   -4.383355   -0.604858
     28          1           0        0.677091   -3.916210   -1.563500
     29          6           0        1.171921   -3.665529    1.874069
     30          1           0        0.573105   -3.825688    2.773317
     31          1           0        2.026535   -4.345768    1.903067
     32          1           0        1.553789   -2.642932    1.888956
     33          6           0       -0.099791   -5.421726    0.620713
     34          1           0       -0.717561   -5.645629    1.494084
     35          1           0       -0.657753   -5.688837   -0.280285
     36          1           0        0.785206   -6.059173    0.665660
     37          6           0       -5.318263   -2.681335   -1.086270
     38          1           0       -6.327499   -3.094500   -1.155507
     39          1           0       -5.385280   -1.597440   -1.168956
     40          1           0       -4.736228   -3.061421   -1.929322
     41          6           0       -5.525635   -2.591310    1.438600
     42          1           0       -5.615197   -1.506346    1.416332
     43          1           0       -6.528499   -3.022146    1.386748
     44          1           0       -5.075469   -2.885195    2.389898
     45          6           0       -4.714164   -4.660197    0.305642
     46          1           0       -4.159200   -5.104099   -0.524840
     47          1           0       -4.298835   -5.039954    1.242535
     48          1           0       -5.750160   -4.996818    0.235438
     49          8           0        2.292593    2.425832    0.702114
     50          7           0        2.693045    4.653346    0.587152
     51          1           0        2.359685    5.329840   -0.069527
     52          1           0        3.613064    4.360836    0.326377
     53          1           0       -3.389166    1.372717    0.245970
     54          1           0        2.718844    5.059855    1.500435
 ---------------------------------------------------------------------
 Rotational constants (GHZ):           0.2891975           0.1091542           0.0821719
 Leave Link  202 at Tue Feb 12 18:04:27 2019, MaxMem=  1342177280 cpu:               1.2 elap:               0.2
 (Enter /gpfs/apps/hpc/Apps/Restricted/Gaussian/g16/Rev_B.01-AVX/g16/l301.exe)
 Standard basis: 6-31G(d,p) (6D, 7F)
 Ernie: Thresh=  0.10000D-02 Tol=  0.10000D-05 Strict=F.
   540 basis functions,   945 primitive gaussians,   540 cartesian basis functions
    98 alpha electrons       97 beta electrons
       nuclear repulsion energy      2448.2319127503 Hartrees.
 IExCor=  402 DFT=T Ex+Corr=B3LYP ExCW=0 ScaHFX=  0.200000
 ScaDFX=  0.800000  0.720000  1.000000  0.810000 ScalE2=  1.000000  1.000000
 IRadAn=      5 IRanWt=     -1 IRanGd=            0 ICorTp=0 IEmpDi=141
 NAtoms=   54 NActive=   54 NUniq=   54 SFac= 1.00D+00 NAtFMM=   60 NAOKFM=F Big=F
 Integral buffers will be    131072 words long.
 Raffenetti 2 integral format.
 Two-electron integral symmetry is turned off.
 R6Disp:  Grimme-D3(BJ) Dispersion energy=       -0.1192096238 Hartrees.
 Nuclear repulsion after empirical dispersion term =     2448.1127031265 Hartrees.
 Using the following non-standard input for PCM:
 radii=bondi
 dis
 rep
 cav
 --- end of non-standard input.
 ------------------------------------------------------------------------------
 Polarizable Continuum Model (PCM)
 =================================
 Model                : C-PCM.
 Atomic radii         : Bondi.
 Polarization charges : Total charges.
 Charge compensation  : None.
 Solution method      : On-the-fly selection.
 Cavity type          : Scaled VdW (van der Waals Surface) (Alpha=1.100).
 Cavity algorithm     : GePol (No added spheres)
                        Default sphere list used, NSphG=   54.
                        Lebedev-Laikov grids with approx.  5.0 points / Ang**2.
                        Smoothing algorithm: York/Karplus (Gamma=1.0000).
                        Polarization charges: spherical gaussians, with
                                              point-specific exponents (IZeta= 3).
                        Self-potential: point-specific (ISelfS= 7).
                        Self-field    : sphere-specific E.n sum rule (ISelfD= 2).
 1st derivatives      : Analytical E(r).r(x)/FMM algorithm (CHGder, D1EAlg=3).
                        Cavity 1st derivative terms included.
 Solvent              : Dichloromethane, Eps=   8.930000 Eps(inf)=   2.028346
 ------------------------------------------------------------------------------
 GePol: Number of generator spheres                  =      54
 GePol: Total number of spheres                      =      54
 GePol: Number of exposed spheres                    =      54 (100.00%)
 GePol: Number of points                             =    3502
 GePol: Average weight of points                     =       0.12
 GePol: Minimum weight of points                     =   0.19D-10
 GePol: Maximum weight of points                     =    0.21770
 GePol: Number of points with low weight             =     237
 GePol: Fraction of low-weight points (<1% of avg)   =       6.77%
 GePol: Cavity surface area                          =    422.118 Ang**2
 GePol: Cavity volume                                =    405.666 Ang**3
 PCM non-electrostatic energy =         0.0183447599 Hartrees.
 Nuclear repulsion after PCM non-electrostatic terms =     2448.1310478864 Hartrees.
 Leave Link  301 at Tue Feb 12 18:04:28 2019, MaxMem=  1342177280 cpu:               2.7 elap:               0.2
 (Enter /gpfs/apps/hpc/Apps/Restricted/Gaussian/g16/Rev_B.01-AVX/g16/l302.exe)
 NPDir=0 NMtPBC=     1 NCelOv=     1 NCel=       1 NClECP=     1 NCelD=      1
         NCelK=      1 NCelE2=     1 NClLst=     1 CellRange=     0.0.
 One-electron integrals computed using PRISM.
 NBasis=   540 RedAO= T EigKep=  3.09D-04  NBF=   540
 NBsUse=   540 1.00D-06 EigRej= -1.00D+00 NBFU=   540
 Precomputing XC quadrature grid using
 IXCGrd= 4 IRadAn=           5 IRanWt=          -1 IRanGd=           0 AccXCQ= 0.00D+00.
 Generated NRdTot=       0 NPtTot=           0 NUsed=           0 NTot=          32
 NSgBfM=   533   533   533   533   533 MxSgAt=    54 MxSgA2=    54.
 Leave Link  302 at Tue Feb 12 18:04:28 2019, MaxMem=  1342177280 cpu:               9.4 elap:               0.6
 (Enter /gpfs/apps/hpc/Apps/Restricted/Gaussian/g16/Rev_B.01-AVX/g16/l303.exe)
 DipDrv:  MaxL=1.
 Leave Link  303 at Tue Feb 12 18:04:29 2019, MaxMem=  1342177280 cpu:               2.7 elap:               0.3
 (Enter /gpfs/apps/hpc/Apps/Restricted/Gaussian/g16/Rev_B.01-AVX/g16/l401.exe)
 ExpMin= 1.61D-01 ExpMax= 5.48D+03 ExpMxC= 8.25D+02 IAcc=3 IRadAn=         5 AccDes= 0.00D+00
 Harris functional with IExCor=  402 and IRadAn=       5 diagonalized for initial guess.
 HarFok:  IExCor=  402 AccDes= 0.00D+00 IRadAn=         5 IDoV= 1 UseB2=F ITyADJ=14
 ICtDFT=  3500011 ScaDFX=  1.000000  1.000000  1.000000  1.000000
 FoFCou: FMM=F IPFlag=           0 FMFlag=      100000 FMFlg1=           0
         NFxFlg=           0 DoJE=T BraDBF=F KetDBF=T FulRan=T
         wScrn=  0.000000 ICntrl=       500 IOpCl=  0 I1Cent=   200000004 NGrid=           0
         NMat0=    1 NMatS0=      1 NMatT0=    0 NMatD0=    1 NMtDS0=    0 NMtDT0=    0
 Symmetry not used in FoFCou.
 Harris En= -1169.26846232947    
 JPrj=0 DoOrth=F DoCkMO=F.
 Initial guess <Sx>= 0.0000 <Sy>= 0.0000 <Sz>= 0.5000 <S**2>= 0.7500 S= 0.5000
 Leave Link  401 at Tue Feb 12 18:04:31 2019, MaxMem=  1342177280 cpu:              35.6 elap:               2.3
 (Enter /gpfs/apps/hpc/Apps/Restricted/Gaussian/g16/Rev_B.01-AVX/g16/l502.exe)
 Two-electron integral symmetry not used.
 UHF open shell SCF:
 Using DIIS extrapolation, IDIIS=  1040.
 NGot=  1342177280 LenX=  1341580900 LenY=  1341288760
 Requested convergence on RMS density matrix=1.00D-08 within 128 cycles.
 Requested convergence on MAX density matrix=1.00D-06.
 Requested convergence on             energy=1.00D-06.
 No special actions if energy rises.
 Fock matrices will be formed incrementally for  20 cycles.

 Cycle   1  Pass 1  IDiag  1:
 FoFJK:  IHMeth= 1 ICntrl=       0 DoSepK=F KAlg= 0 I1Cent=           0 FoldK=F
 IRaf= 620000000 NMat=       1 IRICut=       1 DoRegI=T DoRafI=F ISym2E= 0 IDoP0=0 IntGTp=1.
 FoFCou: FMM=F IPFlag=           0 FMFlag=      100000 FMFlg1=           0
         NFxFlg=           0 DoJE=F BraDBF=F KetDBF=F FulRan=T
         wScrn=  0.000000 ICntrl=         0 IOpCl=  1 I1Cent=           0 NGrid=           0
         NMat0=    1 NMatS0=      1 NMatT0=    0 NMatD0=    1 NMtDS0=    0 NMtDT0=    0
 Symmetry not used in FoFCou.
 Inv3:  Mode=1 IEnd=    36792012.
 Iteration    1 A*A^-1 deviation from unit magnitude is 8.33D-15 for   3475.
 Iteration    1 A*A^-1 deviation from orthogonality  is 2.66D-15 for   3487   1578.
 Iteration    1 A^-1*A deviation from unit magnitude is 8.33D-15 for   3475.
 Iteration    1 A^-1*A deviation from orthogonality  is 2.89D-15 for   3497   1558.
 E= -1168.60243451380    
 DIIS: error= 2.69D-02 at cycle   1 NSaved=   1.
 NSaved= 1 IEnMin= 1 EnMin= -1168.60243451380     IErMin= 1 ErrMin= 2.69D-02
 ErrMax= 2.69D-02  0.00D+00 EMaxC= 1.00D-01 BMatC= 2.78D+00 BMatP= 2.78D+00
 IDIUse=3 WtCom= 7.31D-01 WtEn= 2.69D-01
 Coeff-Com:  0.100D+01
 Coeff-En:   0.100D+01
 Coeff:      0.100D+01
 Gap=     0.091 Goal=   None    Shift=    0.000
 Gap=     0.072 Goal=   None    Shift=    0.000
 GapD=    0.072 DampG=0.500 DampE=0.500 DampFc=0.2500 IDamp=-1.
 Damping current iteration by 2.50D-01
 RMSDP=3.81D-03 MaxDP=1.99D-01              OVMax= 3.52D-01

 Cycle   2  Pass 1  IDiag  1:
 RMSU=  9.34D-04    CP:  9.86D-01
 E= -1168.85012135228     Delta-E=       -0.247686838485 Rises=F Damp=T
 DIIS: error= 1.57D-02 at cycle   2 NSaved=   2.
 NSaved= 2 IEnMin= 2 EnMin= -1168.85012135228     IErMin= 2 ErrMin= 1.57D-02
 ErrMax= 1.57D-02  0.00D+00 EMaxC= 1.00D-01 BMatC= 6.74D-01 BMatP= 2.78D+00
 IDIUse=3 WtCom= 8.43D-01 WtEn= 1.57D-01
 Coeff-Com: -0.720D+00 0.172D+01
 Coeff-En:   0.000D+00 0.100D+01
 Coeff:     -0.607D+00 0.161D+01
 Gap=     0.101 Goal=   None    Shift=    0.000
 Gap=     0.110 Goal=   None    Shift=    0.000
 RMSDP=1.40D-03 MaxDP=9.07D-02 DE=-2.48D-01 OVMax= 2.30D-01

 Cycle   3  Pass 1  IDiag  1:
 RMSU=  1.09D-03    CP:  9.55D-01  1.84D+00
 E= -1169.23856223763     Delta-E=       -0.388440885342 Rises=F Damp=F
 DIIS: error= 1.26D-02 at cycle   3 NSaved=   3.
 NSaved= 3 IEnMin= 3 EnMin= -1169.23856223763     IErMin= 3 ErrMin= 1.26D-02
 ErrMax= 1.26D-02  0.00D+00 EMaxC= 1.00D-01 BMatC= 2.39D-01 BMatP= 6.74D-01
 IDIUse=3 WtCom= 8.74D-01 WtEn= 1.26D-01
 Coeff-Com: -0.400D+00 0.905D+00 0.496D+00
 Coeff-En:   0.000D+00 0.000D+00 0.100D+01
 Coeff:     -0.350D+00 0.790D+00 0.559D+00
 Gap=     0.118 Goal=   None    Shift=    0.000
 Gap=     0.079 Goal=   None    Shift=    0.000
 RMSDP=6.70D-04 MaxDP=6.61D-02 DE=-3.88D-01 OVMax= 8.59D-02

 Cycle   4  Pass 1  IDiag  1:
 RMSU=  4.96D-04    CP:  9.60D-01  1.94D+00  5.99D-01
 E= -1169.27754626052     Delta-E=       -0.038984022895 Rises=F Damp=F
 DIIS: error= 6.78D-03 at cycle   4 NSaved=   4.
 NSaved= 4 IEnMin= 4 EnMin= -1169.27754626052     IErMin= 4 ErrMin= 6.78D-03
 ErrMax= 6.78D-03  0.00D+00 EMaxC= 1.00D-01 BMatC= 7.33D-02 BMatP= 2.39D-01
 IDIUse=3 WtCom= 9.32D-01 WtEn= 6.78D-02
 Coeff-Com: -0.423D-01 0.120D+00 0.352D+00 0.570D+00
 Coeff-En:   0.000D+00 0.000D+00 0.243D+00 0.757D+00
 Coeff:     -0.394D-01 0.112D+00 0.344D+00 0.583D+00
 Gap=     0.119 Goal=   None    Shift=    0.000
 Gap=     0.079 Goal=   None    Shift=    0.000
 RMSDP=2.89D-04 MaxDP=2.68D-02 DE=-3.90D-02 OVMax= 3.22D-02

 Cycle   5  Pass 1  IDiag  1:
 RMSU=  1.56D-04    CP:  9.59D-01  1.87D+00  7.29D-01  6.27D-01
 E= -1169.29159364217     Delta-E=       -0.014047381652 Rises=F Damp=F
 DIIS: error= 1.71D-03 at cycle   5 NSaved=   5.
 NSaved= 5 IEnMin= 5 EnMin= -1169.29159364217     IErMin= 5 ErrMin= 1.71D-03
 ErrMax= 1.71D-03  0.00D+00 EMaxC= 1.00D-01 BMatC= 3.85D-03 BMatP= 7.33D-02
 IDIUse=3 WtCom= 9.83D-01 WtEn= 1.71D-02
 Coeff-Com:  0.747D-02-0.292D-02 0.153D+00 0.320D+00 0.522D+00
 Coeff-En:   0.000D+00 0.000D+00 0.000D+00 0.000D+00 0.100D+01
 Coeff:      0.734D-02-0.287D-02 0.151D+00 0.314D+00 0.530D+00
 Gap=     0.118 Goal=   None    Shift=    0.000
 Gap=     0.082 Goal=   None    Shift=    0.000
 RMSDP=8.51D-05 MaxDP=9.45D-03 DE=-1.40D-02 OVMax= 1.81D-02

 Cycle   6  Pass 1  IDiag  1:
 RMSU=  5.82D-05    CP:  9.59D-01  1.87D+00  7.37D-01  6.85D-01  6.51D-01
 E= -1169.29258259693     Delta-E=       -0.000988954762 Rises=F Damp=F
 DIIS: error= 4.76D-04 at cycle   6 NSaved=   6.
 NSaved= 6 IEnMin= 6 EnMin= -1169.29258259693     IErMin= 6 ErrMin= 4.76D-04
 ErrMax= 4.76D-04  0.00D+00 EMaxC= 1.00D-01 BMatC= 5.19D-04 BMatP= 3.85D-03
 IDIUse=3 WtCom= 9.95D-01 WtEn= 4.76D-03
 Coeff-Com:  0.906D-02-0.149D-01 0.440D-01 0.102D+00 0.299D+00 0.561D+00
 Coeff-En:   0.000D+00 0.000D+00 0.000D+00 0.000D+00 0.000D+00 0.100D+01
 Coeff:      0.902D-02-0.148D-01 0.438D-01 0.101D+00 0.297D+00 0.564D+00
 Gap=     0.119 Goal=   None    Shift=    0.000
 Gap=     0.082 Goal=   None    Shift=    0.000
 RMSDP=3.10D-05 MaxDP=3.24D-03 DE=-9.89D-04 OVMax= 9.58D-03

 Cycle   7  Pass 1  IDiag  1:
 RMSU=  2.62D-05    CP:  9.59D-01  1.87D+00  7.41D-01  6.84D-01  7.51D-01
                    CP:  9.78D-01
 E= -1169.29275912867     Delta-E=       -0.000176531735 Rises=F Damp=F
 DIIS: error= 2.29D-04 at cycle   7 NSaved=   7.
 NSaved= 7 IEnMin= 7 EnMin= -1169.29275912867     IErMin= 7 ErrMin= 2.29D-04
 ErrMax= 2.29D-04  0.00D+00 EMaxC= 1.00D-01 BMatC= 7.08D-05 BMatP= 5.19D-04
 IDIUse=3 WtCom= 9.98D-01 WtEn= 2.29D-03
 Coeff-Com:  0.176D-02-0.471D-02-0.186D-01-0.418D-01-0.487D-02 0.209D+00
 Coeff-Com:  0.859D+00
 Coeff-En:   0.000D+00 0.000D+00 0.000D+00 0.000D+00 0.000D+00 0.000D+00
 Coeff-En:   0.100D+01
 Coeff:      0.176D-02-0.470D-02-0.185D-01-0.417D-01-0.486D-02 0.208D+00
 Coeff:      0.860D+00
 Gap=     0.120 Goal=   None    Shift=    0.000
 Gap=     0.083 Goal=   None    Shift=    0.000
 RMSDP=2.24D-05 MaxDP=3.57D-03 DE=-1.77D-04 OVMax= 9.78D-03

 Cycle   8  Pass 1  IDiag  1:
 RMSU=  1.32D-05    CP:  9.59D-01  1.87D+00  7.43D-01  6.93D-01  8.17D-01
                    CP:  1.22D+00  1.07D+00
 E= -1169.29282070301     Delta-E=       -0.000061574343 Rises=F Damp=F
 DIIS: error= 1.24D-04 at cycle   8 NSaved=   8.
 NSaved= 8 IEnMin= 8 EnMin= -1169.29282070301     IErMin= 8 ErrMin= 1.24D-04
 ErrMax= 1.24D-04  0.00D+00 EMaxC= 1.00D-01 BMatC= 3.92D-05 BMatP= 7.08D-05
 IDIUse=3 WtCom= 9.99D-01 WtEn= 1.24D-03
 Coeff-Com: -0.137D-02 0.148D-02-0.238D-01-0.576D-01-0.952D-01-0.861D-01
 Coeff-Com:  0.519D+00 0.743D+00
 Coeff-En:   0.000D+00 0.000D+00 0.000D+00 0.000D+00 0.000D+00 0.000D+00
 Coeff-En:   0.000D+00 0.100D+01
 Coeff:     -0.137D-02 0.148D-02-0.238D-01-0.575D-01-0.951D-01-0.860D-01
 Coeff:      0.518D+00 0.744D+00
 Gap=     0.120 Goal=   None    Shift=    0.000
 Gap=     0.084 Goal=   None    Shift=    0.000
 RMSDP=1.61D-05 MaxDP=1.90D-03 DE=-6.16D-05 OVMax= 6.09D-03

 Cycle   9  Pass 1  IDiag  1:
 RMSU=  7.52D-06    CP:  9.59D-01  1.87D+00  7.45D-01  6.95D-01  8.50D-01
                    CP:  1.37D+00  1.43D+00  1.05D+00
 E= -1169.29284425144     Delta-E=       -0.000023548431 Rises=F Damp=F
 DIIS: error= 8.10D-05 at cycle   9 NSaved=   9.
 NSaved= 9 IEnMin= 9 EnMin= -1169.29284425144     IErMin= 9 ErrMin= 8.10D-05
 ErrMax= 8.10D-05  0.00D+00 EMaxC= 1.00D-01 BMatC= 1.10D-05 BMatP= 3.92D-05
 IDIUse=1 WtCom= 1.00D+00 WtEn= 0.00D+00
 Coeff-Com: -0.113D-02 0.209D-02-0.832D-02-0.229D-01-0.558D-01-0.128D+00
 Coeff-Com:  0.866D-01 0.466D+00 0.662D+00
 Coeff:     -0.113D-02 0.209D-02-0.832D-02-0.229D-01-0.558D-01-0.128D+00
 Coeff:      0.866D-01 0.466D+00 0.662D+00
 Gap=     0.120 Goal=   None    Shift=    0.000
 Gap=     0.084 Goal=   None    Shift=    0.000
 RMSDP=7.29D-06 MaxDP=1.16D-03 DE=-2.35D-05 OVMax= 2.87D-03

 Cycle  10  Pass 1  IDiag  1:
 RMSU=  3.65D-06    CP:  9.59D-01  1.87D+00  7.46D-01  6.95D-01  8.67D-01
                    CP:  1.43D+00  1.54D+00  1.29D+00  8.52D-01
 E= -1169.29285004321     Delta-E=       -0.000005791767 Rises=F Damp=F
 DIIS: error= 3.09D-05 at cycle  10 NSaved=  10.
 NSaved=10 IEnMin=10 EnMin= -1169.29285004321     IErMin=10 ErrMin= 3.09D-05
 ErrMax= 3.09D-05  0.00D+00 EMaxC= 1.00D-01 BMatC= 2.17D-06 BMatP= 1.10D-05
 IDIUse=1 WtCom= 1.00D+00 WtEn= 0.00D+00
 Coeff-Com: -0.230D-03 0.587D-03-0.690D-03-0.295D-02-0.136D-01-0.579D-01
 Coeff-Com: -0.418D-01 0.102D+00 0.356D+00 0.659D+00
 Coeff:     -0.230D-03 0.587D-03-0.690D-03-0.295D-02-0.136D-01-0.579D-01
 Coeff:     -0.418D-01 0.102D+00 0.356D+00 0.659D+00
 Gap=     0.120 Goal=   None    Shift=    0.000
 Gap=     0.084 Goal=   None    Shift=    0.000
 RMSDP=3.09D-06 MaxDP=3.69D-04 DE=-5.79D-06 OVMax= 6.93D-04

 Cycle  11  Pass 1  IDiag  1:
 RMSU=  1.80D-06    CP:  9.59D-01  1.87D+00  7.46D-01  6.95D-01  8.72D-01
                    CP:  1.45D+00  1.59D+00  1.37D+00  1.04D+00  9.40D-01
 E= -1169.29285090966     Delta-E=       -0.000000866451 Rises=F Damp=F
 DIIS: error= 1.32D-05 at cycle  11 NSaved=  11.
 NSaved=11 IEnMin=11 EnMin= -1169.29285090966     IErMin=11 ErrMin= 1.32D-05
 ErrMax= 1.32D-05  0.00D+00 EMaxC= 1.00D-01 BMatC= 5.46D-07 BMatP= 2.17D-06
 IDIUse=1 WtCom= 1.00D+00 WtEn= 0.00D+00
 Coeff-Com:  0.199D-03-0.257D-03 0.220D-02 0.525D-02 0.957D-02 0.501D-02
 Coeff-Com: -0.431D-01-0.792D-01 0.187D-01 0.390D+00 0.691D+00
 Coeff:      0.199D-03-0.257D-03 0.220D-02 0.525D-02 0.957D-02 0.501D-02
 Coeff:     -0.431D-01-0.792D-01 0.187D-01 0.390D+00 0.691D+00
 Gap=     0.120 Goal=   None    Shift=    0.000
 Gap=     0.084 Goal=   None    Shift=    0.000
 RMSDP=1.31D-06 MaxDP=2.07D-04 DE=-8.66D-07 OVMax= 2.96D-04

 Cycle  12  Pass 1  IDiag  1:
 RMSU=  8.36D-07    CP:  9.59D-01  1.87D+00  7.46D-01  6.95D-01  8.72D-01
                    CP:  1.45D+00  1.60D+00  1.39D+00  1.11D+00  1.13D+00
                    CP:  9.22D-01
 E= -1169.29285112366     Delta-E=       -0.000000213998 Rises=F Damp=F
 DIIS: error= 9.07D-06 at cycle  12 NSaved=  12.
 NSaved=12 IEnMin=12 EnMin= -1169.29285112366     IErMin=12 ErrMin= 9.07D-06
 ErrMax= 9.07D-06  0.00D+00 EMaxC= 1.00D-01 BMatC= 1.13D-07 BMatP= 5.46D-07
 IDIUse=1 WtCom= 1.00D+00 WtEn= 0.00D+00
 Coeff-Com:  0.147D-03-0.240D-03 0.147D-02 0.377D-02 0.867D-02 0.154D-01
 Coeff-Com: -0.171D-01-0.665D-01-0.628D-01 0.907D-01 0.380D+00 0.646D+00
 Coeff:      0.147D-03-0.240D-03 0.147D-02 0.377D-02 0.867D-02 0.154D-01
 Coeff:     -0.171D-01-0.665D-01-0.628D-01 0.907D-01 0.380D+00 0.646D+00
 Gap=     0.120 Goal=   None    Shift=    0.000
 Gap=     0.084 Goal=   None    Shift=    0.000
 RMSDP=6.45D-07 MaxDP=8.53D-05 DE=-2.14D-07 OVMax= 1.87D-04

 Cycle  13  Pass 1  IDiag  1:
 RMSU=  3.61D-07    CP:  9.59D-01  1.87D+00  7.46D-01  6.95D-01  8.72D-01
                    CP:  1.45D+00  1.60D+00  1.41D+00  1.13D+00  1.22D+00
                    CP:  1.07D+00  7.59D-01
 E= -1169.29285117191     Delta-E=       -0.000000048252 Rises=F Damp=F
 DIIS: error= 2.79D-06 at cycle  13 NSaved=  13.
 NSaved=13 IEnMin=13 EnMin= -1169.29285117191     IErMin=13 ErrMin= 2.79D-06
 ErrMax= 2.79D-06  0.00D+00 EMaxC= 1.00D-01 BMatC= 2.57D-08 BMatP= 1.13D-07
 IDIUse=1 WtCom= 1.00D+00 WtEn= 0.00D+00
 Coeff-Com: -0.454D-05-0.191D-04 0.102D-04 0.180D-03 0.110D-02 0.560D-02
 Coeff-Com:  0.314D-02-0.709D-02-0.336D-01-0.625D-01-0.276D-01 0.350D+00
 Coeff-Com:  0.771D+00
 Coeff:     -0.454D-05-0.191D-04 0.102D-04 0.180D-03 0.110D-02 0.560D-02
 Coeff:      0.314D-02-0.709D-02-0.336D-01-0.625D-01-0.276D-01 0.350D+00
 Coeff:      0.771D+00
 Gap=     0.120 Goal=   None    Shift=    0.000
 Gap=     0.084 Goal=   None    Shift=    0.000
 RMSDP=3.13D-07 MaxDP=5.18D-05 DE=-4.83D-08 OVMax= 7.64D-05

 Cycle  14  Pass 1  IDiag  1:
 RMSU=  1.57D-07    CP:  9.59D-01  1.87D+00  7.46D-01  6.95D-01  8.73D-01
                    CP:  1.45D+00  1.60D+00  1.41D+00  1.14D+00  1.25D+00
                    CP:  1.12D+00  9.95D-01  1.04D+00
 E= -1169.29285118461     Delta-E=       -0.000000012702 Rises=F Damp=F
 DIIS: error= 1.23D-06 at cycle  14 NSaved=  14.
 NSaved=14 IEnMin=14 EnMin= -1169.29285118461     IErMin=14 ErrMin= 1.23D-06
 ErrMax= 1.23D-06  0.00D+00 EMaxC= 1.00D-01 BMatC= 2.74D-09 BMatP= 2.57D-08
 IDIUse=1 WtCom= 1.00D+00 WtEn= 0.00D+00
 Coeff-Com: -0.232D-04 0.271D-04-0.166D-03-0.355D-03-0.624D-03 0.629D-03
 Coeff-Com:  0.307D-02 0.529D-02-0.692D-02-0.361D-01-0.611D-01 0.807D-01
 Coeff-Com:  0.267D+00 0.749D+00
 Coeff:     -0.232D-04 0.271D-04-0.166D-03-0.355D-03-0.624D-03 0.629D-03
 Coeff:      0.307D-02 0.529D-02-0.692D-02-0.361D-01-0.611D-01 0.807D-01
 Coeff:      0.267D+00 0.749D+00
 Gap=     0.120 Goal=   None    Shift=    0.000
 Gap=     0.084 Goal=   None    Shift=    0.000
 RMSDP=1.25D-07 MaxDP=1.28D-05 DE=-1.27D-08 OVMax= 3.38D-05

 Cycle  15  Pass 1  IDiag  1:
 RMSU=  8.13D-08    CP:  9.59D-01  1.87D+00  7.46D-01  6.95D-01  8.73D-01
                    CP:  1.45D+00  1.60D+00  1.41D+00  1.14D+00  1.26D+00
                    CP:  1.13D+00  1.05D+00  1.21D+00  1.05D+00
 E= -1169.29285118639     Delta-E=       -0.000000001774 Rises=F Damp=F
 DIIS: error= 7.46D-07 at cycle  15 NSaved=  15.
 NSaved=15 IEnMin=15 EnMin= -1169.29285118639     IErMin=15 ErrMin= 7.46D-07
 ErrMax= 7.46D-07  0.00D+00 EMaxC= 1.00D-01 BMatC= 1.32D-09 BMatP= 2.74D-09
 IDIUse=1 WtCom= 1.00D+00 WtEn= 0.00D+00
 Coeff-Com: -0.129D-04 0.227D-04-0.941D-04-0.235D-03-0.688D-03-0.117D-02
 Coeff-Com:  0.645D-03 0.505D-02 0.562D-02-0.189D-02-0.274D-01-0.475D-01
 Coeff-Com: -0.940D-01 0.444D+00 0.718D+00
 Coeff:     -0.129D-04 0.227D-04-0.941D-04-0.235D-03-0.688D-03-0.117D-02
 Coeff:      0.645D-03 0.505D-02 0.562D-02-0.189D-02-0.274D-01-0.475D-01
 Coeff:     -0.940D-01 0.444D+00 0.718D+00
 Gap=     0.120 Goal=   None    Shift=    0.000
 Gap=     0.084 Goal=   None    Shift=    0.000
 RMSDP=8.18D-08 MaxDP=7.88D-06 DE=-1.77D-09 OVMax= 2.52D-05

 Cycle  16  Pass 1  IDiag  1:
 RMSU=  3.85D-08    CP:  9.59D-01  1.87D+00  7.46D-01  6.95D-01  8.73D-01
                    CP:  1.45D+00  1.60D+00  1.41D+00  1.14D+00  1.26D+00
                    CP:  1.13D+00  1.08D+00  1.29D+00  1.37D+00  9.18D-01
 E= -1169.29285118719     Delta-E=       -0.000000000803 Rises=F Damp=F
 DIIS: error= 3.18D-07 at cycle  16 NSaved=  16.
 NSaved=16 IEnMin=16 EnMin= -1169.29285118719     IErMin=16 ErrMin= 3.18D-07
 ErrMax= 3.18D-07  0.00D+00 EMaxC= 1.00D-01 BMatC= 2.43D-10 BMatP= 1.32D-09
 IDIUse=1 WtCom= 1.00D+00 WtEn= 0.00D+00
 Coeff-Com:  0.723D-06 0.204D-05 0.401D-05 0.310D-05-0.135D-03-0.605D-03
 Coeff-Com: -0.592D-03 0.796D-03 0.396D-02 0.802D-02 0.298D-02-0.385D-01
 Coeff-Com: -0.120D+00 0.153D-01 0.325D+00 0.804D+00
 Coeff:      0.723D-06 0.204D-05 0.401D-05 0.310D-05-0.135D-03-0.605D-03
 Coeff:     -0.592D-03 0.796D-03 0.396D-02 0.802D-02 0.298D-02-0.385D-01
 Coeff:     -0.120D+00 0.153D-01 0.325D+00 0.804D+00
 Gap=     0.120 Goal=   None    Shift=    0.000
 Gap=     0.084 Goal=   None    Shift=    0.000
 RMSDP=4.63D-08 MaxDP=4.34D-06 DE=-8.03D-10 OVMax= 1.70D-05

 Cycle  17  Pass 1  IDiag  1:
 RMSU=  2.06D-08    CP:  9.59D-01  1.87D+00  7.46D-01  6.95D-01  8.73D-01
                    CP:  1.45D+00  1.60D+00  1.41D+00  1.14D+00  1.26D+00
                    CP:  1.13D+00  1.09D+00  1.34D+00  1.50D+00  1.19D+00
                    CP:  1.12D+00
 E= -1169.29285118742     Delta-E=       -0.000000000229 Rises=F Damp=F
 DIIS: error= 1.88D-07 at cycle  17 NSaved=  17.
 NSaved=17 IEnMin=17 EnMin= -1169.29285118742     IErMin=17 ErrMin= 1.88D-07
 ErrMax= 1.88D-07  0.00D+00 EMaxC= 1.00D-01 BMatC= 8.37D-11 BMatP= 2.43D-10
 IDIUse=1 WtCom= 1.00D+00 WtEn= 0.00D+00
 Coeff-Com:  0.325D-05-0.417D-05 0.258D-04 0.636D-04 0.105D-03-0.142D-04
 Coeff-Com: -0.496D-03-0.854D-03 0.606D-03 0.481D-02 0.886D-02-0.626D-02
 Coeff-Com: -0.402D-01-0.109D+00-0.267D-01 0.448D+00 0.720D+00
 Coeff:      0.325D-05-0.417D-05 0.258D-04 0.636D-04 0.105D-03-0.142D-04
 Coeff:     -0.496D-03-0.854D-03 0.606D-03 0.481D-02 0.886D-02-0.626D-02
 Coeff:     -0.402D-01-0.109D+00-0.267D-01 0.448D+00 0.720D+00
 Gap=     0.120 Goal=   None    Shift=    0.000
 Gap=     0.084 Goal=   None    Shift=    0.000
 RMSDP=2.33D-08 MaxDP=2.18D-06 DE=-2.29D-10 OVMax= 6.74D-06

 Cycle  18  Pass 1  IDiag  1:
 RMSU=  1.07D-08    CP:  9.59D-01  1.87D+00  7.46D-01  6.95D-01  8.73D-01
                    CP:  1.45D+00  1.60D+00  1.41D+00  1.14D+00  1.26D+00
                    CP:  1.13D+00  1.10D+00  1.36D+00  1.57D+00  1.28D+00
                    CP:  1.44D+00  1.01D+00
 E= -1169.29285118746     Delta-E=       -0.000000000046 Rises=F Damp=F
 DIIS: error= 9.95D-08 at cycle  18 NSaved=  18.
 NSaved=18 IEnMin=18 EnMin= -1169.29285118746     IErMin=18 ErrMin= 9.95D-08
 ErrMax= 9.95D-08  0.00D+00 EMaxC= 1.00D-01 BMatC= 1.35D-11 BMatP= 8.37D-11
 IDIUse=1 WtCom= 1.00D+00 WtEn= 0.00D+00
 Coeff-Com:  0.516D-06-0.133D-05 0.702D-05 0.194D-04 0.707D-04 0.166D-03
 Coeff-Com:  0.179D-04-0.462D-03-0.935D-03-0.853D-03 0.172D-02 0.812D-02
 Coeff-Com:  0.191D-01-0.376D-01-0.993D-01-0.533D-01 0.225D+00 0.938D+00
 Coeff:      0.516D-06-0.133D-05 0.702D-05 0.194D-04 0.707D-04 0.166D-03
 Coeff:      0.179D-04-0.462D-03-0.935D-03-0.853D-03 0.172D-02 0.812D-02
 Coeff:      0.191D-01-0.376D-01-0.993D-01-0.533D-01 0.225D+00 0.938D+00
 Gap=     0.120 Goal=   None    Shift=    0.000
 Gap=     0.084 Goal=   None    Shift=    0.000
 RMSDP=1.33D-08 MaxDP=1.49D-06 DE=-4.59D-11 OVMax= 4.38D-06

 Cycle  19  Pass 1  IDiag  1:
 RMSU=  5.82D-09    CP:  9.59D-01  1.87D+00  7.46D-01  6.95D-01  8.73D-01
                    CP:  1.45D+00  1.60D+00  1.41D+00  1.14D+00  1.26D+00
                    CP:  1.13D+00  1.10D+00  1.37D+00  1.60D+00  1.34D+00
                    CP:  1.59D+00  1.33D+00  1.20D+00
 E= -1169.29285118750     Delta-E=       -0.000000000034 Rises=F Damp=F
 DIIS: error= 4.81D-08 at cycle  19 NSaved=  19.
 NSaved=19 IEnMin=19 EnMin= -1169.29285118750     IErMin=19 ErrMin= 4.81D-08
 ErrMax= 4.81D-08  0.00D+00 EMaxC= 1.00D-01 BMatC= 7.69D-12 BMatP= 1.35D-11
 IDIUse=1 WtCom= 1.00D+00 WtEn= 0.00D+00
 Coeff-Com: -0.474D-06 0.147D-06-0.294D-05-0.642D-05 0.148D-04 0.107D-03
 Coeff-Com:  0.161D-03-0.322D-04-0.741D-03-0.193D-02-0.152D-02 0.671D-02
 Coeff-Com:  0.241D-01 0.109D-01-0.533D-01-0.167D+00-0.873D-01 0.596D+00
 Coeff-Com:  0.674D+00
 Coeff:     -0.474D-06 0.147D-06-0.294D-05-0.642D-05 0.148D-04 0.107D-03
 Coeff:      0.161D-03-0.322D-04-0.741D-03-0.193D-02-0.152D-02 0.671D-02
 Coeff:      0.241D-01 0.109D-01-0.533D-01-0.167D+00-0.873D-01 0.596D+00
 Coeff:      0.674D+00
 Gap=     0.120 Goal=   None    Shift=    0.000
 Gap=     0.084 Goal=   None    Shift=    0.000
 RMSDP=6.81D-09 MaxDP=7.45D-07 DE=-3.41D-11 OVMax= 1.98D-06

 Error on total polarization charges =  0.03579
 SCF Done:  E(UB3LYP) =  -1169.29285119     A.U. after   19 cycles
            NFock= 19  Conv=0.68D-08     -V/T= 2.0093
 <Sx>= 0.0000 <Sy>= 0.0000 <Sz>= 0.5000 <S**2>= 0.7739 S= 0.5119
 <L.S>=  0.00000000000    
 KE= 1.158549673744D+03 PE=-7.591375440548D+03 EE= 2.815401867731D+03
 Annihilation of the first spin contaminant:
 S**2 before annihilation     0.7739,   after     0.7504
 Leave Link  502 at Tue Feb 12 18:07:02 2019, MaxMem=  1342177280 cpu:            2372.2 elap:             150.4
 (Enter /gpfs/apps/hpc/Apps/Restricted/Gaussian/g16/Rev_B.01-AVX/g16/l601.exe)
 Copying SCF densities to generalized density rwf, IOpCl= 1 IROHF=0.

 **********************************************************************

            Population analysis using the SCF Density.

 **********************************************************************

 Alpha  occ. eigenvalues --  -19.18858 -19.15893 -14.49414 -14.39665 -14.33680
 Alpha  occ. eigenvalues --  -10.35978 -10.28069 -10.27984 -10.24845 -10.24260
 Alpha  occ. eigenvalues --  -10.23722 -10.23415 -10.23107 -10.22986 -10.22508
 Alpha  occ. eigenvalues --  -10.22103 -10.21634 -10.21422 -10.21416 -10.21109
 Alpha  occ. eigenvalues --  -10.20471 -10.18095 -10.18055 -10.17791 -10.17508
 Alpha  occ. eigenvalues --  -10.17283 -10.17240  -1.12423  -1.04822  -1.04073
 Alpha  occ. eigenvalues --   -1.02780  -0.89938  -0.88761  -0.87385  -0.83729
 Alpha  occ. eigenvalues --   -0.82575  -0.79673  -0.78271  -0.75046  -0.73372
 Alpha  occ. eigenvalues --   -0.70960  -0.69693  -0.69187  -0.68833  -0.68572
 Alpha  occ. eigenvalues --   -0.66653  -0.65373  -0.64767  -0.64263  -0.63010
 Alpha  occ. eigenvalues --   -0.61567  -0.60679  -0.58411  -0.56419  -0.54046
 Alpha  occ. eigenvalues --   -0.52578  -0.51528  -0.50867  -0.49618  -0.48430
 Alpha  occ. eigenvalues --   -0.47506  -0.47221  -0.46966  -0.46616  -0.45599
 Alpha  occ. eigenvalues --   -0.44983  -0.44277  -0.44151  -0.43832  -0.43381
 Alpha  occ. eigenvalues --   -0.42444  -0.42251  -0.41025  -0.40162  -0.39862
 Alpha  occ. eigenvalues --   -0.39470  -0.39122  -0.38470  -0.38227  -0.37642
 Alpha  occ. eigenvalues --   -0.37198  -0.37138  -0.36422  -0.35470  -0.35416
 Alpha  occ. eigenvalues --   -0.34014  -0.33770  -0.33424  -0.33381  -0.32917
 Alpha  occ. eigenvalues --   -0.32496  -0.32187  -0.29396  -0.27847  -0.27274
 Alpha  occ. eigenvalues --   -0.26465  -0.24666  -0.22378
 Alpha virt. eigenvalues --   -0.10339  -0.05064  -0.02074  -0.00563   0.00623
 Alpha virt. eigenvalues --    0.03137   0.05158   0.07902   0.08445   0.09222
 Alpha virt. eigenvalues --    0.09614   0.10505   0.11764   0.12167   0.12736
 Alpha virt. eigenvalues --    0.13281   0.13391   0.13438   0.14400   0.14884
 Alpha virt. eigenvalues --    0.15829   0.15998   0.16153   0.16313   0.16816
 Alpha virt. eigenvalues --    0.17260   0.17364   0.17680   0.18065   0.18533
 Alpha virt. eigenvalues --    0.19534   0.20017   0.20179   0.20514   0.20583
 Alpha virt. eigenvalues --    0.21430   0.21567   0.21660   0.22208   0.22314
 Alpha virt. eigenvalues --    0.23402   0.23766   0.24487   0.24717   0.25357
 Alpha virt. eigenvalues --    0.25434   0.26478   0.26686   0.27662   0.27898
 Alpha virt. eigenvalues --    0.30139   0.32432   0.33451   0.34371   0.35483
 Alpha virt. eigenvalues --    0.36495   0.37996   0.39567   0.40137   0.44648
 Alpha virt. eigenvalues --    0.45319   0.46191   0.47816   0.47972   0.48161
 Alpha virt. eigenvalues --    0.48683   0.49269   0.49907   0.49954   0.50108
 Alpha virt. eigenvalues --    0.50563   0.51628   0.51929   0.52516   0.52915
 Alpha virt. eigenvalues --    0.52997   0.53428   0.53900   0.54735   0.55421
 Alpha virt. eigenvalues --    0.56638   0.57071   0.57705   0.58524   0.59082
 Alpha virt. eigenvalues --    0.59219   0.59735   0.60410   0.60544   0.60687
 Alpha virt. eigenvalues --    0.61100   0.61630   0.62303   0.62631   0.63335
 Alpha virt. eigenvalues --    0.63769   0.65499   0.65739   0.67039   0.67888
 Alpha virt. eigenvalues --    0.68739   0.69294   0.70227   0.70368   0.71210
 Alpha virt. eigenvalues --    0.71369   0.71663   0.73081   0.74633   0.74900
 Alpha virt. eigenvalues --    0.75402   0.76071   0.77221   0.77941   0.78138
 Alpha virt. eigenvalues --    0.78786   0.78967   0.80115   0.80965   0.81338
 Alpha virt. eigenvalues --    0.81648   0.81973   0.82717   0.83599   0.84344
 Alpha virt. eigenvalues --    0.84430   0.84865   0.85353   0.85389   0.85705
 Alpha virt. eigenvalues --    0.86826   0.87138   0.87164   0.87814   0.88151
 Alpha virt. eigenvalues --    0.88233   0.88389   0.88607   0.89009   0.89462
 Alpha virt. eigenvalues --    0.90181   0.90709   0.91253   0.91928   0.92111
 Alpha virt. eigenvalues --    0.92712   0.93790   0.93939   0.94417   0.94833
 Alpha virt. eigenvalues --    0.95730   0.96320   0.96372   0.97278   0.98115
 Alpha virt. eigenvalues --    0.98210   0.99427   1.00241   1.01771   1.02988
 Alpha virt. eigenvalues --    1.04080   1.05395   1.07119   1.07830   1.09518
 Alpha virt. eigenvalues --    1.11105   1.12069   1.14955   1.15412   1.16342
 Alpha virt. eigenvalues --    1.16603   1.17229   1.19134   1.19192   1.19871
 Alpha virt. eigenvalues --    1.22046   1.23795   1.24967   1.25450   1.26075
 Alpha virt. eigenvalues --    1.27057   1.27442   1.28097   1.28294   1.28677
 Alpha virt. eigenvalues --    1.29577   1.33432   1.34300   1.35780   1.38019
 Alpha virt. eigenvalues --    1.38395   1.38607   1.39122   1.39350   1.41971
 Alpha virt. eigenvalues --    1.43142   1.43270   1.45236   1.45986   1.46299
 Alpha virt. eigenvalues --    1.47338   1.49215   1.49474   1.49639   1.50823
 Alpha virt. eigenvalues --    1.52113   1.53680   1.54132   1.54452   1.58315
 Alpha virt. eigenvalues --    1.59402   1.60107   1.63082   1.66177   1.68118
 Alpha virt. eigenvalues --    1.68787   1.70729   1.72048   1.72676   1.73356
 Alpha virt. eigenvalues --    1.73532   1.74985   1.76138   1.76581   1.78272
 Alpha virt. eigenvalues --    1.78507   1.79315   1.79783   1.80549   1.81178
 Alpha virt. eigenvalues --    1.82071   1.82308   1.82980   1.83520   1.83766
 Alpha virt. eigenvalues --    1.84068   1.84715   1.84831   1.85495   1.86112
 Alpha virt. eigenvalues --    1.86434   1.87121   1.87717   1.88763   1.89737
 Alpha virt. eigenvalues --    1.90363   1.90756   1.92257   1.93551   1.93868
 Alpha virt. eigenvalues --    1.94378   1.96815   1.97220   1.98532   1.99397
 Alpha virt. eigenvalues --    1.99988   2.00746   2.01228   2.03187   2.03747
 Alpha virt. eigenvalues --    2.03926   2.04379   2.04712   2.05101   2.05324
 Alpha virt. eigenvalues --    2.05703   2.06720   2.07136   2.07661   2.08182
 Alpha virt. eigenvalues --    2.08391   2.09139   2.09236   2.09893   2.10461
 Alpha virt. eigenvalues --    2.10670   2.11105   2.11487   2.12519   2.13138
 Alpha virt. eigenvalues --    2.13441   2.13588   2.14461   2.14962   2.15701
 Alpha virt. eigenvalues --    2.16634   2.17020   2.17992   2.19692   2.19884
 Alpha virt. eigenvalues --    2.20587   2.22232   2.23434   2.24200   2.24463
 Alpha virt. eigenvalues --    2.24729   2.25574   2.27006   2.28838   2.28955
 Alpha virt. eigenvalues --    2.30046   2.31243   2.31410   2.31626   2.32626
 Alpha virt. eigenvalues --    2.34775   2.35829   2.36632   2.37186   2.37646
 Alpha virt. eigenvalues --    2.40008   2.40130   2.41254   2.41363   2.43142
 Alpha virt. eigenvalues --    2.43853   2.44631   2.47110   2.47257   2.48775
 Alpha virt. eigenvalues --    2.51148   2.51952   2.52997   2.53032   2.53680
 Alpha virt. eigenvalues --    2.54212   2.54593   2.56539   2.57815   2.58382
 Alpha virt. eigenvalues --    2.59978   2.61389   2.61738   2.62175   2.62210
 Alpha virt. eigenvalues --    2.63949   2.64572   2.64810   2.65633   2.67167
 Alpha virt. eigenvalues --    2.68332   2.69127   2.70332   2.70767   2.71018
 Alpha virt. eigenvalues --    2.72103   2.72590   2.72720   2.73816   2.74284
 Alpha virt. eigenvalues --    2.74734   2.76306   2.76973   2.77134   2.77799
 Alpha virt. eigenvalues --    2.78684   2.80027   2.81083   2.85903   2.86748
 Alpha virt. eigenvalues --    2.87073   2.87586   2.88066   2.88167   2.88914
 Alpha virt. eigenvalues --    2.89188   2.89876   2.90668   2.91698   2.93483
 Alpha virt. eigenvalues --    2.93879   2.93942   2.95093   2.97259   2.97719
 Alpha virt. eigenvalues --    2.99623   3.01712   3.03105   3.04312   3.05709
 Alpha virt. eigenvalues --    3.09967   3.11856   3.14295   3.16250   3.18072
 Alpha virt. eigenvalues --    3.18812   3.19252   3.21340   3.22987   3.24017
 Alpha virt. eigenvalues --    3.25130   3.25139   3.26597   3.27920   3.31378
 Alpha virt. eigenvalues --    3.34671   3.39066   3.40027   3.41667   3.42247
 Alpha virt. eigenvalues --    3.42935   3.43176   3.43575   3.43634   3.43802
 Alpha virt. eigenvalues --    3.45002   3.45264   3.46372   3.51253   3.52337
 Alpha virt. eigenvalues --    3.53413   3.55750   3.60247   3.69125   3.78907
 Alpha virt. eigenvalues --    4.00509   4.03052   4.08888   4.10803   4.14666
 Alpha virt. eigenvalues --    4.15180   4.15637   4.18462   4.25447   4.30632
 Alpha virt. eigenvalues --    4.35289   4.38088   4.43533   4.45010   4.46796
 Alpha virt. eigenvalues --    4.50809   4.53876   4.54860   4.55713   4.60262
 Alpha virt. eigenvalues --    4.61807   4.63158   4.66560   4.73538   4.79088
 Alpha virt. eigenvalues --    4.85184   4.91267
  Beta  occ. eigenvalues --  -19.18845 -19.14986 -14.49415 -14.39646 -14.33563
  Beta  occ. eigenvalues --  -10.35979 -10.28136 -10.27985 -10.24814 -10.24280
  Beta  occ. eigenvalues --  -10.23705 -10.23143 -10.22970 -10.22645 -10.22511
  Beta  occ. eigenvalues --  -10.21797 -10.21606 -10.21528 -10.21440 -10.21123
  Beta  occ. eigenvalues --  -10.20623 -10.18057 -10.18022 -10.17791 -10.17508
  Beta  occ. eigenvalues --  -10.17262 -10.17220  -1.12414  -1.04473  -1.04009
  Beta  occ. eigenvalues --   -1.01436  -0.89821  -0.88271  -0.87168  -0.83450
  Beta  occ. eigenvalues --   -0.82280  -0.79623  -0.78134  -0.74948  -0.72595
  Beta  occ. eigenvalues --   -0.70930  -0.69598  -0.69083  -0.68805  -0.68503
  Beta  occ. eigenvalues --   -0.66614  -0.65343  -0.64762  -0.64206  -0.62762
  Beta  occ. eigenvalues --   -0.61408  -0.60531  -0.58347  -0.56317  -0.53923
  Beta  occ. eigenvalues --   -0.52464  -0.51456  -0.50652  -0.49457  -0.48347
  Beta  occ. eigenvalues --   -0.47186  -0.47121  -0.46927  -0.46543  -0.45304
  Beta  occ. eigenvalues --   -0.44592  -0.44185  -0.43956  -0.43754  -0.42738
  Beta  occ. eigenvalues --   -0.42405  -0.41339  -0.40792  -0.39797  -0.39717
  Beta  occ. eigenvalues --   -0.39438  -0.38955  -0.38182  -0.38160  -0.37632
  Beta  occ. eigenvalues --   -0.37127  -0.36793  -0.36200  -0.35191  -0.34308
  Beta  occ. eigenvalues --   -0.33883  -0.33436  -0.33304  -0.32892  -0.32757
  Beta  occ. eigenvalues --   -0.32055  -0.31197  -0.28729  -0.27725  -0.26501
  Beta  occ. eigenvalues --   -0.26221  -0.23836
  Beta virt. eigenvalues --   -0.15418  -0.10134  -0.04373  -0.00523   0.00343
  Beta virt. eigenvalues --    0.01069   0.03141   0.05861   0.07897   0.08453
[...]
 00000390,-0.00000064,0.00000378,0.00000582,-0.00000220,-0.00000646,-0.
 00000196,-0.00000104,-0.00000253,0.00000605,-0.00001072,-0.00001177,-0
 .00000088,0.00000049,0.00000071,0.00000528,-0.00000238,0.00000625,-0.0
 0000436,-0.00000154,-0.00000132,0.00001053,0.00000076,-0.00000042,-0.0
 0000110,0.00000019,-0.00000082,-0.00000204,-0.00000062,0.00000005,0.00
 000202,-0.00000519,0.00000055,-0.00000668,-0.00000944,0.00001264,-0.00
 000591,0.00000022,-0.00000602,0.00000328,0.00000070,0.00000272,0.00000
 179,-0.00000137,-0.00000145,-0.00000469,-0.00000991,-0.00001197,0.0000
 0404,0.00000007,-0.00000121,-0.00000672,0.00000014,0.00000473,0.000001
 35,-0.00000022,0.00000034,-0.00000987,0.00000476,-0.00000072,0.0000019
 1,-0.00000031,0.00000050,0.00000146,0.00000021,-0.00000081,-0.00000350
 ,-0.00000421,-0.00000006,-0.00041095,-0.00448476,-0.00076067,-0.041363
 18,0.16061829,-0.29550464,0.04173006,-0.17720239,0.31054844,-0.0004118
 4,-0.00010686,-0.00008942,-0.00016546,-0.00006469,0.00001107,0.0000111
 1,-0.00037713,0.00001684,0.00056928,0.00029912,0.00003785,0.00025328,-
 0.00008774,0.00001577,0.00082063,-0.00228354,0.00012105,-0.00025939,-0
 .00006069,-0.00001660,0.00001945,0.00001479,-0.00000317,0.00001971,-0.
 00001656,0.00000413,-0.00016079,0.00022567,-0.00003628,0.00008873,-0.0
 0003534,0.00000945,-0.00005109,0.00006508,-0.00000485,0.00002514,-0.00
 001830,0.00000453,-0.00001074,0.00012375,-0.00000288,-0.00002084,-0.00
 010685,-0.00000279,0.00005345,-0.00000254,0.00000372,-0.00004082,-0.00
 000299,-0.00000259,0.00000446,-0.00000972,0.00000012,0.00000216,0.0000
 0340,-0.00000009,-0.00000288,-0.00001208,0.00000241,-0.00000298,-0.000
 00980,0.00000019,0.00005868,-0.00002300,0.00000398,0.00029548,0.000401
 36,0.00000238,-0.02323276,-0.00031098,-0.00082490,-0.00000487,0.000010
 13,-0.00001181,0.00000508,0.00000052,-0.00000196,-0.00000571,0.0000036
 5,0.00000552,0.00000097,-0.00000022,0.00000115,-0.00000469,0.00000954,
 0.00001016,0.00000091,-0.00000044,-0.00000103,-0.00000530,0.00000359,-
 0.00000535,0.00000514,0.00000060,0.00000174,-0.00000876,-0.00000085,-0
 .00000019,0.00000137,0.,0.00000063,0.00000137,-0.00000012,-0.00000060,
 -0.00000235,0.00000507,-0.00000026,0.00000529,0.00000737,-0.00001016,0
 .00000528,-0.00000002,0.00000472,-0.00000313,-0.00000013,-0.00000196,-
 0.00000149,0.00000043,0.00000081,0.00000380,0.00000802,0.00001018,-0.0
 0000355,-0.00000003,0.00000128,0.00000586,-0.00000011,-0.00000378,-0.0
 0000140,0.00000019,-0.00000080,0.00000804,-0.00000393,0.00000067,-0.00
 000155,0.00000006,-0.00000038,-0.00000144,0.00000010,0.00000017,0.0000
 0315,0.00000343,0.00000014,0.00467660,0.00511551,0.00022775,-0.3762833
 3,0.11846403,-0.00583365,0.00019597,-0.00072850,0.00036115,0.39490695,
 -0.00120635,0.00113793,-0.00025210,-0.00014915,-0.00038230,0.00002060,
 0.00003955,-0.00009704,0.00000843,0.00008186,0.00027807,0.00002254,0.0
 0038731,-0.00108923,0.00011686,-0.00188816,-0.00590042,0.00011075,0.00
 000906,-0.00004949,0.00000692,0.00000080,0.00002664,-0.00001038,-0.000
 03112,0.00001027,-0.00000565,0.00040466,0.00040218,-0.00002338,-0.0002
 5311,-0.00002211,-0.00001934,-0.00000244,-0.00002464,-0.00000007,-0.00
 001714,0.00004829,-0.00000273,0.00000693,-0.00007983,0.00000181,0.0000
 1436,0.00005828,0.00000181,-0.00002419,0.00000116,-0.00000176,0.000013
 40,-0.00000084,0.00000066,-0.00000445,0.00000077,-0.00000015,-0.000001
 06,-0.00000143,0.00000006,0.00000136,0.00000638,-0.00000141,0.00000107
 ,0.00000240,-0.00000002,-0.00001911,-0.00001964,-0.00000039,0.00011056
 ,-0.00004424,0.00001193,-0.03263026,0.01492188,-0.00117850,0.00000171,
 -0.00001042,0.00000626,-0.00000307,0.00000149,0.00000056,0.00000233,-0
 .00000159,-0.00000358,0.00000066,0.00000085,0.00000016,0.00000145,-0.0
 0001042,-0.00000522,0.00000068,0.00000083,-0.00000010,0.00000210,-0.00
 000142,0.00000342,-0.00000300,0.00000092,-0.00000049,0.00000539,-0.000
 00055,0.00000026,0.00000002,0.00000057,-0.00000105,0.00000003,0.000000
 75,0.00000108,0.00000049,-0.00000261,0.00000010,-0.00000196,-0.0000023
 2,0.00000350,-0.00000115,0.00000025,-0.00000165,0.00000078,-0.00000006
 ,0.00000076,0.00000034,-0.00000050,-0.00000056,-0.00000146,-0.00000249
 ,-0.00000356,0.00000095,-0.00000015,-0.00000054,-0.00000138,0.00000030
 ,0.00000140,0.00000028,-0.00000039,0.00000055,-0.00000314,0.00000169,-
 0.00000027,0.00000042,-0.00000028,-0.00000015,0.00000034,-0.00000028,0
 .00000020,-0.00000040,-0.00000121,0.,0.00590150,0.00256253,-0.00023647
 ,0.11154855,-0.09719242,0.00256761,0.01898024,-0.00559543,-0.00275362,
 -0.12018444,0.09681271,-0.00010808,-0.00001590,0.00039491,0.00002710,-
 0.00003894,-0.00006954,-0.00001859,0.00001728,0.00000762,-0.00002182,-
 0.00004274,0.00017388,-0.00009173,0.00019679,-0.00009638,0.00011104,-0
 .00000110,0.00077687,-0.00002983,-0.00001009,-0.00000672,-0.00000307,-
 0.00000628,-0.00001676,-0.00000242,0.00000131,0.00000160,-0.00001592,-
 0.00013227,-0.00024419,0.00000377,-0.00000746,-0.00001698,-0.00000115,
 -0.00000138,0.00000223,0.00000010,0.00000579,-0.00000281,0.00000213,-0
 .00000428,-0.00000170,0.00000161,0.00000328,-0.00000105,-0.00000209,0.
 00000022,-0.00000009,0.00000100,-0.00000029,0.00000018,-0.00000017,-0.
 00000003,0.00000428,-0.00000005,-0.00000005,0.00000047,0.00000011,0.00
 000024,0.00000196,0.00000003,0.00000018,0.00000036,-0.00000031,0.00000
 037,-0.00000172,0.00000721,0.00002921,0.00001539,-0.00052491,-0.000485
 04,-0.00067797,-0.00000015,-0.00000173,0.00000009,-0.00000016,0.000000
 53,0.00000160,0.00000013,0.00000014,0.00000007,-0.00000059,-0.00000065
 ,-0.00000099,0.00000036,0.00000139,-0.00000027,0.00000067,0.00000066,-
 0.00000099,-0.00000009,-0.00000007,0.00000024,0.00000003,-0.00000024,0
 .00000147,0.00000013,-0.00000003,-0.00000112,0.00000061,0.00000057,-0.
 00000042,-0.00000060,-0.00000061,-0.00000044,-0.00000002,-0.00000001,0
 .00000038,-0.00000022,-0.00000012,0.00000058,-0.00000002,0.00000011,-0
 .00000019,-0.00000014,0.00000019,0.00000023,0.00000019,-0.00000041,-0.
 00000046,0.00000001,-0.00000020,0.00000024,0.00000014,-0.00000012,0.00
 000022,-0.00000010,-0.00000007,-0.00000001,-0.00000011,0.00000032,-0.0
 0000051,-0.00000015,0.00000008,0.00000026,0.00000019,-0.00000024,-0.00
 000020,-0.00000012,0.00000025,-0.00000030,-0.00000004,-0.00000005,0.00
 000005,0.00041969,0.00013415,-0.00064395,-0.00631251,0.00262466,-0.062
 95532,-0.03112916,0.00828029,0.00233645,0.00646114,-0.00176112,0.05765
 708,0.00260515,-0.00024626,-0.00001034,0.00284007,-0.00526950,0.001066
 56,0.00063672,0.00124714,0.00019525,-0.00107385,-0.00011750,-0.0000836
 7,0.00076396,-0.00004607,0.00009062,0.00123515,0.00009937,-0.00000456,
 -0.01727428,-0.00351623,-0.00082181,-0.00078972,-0.00025460,0.00004143
 ,0.00005189,0.00011991,-0.00001109,0.00005423,0.00004412,-0.00000137,-
 0.41592127,-0.07461521,-0.03075946,0.00489923,0.00078567,0.00031710,0.
 00034248,0.00046401,0.00014613,-0.00044665,-0.00059645,0.00000236,0.00
 056045,0.00035489,0.00000625,-0.00055913,0.00036844,-0.00003945,-0.000
 72105,0.00029451,-0.00012102,-0.00009758,0.00003830,0.00000182,-0.0001
 1581,0.00006017,0.00000314,-0.00011505,-0.00007078,0.00000270,-0.00009
 280,-0.00010188,-0.00000670,-0.00960274,0.00095422,-0.00062677,0.00254
 074,0.00345332,-0.00044891,-0.00123493,0.00057295,-0.00017994,0.000002
 80,0.00005400,-0.00003404,-0.00001038,-0.00001327,0.00000380,-0.000012
 05,-0.00001187,0.00001413,0.00000251,-0.00000169,-0.00000065,0.0000047
 7,0.00005139,0.00002576,0.00000154,-0.00000148,0.00000003,-0.00001034,
 -0.00001150,-0.00001277,-0.00001073,-0.00001284,-0.00000351,0.00000748
 ,-0.00001573,0.00000122,0.00000255,-0.00000384,0.00000564,0.00000167,-
 0.00000393,-0.00000602,-0.00000764,-0.00000534,-0.00000047,0.00002211,
 -0.00005021,0.00002148,0.00000202,0.00003086,0.00000288,-0.00004045,0.
 00001115,-0.00005297,-0.00000265,0.00001588,0.00001628,0.00002435,-0.0
 0005415,-0.00001244,-0.00005083,0.00001188,0.00004072,0.00000253,0.000
 03207,-0.00000370,-0.00000126,0.00001215,-0.00001483,0.00000975,-0.000
 00090,0.00000305,-0.00000129,0.00001122,0.00000429,-0.00000015,0.00001
 001,-0.00000453,0.00000297,0.00000797,-0.00000013,0.00048654,-0.000508
 53,0.00008074,0.00039511,0.00023720,0.00003784,-0.00004627,-0.00004305
 ,0.00006291,-0.00002953,0.00004381,0.00000109,0.43078582,-0.00018684,-
 0.00791258,0.00045964,-0.02376647,0.00049913,-0.00230282,0.00068240,0.
 00147067,-0.00003116,-0.00066488,-0.00002692,-0.00005510,0.00051364,-0
 .00025785,0.00004462,-0.00027477,0.00131535,-0.00004435,0.01791158,0.0
 1950190,0.00058877,0.00024978,-0.00061014,0.00015389,0.00002464,0.0000
 2131,0.00000501,0.00002725,0.00001228,0.00000315,-0.08048498,-0.084403
 67,-0.00302704,0.00912474,-0.00643713,0.00082312,-0.00055901,-0.000039
 48,-0.00017383,-0.00056036,0.00022600,-0.00004661,0.00065218,-0.000146
 66,0.00001656,-0.00072964,0.00064619,-0.00006540,-0.00130374,0.0004807
 8,-0.00000936,-0.00027154,0.00019583,-0.00001411,-0.00018546,0.0001756
 0,-0.00002114,-0.00018914,-0.00022005,0.00004004,-0.00024454,-0.000380
 48,-0.00001392,-0.00582421,0.00761025,-0.00087646,0.01020572,-0.000859
 86,0.00110923,-0.00048832,-0.00017746,-0.00001659,-0.00005215,0.000233
 40,-0.00021481,0.00001916,-0.00001687,-0.00001330,-0.00008313,-0.00000
 163,0.00009718,0.00001588,-0.00000032,0.00001945,-0.00004686,0.0002255
 9,0.00018031,0.00001455,-0.00000107,-0.00002195,-0.00007467,-0.0000024
 1,-0.00009250,0.00001858,-0.00001338,0.00001247,-0.00012286,-0.0000363
 8,-0.00000175,0.00002243,-0.00000359,0.00001309,0.00002000,-0.00000653
 ,-0.00001378,-0.00003145,0.00005298,-0.00000360,0.00016480,0.00005362,
 -0.00006365,0.00007752,0.00009483,0.00008719,-0.00019232,0.00005632,-0
 .00020984,-0.00001508,0.00005187,0.00004781,0.00018255,0.00006476,0.00
 008624,-0.00024209,0.00006741,0.00017245,0.00008738,0.00009905,-0.0000
 8295,-0.00001250,0.00004342,-0.00005025,0.00015301,-0.00006225,0.00001
 209,-0.00001880,0.00001914,-0.00000494,-0.00001682,0.00002119,0.000001
 08,0.00004499,0.00007879,0.00000071,0.00028759,-0.00000482,0.00002304,
 -0.00004971,0.00009818,-0.00000853,0.00000204,-0.00000303,0.00001457,-
 0.00002813,-0.00001957,-0.00000258,0.07621536,0.06823319,0.00000651,0.
 00039237,0.00285010,0.00178360,-0.00083288,-0.00652248,0.00022870,0.00
 005661,-0.00139859,-0.00006484,-0.00000695,0.00001553,0.00006957,-0.00
 001320,-0.00030484,0.00000697,0.00001714,0.00122288,-0.00205831,-0.001
 22040,-0.00498117,0.00002793,0.00008221,-0.00054386,-0.00000441,0.0000
 1395,0.00009112,-0.00000190,0.00000673,0.00006362,-0.03014928,-0.00254
 947,-0.01292602,0.00001958,0.00022642,0.00005931,0.00021656,0.00004433
 ,-0.00195097,-0.00000259,-0.00007157,-0.00018328,0.00001637,0.00004376
 ,0.00022689,-0.00002756,0.00000465,-0.00002330,-0.00007349,0.00000230,
 0.00101371,0.00000824,-0.00000519,-0.00007478,0.00000766,-0.00000298,-
 0.00013204,-0.00000392,0.00000154,0.00001745,0.00000111,0.00000717,-0.
 00001002,-0.00041514,-0.00028730,-0.00290423,-0.00069796,0.00060095,0.
 00595905,-0.00010886,0.00007191,0.00040783,0.00000459,-0.00000453,0.00
 000601,-0.00000020,-0.00000002,0.00000280,0.00000133,-0.00000047,-0.00
 000389,-0.00000102,-0.00000281,-0.00000374,-0.00000043,-0.00000288,-0.
 00000266,0.00000042,0.00000213,-0.00000240,0.00000207,-0.00000144,0.00
 000078,-0.00000274,-0.00000075,0.00000103,0.00000522,-0.00000067,-0.00
 000307,-0.00000017,0.00000204,-0.00000064,-0.00000059,-0.00000236,-0.0
 0000024,0.00000052,-0.00000237,-0.00000030,-0.00004077,-0.00003222,-0.
 00000858,0.00000029,-0.00000273,-0.00001166,0.00001306,-0.00000619,0.0
 0002800,0.00000052,-0.00000694,-0.00001113,0.00003567,0.00001987,-0.00
 000965,-0.00000693,0.00000348,0.00001754,-0.00000455,0.00000033,-0.000
 00669,0.00000049,0.00000382,-0.00001010,-0.00000244,0.00000142,-0.0000
 2913,0.00000125,-0.00000773,-0.00000109,0.00000015,0.00000782,-0.00000
 239,-0.00000135,-0.00000227,-0.00000049,0.00003943,-0.00003529,-0.0000
 8838,0.00004898,0.00000023,-0.00011956,0.00001230,0.00001127,0.0000065
 7,0.00000089,0.00000855,-0.00001404,0.03113365,0.00348604,0.02029671,0
 .00025004,0.00037272,0.00055502,-0.00017643,0.00005759,-0.00022457,0.0
 0014910,0.00001329,-0.00005540,-0.00015530,0.00027927,-0.00016086,0.00
 065648,-0.00092195,-0.00067290,-0.00208532,-0.00059615,0.00127715,0.00
 031026,0.00008660,-0.00003257,0.00003249,0.00004503,0.00007809,0.00002
 390,-0.00001081,0.00002119,-0.00146580,0.00050966,-0.00094200,-0.00005
 237,0.00019532,0.00000625,0.00000631,0.00002729,0.00000142,0.00000445,
 -0.00007889,-0.00000617,-0.00002330,0.00009745,-0.00000142,-0.00002296
 ,-0.00007751,-0.00000529,0.00003967,-0.00000295,0.00000388,-0.00002469
 ,0.00000335,-0.00000145,0.00000192,-0.00000060,0.00000317,0.00000122,0
 .00000182,0.00000012,-0.00000239,-0.00000743,0.00000129,-0.00000141,-0
 .00000545,-0.00000011,0.00001650,0.00000148,0.00000191,-0.00011734,-0.
 00021317,0.00007517,0.00719219,-0.00593473,-0.01764151,-0.00000285,0.0
 0000710,-0.00000688,0.00000262,0.00000014,-0.00000089,-0.00000316,0.00
 000179,0.00000342,0.00000035,-0.00000035,0.00000052,-0.00000259,0.0000
 0740,0.00000580,0.00000043,-0.00000051,-0.00000051,-0.00000303,0.00000
 169,-0.00000317,0.00000271,-0.00000003,0.00000099,-0.00000504,-0.00000
 026,-0.00000035,0.00000071,-0.00000005,0.00000044,0.00000061,-0.000000
 22,-0.00000047,-0.00000122,0.00000280,-0.00000009,0.00000283,0.0000037
 9,-0.00000533,0.00000271,-0.00000011,0.00000244,-0.00000155,-0.0000000
 3,-0.00000111,-0.00000083,0.00000034,0.00000055,0.00000194,0.00000370,
 0.00000539,-0.00000175,0.00000017,0.00000049,0.00000302,-0.00000014,-0
 .00000187,-0.00000074,0.00000009,-0.00000037,0.00000401,-0.00000233,0.
 00000046,-0.00000090,0.00000016,-0.00000004,-0.00000078,0.00000009,-0.
 00000005,0.00000155,0.00000172,0.00000005,-0.00073116,-0.00257697,0.00
 173634,-0.06692867,0.02868725,0.04145600,0.00037856,-0.00374910,-0.005
 30751,-0.00133064,0.01886356,0.03122585,-0.00001616,0.00000270,-0.0000
 2417,0.06407181,-0.00012038,-0.00053033,0.00041447,0.00016046,-0.00011
 819,-0.00013336,0.00005548,0.00014713,0.00005608,-0.00012963,-0.000063
 69,-0.00002277,-0.00006348,0.00060334,-0.00010285,0.00066299,0.0008221
 9,0.00120481,-0.00009173,-0.00000233,-0.00005961,-0.00000350,-0.000003
 60,0.00001920,0.00002816,-0.00001520,-0.00002754,0.00019213,-0.0004674
 2,-0.00028795,0.00011477,0.00003435,0.00001522,-0.00000811,0.00001411,
 -0.00000068,0.00000850,-0.00002097,-0.00000663,-0.00000894,0.00004020,
 0.00000012,-0.00001104,-0.00003180,-0.00000419,0.00002002,-0.00000128,
 0.00000216,-0.00001250,0.00000085,-0.00000060,0.00000198,-0.00000356,0
 .00000334,0.00000024,0.00000126,0.00000028,-0.00000072,-0.00000268,0.,
 -0.00000160,-0.00000365,0.00000010,0.00002002,0.00000628,0.00000155,0.
 00000277,0.00017919,0.00007728,0.00489947,-0.01553114,-0.01903564,-0.0
 0000164,0.00000049,-0.00000268,0.00000100,0.00000142,-0.00000070,-0.00
 000146,0.00000053,0.00000097,0.00000076,0.00000018,0.00000079,-0.00000
 170,0.00000013,0.00000260,0.00000065,-0.00000007,-0.00000054,-0.000001
 42,0.00000049,-0.00000098,0.00000089,0.00000109,0.00000020,-0.00000193
 ,-0.00000057,0.00000015,0.00000068,0.00000030,-0.00000036,0.00000074,0
 .00000043,0.00000044,-0.00000073,0.00000107,-0.00000010,0.00000194,0.0
 0000281,-0.00000333,0.00000225,0.00000035,0.00000170,-0.00000153,-0.00
 000010,-0.00000086,-0.00000054,-0.00000002,0.00000008,0.00000135,0.000
 00281,0.00000335,-0.00000163,-0.00000004,0.00000053,0.00000245,0.00000
 029,-0.00000127,-0.00000058,-0.00000005,-0.00000005,0.00000277,-0.0000
 0121,0.00000026,-0.00000057,-0.00000016,-0.00000037,-0.00000060,-0.000
 00011,0.00000026,0.00000148,0.00000132,0.00000007,-0.00222519,-0.00387
 629,0.00254540,0.03632682,-0.16661577,-0.17092457,-0.00440518,0.015822
 70,0.01952953,-0.00028969,-0.00572380,-0.00878392,-0.00002914,-0.00000
 492,-0.00001742,-0.03509563,0.17533365,0.00000874,-0.00085260,-0.00001
 461,-0.00007353,0.00005966,0.00004550,0.00010195,-0.00034415,0.0000575
 0,0.00057214,0.00054071,0.00020138,-0.00089330,-0.00014449,-0.00070763
 ,0.00144005,0.00016106,0.00020108,-0.00025702,0.00000744,-0.00000523,0
 .00004446,0.00003006,-0.00004400,0.00004707,-0.00003693,0.00000255,-0.
 00087545,0.00029143,-0.00159778,0.00022862,0.00002446,0.00000789,-0.00
 005703,0.00009111,-0.00000407,0.00003829,-0.00005756,0.00000513,-0.000
 02055,0.00018430,-0.00000612,-0.00004011,-0.00014950,-0.00000446,0.000
 08019,-0.00000497,0.00000502,-0.00005595,-0.00000213,-0.00000305,0.000
 00548,-0.00000884,0.00000277,0.00000221,0.00000463,0.00000030,-0.00000
 339,-0.00001498,0.00000480,-0.00000431,-0.00001265,0.00000090,0.000083
 00,-0.00002058,0.00000181,0.00023494,0.00052134,-0.00002279,-0.0061818
 2,-0.00615739,0.00245366,-0.00000717,0.00001255,-0.00001518,0.00000487
 ,0.00000169,-0.00000181,-0.00000648,0.00000291,0.00000731,0.00000110,-
 0.00000033,0.00000095,-0.00000651,0.00001400,0.00001344,0.00000225,0.0
 0000089,-0.00000274,-0.00000607,0.00000234,-0.00000693,0.00000436,0.00
 000113,0.00000392,-0.00001179,-0.00000093,-0.00000099,0.00000237,0.000
 00084,0.00000009,0.00000124,-0.00000039,-0.00000092,-0.00000233,0.0000
 0587,0.,0.00000715,0.00001027,-0.00001330,0.00000675,-0.00000001,0.000
 00648,-0.00000408,-0.00000021,-0.00000225,-0.00000154,0.00000044,0.000
 00041,0.00000544,0.00001125,0.00001430,-0.00000430,-0.00000047,0.00000
 221,0.00000749,-0.00000040,-0.00000550,-0.00000188,0.00000118,-0.00000
 175,0.00001097,-0.00000533,0.00000112,-0.00000167,-0.00000033,-0.00000
 110,-0.00000203,0.00000044,0.00000020,0.00000393,0.00000469,0.00000025
 ,0.00043666,0.00397341,-0.00146124,0.05106163,-0.15762887,-0.29272538,
 0.00597508,-0.01940621,-0.02102103,-0.00046609,0.00336751,0.00337641,-
 0.00006775,-0.00001546,-0.00000150,-0.05136631,0.17553807,0.31125396\\
 -0.00000170,0.00000005,0.00000223,-0.00000106,0.00000009,0.00000118,-0
 .00000170,-0.00000001,0.00000202,-0.00000236,0.,0.00000296,-0.00000208
 ,0.00000032,0.00000379,-0.00000154,0.00000100,0.00000344,-0.00000080,0
 .00000033,0.00000045,-0.00000171,-0.00000058,0.00000127,-0.00000237,0.
 00000003,0.00000324,-0.00000240,0.00000084,0.00000454,-0.00000076,-0.0
 0000096,0.00000152,0.00000033,-0.00000072,-0.00000115,-0.00000015,-0.0
 0000005,-0.00000003,0.00000005,0.00000025,0.00000016,0.00000058,0.0000
 0009,-0.00000065,0.00000101,-0.00000029,-0.00000177,0.00000060,-0.0000
 0054,-0.00000206,0.00000001,0.00000053,0.00000098,0.00000133,-0.000000
 41,-0.00000236,0.00000105,0.00000062,-0.00000031,0.00000096,-0.0000011
 7,-0.00000306,0.00000010,-0.00000080,-0.00000158,-0.00000079,-0.000000
 01,0.00000184,-0.00000174,0.00000073,0.00000404,0.00000169,0.00000147,
 0.00000036,0.00000135,0.00000161,0.00000109,0.00000190,0.00000179,0.00
 000062,0.00000234,0.00000172,-0.00000008,-0.00000002,0.00000022,0.0000
 0031,-0.00000045,-0.00000040,-0.00000009,0.00000028,0.00000055,0.00000
 065,-0.00000033,0.00000035,0.00000108,0.00000149,0.00000044,-0.0000012
 4,0.00000105,-0.00000024,-0.00000178,0.00000214,0.00000070,-0.00000176
 ,0.00000170,0.00000072,-0.00000099,0.00000168,-0.00000060,-0.00000356,
 0.00000184,-0.00000107,-0.00000429,0.00000129,-0.00000070,-0.00000299,
 0.00000232,-0.00000007,-0.00000322,-0.00000003,-0.00000199,-0.00000357
 ,-0.00000038,-0.00000207,-0.00000310,0.00000022,-0.00000234,-0.0000044
 0,-0.00000049,-0.00000232,-0.00000339,0.00000149,-0.00000105,-0.000003
 96,0.00000220,-0.00000058,-0.00000383,0.00000108,-0.00000136,-0.000003
 88,0.00000167,-0.00000150,-0.00000484,-0.00000161,0.00000146,0.0000041
 2,-0.00000170,0.00000131,0.00000580,-0.00000187,0.00000186,0.00000527,
 -0.00000198,0.00000189,0.00000567,-0.00000068,-0.00000030,-0.00000056,
 -0.00000305,0.00000113,0.00000585\\\@


 Statistics are no substitute for judgment.
                            -- Henry Clay
 Job cpu time:       0 days  7 hours 35 minutes 38.7 seconds.
 Elapsed time:       0 days  0 hours 28 minutes 41.8 seconds.
 File lengths (MBytes):  RWF=   3284 Int=      0 D2E=      0 Chk=     56 Scr=      8
 Normal termination of Gaussian 16 at Tue Feb 12 19:20:19 2019.
