 Entering Gaussian System, Link 0=g16
 Initial command:
 /gpfs/apps/hpc/Apps/Restricted/Gaussian/Rev_A.03/g16/l1.exe "/gpfs/scratch60/fas/hammes_schiffer/jg2487/c43n01/Gau-158397.inp" -scrdir="/gpfs/scratch60/fas/hammes_schiffer/jg2487/c43n01/"
 Entering Link 1 = /gpfs/apps/hpc/Apps/Restricted/Gaussian/Rev_A.03/g16/l1.exe PID=    158398.
  
 Copyright (c) 1988,1990,1992,1993,1995,1998,2003,2009,2016,
            Gaussian, Inc.  All Rights Reserved.
  
 This is part of the Gaussian(R) 16 program.  It is based on
 the Gaussian(R) 09 system (copyright 2009, Gaussian, Inc.),
 the Gaussian(R) 03 system (copyright 2003, Gaussian, Inc.),
 the Gaussian(R) 98 system (copyright 1998, Gaussian, Inc.),
 the Gaussian(R) 94 system (copyright 1995, Gaussian, Inc.),
 the Gaussian 92(TM) system (copyright 1992, Gaussian, Inc.),
 the Gaussian 90(TM) system (copyright 1990, Gaussian, Inc.),
 the Gaussian 88(TM) system (copyright 1988, Gaussian, Inc.),
 the Gaussian 86(TM) system (copyright 1986, Carnegie Mellon
 University), and the Gaussian 82(TM) system (copyright 1983,
 Carnegie Mellon University). Gaussian is a federally registered
 trademark of Gaussian, Inc.
  
 This software contains proprietary and confidential information,
 including trade secrets, belonging to Gaussian, Inc.
  
 This software is provided under written license and may be
 used, copied, transmitted, or stored only in accord with that
 written license.
  
 The following legend is applicable only to US Government
 contracts under FAR:
  
                    RESTRICTED RIGHTS LEGEND
  
 Use, reproduction and disclosure by the US Government is
 subject to restrictions as set forth in subparagraphs (a)
 and (c) of the Commercial Computer Software - Restricted
 Rights clause in FAR 52.227-19.
  
 Gaussian, Inc.
 340 Quinnipiac St., Bldg. 40, Wallingford CT 06492
  
  
 ---------------------------------------------------------------
 Warning -- This program may not be used in any manner that
 competes with the business of Gaussian, Inc. or will provide
 assistance to any competitor of Gaussian, Inc.  The licensee
 of this program is prohibited from giving any competitor of
 Gaussian, Inc. access to this program.  By using this program,
 the user acknowledges that Gaussian, Inc. is engaged in the
 business of creating and licensing software in the field of
 computational chemistry and represents and warrants to the
 licensee that it is not a competitor of Gaussian, Inc. and that
 it will not use this program in any manner prohibited above.
 ---------------------------------------------------------------
  

 Cite this work as:
 Gaussian 16, Revision A.03,
 M. J. Frisch, G. W. Trucks, H. B. Schlegel, G. E. Scuseria, 
 M. A. Robb, J. R. Cheeseman, G. Scalmani, V. Barone, 
 G. A. Petersson, H. Nakatsuji, X. Li, M. Caricato, A. V. Marenich, 
 J. Bloino, B. G. Janesko, R. Gomperts, B. Mennucci, H. P. Hratchian, 
 J. V. Ortiz, A. F. Izmaylov, J. L. Sonnenberg, D. Williams-Young, 
 F. Ding, F. Lipparini, F. Egidi, J. Goings, B. Peng, A. Petrone, 
 T. Henderson, D. Ranasinghe, V. G. Zakrzewski, J. Gao, N. Rega, 
 G. Zheng, W. Liang, M. Hada, M. Ehara, K. Toyota, R. Fukuda, 
 J. Hasegawa, M. Ishida, T. Nakajima, Y. Honda, O. Kitao, H. Nakai, 
 T. Vreven, K. Throssell, J. A. Montgomery, Jr., J. E. Peralta, 
 F. Ogliaro, M. J. Bearpark, J. J. Heyd, E. N. Brothers, K. N. Kudin, 
 V. N. Staroverov, T. A. Keith, R. Kobayashi, J. Normand, 
 K. Raghavachari, A. P. Rendell, J. C. Burant, S. S. Iyengar, 
 J. Tomasi, M. Cossi, J. M. Millam, M. Klene, C. Adamo, R. Cammi, 
 J. W. Ochterski, R. L. Martin, K. Morokuma, O. Farkas, 
 J. B. Foresman, and D. J. Fox, Gaussian, Inc., Wallingford CT, 2016.
 
 ******************************************
 Gaussian 16:  ES64L-G16RevA.03 25-Dec-2016
                20-Dec-2018 
 ******************************************
 %chk=cyclohexyl-diBIP-TS1.chk
 %mem=10GB
 %nprocshared=16
 Will use up to   16 processors via shared memory.
 ----------------------------------------------------------------------
 #p opt=(tight,ts,calcfc,noeigentest) freq=internalmodes b3lyp/6-31g(d,
 p) scrf=(cpcm,solvent=dichloromethane,read) nosymm empiricaldispersion
 =gd3bj int=grid=ultrafine
 ----------------------------------------------------------------------
 1/5=1,7=10,10=4,11=1,18=20,26=6,38=1,40=2/1,3;
 2/9=110,12=2,15=1,17=6,18=5,40=1/2;
 3/5=1,6=6,7=101,11=2,25=1,30=1,70=2103,71=2,72=9,74=-5,75=-5,124=41,140=1/1,2,3;
 4//1;
 5/5=2,38=5,53=9/2;
 8/6=4,10=90,11=11/1;
 11/6=1,8=1,9=11,15=111,16=1,31=1/1,2,10;
 10/6=1,13=1,31=1/2;
 6/7=2,8=2,9=2,10=2,28=1/1;
 7/10=1,18=20,25=1,30=1/1,2,3,16;
 1/5=1,7=10,10=4,11=1,18=20,26=6/3(2);
 2/9=110,15=1/2;
 99//99;
 2/9=110,15=1/2;
 3/5=1,6=6,7=101,11=2,25=1,30=1,70=2105,71=1,72=9,74=-5,75=-5,124=41/1,2,3;
 4/5=5,16=3,69=1/1;
 5/5=2,38=5,53=9/2;
 7/30=1/1,2,3,16;
 1/5=1,7=10,11=1,18=20,26=6/3(-5);
 2/9=110,15=1/2;
 6/7=2,8=2,9=2,10=2,19=2,28=1/1;
 99/9=1/99;
 Leave Link    1 at Thu Dec 20 18:44:02 2018, MaxMem=  1342177280 cpu:               7.2 elap:               0.5
 (Enter /gpfs/apps/hpc/Apps/Restricted/Gaussian/Rev_A.03/g16/l101.exe)
 ----------------------------------------------------------------------
 cyclohexylimine diBIP oxidized, first proton transition state optimiza
 tion
 ----------------------------------------------------------------------
 Symbolic Z-matrix:
 Charge =  1 Multiplicity = 2
 C                     1.67486   1.39686   0.15875 
 C                     0.45605   2.09591  -0.00246 
 C                     0.45803   3.49823  -0.0067 
 C                     1.67773   4.14919   0.16297 
 C                     2.87813   3.43525   0.33384 
 C                     2.91165   2.03663   0.3335 
 C                    -0.01131  -0.01515  -0.06204 
 H                    -0.46139   4.05468  -0.14002 
 H                     1.70758   5.23242   0.16574 
 H                     3.80775   3.97755   0.46896 
 C                    -2.15435  -1.24571  -0.13087 
 C                    -2.94039  -2.42943  -0.16497 
 C                    -2.32065  -3.68909  -0.20948 
 C                    -0.93441  -3.71158  -0.22231 
 C                    -0.16188  -2.52894  -0.17994 
 C                    -0.74787  -1.26475  -0.13341 
 C                    -4.29849  -0.73071  -0.08184 
 H                    -2.90583  -4.59886  -0.23534 
 H                    -0.41864  -4.66281  -0.26342 
 H                     0.91826  -2.61242  -0.19032 
 N                    -0.58306   1.1858   -0.13393 
 C                    -6.76867  -0.76373  -0.23319 
 C                    -5.53864  -0.00463  -0.06327 
 C                    -5.61965   1.37534   0.08435 
 C                    -6.85513   2.02716   0.04763 
 C                    -8.04901   1.26459  -0.11968 
 C                    -8.04105  -0.09901  -0.2586 
 H                    -4.71949   1.95563   0.23763 
 H                    -8.99447   1.7964   -0.12792 
 C                    -6.96408   3.50727   0.19062 
 C                    -9.28468  -0.91895  -0.39855 
 O                    -6.75551  -2.05956  -0.35745 
 N                    -3.03587  -0.20204  -0.07556 
 N                    -4.26326  -2.07232  -0.1265 
 H                    -2.72008   0.76569  -0.09727 
 N                     1.34698   0.06552   0.10975 
 H                     2.03925  -0.66568   0.23152 
 C                     4.15422   1.28724   0.51141 
 H                     5.05636   1.89281   0.62744 
 N                     4.16317   0.00689   0.52913 
 C                     5.42434  -0.72304   0.6694 
 C                     5.62203  -1.57707  -0.59746 
 C                     6.68523   0.09429   0.97058 
 H                     5.27169  -1.42164   1.50421 
 C                     6.84436  -2.49129  -0.47021 
 H                     5.74986  -0.89686  -1.44881 
 H                     4.71349  -2.15715  -0.78281 
 C                     7.89579  -0.83586   1.12172 
 H                     6.87049   0.80027   0.1513 
 H                     6.5391    0.68605   1.88049 
 C                     8.10482  -1.68524  -0.13711 
 H                     6.98836  -3.05605  -1.39689 
 H                     6.66609  -3.22285   0.32751 
 H                     8.79427  -0.25465   1.34752 
 H                     7.73258  -1.50605   1.97522 
 H                     8.9587   -2.35609  -0.00258 
 H                     8.34672  -1.02714  -0.98123 
 H                    -5.76541  -2.38492  -0.29965 
 C                    -7.67245   4.11267  -1.03548 
 H                    -8.72895   3.9705   -0.94327 
 H                    -7.45693   5.15925  -1.09122 
 H                    -7.32367   3.62887  -1.92384 
 C                    -5.59775   4.191     0.38367 
 H                    -5.11661   3.78814   1.25033 
 H                    -4.9867    4.01628  -0.47714 
 H                    -5.74062   5.24363   0.51194 
 C                    -7.85481   3.83921   1.40224 
 H                    -7.79779   4.88722   1.61038 
 H                    -8.86798   3.57362   1.1835 
 H                    -7.51754   3.28741   2.25469 
 C                    -10.48574  -0.02306  -0.75411 
 H                    -11.33639  -0.63559  -0.96884 
 H                    -10.70833   0.6195    0.072 
 H                    -10.24701   0.56938  -1.61256 
 C                    -9.11985  -2.00325  -1.47962 
 H                    -8.44225  -1.65686  -2.2318 
 H                    -8.73214  -2.89535  -1.03382 
 H                    -10.07062  -2.21092  -1.92437 
 C                    -9.59018  -1.64336   0.92565 
 H                    -9.28526  -1.02897   1.7469 
 H                    -10.64084  -1.83407   0.99373 
 H                    -9.05669  -2.57037   0.9564 
 
 ITRead=  0  0  0  0  0  0  0  0  0  0  0  0  0  0  0  0  0  0  0  0
 ITRead=  0  0  0  0  0  0  0  0  0  0  0  0  0  0  0  0  0  0  0  0
 ITRead=  0  0  0  0  0  0  0  0  0  0  0  0  0  0  0  0  0  0  0  0
 ITRead=  0  0  0  0  0  0  0  0  0  0  0  0  0  0  0  0  0  0  0  0
 ITRead=  0  0
 MicOpt= -1 -1 -1 -1 -1 -1 -1 -1 -1 -1 -1 -1 -1 -1 -1 -1 -1 -1 -1 -1
 MicOpt= -1 -1 -1 -1 -1 -1 -1 -1 -1 -1 -1 -1 -1 -1 -1 -1 -1 -1 -1 -1
 MicOpt= -1 -1 -1 -1 -1 -1 -1 -1 -1 -1 -1 -1 -1 -1 -1 -1 -1 -1 -1 -1
 MicOpt= -1 -1 -1 -1 -1 -1 -1 -1 -1 -1 -1 -1 -1 -1 -1 -1 -1 -1 -1 -1
 MicOpt= -1 -1
 NAtoms=     82 NQM=       82 NQMF=       0 NMMI=      0 NMMIF=      0
                NMic=       0 NMicF=      0.
                    Isotopes and Nuclear Properties:
 (Nuclear quadrupole moments (NQMom) in fm**2, nuclear magnetic moments (NMagM)
  in nuclear magnetons)

  Atom         1           2           3           4           5           6           7           8           9          10
 IAtWgt=          12          12          12          12          12          12          12           1           1           1
 AtmWgt=  12.0000000  12.0000000  12.0000000  12.0000000  12.0000000  12.0000000  12.0000000   1.0078250   1.0078250   1.0078250
 NucSpn=           0           0           0           0           0           0           0           1           1           1
 AtZEff=  -0.0000000  -0.0000000  -0.0000000  -0.0000000  -0.0000000  -0.0000000  -0.0000000  -0.0000000  -0.0000000  -0.0000000
 NQMom=    0.0000000   0.0000000   0.0000000   0.0000000   0.0000000   0.0000000   0.0000000   0.0000000   0.0000000   0.0000000
 NMagM=    0.0000000   0.0000000   0.0000000   0.0000000   0.0000000   0.0000000   0.0000000   2.7928460   2.7928460   2.7928460
 AtZNuc=   6.0000000   6.0000000   6.0000000   6.0000000   6.0000000   6.0000000   6.0000000   1.0000000   1.0000000   1.0000000

  Atom        11          12          13          14          15          16          17          18          19          20
 IAtWgt=          12          12          12          12          12          12          12           1           1           1
 AtmWgt=  12.0000000  12.0000000  12.0000000  12.0000000  12.0000000  12.0000000  12.0000000   1.0078250   1.0078250   1.0078250
 NucSpn=           0           0           0           0           0           0           0           1           1           1
 AtZEff=  -0.0000000  -0.0000000  -0.0000000  -0.0000000  -0.0000000  -0.0000000  -0.0000000  -0.0000000  -0.0000000  -0.0000000
 NQMom=    0.0000000   0.0000000   0.0000000   0.0000000   0.0000000   0.0000000   0.0000000   0.0000000   0.0000000   0.0000000
 NMagM=    0.0000000   0.0000000   0.0000000   0.0000000   0.0000000   0.0000000   0.0000000   2.7928460   2.7928460   2.7928460
 AtZNuc=   6.0000000   6.0000000   6.0000000   6.0000000   6.0000000   6.0000000   6.0000000   1.0000000   1.0000000   1.0000000

  Atom        21          22          23          24          25          26          27          28          29          30
 IAtWgt=          14          12          12          12          12          12          12           1           1          12
 AtmWgt=  14.0030740  12.0000000  12.0000000  12.0000000  12.0000000  12.0000000  12.0000000   1.0078250   1.0078250  12.0000000
 NucSpn=           2           0           0           0           0           0           0           1           1           0
 AtZEff=  -0.0000000  -0.0000000  -0.0000000  -0.0000000  -0.0000000  -0.0000000  -0.0000000  -0.0000000  -0.0000000  -0.0000000
 NQMom=    2.0440000   0.0000000   0.0000000   0.0000000   0.0000000   0.0000000   0.0000000   0.0000000   0.0000000   0.0000000
 NMagM=    0.4037610   0.0000000   0.0000000   0.0000000   0.0000000   0.0000000   0.0000000   2.7928460   2.7928460   0.0000000
 AtZNuc=   7.0000000   6.0000000   6.0000000   6.0000000   6.0000000   6.0000000   6.0000000   1.0000000   1.0000000   6.0000000

  Atom        31          32          33          34          35          36          37          38          39          40
 IAtWgt=          12          16          14          14           1          14           1          12           1          14
 AtmWgt=  12.0000000  15.9949146  14.0030740  14.0030740   1.0078250  14.0030740   1.0078250  12.0000000   1.0078250  14.0030740
 NucSpn=           0           0           2           2           1           2           1           0           1           2
 AtZEff=  -0.0000000  -0.0000000  -0.0000000  -0.0000000  -0.0000000  -0.0000000  -0.0000000  -0.0000000  -0.0000000  -0.0000000
 NQMom=    0.0000000   0.0000000   2.0440000   2.0440000   0.0000000   2.0440000   0.0000000   0.0000000   0.0000000   2.0440000
 NMagM=    0.0000000   0.0000000   0.4037610   0.4037610   2.7928460   0.4037610   2.7928460   0.0000000   2.7928460   0.4037610
 AtZNuc=   6.0000000   8.0000000   7.0000000   7.0000000   1.0000000   7.0000000   1.0000000   6.0000000   1.0000000   7.0000000

  Atom        41          42          43          44          45          46          47          48          49          50
 IAtWgt=          12          12          12           1          12           1           1          12           1           1
 AtmWgt=  12.0000000  12.0000000  12.0000000   1.0078250  12.0000000   1.0078250   1.0078250  12.0000000   1.0078250   1.0078250
 NucSpn=           0           0           0           1           0           1           1           0           1           1
 AtZEff=  -0.0000000  -0.0000000  -0.0000000  -0.0000000  -0.0000000  -0.0000000  -0.0000000  -0.0000000  -0.0000000  -0.0000000
 NQMom=    0.0000000   0.0000000   0.0000000   0.0000000   0.0000000   0.0000000   0.0000000   0.0000000   0.0000000   0.0000000
 NMagM=    0.0000000   0.0000000   0.0000000   2.7928460   0.0000000   2.7928460   2.7928460   0.0000000   2.7928460   2.7928460
 AtZNuc=   6.0000000   6.0000000   6.0000000   1.0000000   6.0000000   1.0000000   1.0000000   6.0000000   1.0000000   1.0000000

  Atom        51          52          53          54          55          56          57          58          59          60
 IAtWgt=          12           1           1           1           1           1           1           1          12           1
 AtmWgt=  12.0000000   1.0078250   1.0078250   1.0078250   1.0078250   1.0078250   1.0078250   1.0078250  12.0000000   1.0078250
 NucSpn=           0           1           1           1           1           1           1           1           0           1
 AtZEff=  -0.0000000  -0.0000000  -0.0000000  -0.0000000  -0.0000000  -0.0000000  -0.0000000  -0.0000000  -0.0000000  -0.0000000
 NQMom=    0.0000000   0.0000000   0.0000000   0.0000000   0.0000000   0.0000000   0.0000000   0.0000000   0.0000000   0.0000000
 NMagM=    0.0000000   2.7928460   2.7928460   2.7928460   2.7928460   2.7928460   2.7928460   2.7928460   0.0000000   2.7928460
 AtZNuc=   6.0000000   1.0000000   1.0000000   1.0000000   1.0000000   1.0000000   1.0000000   1.0000000   6.0000000   1.0000000

  Atom        61          62          63          64          65          66          67          68          69          70
 IAtWgt=           1           1          12           1           1           1          12           1           1           1
 AtmWgt=   1.0078250   1.0078250  12.0000000   1.0078250   1.0078250   1.0078250  12.0000000   1.0078250   1.0078250   1.0078250
 NucSpn=           1           1           0           1           1           1           0           1           1           1
 AtZEff=  -0.0000000  -0.0000000  -0.0000000  -0.0000000  -0.0000000  -0.0000000  -0.0000000  -0.0000000  -0.0000000  -0.0000000
 NQMom=    0.0000000   0.0000000   0.0000000   0.0000000   0.0000000   0.0000000   0.0000000   0.0000000   0.0000000   0.0000000
 NMagM=    2.7928460   2.7928460   0.0000000   2.7928460   2.7928460   2.7928460   0.0000000   2.7928460   2.7928460   2.7928460
 AtZNuc=   1.0000000   1.0000000   6.0000000   1.0000000   1.0000000   1.0000000   6.0000000   1.0000000   1.0000000   1.0000000

  Atom        71          72          73          74          75          76          77          78          79          80
 IAtWgt=          12           1           1           1          12           1           1           1          12           1
 AtmWgt=  12.0000000   1.0078250   1.0078250   1.0078250  12.0000000   1.0078250   1.0078250   1.0078250  12.0000000   1.0078250
 NucSpn=           0           1           1           1           0           1           1           1           0           1
 AtZEff=  -0.0000000  -0.0000000  -0.0000000  -0.0000000  -0.0000000  -0.0000000  -0.0000000  -0.0000000  -0.0000000  -0.0000000
 NQMom=    0.0000000   0.0000000   0.0000000   0.0000000   0.0000000   0.0000000   0.0000000   0.0000000   0.0000000   0.0000000
 NMagM=    0.0000000   2.7928460   2.7928460   2.7928460   0.0000000   2.7928460   2.7928460   2.7928460   0.0000000   2.7928460
 AtZNuc=   6.0000000   1.0000000   1.0000000   1.0000000   6.0000000   1.0000000   1.0000000   1.0000000   6.0000000   1.0000000

  Atom        81          82
 IAtWgt=           1           1
 AtmWgt=   1.0078250   1.0078250
 NucSpn=           1           1
 AtZEff=  -0.0000000  -0.0000000
 NQMom=    0.0000000   0.0000000
 NMagM=    2.7928460   2.7928460
 AtZNuc=   1.0000000   1.0000000
 Leave Link  101 at Thu Dec 20 18:44:02 2018, MaxMem=  1342177280 cpu:               4.5 elap:               0.4
 (Enter /gpfs/apps/hpc/Apps/Restricted/Gaussian/Rev_A.03/g16/l103.exe)

 GradGradGradGradGradGradGradGradGradGradGradGradGradGradGradGradGradGrad
 Berny optimization.
 Initialization pass.
                           ----------------------------
                           !    Initial Parameters    !
                           ! (Angstroms and Degrees)  !
 --------------------------                            --------------------------
 ! Name  Definition              Value          Derivative Info.                !
 --------------------------------------------------------------------------------
 ! R1    R(1,2)                  1.4143         calculate D2E/DX2 analytically  !
 ! R2    R(1,6)                  1.4034         calculate D2E/DX2 analytically  !
 ! R3    R(1,36)                 1.372          calculate D2E/DX2 analytically  !
 ! R4    R(2,3)                  1.4023         calculate D2E/DX2 analytically  !
 ! R5    R(2,21)                 1.3876         calculate D2E/DX2 analytically  !
 ! R6    R(3,4)                  1.3929         calculate D2E/DX2 analytically  !
 ! R7    R(3,8)                  1.0829         calculate D2E/DX2 analytically  !
 ! R8    R(4,5)                  1.4071         calculate D2E/DX2 analytically  !
 ! R9    R(4,9)                  1.0836         calculate D2E/DX2 analytically  !
 ! R10   R(5,6)                  1.399          calculate D2E/DX2 analytically  !
 ! R11   R(5,10)                 1.0847         calculate D2E/DX2 analytically  !
 ! R12   R(6,38)                 1.4619         calculate D2E/DX2 analytically  !
 ! R13   R(7,16)                 1.4523         calculate D2E/DX2 analytically  !
 ! R14   R(7,21)                 1.332          calculate D2E/DX2 analytically  !
 ! R15   R(7,36)                 1.3715         calculate D2E/DX2 analytically  !
 ! R16   R(11,12)                1.4213         calculate D2E/DX2 analytically  !
 ! R17   R(11,16)                1.4066         calculate D2E/DX2 analytically  !
 ! R18   R(11,33)                1.3673         calculate D2E/DX2 analytically  !
 ! R19   R(12,13)                1.4046         calculate D2E/DX2 analytically  !
 ! R20   R(12,34)                1.3708         calculate D2E/DX2 analytically  !
 ! R21   R(13,14)                1.3865         calculate D2E/DX2 analytically  !
 ! R22   R(13,18)                1.082          calculate D2E/DX2 analytically  !
 ! R23   R(14,15)                1.4132         calculate D2E/DX2 analytically  !
 ! R24   R(14,19)                1.0828         calculate D2E/DX2 analytically  !
 ! R25   R(15,16)                1.3942         calculate D2E/DX2 analytically  !
 ! R26   R(15,20)                1.0834         calculate D2E/DX2 analytically  !
 ! R27   R(17,23)                1.4372         calculate D2E/DX2 analytically  !
 ! R28   R(17,33)                1.3688         calculate D2E/DX2 analytically  !
 ! R29   R(17,34)                1.3428         calculate D2E/DX2 analytically  !
 ! R30   R(22,23)                1.4554         calculate D2E/DX2 analytically  !
 ! R31   R(22,27)                1.4358         calculate D2E/DX2 analytically  !
 ! R32   R(22,32)                1.3018         calculate D2E/DX2 analytically  !
 ! R33   R(23,24)                1.3902         calculate D2E/DX2 analytically  !
 ! R34   R(24,25)                1.3974         calculate D2E/DX2 analytically  !
 ! R35   R(24,28)                1.0819         calculate D2E/DX2 analytically  !
 ! R36   R(25,26)                1.4265         calculate D2E/DX2 analytically  !
 ! R37   R(25,30)                1.491          calculate D2E/DX2 analytically  !
 ! R38   R(26,27)                1.3707         calculate D2E/DX2 analytically  !
 ! R39   R(26,29)                1.0848         calculate D2E/DX2 analytically  !
 ! R40   R(27,31)                1.4962         calculate D2E/DX2 analytically  !
 ! R41   R(30,59)                1.54           calculate D2E/DX2 analytically  !
 ! R42   R(30,63)                1.54           calculate D2E/DX2 analytically  !
 ! R43   R(30,67)                1.54           calculate D2E/DX2 analytically  !
 ! R44   R(31,71)                1.54           calculate D2E/DX2 analytically  !
 ! R45   R(31,75)                1.54           calculate D2E/DX2 analytically  !
 ! R46   R(31,79)                1.54           calculate D2E/DX2 analytically  !
 ! R47   R(32,58)                1.0438         calculate D2E/DX2 analytically  !
 ! R48   R(33,35)                1.0182         calculate D2E/DX2 analytically  !
 ! R49   R(36,37)                1.0143         calculate D2E/DX2 analytically  !
 ! R50   R(38,39)                1.0927         calculate D2E/DX2 analytically  !
 ! R51   R(38,40)                1.2805         calculate D2E/DX2 analytically  !
 ! R52   R(40,41)                1.4639         calculate D2E/DX2 analytically  !
 ! R53   R(41,42)                1.5406         calculate D2E/DX2 analytically  !
 ! R54   R(41,43)                1.5325         calculate D2E/DX2 analytically  !
 ! R55   R(41,44)                1.0992         calculate D2E/DX2 analytically  !
 ! R56   R(42,45)                1.5317         calculate D2E/DX2 analytically  !
 ! R57   R(42,46)                1.0972         calculate D2E/DX2 analytically  !
 ! R58   R(42,47)                1.0938         calculate D2E/DX2 analytically  !
 ! R59   R(43,48)                1.5341         calculate D2E/DX2 analytically  !
 ! R60   R(43,49)                1.0972         calculate D2E/DX2 analytically  !
 ! R61   R(43,50)                1.0952         calculate D2E/DX2 analytically  !
 ! R62   R(45,51)                1.5328         calculate D2E/DX2 analytically  !
 ! R63   R(45,52)                1.0947         calculate D2E/DX2 analytically  !
 ! R64   R(45,53)                1.097          calculate D2E/DX2 analytically  !
 ! R65   R(48,51)                1.5329         calculate D2E/DX2 analytically  !
 ! R66   R(48,54)                1.0936         calculate D2E/DX2 analytically  !
 ! R67   R(48,55)                1.0974         calculate D2E/DX2 analytically  !
 ! R68   R(51,56)                1.0942         calculate D2E/DX2 analytically  !
 ! R69   R(51,57)                1.0973         calculate D2E/DX2 analytically  !
 ! R70   R(59,60)                1.07           calculate D2E/DX2 analytically  !
 ! R71   R(59,61)                1.07           calculate D2E/DX2 analytically  !
 ! R72   R(59,62)                1.07           calculate D2E/DX2 analytically  !
 ! R73   R(63,64)                1.07           calculate D2E/DX2 analytically  !
 ! R74   R(63,65)                1.07           calculate D2E/DX2 analytically  !
 ! R75   R(63,66)                1.07           calculate D2E/DX2 analytically  !
 ! R76   R(67,68)                1.07           calculate D2E/DX2 analytically  !
 ! R77   R(67,69)                1.07           calculate D2E/DX2 analytically  !
 ! R78   R(67,70)                1.07           calculate D2E/DX2 analytically  !
 ! R79   R(71,72)                1.07           calculate D2E/DX2 analytically  !
 ! R80   R(71,73)                1.07           calculate D2E/DX2 analytically  !
 ! R81   R(71,74)                1.07           calculate D2E/DX2 analytically  !
 ! R82   R(75,76)                1.07           calculate D2E/DX2 analytically  !
 ! R83   R(75,77)                1.07           calculate D2E/DX2 analytically  !
 ! R84   R(75,78)                1.07           calculate D2E/DX2 analytically  !
 ! R85   R(79,80)                1.07           calculate D2E/DX2 analytically  !
 ! R86   R(79,81)                1.07           calculate D2E/DX2 analytically  !
 ! R87   R(79,82)                1.07           calculate D2E/DX2 analytically  !
 ! A1    A(2,1,6)              123.2535         calculate D2E/DX2 analytically  !
 ! A2    A(2,1,36)             105.6417         calculate D2E/DX2 analytically  !
 ! A3    A(6,1,36)             131.104          calculate D2E/DX2 analytically  !
 ! A4    A(1,2,3)              119.5649         calculate D2E/DX2 analytically  !
 ! A5    A(1,2,21)             109.3878         calculate D2E/DX2 analytically  !
 ! A6    A(3,2,21)             131.0473         calculate D2E/DX2 analytically  !
 ! A7    A(2,3,4)              117.9181         calculate D2E/DX2 analytically  !
 ! A8    A(2,3,8)              120.8639         calculate D2E/DX2 analytically  !
 ! A9    A(4,3,8)              121.2178         calculate D2E/DX2 analytically  !
 ! A10   A(3,4,5)              121.6476         calculate D2E/DX2 analytically  !
 ! A11   A(3,4,9)              119.4455         calculate D2E/DX2 analytically  !
 ! A12   A(5,4,9)              118.9068         calculate D2E/DX2 analytically  !
 ! A13   A(4,5,6)              121.8473         calculate D2E/DX2 analytically  !
 ! A14   A(4,5,10)             119.5119         calculate D2E/DX2 analytically  !
 ! A15   A(6,5,10)             118.6408         calculate D2E/DX2 analytically  !
 ! A16   A(1,6,5)              115.7642         calculate D2E/DX2 analytically  !
 ! A17   A(1,6,38)             122.0406         calculate D2E/DX2 analytically  !
 ! A18   A(5,6,38)             122.1943         calculate D2E/DX2 analytically  !
 ! A19   A(16,7,21)            123.7392         calculate D2E/DX2 analytically  !
 ! A20   A(16,7,36)            123.9907         calculate D2E/DX2 analytically  !
 ! A21   A(21,7,36)            112.2612         calculate D2E/DX2 analytically  !
 ! A22   A(12,11,16)           122.7963         calculate D2E/DX2 analytically  !
 ! A23   A(12,11,33)           106.2679         calculate D2E/DX2 analytically  !
 ! A24   A(16,11,33)           130.9263         calculate D2E/DX2 analytically  !
 ! A25   A(11,12,13)           120.2415         calculate D2E/DX2 analytically  !
 ! A26   A(11,12,34)           108.4251         calculate D2E/DX2 analytically  !
 ! A27   A(13,12,34)           131.3265         calculate D2E/DX2 analytically  !
 ! A28   A(12,13,14)           117.1292         calculate D2E/DX2 analytically  !
 ! A29   A(12,13,18)           121.0766         calculate D2E/DX2 analytically  !
 ! A30   A(14,13,18)           121.7939         calculate D2E/DX2 analytically  !
 ! A31   A(13,14,15)           122.1877         calculate D2E/DX2 analytically  !
 ! A32   A(13,14,19)           119.3954         calculate D2E/DX2 analytically  !
 ! A33   A(15,14,19)           118.4167         calculate D2E/DX2 analytically  !
 ! A34   A(14,15,16)           122.0087         calculate D2E/DX2 analytically  !
 ! A35   A(14,15,20)           118.7004         calculate D2E/DX2 analytically  !
 ! A36   A(16,15,20)           119.2899         calculate D2E/DX2 analytically  !
 ! A37   A(7,16,11)            119.6954         calculate D2E/DX2 analytically  !
 ! A38   A(7,16,15)            124.6587         calculate D2E/DX2 analytically  !
 ! A39   A(11,16,15)           115.6334         calculate D2E/DX2 analytically  !
 ! A40   A(23,17,33)           126.9242         calculate D2E/DX2 analytically  !
 ! A41   A(23,17,34)           121.8587         calculate D2E/DX2 analytically  !
 ! A42   A(33,17,34)           111.212          calculate D2E/DX2 analytically  !
 ! A43   A(2,21,7)             105.3557         calculate D2E/DX2 analytically  !
 ! A44   A(23,22,27)           120.6354         calculate D2E/DX2 analytically  !
 ! A45   A(23,22,32)           121.4518         calculate D2E/DX2 analytically  !
 ! A46   A(27,22,32)           117.9112         calculate D2E/DX2 analytically  !
 ! A47   A(17,23,22)           117.6636         calculate D2E/DX2 analytically  !
 ! A48   A(17,23,24)           123.5827         calculate D2E/DX2 analytically  !
 ! A49   A(22,23,24)           118.7442         calculate D2E/DX2 analytically  !
 ! A50   A(23,24,25)           120.7809         calculate D2E/DX2 analytically  !
 ! A51   A(23,24,28)           119.9318         calculate D2E/DX2 analytically  !
 ! A52   A(25,24,28)           119.2855         calculate D2E/DX2 analytically  !
 ! A53   A(24,25,26)           119.5837         calculate D2E/DX2 analytically  !
 ! A54   A(24,25,30)           121.6782         calculate D2E/DX2 analytically  !
 ! A55   A(26,25,30)           118.736          calculate D2E/DX2 analytically  !
 ! A56   A(25,26,27)           122.6055         calculate D2E/DX2 analytically  !
 ! A57   A(25,26,29)           117.9205         calculate D2E/DX2 analytically  !
 ! A58   A(27,26,29)           119.4722         calculate D2E/DX2 analytically  !
 ! A59   A(22,27,26)           117.6409         calculate D2E/DX2 analytically  !
 ! A60   A(22,27,31)           118.9831         calculate D2E/DX2 analytically  !
 ! A61   A(26,27,31)           123.357          calculate D2E/DX2 analytically  !
 ! A62   A(25,30,59)           110.3347         calculate D2E/DX2 analytically  !
 ! A63   A(25,30,63)           112.8255         calculate D2E/DX2 analytically  !
 ! A64   A(25,30,67)           109.3712         calculate D2E/DX2 analytically  !
 ! A65   A(59,30,63)           109.4742         calculate D2E/DX2 analytically  !
 ! A66   A(59,30,67)           105.9987         calculate D2E/DX2 analytically  !
 ! A67   A(63,30,67)           108.5929         calculate D2E/DX2 analytically  !
 ! A68   A(27,31,71)           110.5516         calculate D2E/DX2 analytically  !
 ! A69   A(27,31,75)           111.2574         calculate D2E/DX2 analytically  !
 ! A70   A(27,31,79)           110.0139         calculate D2E/DX2 analytically  !
 ! A71   A(71,31,75)           109.3296         calculate D2E/DX2 analytically  !
 ! A72   A(71,31,79)           108.5102         calculate D2E/DX2 analytically  !
 ! A73   A(75,31,79)           107.077          calculate D2E/DX2 analytically  !
 ! A74   A(22,32,58)           108.3352         calculate D2E/DX2 analytically  !
 ! A75   A(11,33,17)           107.4402         calculate D2E/DX2 analytically  !
 ! A76   A(11,33,35)           121.6461         calculate D2E/DX2 analytically  !
 ! A77   A(17,33,35)           130.7733         calculate D2E/DX2 analytically  !
 ! A78   A(12,34,17)           106.651          calculate D2E/DX2 analytically  !
 ! A79   A(1,36,7)             107.3511         calculate D2E/DX2 analytically  !
 ! A80   A(1,36,37)            122.1515         calculate D2E/DX2 analytically  !
 ! A81   A(7,36,37)            130.4367         calculate D2E/DX2 analytically  !
 ! A82   A(6,38,39)            115.503          calculate D2E/DX2 analytically  !
 ! A83   A(6,38,40)            121.3435         calculate D2E/DX2 analytically  !
 ! A84   A(39,38,40)           123.1534         calculate D2E/DX2 analytically  !
 ! A85   A(38,40,41)           120.3912         calculate D2E/DX2 analytically  !
 ! A86   A(40,41,42)           107.9486         calculate D2E/DX2 analytically  !
 ! A87   A(40,41,43)           117.4984         calculate D2E/DX2 analytically  !
 ! A88   A(40,41,44)           105.6662         calculate D2E/DX2 analytically  !
 ! A89   A(42,41,43)           110.5901         calculate D2E/DX2 analytically  !
 ! A90   A(42,41,44)           106.8597         calculate D2E/DX2 analytically  !
 ! A91   A(43,41,44)           107.6959         calculate D2E/DX2 analytically  !
 ! A92   A(41,42,45)           111.4053         calculate D2E/DX2 analytically  !
 ! A93   A(41,42,46)           108.0199         calculate D2E/DX2 analytically  !
 ! A94   A(41,42,47)           109.0724         calculate D2E/DX2 analytically  !
 ! A95   A(45,42,46)           109.9697         calculate D2E/DX2 analytically  !
 ! A96   A(45,42,47)           111.1261         calculate D2E/DX2 analytically  !
 ! A97   A(46,42,47)           107.1027         calculate D2E/DX2 analytically  !
 ! A98   A(41,43,48)           110.1963         calculate D2E/DX2 analytically  !
 ! A99   A(41,43,49)           109.5927         calculate D2E/DX2 analytically  !
 ! A100  A(41,43,50)           109.978          calculate D2E/DX2 analytically  !
 ! A101  A(48,43,49)           109.2953         calculate D2E/DX2 analytically  !
 ! A102  A(48,43,50)           110.5505         calculate D2E/DX2 analytically  !
 ! A103  A(49,43,50)           107.1714         calculate D2E/DX2 analytically  !
 ! A104  A(42,45,51)           111.1262         calculate D2E/DX2 analytically  !
 ! A105  A(42,45,52)           110.0329         calculate D2E/DX2 analytically  !
 ! A106  A(42,45,53)           109.1944         calculate D2E/DX2 analytically  !
 ! A107  A(51,45,52)           110.3092         calculate D2E/DX2 analytically  !
 ! A108  A(51,45,53)           109.0455         calculate D2E/DX2 analytically  !
 ! A109  A(52,45,53)           107.0318         calculate D2E/DX2 analytically  !
 ! A110  A(43,48,51)           111.2634         calculate D2E/DX2 analytically  !
 ! A111  A(43,48,54)           110.2674         calculate D2E/DX2 analytically  !
 ! A112  A(43,48,55)           109.2415         calculate D2E/DX2 analytically  !
 ! A113  A(51,48,54)           110.6095         calculate D2E/DX2 analytically  !
 ! A114  A(51,48,55)           108.6984         calculate D2E/DX2 analytically  !
 ! A115  A(54,48,55)           106.6282         calculate D2E/DX2 analytically  !
 ! A116  A(45,51,48)           110.9596         calculate D2E/DX2 analytically  !
 ! A117  A(45,51,56)           110.2449         calculate D2E/DX2 analytically  !
 ! A118  A(45,51,57)           109.2379         calculate D2E/DX2 analytically  !
 ! A119  A(48,51,56)           110.1921         calculate D2E/DX2 analytically  !
 ! A120  A(48,51,57)           109.236          calculate D2E/DX2 analytically  !
 ! A121  A(56,51,57)           106.8722         calculate D2E/DX2 analytically  !
 ! A122  A(30,59,60)           109.4712         calculate D2E/DX2 analytically  !
 ! A123  A(30,59,61)           109.4712         calculate D2E/DX2 analytically  !
 ! A124  A(30,59,62)           109.4712         calculate D2E/DX2 analytically  !
 ! A125  A(60,59,61)           109.4713         calculate D2E/DX2 analytically  !
 ! A126  A(60,59,62)           109.4712         calculate D2E/DX2 analytically  !
 ! A127  A(61,59,62)           109.4712         calculate D2E/DX2 analytically  !
 ! A128  A(30,63,64)           109.4712         calculate D2E/DX2 analytically  !
 ! A129  A(30,63,65)           109.4712         calculate D2E/DX2 analytically  !
 ! A130  A(30,63,66)           109.4712         calculate D2E/DX2 analytically  !
 ! A131  A(64,63,65)           109.4713         calculate D2E/DX2 analytically  !
 ! A132  A(64,63,66)           109.4712         calculate D2E/DX2 analytically  !
 ! A133  A(65,63,66)           109.4712         calculate D2E/DX2 analytically  !
 ! A134  A(30,67,68)           109.4712         calculate D2E/DX2 analytically  !
 ! A135  A(30,67,69)           109.4712         calculate D2E/DX2 analytically  !
 ! A136  A(30,67,70)           109.4712         calculate D2E/DX2 analytically  !
 ! A137  A(68,67,69)           109.4713         calculate D2E/DX2 analytically  !
 ! A138  A(68,67,70)           109.4712         calculate D2E/DX2 analytically  !
 ! A139  A(69,67,70)           109.4712         calculate D2E/DX2 analytically  !
 ! A140  A(31,71,72)           109.4712         calculate D2E/DX2 analytically  !
 ! A141  A(31,71,73)           109.4712         calculate D2E/DX2 analytically  !
 ! A142  A(31,71,74)           109.4712         calculate D2E/DX2 analytically  !
 ! A143  A(72,71,73)           109.4713         calculate D2E/DX2 analytically  !
 ! A144  A(72,71,74)           109.4712         calculate D2E/DX2 analytically  !
 ! A145  A(73,71,74)           109.4712         calculate D2E/DX2 analytically  !
 ! A146  A(31,75,76)           109.4712         calculate D2E/DX2 analytically  !
 ! A147  A(31,75,77)           109.4712         calculate D2E/DX2 analytically  !
 ! A148  A(31,75,78)           109.4712         calculate D2E/DX2 analytically  !
 ! A149  A(76,75,77)           109.4713         calculate D2E/DX2 analytically  !
 ! A150  A(76,75,78)           109.4712         calculate D2E/DX2 analytically  !
 ! A151  A(77,75,78)           109.4712         calculate D2E/DX2 analytically  !
 ! A152  A(31,79,80)           109.4712         calculate D2E/DX2 analytically  !
 ! A153  A(31,79,81)           109.4712         calculate D2E/DX2 analytically  !
 ! A154  A(31,79,82)           109.4712         calculate D2E/DX2 analytically  !
 ! A155  A(80,79,81)           109.4713         calculate D2E/DX2 analytically  !
 ! A156  A(80,79,82)           109.4712         calculate D2E/DX2 analytically  !
 ! A157  A(81,79,82)           109.4712         calculate D2E/DX2 analytically  !
 ! D1    D(6,1,2,3)              0.7494         calculate D2E/DX2 analytically  !
 ! D2    D(6,1,2,21)          -179.2009         calculate D2E/DX2 analytically  !
 ! D3    D(36,1,2,3)          -179.5479         calculate D2E/DX2 analytically  !
 ! D4    D(36,1,2,21)            0.5018         calculate D2E/DX2 analytically  !
 ! D5    D(2,1,6,5)             -0.2982         calculate D2E/DX2 analytically  !
 ! D6    D(2,1,6,38)           179.3653         calculate D2E/DX2 analytically  !
 ! D7    D(36,1,6,5)          -179.9183         calculate D2E/DX2 analytically  !
 ! D8    D(36,1,6,38)           -0.2547         calculate D2E/DX2 analytically  !
 ! D9    D(2,1,36,7)            -0.48           calculate D2E/DX2 analytically  !
 ! D10   D(2,1,36,37)         -177.9205         calculate D2E/DX2 analytically  !
 ! D11   D(6,1,36,7)           179.19           calculate D2E/DX2 analytically  !
 ! D12   D(6,1,36,37)            1.7496         calculate D2E/DX2 analytically  !
 ! D13   D(1,2,3,4)             -0.585          calculate D2E/DX2 analytically  !
 ! D14   D(1,2,3,8)            179.2903         calculate D2E/DX2 analytically  !
 ! D15   D(21,2,3,4)           179.3529         calculate D2E/DX2 analytically  !
 ! D16   D(21,2,3,8)            -0.7718         calculate D2E/DX2 analytically  !
 ! D17   D(1,2,21,7)            -0.3187         calculate D2E/DX2 analytically  !
 ! D18   D(3,2,21,7)           179.7386         calculate D2E/DX2 analytically  !
 ! D19   D(2,3,4,5)              0.0226         calculate D2E/DX2 analytically  !
 ! D20   D(2,3,4,9)           -179.8762         calculate D2E/DX2 analytically  !
 ! D21   D(8,3,4,5)           -179.8522         calculate D2E/DX2 analytically  !
 ! D22   D(8,3,4,9)              0.249          calculate D2E/DX2 analytically  !
 ! D23   D(3,4,5,6)              0.4334         calculate D2E/DX2 analytically  !
 ! D24   D(3,4,5,10)          -179.6432         calculate D2E/DX2 analytically  !
 ! D25   D(9,4,5,6)           -179.6673         calculate D2E/DX2 analytically  !
 ! D26   D(9,4,5,10)             0.2561         calculate D2E/DX2 analytically  !
 ! D27   D(4,5,6,1)             -0.288          calculate D2E/DX2 analytically  !
 ! D28   D(4,5,6,38)          -179.951          calculate D2E/DX2 analytically  !
 ! D29   D(10,5,6,1)           179.788          calculate D2E/DX2 analytically  !
 ! D30   D(10,5,6,38)            0.125          calculate D2E/DX2 analytically  !
 ! D31   D(1,6,38,39)          179.3561         calculate D2E/DX2 analytically  !
 ! D32   D(1,6,38,40)           -0.7409         calculate D2E/DX2 analytically  !
 ! D33   D(5,6,38,39)           -1.002          calculate D2E/DX2 analytically  !
 ! D34   D(5,6,38,40)          178.901          calculate D2E/DX2 analytically  !
 ! D35   D(21,7,16,11)          -7.3418         calculate D2E/DX2 analytically  !
 ! D36   D(21,7,16,15)         174.0068         calculate D2E/DX2 analytically  !
 ! D37   D(36,7,16,11)         171.4918         calculate D2E/DX2 analytically  !
 ! D38   D(36,7,16,15)          -7.1597         calculate D2E/DX2 analytically  !
 ! D39   D(16,7,21,2)          178.9653         calculate D2E/DX2 analytically  !
 ! D40   D(36,7,21,2)            0.0104         calculate D2E/DX2 analytically  !
 ! D41   D(16,7,36,1)         -178.6442         calculate D2E/DX2 analytically  !
 ! D42   D(16,7,36,37)          -1.4916         calculate D2E/DX2 analytically  !
 ! D43   D(21,7,36,1)            0.3077         calculate D2E/DX2 analytically  !
 ! D44   D(21,7,36,37)         177.4603         calculate D2E/DX2 analytically  !
 ! D45   D(16,11,12,13)         -0.292          calculate D2E/DX2 analytically  !
 ! D46   D(16,11,12,34)        178.8553         calculate D2E/DX2 analytically  !
 ! D47   D(33,11,12,13)       -179.2866         calculate D2E/DX2 analytically  !
 ! D48   D(33,11,12,34)         -0.1393         calculate D2E/DX2 analytically  !
 ! D49   D(12,11,16,7)        -178.3999         calculate D2E/DX2 analytically  !
 ! D50   D(12,11,16,15)          0.3698         calculate D2E/DX2 analytically  !
 ! D51   D(33,11,16,7)           0.3226         calculate D2E/DX2 analytically  !
 ! D52   D(33,11,16,15)        179.0922         calculate D2E/DX2 analytically  !
 ! D53   D(12,11,33,17)         -0.2483         calculate D2E/DX2 analytically  !
 ! D54   D(12,11,33,35)       -176.3768         calculate D2E/DX2 analytically  !
 ! D55   D(16,11,33,17)       -179.1296         calculate D2E/DX2 analytically  !
 ! D56   D(16,11,33,35)          4.7419         calculate D2E/DX2 analytically  !
 ! D57   D(11,12,13,14)         -0.1979         calculate D2E/DX2 analytically  !
 ! D58   D(11,12,13,18)        179.9719         calculate D2E/DX2 analytically  !
 ! D59   D(34,12,13,14)       -179.1206         calculate D2E/DX2 analytically  !
 ! D60   D(34,12,13,18)          1.0493         calculate D2E/DX2 analytically  !
 ! D61   D(11,12,34,17)          0.4764         calculate D2E/DX2 analytically  !
 ! D62   D(13,12,34,17)        179.4954         calculate D2E/DX2 analytically  !
 ! D63   D(12,13,14,15)          0.5954         calculate D2E/DX2 analytically  !
 ! D64   D(12,13,14,19)       -179.5701         calculate D2E/DX2 analytically  !
 ! D65   D(18,13,14,15)       -179.5758         calculate D2E/DX2 analytically  !
 ! D66   D(18,13,14,19)          0.2588         calculate D2E/DX2 analytically  !
 ! D67   D(13,14,15,16)         -0.527          calculate D2E/DX2 analytically  !
 ! D68   D(13,14,15,20)        179.8589         calculate D2E/DX2 analytically  !
 ! D69   D(19,14,15,16)        179.6369         calculate D2E/DX2 analytically  !
 ! D70   D(19,14,15,20)          0.0228         calculate D2E/DX2 analytically  !
 ! D71   D(14,15,16,7)         178.7285         calculate D2E/DX2 analytically  !
 ! D72   D(14,15,16,11)          0.0278         calculate D2E/DX2 analytically  !
 ! D73   D(20,15,16,7)          -1.6596         calculate D2E/DX2 analytically  !
 ! D74   D(20,15,16,11)        179.6397         calculate D2E/DX2 analytically  !
 ! D75   D(33,17,23,22)        172.9179         calculate D2E/DX2 analytically  !
 ! D76   D(33,17,23,24)         -5.9432         calculate D2E/DX2 analytically  !
 ! D77   D(34,17,23,22)         -6.1827         calculate D2E/DX2 analytically  !
 ! D78   D(34,17,23,24)        174.9562         calculate D2E/DX2 analytically  !
 ! D79   D(23,17,33,11)       -178.6105         calculate D2E/DX2 analytically  !
 ! D80   D(23,17,33,35)         -2.9635         calculate D2E/DX2 analytically  !
 ! D81   D(34,17,33,11)          0.5701         calculate D2E/DX2 analytically  !
 ! D82   D(34,17,33,35)        176.2171         calculate D2E/DX2 analytically  !
 ! D83   D(23,17,34,12)        178.5781         calculate D2E/DX2 analytically  !
 ! D84   D(33,17,34,12)         -0.6507         calculate D2E/DX2 analytically  !
 ! D85   D(27,22,23,17)       -178.427          calculate D2E/DX2 analytically  !
 ! D86   D(27,22,23,24)          0.4908         calculate D2E/DX2 analytically  !
 ! D87   D(32,22,23,17)          2.0402         calculate D2E/DX2 analytically  !
 ! D88   D(32,22,23,24)       -179.0419         calculate D2E/DX2 analytically  !
 ! D89   D(23,22,27,26)          0.0888         calculate D2E/DX2 analytically  !
 ! D90   D(23,22,27,31)       -178.3807         calculate D2E/DX2 analytically  !
 ! D91   D(32,22,27,26)        179.6378         calculate D2E/DX2 analytically  !
 ! D92   D(32,22,27,31)          1.1682         calculate D2E/DX2 analytically  !
 ! D93   D(23,22,32,58)          0.6642         calculate D2E/DX2 analytically  !
 ! D94   D(27,22,32,58)       -178.8809         calculate D2E/DX2 analytically  !
 ! D95   D(17,23,24,25)        177.7554         calculate D2E/DX2 analytically  !
 ! D96   D(17,23,24,28)         -2.7369         calculate D2E/DX2 analytically  !
 ! D97   D(22,23,24,25)         -1.0941         calculate D2E/DX2 analytically  !
 ! D98   D(22,23,24,28)        178.4136         calculate D2E/DX2 analytically  !
 ! D99   D(23,24,25,26)          1.1154         calculate D2E/DX2 analytically  !
 ! D100  D(23,24,25,30)       -179.4018         calculate D2E/DX2 analytically  !
 ! D101  D(28,24,25,26)       -178.3955         calculate D2E/DX2 analytically  !
 ! D102  D(28,24,25,30)          1.0873         calculate D2E/DX2 analytically  !
 ! D103  D(24,25,26,27)         -0.5148         calculate D2E/DX2 analytically  !
 ! D104  D(24,25,26,29)        179.0068         calculate D2E/DX2 analytically  !
 ! D105  D(30,25,26,27)        179.9872         calculate D2E/DX2 analytically  !
 ! D106  D(30,25,26,29)         -0.4912         calculate D2E/DX2 analytically  !
 ! D107  D(24,25,30,59)        122.4783         calculate D2E/DX2 analytically  !
 ! D108  D(24,25,30,63)         -0.323          calculate D2E/DX2 analytically  !
 ! D109  D(24,25,30,67)       -121.2984         calculate D2E/DX2 analytically  !
 ! D110  D(26,25,30,59)        -58.0347         calculate D2E/DX2 analytically  !
 ! D111  D(26,25,30,63)        179.164          calculate D2E/DX2 analytically  !
 ! D112  D(26,25,30,67)         58.1886         calculate D2E/DX2 analytically  !
 ! D113  D(25,26,27,22)         -0.078          calculate D2E/DX2 analytically  !
 ! D114  D(25,26,27,31)        178.3191         calculate D2E/DX2 analytically  !
 ! D115  D(29,26,27,22)       -179.5925         calculate D2E/DX2 analytically  !
 ! D116  D(29,26,27,31)         -1.1953         calculate D2E/DX2 analytically  !
 ! D117  D(22,27,31,71)       -165.9166         calculate D2E/DX2 analytically  !
 ! D118  D(22,27,31,75)        -44.2377         calculate D2E/DX2 analytically  !
 ! D119  D(22,27,31,79)         74.2551         calculate D2E/DX2 analytically  !
 ! D120  D(26,27,31,71)         15.7066         calculate D2E/DX2 analytically  !
 ! D121  D(26,27,31,75)        137.3855         calculate D2E/DX2 analytically  !
 ! D122  D(26,27,31,79)       -104.1217         calculate D2E/DX2 analytically  !
 ! D123  D(25,30,59,60)         79.0906         calculate D2E/DX2 analytically  !
 ! D124  D(25,30,59,61)       -160.9094         calculate D2E/DX2 analytically  !
 ! D125  D(25,30,59,62)        -40.9094         calculate D2E/DX2 analytically  !
 ! D126  D(63,30,59,60)       -156.1689         calculate D2E/DX2 analytically  !
 ! D127  D(63,30,59,61)        -36.1689         calculate D2E/DX2 analytically  !
 ! D128  D(63,30,59,62)         83.8311         calculate D2E/DX2 analytically  !
 ! D129  D(67,30,59,60)        -39.2195         calculate D2E/DX2 analytically  !
 ! D130  D(67,30,59,61)         80.7805         calculate D2E/DX2 analytically  !
 ! D131  D(67,30,59,62)       -159.2195         calculate D2E/DX2 analytically  !
 ! D132  D(25,30,63,64)        -58.1739         calculate D2E/DX2 analytically  !
 ! D133  D(25,30,63,65)         61.8261         calculate D2E/DX2 analytically  !
 ! D134  D(25,30,63,66)       -178.1739         calculate D2E/DX2 analytically  !
 ! D135  D(59,30,63,64)        178.5458         calculate D2E/DX2 analytically  !
 ! D136  D(59,30,63,65)        -61.4542         calculate D2E/DX2 analytically  !
 ! D137  D(59,30,63,66)         58.5458         calculate D2E/DX2 analytically  !
 ! D138  D(67,30,63,64)         63.2436         calculate D2E/DX2 analytically  !
 ! D139  D(67,30,63,65)       -176.7564         calculate D2E/DX2 analytically  !
 ! D140  D(67,30,63,66)        -56.7564         calculate D2E/DX2 analytically  !
 ! D141  D(25,30,67,68)        170.2174         calculate D2E/DX2 analytically  !
 ! D142  D(25,30,67,69)        -69.7826         calculate D2E/DX2 analytically  !
 ! D143  D(25,30,67,70)         50.2174         calculate D2E/DX2 analytically  !
 ! D144  D(59,30,67,68)        -70.8353         calculate D2E/DX2 analytically  !
 ! D145  D(59,30,67,69)         49.1647         calculate D2E/DX2 analytically  !
 ! D146  D(59,30,67,70)        169.1647         calculate D2E/DX2 analytically  !
 ! D147  D(63,30,67,68)         46.7046         calculate D2E/DX2 analytically  !
 ! D148  D(63,30,67,69)        166.7046         calculate D2E/DX2 analytically  !
 ! D149  D(63,30,67,70)        -73.2954         calculate D2E/DX2 analytically  !
 ! D150  D(27,31,71,72)        173.0346         calculate D2E/DX2 analytically  !
 ! D151  D(27,31,71,73)        -66.9654         calculate D2E/DX2 analytically  !
 ! D152  D(27,31,71,74)         53.0346         calculate D2E/DX2 analytically  !
 ! D153  D(75,31,71,72)         50.2256         calculate D2E/DX2 analytically  !
 ! D154  D(75,31,71,73)        170.2256         calculate D2E/DX2 analytically  !
 ! D155  D(75,31,71,74)        -69.7744         calculate D2E/DX2 analytically  !
 ! D156  D(79,31,71,72)        -66.237          calculate D2E/DX2 analytically  !
 ! D157  D(79,31,71,73)         53.763          calculate D2E/DX2 analytically  !
 ! D158  D(79,31,71,74)        173.763          calculate D2E/DX2 analytically  !
 ! D159  D(27,31,75,76)        -30.2672         calculate D2E/DX2 analytically  !
 ! D160  D(27,31,75,77)         89.7328         calculate D2E/DX2 analytically  !
 ! D161  D(27,31,75,78)       -150.2672         calculate D2E/DX2 analytically  !
 ! D162  D(71,31,75,76)         92.1202         calculate D2E/DX2 analytically  !
 ! D163  D(71,31,75,77)       -147.8798         calculate D2E/DX2 analytically  !
 ! D164  D(71,31,75,78)        -27.8798         calculate D2E/DX2 analytically  !
 ! D165  D(79,31,75,76)       -150.5111         calculate D2E/DX2 analytically  !
 ! D166  D(79,31,75,77)        -30.5111         calculate D2E/DX2 analytically  !
 ! D167  D(79,31,75,78)         89.4889         calculate D2E/DX2 analytically  !
 ! D168  D(27,31,79,80)         33.6508         calculate D2E/DX2 analytically  !
 ! D169  D(27,31,79,81)        153.6509         calculate D2E/DX2 analytically  !
 ! D170  D(27,31,79,82)        -86.3492         calculate D2E/DX2 analytically  !
 ! D171  D(71,31,79,80)        -87.4096         calculate D2E/DX2 analytically  !
 ! D172  D(71,31,79,81)         32.5904         calculate D2E/DX2 analytically  !
 ! D173  D(71,31,79,82)        152.5904         calculate D2E/DX2 analytically  !
 ! D174  D(75,31,79,80)        154.6853         calculate D2E/DX2 analytically  !
 ! D175  D(75,31,79,81)        -85.3147         calculate D2E/DX2 analytically  !
 ! D176  D(75,31,79,82)         34.6853         calculate D2E/DX2 analytically  !
 ! D177  D(6,38,40,41)         178.2058         calculate D2E/DX2 analytically  !
 ! D178  D(39,38,40,41)         -1.8988         calculate D2E/DX2 analytically  !
 ! D179  D(38,40,41,42)       -118.21           calculate D2E/DX2 analytically  !
 ! D180  D(38,40,41,43)          7.619          calculate D2E/DX2 analytically  !
 ! D181  D(38,40,41,44)        127.7437         calculate D2E/DX2 analytically  !
 ! D182  D(40,41,42,45)       -173.8464         calculate D2E/DX2 analytically  !
 ! D183  D(40,41,42,46)         65.2719         calculate D2E/DX2 analytically  !
 ! D184  D(40,41,42,47)        -50.812          calculate D2E/DX2 analytically  !
 ! D185  D(43,41,42,45)         56.3501         calculate D2E/DX2 analytically  !
 ! D186  D(43,41,42,46)        -64.5315         calculate D2E/DX2 analytically  !
 ! D187  D(43,41,42,47)        179.3845         calculate D2E/DX2 analytically  !
 ! D188  D(44,41,42,45)        -60.5952         calculate D2E/DX2 analytically  !
 ! D189  D(44,41,42,46)        178.5231         calculate D2E/DX2 analytically  !
 ! D190  D(44,41,42,47)         62.4391         calculate D2E/DX2 analytically  !
 ! D191  D(40,41,43,48)        178.4247         calculate D2E/DX2 analytically  !
 ! D192  D(40,41,43,49)        -61.2666         calculate D2E/DX2 analytically  !
 ! D193  D(40,41,43,50)         56.3038         calculate D2E/DX2 analytically  !
 ! D194  D(42,41,43,48)        -57.0568         calculate D2E/DX2 analytically  !
 ! D195  D(42,41,43,49)         63.252          calculate D2E/DX2 analytically  !
 ! D196  D(42,41,43,50)       -179.1777         calculate D2E/DX2 analytically  !
 ! D197  D(44,41,43,48)         59.3712         calculate D2E/DX2 analytically  !
 ! D198  D(44,41,43,49)        179.6799         calculate D2E/DX2 analytically  !
 ! D199  D(44,41,43,50)        -62.7497         calculate D2E/DX2 analytically  !
 ! D200  D(41,42,45,51)        -55.1512         calculate D2E/DX2 analytically  !
 ! D201  D(41,42,45,52)       -177.6271         calculate D2E/DX2 analytically  !
 ! D202  D(41,42,45,53)         65.1759         calculate D2E/DX2 analytically  !
 ! D203  D(46,42,45,51)         64.5822         calculate D2E/DX2 analytically  !
 ! D204  D(46,42,45,52)        -57.8938         calculate D2E/DX2 analytically  !
 ! D205  D(46,42,45,53)       -175.0907         calculate D2E/DX2 analytically  !
 ! D206  D(47,42,45,51)       -177.0033         calculate D2E/DX2 analytically  !
 ! D207  D(47,42,45,52)         60.5208         calculate D2E/DX2 analytically  !
 ! D208  D(47,42,45,53)        -56.6761         calculate D2E/DX2 analytically  !
 ! D209  D(41,43,48,51)         57.502          calculate D2E/DX2 analytically  !
 ! D210  D(41,43,48,54)       -179.382          calculate D2E/DX2 analytically  !
 ! D211  D(41,43,48,55)        -62.5107         calculate D2E/DX2 analytically  !
 ! D212  D(49,43,48,51)        -62.9857         calculate D2E/DX2 analytically  !
 ! D213  D(49,43,48,54)         60.1304         calculate D2E/DX2 analytically  !
 ! D214  D(49,43,48,55)        177.0016         calculate D2E/DX2 analytically  !
 ! D215  D(50,43,48,51)        179.284          calculate D2E/DX2 analytically  !
 ! D216  D(50,43,48,54)        -57.6            calculate D2E/DX2 analytically  !
 ! D217  D(50,43,48,55)         59.2713         calculate D2E/DX2 analytically  !
 ! D218  D(42,45,51,48)         54.9501         calculate D2E/DX2 analytically  !
 ! D219  D(42,45,51,56)        177.3105         calculate D2E/DX2 analytically  !
 ! D220  D(42,45,51,57)        -65.5373         calculate D2E/DX2 analytically  !
 ! D221  D(52,45,51,48)        177.266          calculate D2E/DX2 analytically  !
 ! D222  D(52,45,51,56)        -60.3735         calculate D2E/DX2 analytically  !
 ! D223  D(52,45,51,57)         56.7787         calculate D2E/DX2 analytically  !
 ! D224  D(53,45,51,48)        -65.4651         calculate D2E/DX2 analytically  !
 ! D225  D(53,45,51,56)         56.8953         calculate D2E/DX2 analytically  !
 ! D226  D(53,45,51,57)        174.0475         calculate D2E/DX2 analytically  !
 ! D227  D(43,48,51,45)        -56.4318         calculate D2E/DX2 analytically  !
 ! D228  D(43,48,51,56)       -178.8229         calculate D2E/DX2 analytically  !
 ! D229  D(43,48,51,57)         64.0567         calculate D2E/DX2 analytically  !
 ! D230  D(54,48,51,45)       -179.3517         calculate D2E/DX2 analytically  !
 ! D231  D(54,48,51,56)         58.2572         calculate D2E/DX2 analytically  !
 ! D232  D(54,48,51,57)        -58.8632         calculate D2E/DX2 analytically  !
 ! D233  D(55,48,51,45)         63.902          calculate D2E/DX2 analytically  !
 ! D234  D(55,48,51,56)        -58.4891         calculate D2E/DX2 analytically  !
 ! D235  D(55,48,51,57)       -175.6095         calculate D2E/DX2 analytically  !
 --------------------------------------------------------------------------------
 Trust Radius=3.00D-01 FncErr=5.00D-06 GrdErr=5.00D-06 EigMax=2.50D+02 EigMin=1.00D-04
 Number of steps in this run=    489 maximum allowed number of steps=    492.
 Search for a saddle point of order  1.
 GradGradGradGradGradGradGradGradGradGradGradGradGradGradGradGradGradGrad

 Leave Link  103 at Thu Dec 20 18:44:02 2018, MaxMem=  1342177280 cpu:               0.7 elap:               0.1
 (Enter /gpfs/apps/hpc/Apps/Restricted/Gaussian/Rev_A.03/g16/l202.exe)
 Symmetry turned off by external request.
 Stoichiometry    C35H41N5O(1+,2)
 Framework group  C1[X(C35H41N5O)]
 Deg. of freedom   240
 Full point group                 C1      NOp   1
                          Input orientation:                          
 ---------------------------------------------------------------------
 Center     Atomic      Atomic             Coordinates (Angstroms)
 Number     Number       Type             X           Y           Z
 ---------------------------------------------------------------------
      1          6           0        1.674855    1.396855    0.158753
      2          6           0        0.456045    2.095913   -0.002462
      3          6           0        0.458032    3.498233   -0.006704
      4          6           0        1.677729    4.149195    0.162966
      5          6           0        2.878131    3.435248    0.333843
      6          6           0        2.911647    2.036635    0.333496
      7          6           0       -0.011307   -0.015147   -0.062040
      8          1           0       -0.461392    4.054683   -0.140024
      9          1           0        1.707583    5.232420    0.165737
     10          1           0        3.807751    3.977549    0.468964
     11          6           0       -2.154350   -1.245709   -0.130871
     12          6           0       -2.940387   -2.429429   -0.164968
     13          6           0       -2.320645   -3.689089   -0.209480
     14          6           0       -0.934413   -3.711580   -0.222309
     15          6           0       -0.161879   -2.528943   -0.179936
     16          6           0       -0.747869   -1.264754   -0.133408
     17          6           0       -4.298490   -0.730712   -0.081836
     18          1           0       -2.905833   -4.598864   -0.235339
     19          1           0       -0.418637   -4.662811   -0.263423
     20          1           0        0.918263   -2.612417   -0.190322
     21          7           0       -0.583055    1.185797   -0.133928
     22          6           0       -6.768670   -0.763734   -0.233185
     23          6           0       -5.538642   -0.004633   -0.063269
     24          6           0       -5.619648    1.375343    0.084351
     25          6           0       -6.855131    2.027164    0.047630
     26          6           0       -8.049009    1.264586   -0.119681
     27          6           0       -8.041053   -0.099011   -0.258595
     28          1           0       -4.719487    1.955626    0.237627
     29          1           0       -8.994469    1.796404   -0.127916
     30          6           0       -6.964083    3.507274    0.190617
     31          6           0       -9.284682   -0.918953   -0.398546
     32          8           0       -6.755508   -2.059557   -0.357453
     33          7           0       -3.035874   -0.202042   -0.075560
     34          7           0       -4.263255   -2.072320   -0.126503
     35          1           0       -2.720077    0.765689   -0.097270
     36          7           0        1.346981    0.065519    0.109748
     37          1           0        2.039252   -0.665682    0.231517
     38          6           0        4.154220    1.287240    0.511407
     39          1           0        5.056361    1.892811    0.627439
     40          7           0        4.163166    0.006890    0.529125
     41          6           0        5.424338   -0.723040    0.669403
     42          6           0        5.622031   -1.577070   -0.597459
     43          6           0        6.685230    0.094290    0.970575
     44          1           0        5.271689   -1.421640    1.504212
     45          6           0        6.844362   -2.491285   -0.470206
     46          1           0        5.749860   -0.896858   -1.448809
     47          1           0        4.713486   -2.157148   -0.782806
     48          6           0        7.895786   -0.835859    1.121718
     49          1           0        6.870494    0.800266    0.151301
     50          1           0        6.539099    0.686045    1.880494
     51          6           0        8.104817   -1.685238   -0.137110
     52          1           0        6.988355   -3.056049   -1.396890
     53          1           0        6.666085   -3.222851    0.327510
     54          1           0        8.794271   -0.254649    1.347523
     55          1           0        7.732575   -1.506047    1.975222
     56          1           0        8.958702   -2.356092   -0.002582
     57          1           0        8.346720   -1.027138   -0.981226
     58          1           0       -5.765405   -2.384919   -0.299651
     59          6           0       -7.672455    4.112665   -1.035479
     60          1           0       -8.728952    3.970500   -0.943267
     61          1           0       -7.456925    5.159250   -1.091223
     62          1           0       -7.323667    3.628874   -1.923844
     63          6           0       -5.597754    4.190996    0.383669
     64          1           0       -5.116611    3.788135    1.250332
     65          1           0       -4.986697    4.016279   -0.477135
     66          1           0       -5.740622    5.243628    0.511944
     67          6           0       -7.854808    3.839209    1.402239
     68          1           0       -7.797790    4.887220    1.610376
     69          1           0       -8.867980    3.573624    1.183495
     70          1           0       -7.517536    3.287412    2.254687
     71          6           0      -10.485741   -0.023057   -0.754114
     72          1           0      -11.336389   -0.635586   -0.968839
     73          1           0      -10.708326    0.619505    0.072004
     74          1           0      -10.247009    0.569382   -1.612556
     75          6           0       -9.119846   -2.003254   -1.479619
     76          1           0       -8.442254   -1.656863   -2.231804
     77          1           0       -8.732136   -2.895353   -1.033816
     78          1           0      -10.070617   -2.210925   -1.924373
     79          6           0       -9.590176   -1.643362    0.925654
     80          1           0       -9.285258   -1.028965    1.746898
     81          1           0      -10.640840   -1.834073    0.993726
     82          1           0       -9.056688   -2.570371    0.956397
 ---------------------------------------------------------------------
 Rotational constants (GHZ):           0.1759741           0.0308508           0.0266898
 Leave Link  202 at Thu Dec 20 18:44:02 2018, MaxMem=  1342177280 cpu:               0.4 elap:               0.0
 (Enter /gpfs/apps/hpc/Apps/Restricted/Gaussian/Rev_A.03/g16/l301.exe)
 Standard basis: 6-31G(d,p) (6D, 7F)
 Ernie: Thresh=  0.10000D-02 Tol=  0.10000D-05 Strict=F.
   820 basis functions,  1435 primitive gaussians,   820 cartesian basis functions
   147 alpha electrons      146 beta electrons
       nuclear repulsion energy      4422.2957613485 Hartrees.
 IExCor=  402 DFT=T Ex+Corr=B3LYP ExCW=0 ScaHFX=  0.200000
 ScaDFX=  0.800000  0.720000  1.000000  0.810000 ScalE2=  1.000000  1.000000
 IRadAn=      5 IRanWt=     -1 IRanGd=            0 ICorTp=0 IEmpDi=141
 NAtoms=   82 NActive=   82 NUniq=   82 SFac= 1.00D+00 NAtFMM=   60 NAOKFM=T Big=T
 Integral buffers will be    131072 words long.
 Raffenetti 2 integral format.
 Two-electron integral symmetry is turned off.
 R6Disp:  Grimme-D3(BJ) Dispersion energy=       -0.1865672838 Hartrees.
 Nuclear repulsion after empirical dispersion term =     4422.1091940647 Hartrees.
 Force inversion solution in PCM.
 Using the following non-standard input for PCM:
 radii=bondi
 dis
 rep
 cav
 --- end of non-standard input.
 Force inversion solution in PCM.
 ------------------------------------------------------------------------------
 Polarizable Continuum Model (PCM)
 =================================
 Model                : C-PCM.
 Atomic radii         : Bondi.
 Polarization charges : Total charges.
 Charge compensation  : None.
 Solution method      : Matrix inversion.
 Cavity type          : Scaled VdW (van der Waals Surface) (Alpha=1.100).
 Cavity algorithm     : GePol (No added spheres)
                        Default sphere list used, NSphG=   82.
                        Lebedev-Laikov grids with approx.  5.0 points / Ang**2.
                        Smoothing algorithm: York/Karplus (Gamma=1.0000).
                        Polarization charges: spherical gaussians, with
                                              point-specific exponents (IZeta= 3).
                        Self-potential: point-specific (ISelfS= 7).
                        Self-field    : sphere-specific E.n sum rule (ISelfD= 2).
 1st derivatives      : Analytical E(r).r(x)/FMM algorithm (CHGder, D1EAlg=3).
                        Cavity 1st derivative terms included.
 2nd derivatives      : Analytical E(r).r(xy)/FMM algorithm (CHGder, D2EAlg=3).
                        Cavity 2nd derivative terms included.
 Solvent              : Dichloromethane, Eps=   8.930000 Eps(inf)=   2.028346
 ------------------------------------------------------------------------------
 GePol: Number of generator spheres                  =      82
 GePol: Total number of spheres                      =      82
 GePol: Number of exposed spheres                    =      82 (100.00%)
 GePol: Number of points                             =    5265
 GePol: Average weight of points                     =       0.12
 GePol: Minimum weight of points                     =   0.55D-11
 GePol: Maximum weight of points                     =    0.21770
 GePol: Number of points with low weight             =     409
 GePol: Fraction of low-weight points (<1% of avg)   =       7.77%
 GePol: Cavity surface area                          =    616.996 Ang**2
 GePol: Cavity volume                                =    607.279 Ang**3
 PCM non-electrostatic energy =         0.0275975863 Hartrees.
 Nuclear repulsion after PCM non-electrostatic terms =     4422.1367916510 Hartrees.
 Leave Link  301 at Thu Dec 20 18:44:03 2018, MaxMem=  1342177280 cpu:               4.0 elap:               0.3
 (Enter /gpfs/apps/hpc/Apps/Restricted/Gaussian/Rev_A.03/g16/l302.exe)
 NPDir=0 NMtPBC=     1 NCelOv=     1 NCel=       1 NClECP=     1 NCelD=      1
         NCelK=      1 NCelE2=     1 NClLst=     1 CellRange=     0.0.
 One-electron integrals computed using PRISM.
 NBasis=   820 RedAO= T EigKep=  2.76D-04  NBF=   820
 NBsUse=   820 1.00D-06 EigRej= -1.00D+00 NBFU=   820
 Precomputing XC quadrature grid using
 IXCGrd= 4 IRadAn=           5 IRanWt=          -1 IRanGd=           0 AccXCQ= 0.00D+00.
 Generated NRdTot=       0 NPtTot=           0 NUsed=           0 NTot=          32
 NSgBfM=   749   749   749   749   749 MxSgAt=    82 MxSgA2=    82.
 Leave Link  302 at Thu Dec 20 18:44:04 2018, MaxMem=  1342177280 cpu:              27.4 elap:               1.8
 (Enter /gpfs/apps/hpc/Apps/Restricted/Gaussian/Rev_A.03/g16/l303.exe)
 DipDrv:  MaxL=1.
 Leave Link  303 at Thu Dec 20 18:44:05 2018, MaxMem=  1342177280 cpu:               1.5 elap:               0.1
 (Enter /gpfs/apps/hpc/Apps/Restricted/Gaussian/Rev_A.03/g16/l401.exe)
 ExpMin= 1.61D-01 ExpMax= 5.48D+03 ExpMxC= 8.25D+02 IAcc=3 IRadAn=         5 AccDes= 0.00D+00
 Harris functional with IExCor=  402 and IRadAn=       5 diagonalized for initial guess.
 HarFok:  IExCor=  402 AccDes= 0.00D+00 IRadAn=         5 IDoV= 1 UseB2=F ITyADJ=14
 ICtDFT=  3500011 ScaDFX=  1.000000  1.000000  1.000000  1.000000
 FoFCou: FMM=F IPFlag=           0 FMFlag=      100000 FMFlg1=        2001
         NFxFlg=           0 DoJE=T BraDBF=F KetDBF=T FulRan=T
         wScrn=  0.000000 ICntrl=       500 IOpCl=  0 I1Cent=   200000004 NGrid=           0
         NMat0=    1 NMatS0=      1 NMatT0=    0 NMatD0=    1 NMtDS0=    0 NMtDT0=    0
 Symmetry not used in FoFCou.
 Harris En= -1707.46928652839    
 JPrj=0 DoOrth=F DoCkMO=F.
 Initial guess <Sx>= 0.0000 <Sy>= 0.0000 <Sz>= 0.5000 <S**2>= 0.7500 S= 0.5000
 Leave Link  401 at Thu Dec 20 18:44:09 2018, MaxMem=  1342177280 cpu:              76.3 elap:               4.8
 (Enter /gpfs/apps/hpc/Apps/Restricted/Gaussian/Rev_A.03/g16/l502.exe)
 Two-electron integral symmetry not used.
 UHF open shell SCF:
 Using DIIS extrapolation, IDIIS=  1040.
 NGot=  1342177280 LenX=  1340812546 LenY=  1340139326
 Requested convergence on RMS density matrix=1.00D-08 within 128 cycles.
 Requested convergence on MAX density matrix=1.00D-06.
 Requested convergence on             energy=1.00D-06.
 No special actions if energy rises.
 Fock matrices will be formed incrementally for  20 cycles.

 Cycle   1  Pass 1  IDiag  1:
 FoFJK:  IHMeth= 1 ICntrl=       0 DoSepK=F KAlg= 0 I1Cent=           0 FoldK=F
 IRaf= 630000000 NMat=       1 IRICut=       1 DoRegI=T DoRafI=F ISym2E= 0 IDoP0=0 IntGTp=1.
 FoFCou: FMM=T IPFlag=           0 FMFlag=      100000 FMFlg1=        2001
         NFxFlg=           0 DoJE=F BraDBF=F KetDBF=F FulRan=T
         wScrn=  0.000000 ICntrl=         0 IOpCl=  1 I1Cent=           0 NGrid=           0
         NMat0=    1 NMatS0=      1 NMatT0=    0 NMatD0=    1 NMtDS0=    0 NMtDT0=    0
 Symmetry not used in FoFCou.
 FMM levels:  10  Number of levels for PrismC:   9
 Inv3:  Mode=1 IEnd=    83160675.
 Iteration    1 A*A^-1 deviation from unit magnitude is 1.37D-14 for   5255.
 Iteration    1 A*A^-1 deviation from orthogonality  is 6.50D-15 for   5224   3591.
 Iteration    1 A^-1*A deviation from unit magnitude is 1.37D-14 for   5255.
 Iteration    1 A^-1*A deviation from orthogonality  is 7.40D-15 for   5236   5127.
 E= -1706.52503990947    
 DIIS: error= 3.28D-02 at cycle   1 NSaved=   1.
 NSaved= 1 IEnMin= 1 EnMin= -1706.52503990947     IErMin= 1 ErrMin= 3.28D-02
 ErrMax= 3.28D-02  0.00D+00 EMaxC= 1.00D-01 BMatC= 3.76D+00 BMatP= 3.76D+00
 IDIUse=3 WtCom= 6.72D-01 WtEn= 3.28D-01
 Coeff-Com:  0.100D+01
 Coeff-En:   0.100D+01
 Coeff:      0.100D+01
 Gap=     0.177 Goal=   None    Shift=    0.000
 Gap=     0.016 Goal=   None    Shift=    0.000
 GapD=    0.016 DampG=0.250 DampE=0.500 DampFc=0.2500 IDamp=-1.
 Damping current iteration by 2.50D-01
 RMSDP=2.90D-03 MaxDP=1.54D-01              OVMax= 3.74D-01

 Cycle   2  Pass 1  IDiag  1:
 RMSU=  7.02D-04    CP:  9.84D-01
 E= -1706.88152679677     Delta-E=       -0.356486887302 Rises=F Damp=T
 DIIS: error= 1.72D-02 at cycle   2 NSaved=   2.
 NSaved= 2 IEnMin= 2 EnMin= -1706.88152679677     IErMin= 2 ErrMin= 1.72D-02
 ErrMax= 1.72D-02  0.00D+00 EMaxC= 1.00D-01 BMatC= 1.01D+00 BMatP= 3.76D+00
 IDIUse=3 WtCom= 8.28D-01 WtEn= 1.72D-01
 Coeff-Com: -0.864D+00 0.186D+01
 Coeff-En:   0.000D+00 0.100D+01
 Coeff:     -0.715D+00 0.171D+01
 Gap=     0.174 Goal=   None    Shift=    0.000
 Gap=     0.039 Goal=   None    Shift=    0.000
 RMSDP=1.13D-03 MaxDP=7.63D-02 DE=-3.56D-01 OVMax= 3.25D-01

 Cycle   3  Pass 1  IDiag  1:
 RMSU=  7.80D-04    CP:  9.50D-01  2.04D+00
 E= -1707.48280324560     Delta-E=       -0.601276448832 Rises=F Damp=F
 DIIS: error= 3.94D-03 at cycle   3 NSaved=   3.
 NSaved= 3 IEnMin= 3 EnMin= -1707.48280324560     IErMin= 3 ErrMin= 3.94D-03
 ErrMax= 3.94D-03  0.00D+00 EMaxC= 1.00D-01 BMatC= 1.27D-01 BMatP= 1.01D+00
 IDIUse=3 WtCom= 9.61D-01 WtEn= 3.94D-02
 Coeff-Com: -0.327D+00 0.715D+00 0.612D+00
 Coeff-En:   0.000D+00 0.000D+00 0.100D+01
 Coeff:     -0.314D+00 0.687D+00 0.628D+00
 Gap=     0.142 Goal=   None    Shift=    0.000
 Gap=     0.035 Goal=   None    Shift=    0.000
 RMSDP=3.81D-04 MaxDP=3.68D-02 DE=-6.01D-01 OVMax= 1.31D-01

 Cycle   4  Pass 1  IDiag  1:
 RMSU=  3.06D-04    CP:  9.53D-01  2.07D+00  7.15D-01
 E= -1707.50566981462     Delta-E=       -0.022866569014 Rises=F Damp=F
 DIIS: error= 2.77D-03 at cycle   4 NSaved=   4.
 NSaved= 4 IEnMin= 4 EnMin= -1707.50566981462     IErMin= 4 ErrMin= 2.77D-03
 ErrMax= 2.77D-03  0.00D+00 EMaxC= 1.00D-01 BMatC= 4.64D-02 BMatP= 1.27D-01
 IDIUse=3 WtCom= 9.72D-01 WtEn= 2.77D-02
 Coeff-Com: -0.471D-01 0.117D+00 0.375D+00 0.554D+00
 Coeff-En:   0.000D+00 0.000D+00 0.262D+00 0.738D+00
 Coeff:     -0.458D-01 0.114D+00 0.372D+00 0.559D+00
 Gap=     0.141 Goal=   None    Shift=    0.000
 Gap=     0.036 Goal=   None    Shift=    0.000
 RMSDP=1.58D-04 MaxDP=1.63D-02 DE=-2.29D-02 OVMax= 3.55D-02

 Cycle   5  Pass 1  IDiag  1:
 RMSU=  9.55D-05    CP:  9.53D-01  2.03D+00  7.96D-01  6.54D-01
 E= -1707.51664543692     Delta-E=       -0.010975622296 Rises=F Damp=F
 DIIS: error= 5.21D-04 at cycle   5 NSaved=   5.
 NSaved= 5 IEnMin= 5 EnMin= -1707.51664543692     IErMin= 5 ErrMin= 5.21D-04
 ErrMax= 5.21D-04  0.00D+00 EMaxC= 1.00D-01 BMatC= 3.08D-03 BMatP= 4.64D-02
 IDIUse=3 WtCom= 9.95D-01 WtEn= 5.21D-03
 Coeff-Com:  0.419D-02-0.635D-03 0.145D+00 0.287D+00 0.565D+00
 Coeff-En:   0.000D+00 0.000D+00 0.000D+00 0.000D+00 0.100D+01
 Coeff:      0.417D-02-0.632D-03 0.144D+00 0.285D+00 0.567D+00
 Gap=     0.141 Goal=   None    Shift=    0.000
 Gap=     0.038 Goal=   None    Shift=    0.000
 RMSDP=5.19D-05 MaxDP=6.49D-03 DE=-1.10D-02 OVMax= 2.14D-02

 Cycle   6  Pass 1  IDiag  1:
 RMSU=  4.02D-05    CP:  9.52D-01  2.03D+00  8.04D-01  7.07D-01  7.13D-01
 E= -1707.51744903233     Delta-E=       -0.000803595412 Rises=F Damp=F
 DIIS: error= 2.22D-04 at cycle   6 NSaved=   6.
 NSaved= 6 IEnMin= 6 EnMin= -1707.51744903233     IErMin= 6 ErrMin= 2.22D-04
 ErrMax= 2.22D-04  0.00D+00 EMaxC= 1.00D-01 BMatC= 3.07D-04 BMatP= 3.08D-03
 IDIUse=3 WtCom= 9.98D-01 WtEn= 2.22D-03
 Coeff-Com:  0.590D-02-0.916D-02 0.442D-01 0.922D-01 0.292D+00 0.575D+00
 Coeff-En:   0.000D+00 0.000D+00 0.000D+00 0.000D+00 0.000D+00 0.100D+01
 Coeff:      0.589D-02-0.914D-02 0.441D-01 0.920D-01 0.291D+00 0.576D+00
 Gap=     0.140 Goal=   None    Shift=    0.000
 Gap=     0.038 Goal=   None    Shift=    0.000
 RMSDP=1.83D-05 MaxDP=1.90D-03 DE=-8.04D-04 OVMax= 1.14D-02

 Cycle   7  Pass 1  IDiag  1:
 RMSU=  1.45D-05    CP:  9.52D-01  2.04D+00  8.04D-01  7.19D-01  8.18D-01
                    CP:  1.08D+00
 E= -1707.51756165141     Delta-E=       -0.000112619079 Rises=F Damp=F
 DIIS: error= 1.42D-04 at cycle   7 NSaved=   7.
 NSaved= 7 IEnMin= 7 EnMin= -1707.51756165141     IErMin= 7 ErrMin= 1.42D-04
 ErrMax= 1.42D-04  0.00D+00 EMaxC= 1.00D-01 BMatC= 5.80D-05 BMatP= 3.07D-04
 IDIUse=3 WtCom= 9.99D-01 WtEn= 1.42D-03
 Coeff-Com:  0.252D-02-0.481D-02-0.489D-02-0.151D-01 0.438D-01 0.259D+00
 Coeff-Com:  0.720D+00
 Coeff-En:   0.000D+00 0.000D+00 0.000D+00 0.000D+00 0.000D+00 0.000D+00
 Coeff-En:   0.100D+01
 Coeff:      0.252D-02-0.480D-02-0.488D-02-0.151D-01 0.437D-01 0.259D+00
 Coeff:      0.720D+00
 Gap=     0.140 Goal=   None    Shift=    0.000
 Gap=     0.039 Goal=   None    Shift=    0.000
 RMSDP=1.51D-05 MaxDP=1.50D-03 DE=-1.13D-04 OVMax= 1.08D-02

 Cycle   8  Pass 1  IDiag  1:
 RMSU=  7.74D-06    CP:  9.52D-01  2.04D+00  8.05D-01  7.32D-01  8.75D-01
                    CP:  1.34D+00  1.18D+00
 E= -1707.51761143586     Delta-E=       -0.000049784454 Rises=F Damp=F
 DIIS: error= 9.50D-05 at cycle   8 NSaved=   8.
 NSaved= 8 IEnMin= 8 EnMin= -1707.51761143586     IErMin= 8 ErrMin= 9.50D-05
 ErrMax= 9.50D-05  0.00D+00 EMaxC= 1.00D-01 BMatC= 2.00D-05 BMatP= 5.80D-05
 IDIUse=1 WtCom= 1.00D+00 WtEn= 0.00D+00
 Coeff-Com: -0.763D-03 0.117D-02-0.161D-01-0.429D-01-0.813D-01-0.131D+00
 Coeff-Com:  0.323D+00 0.948D+00
 Coeff:     -0.763D-03 0.117D-02-0.161D-01-0.429D-01-0.813D-01-0.131D+00
 Coeff:      0.323D+00 0.948D+00
 Gap=     0.140 Goal=   None    Shift=    0.000
 Gap=     0.039 Goal=   None    Shift=    0.000
 RMSDP=1.54D-05 MaxDP=1.55D-03 DE=-4.98D-05 OVMax= 1.20D-02

 Cycle   9  Pass 1  IDiag  1:
 RMSU=  4.27D-06    CP:  9.52D-01  2.04D+00  8.05D-01  7.44D-01  9.37D-01
                    CP:  1.60D+00  1.71D+00  1.36D+00
 E= -1707.51764054119     Delta-E=       -0.000029105331 Rises=F Damp=F
 DIIS: error= 4.97D-05 at cycle   9 NSaved=   9.
 NSaved= 9 IEnMin= 9 EnMin= -1707.51764054119     IErMin= 9 ErrMin= 4.97D-05
 ErrMax= 4.97D-05  0.00D+00 EMaxC= 1.00D-01 BMatC= 8.61D-06 BMatP= 2.00D-05
 IDIUse=1 WtCom= 1.00D+00 WtEn= 0.00D+00
 Coeff-Com: -0.746D-03 0.137D-02-0.851D-02-0.233D-01-0.600D-01-0.153D+00
 Coeff-Com: -0.595D-02 0.589D+00 0.661D+00
 Coeff:     -0.746D-03 0.137D-02-0.851D-02-0.233D-01-0.600D-01-0.153D+00
 Coeff:     -0.595D-02 0.589D+00 0.661D+00
 Gap=     0.140 Goal=   None    Shift=    0.000
 Gap=     0.039 Goal=   None    Shift=    0.000
 RMSDP=7.37D-06 MaxDP=6.98D-04 DE=-2.91D-05 OVMax= 5.49D-03

 Cycle  10  Pass 1  IDiag  1:
 RMSU=  2.22D-06    CP:  9.52D-01  2.04D+00  8.05D-01  7.49D-01  9.63D-01
                    CP:  1.72D+00  1.92D+00  1.70D+00  1.08D+00
 E= -1707.51764844062     Delta-E=       -0.000007899429 Rises=F Damp=F
 DIIS: error= 2.20D-05 at cycle  10 NSaved=  10.
 NSaved=10 IEnMin=10 EnMin= -1707.51764844062     IErMin=10 ErrMin= 2.20D-05
 ErrMax= 2.20D-05  0.00D+00 EMaxC= 1.00D-01 BMatC= 1.63D-06 BMatP= 8.61D-06
 IDIUse=1 WtCom= 1.00D+00 WtEn= 0.00D+00
 Coeff-Com:  0.461D-04 0.782D-04 0.202D-02 0.372D-02 0.162D-02-0.229D-01
 Coeff-Com: -0.107D+00-0.108D-01 0.285D+00 0.848D+00
 Coeff:      0.461D-04 0.782D-04 0.202D-02 0.372D-02 0.162D-02-0.229D-01
 Coeff:     -0.107D+00-0.108D-01 0.285D+00 0.848D+00
 Gap=     0.140 Goal=   None    Shift=    0.000
 Gap=     0.039 Goal=   None    Shift=    0.000
 RMSDP=3.83D-06 MaxDP=4.55D-04 DE=-7.90D-06 OVMax= 2.50D-03

 Cycle  11  Pass 1  IDiag  1:
 RMSU=  1.34D-06    CP:  9.52D-01  2.04D+00  8.04D-01  7.51D-01  9.73D-01
                    CP:  1.77D+00  2.03D+00  1.88D+00  1.41D+00  1.26D+00
 E= -1707.51765066549     Delta-E=       -0.000002224869 Rises=F Damp=F
 DIIS: error= 1.53D-05 at cycle  11 NSaved=  11.
 NSaved=11 IEnMin=11 EnMin= -1707.51765066549     IErMin=11 ErrMin= 1.53D-05
 ErrMax= 1.53D-05  0.00D+00 EMaxC= 1.00D-01 BMatC= 8.64D-07 BMatP= 1.63D-06
 IDIUse=1 WtCom= 1.00D+00 WtEn= 0.00D+00
 Coeff-Com:  0.287D-03-0.404D-03 0.451D-02 0.109D-01 0.236D-01 0.427D-01
 Coeff-Com: -0.684D-01-0.217D+00-0.817D-01 0.536D+00 0.749D+00
 Coeff:      0.287D-03-0.404D-03 0.451D-02 0.109D-01 0.236D-01 0.427D-01
 Coeff:     -0.684D-01-0.217D+00-0.817D-01 0.536D+00 0.749D+00
 Gap=     0.140 Goal=   None    Shift=    0.000
 Gap=     0.039 Goal=   None    Shift=    0.000
 RMSDP=2.32D-06 MaxDP=3.52D-04 DE=-2.22D-06 OVMax= 1.47D-03

 Cycle  12  Pass 1  IDiag  1:
 RMSU=  6.78D-07    CP:  9.52D-01  2.04D+00  8.04D-01  7.52D-01  9.78D-01
                    CP:  1.80D+00  2.09D+00  1.99D+00  1.61D+00  1.70D+00
                    CP:  1.08D+00
 E= -1707.51765150188     Delta-E=       -0.000000836390 Rises=F Damp=F
 DIIS: error= 6.70D-06 at cycle  12 NSaved=  12.
 NSaved=12 IEnMin=12 EnMin= -1707.51765150188     IErMin=12 ErrMin= 6.70D-06
 ErrMax= 6.70D-06  0.00D+00 EMaxC= 1.00D-01 BMatC= 1.38D-07 BMatP= 8.64D-07
 IDIUse=1 WtCom= 1.00D+00 WtEn= 0.00D+00
 Coeff-Com:  0.690D-04-0.157D-03 0.578D-03 0.168D-02 0.630D-02 0.194D-01
 Coeff-Com:  0.980D-02-0.528D-01-0.122D+00-0.106D+00 0.261D+00 0.982D+00
 Coeff:      0.690D-04-0.157D-03 0.578D-03 0.168D-02 0.630D-02 0.194D-01
 Coeff:      0.980D-02-0.528D-01-0.122D+00-0.106D+00 0.261D+00 0.982D+00
 Gap=     0.140 Goal=   None    Shift=    0.000
 Gap=     0.039 Goal=   None    Shift=    0.000
 RMSDP=1.22D-06 MaxDP=1.73D-04 DE=-8.36D-07 OVMax= 6.50D-04

 Cycle  13  Pass 1  IDiag  1:
 RMSU=  3.53D-07    CP:  9.52D-01  2.04D+00  8.04D-01  7.53D-01  9.81D-01
                    CP:  1.81D+00  2.12D+00  2.04D+00  1.71D+00  1.94D+00
                    CP:  1.43D+00  1.27D+00
 E= -1707.51765169143     Delta-E=       -0.000000189551 Rises=F Damp=F
 DIIS: error= 3.38D-06 at cycle  13 NSaved=  13.
 NSaved=13 IEnMin=13 EnMin= -1707.51765169143     IErMin=13 ErrMin= 3.38D-06
 ErrMax= 3.38D-06  0.00D+00 EMaxC= 1.00D-01 BMatC= 3.83D-08 BMatP= 1.38D-07
 IDIUse=1 WtCom= 1.00D+00 WtEn= 0.00D+00
 Coeff-Com: -0.878D-05-0.146D-04-0.308D-03-0.684D-03 0.141D-04 0.422D-02
 Coeff-Com:  0.153D-01 0.875D-02-0.484D-01-0.134D+00 0.247D-01 0.471D+00
 Coeff-Com:  0.660D+00
 Coeff:     -0.878D-05-0.146D-04-0.308D-03-0.684D-03 0.141D-04 0.422D-02
 Coeff:      0.153D-01 0.875D-02-0.484D-01-0.134D+00 0.247D-01 0.471D+00
 Coeff:      0.660D+00
 Gap=     0.140 Goal=   None    Shift=    0.000
 Gap=     0.039 Goal=   None    Shift=    0.000
 RMSDP=2.93D-07 MaxDP=4.79D-05 DE=-1.90D-07 OVMax= 1.24D-04

 Cycle  14  Pass 1  IDiag  1:
 RMSU=  1.84D-07    CP:  9.52D-01  2.04D+00  8.04D-01  7.53D-01  9.81D-01
                    CP:  1.81D+00  2.12D+00  2.05D+00  1.73D+00  1.99D+00
                    CP:  1.49D+00  1.48D+00  1.00D+00
 E= -1707.51765171576     Delta-E=       -0.000000024331 Rises=F Damp=F
 DIIS: error= 2.02D-06 at cycle  14 NSaved=  14.
 NSaved=14 IEnMin=14 EnMin= -1707.51765171576     IErMin=14 ErrMin= 2.02D-06
 ErrMax= 2.02D-06  0.00D+00 EMaxC= 1.00D-01 BMatC= 1.35D-08 BMatP= 3.83D-08
 IDIUse=1 WtCom= 1.00D+00 WtEn= 0.00D+00
 Coeff-Com: -0.354D-04 0.555D-04-0.410D-03-0.104D-02-0.235D-02-0.433D-02
 Coeff-Com:  0.443D-02 0.230D-01 0.124D-01-0.465D-01-0.693D-01-0.626D-01
 Coeff-Com:  0.381D+00 0.766D+00
 Coeff:     -0.354D-04 0.555D-04-0.410D-03-0.104D-02-0.235D-02-0.433D-02
 Coeff:      0.443D-02 0.230D-01 0.124D-01-0.465D-01-0.693D-01-0.626D-01
 Coeff:      0.381D+00 0.766D+00
 Gap=     0.140 Goal=   None    Shift=    0.000
 Gap=     0.039 Goal=   None    Shift=    0.000
 RMSDP=2.36D-07 MaxDP=3.39D-05 DE=-2.43D-08 OVMax= 1.26D-04

 Cycle  15  Pass 1  IDiag  1:
 RMSU=  9.63D-08    CP:  9.52D-01  2.04D+00  8.04D-01  7.53D-01  9.81D-01
                    CP:  1.82D+00  2.12D+00  2.05D+00  1.74D+00  2.02D+00
                    CP:  1.55D+00  1.59D+00  1.33D+00  1.09D+00
 E= -1707.51765172710     Delta-E=       -0.000000011340 Rises=F Damp=F
 DIIS: error= 9.87D-07 at cycle  15 NSaved=  15.
 NSaved=15 IEnMin=15 EnMin= -1707.51765172710     IErMin=15 ErrMin= 9.87D-07
 ErrMax= 9.87D-07  0.00D+00 EMaxC= 1.00D-01 BMatC= 3.12D-09 BMatP= 1.35D-08
 IDIUse=1 WtCom= 1.00D+00 WtEn= 0.00D+00
 Coeff-Com: -0.118D-04 0.252D-04-0.123D-03-0.343D-03-0.115D-02-0.292D-02
 Coeff-Com: -0.130D-02 0.913D-02 0.182D-01 0.858D-02-0.373D-01-0.140D+00
 Coeff-Com:  0.227D-01 0.370D+00 0.755D+00
 Coeff:     -0.118D-04 0.252D-04-0.123D-03-0.343D-03-0.115D-02-0.292D-02
 Coeff:     -0.130D-02 0.913D-02 0.182D-01 0.858D-02-0.373D-01-0.140D+00
 Coeff:      0.227D-01 0.370D+00 0.755D+00
 Gap=     0.140 Goal=   None    Shift=    0.000
 Gap=     0.039 Goal=   None    Shift=    0.000
 RMSDP=1.06D-07 MaxDP=1.56D-05 DE=-1.13D-08 OVMax= 5.61D-05

 Cycle  16  Pass 1  IDiag  1:
 RMSU=  5.25D-08    CP:  9.52D-01  2.04D+00  8.04D-01  7.53D-01  9.81D-01
                    CP:  1.82D+00  2.12D+00  2.06D+00  1.74D+00  2.03D+00
                    CP:  1.57D+00  1.65D+00  1.46D+00  1.40D+00  1.15D+00
 E= -1707.51765172963     Delta-E=       -0.000000002529 Rises=F Damp=F
 DIIS: error= 5.70D-07 at cycle  16 NSaved=  16.
 NSaved=16 IEnMin=16 EnMin= -1707.51765172963     IErMin=16 ErrMin= 5.70D-07
 ErrMax= 5.70D-07  0.00D+00 EMaxC= 1.00D-01 BMatC= 1.34D-09 BMatP= 3.12D-09
 IDIUse=1 WtCom= 1.00D+00 WtEn= 0.00D+00
 Coeff-Com:  0.105D-04-0.121D-04 0.104D-03 0.251D-03 0.326D-03 0.157D-03
 Coeff-Com: -0.262D-02-0.469D-02 0.607D-02 0.228D-01 0.521D-02-0.584D-01
 Coeff-Com: -0.142D+00-0.796D-01 0.486D+00 0.767D+00
 Coeff:      0.105D-04-0.121D-04 0.104D-03 0.251D-03 0.326D-03 0.157D-03
 Coeff:     -0.262D-02-0.469D-02 0.607D-02 0.228D-01 0.521D-02-0.584D-01
 Coeff:     -0.142D+00-0.796D-01 0.486D+00 0.767D+00
 Gap=     0.140 Goal=   None    Shift=    0.000
 Gap=     0.039 Goal=   None    Shift=    0.000
 RMSDP=8.02D-08 MaxDP=1.17D-05 DE=-2.53D-09 OVMax= 5.21D-05

 Cycle  17  Pass 1  IDiag  1:
 RMSU=  2.82D-08    CP:  9.52D-01  2.04D+00  8.04D-01  7.53D-01  9.81D-01
                    CP:  1.82D+00  2.12D+00  2.06D+00  1.75D+00  2.04D+00
                    CP:  1.58D+00  1.68D+00  1.55D+00  1.59D+00  1.57D+00
                    CP:  1.10D+00
 E= -1707.51765173089     Delta-E=       -0.000000001256 Rises=F Damp=F
 DIIS: error= 2.50D-07 at cycle  17 NSaved=  17.
 NSaved=17 IEnMin=17 EnMin= -1707.51765173089     IErMin=17 ErrMin= 2.50D-07
 ErrMax= 2.50D-07  0.00D+00 EMaxC= 1.00D-01 BMatC= 1.62D-10 BMatP= 1.34D-09
 IDIUse=1 WtCom= 1.00D+00 WtEn= 0.00D+00
 Coeff-Com:  0.409D-05-0.662D-05 0.450D-04 0.119D-03 0.277D-03 0.539D-03
 Coeff-Com: -0.241D-03-0.290D-02-0.173D-02 0.289D-02 0.758D-02 0.144D-01
 Coeff-Com: -0.368D-01-0.895D-01-0.345D-01 0.179D+00 0.961D+00
 Coeff:      0.409D-05-0.662D-05 0.450D-04 0.119D-03 0.277D-03 0.539D-03
 Coeff:     -0.241D-03-0.290D-02-0.173D-02 0.289D-02 0.758D-02 0.144D-01
 Coeff:     -0.368D-01-0.895D-01-0.345D-01 0.179D+00 0.961D+00
 Gap=     0.140 Goal=   None    Shift=    0.000
 Gap=     0.039 Goal=   None    Shift=    0.000
 RMSDP=4.02D-08 MaxDP=6.20D-06 DE=-1.26D-09 OVMax= 2.79D-05

 Cycle  18  Pass 1  IDiag  1:
 RMSU=  1.50D-08    CP:  9.52D-01  2.04D+00  8.04D-01  7.53D-01  9.81D-01
                    CP:  1.82D+00  2.12D+00  2.06D+00  1.75D+00  2.04D+00
                    CP:  1.58D+00  1.69D+00  1.59D+00  1.67D+00  1.76D+00
                    CP:  1.42D+00  1.44D+00
 E= -1707.51765173122     Delta-E=       -0.000000000337 Rises=F Damp=F
 DIIS: error= 1.76D-07 at cycle  18 NSaved=  18.
 NSaved=18 IEnMin=18 EnMin= -1707.51765173122     IErMin=18 ErrMin= 1.76D-07
 ErrMax= 1.76D-07  0.00D+00 EMaxC= 1.00D-01 BMatC= 1.02D-10 BMatP= 1.62D-10
 IDIUse=1 WtCom= 1.00D+00 WtEn= 0.00D+00
 Coeff-Com: -0.715D-06-0.449D-06-0.374D-05-0.224D-05 0.843D-04 0.300D-03
 Coeff-Com:  0.767D-03-0.337D-03-0.298D-02-0.588D-02 0.309D-02 0.288D-01
 Coeff-Com:  0.252D-01-0.281D-01-0.191D+00-0.139D+00 0.600D+00 0.709D+00
 Coeff:     -0.715D-06-0.449D-06-0.374D-05-0.224D-05 0.843D-04 0.300D-03
 Coeff:      0.767D-03-0.337D-03-0.298D-02-0.588D-02 0.309D-02 0.288D-01
 Coeff:      0.252D-01-0.281D-01-0.191D+00-0.139D+00 0.600D+00 0.709D+00
 Gap=     0.140 Goal=   None    Shift=    0.000
 Gap=     0.039 Goal=   None    Shift=    0.000
 RMSDP=2.32D-08 MaxDP=2.90D-06 DE=-3.37D-10 OVMax= 1.40D-05

 Cycle  19  Pass 1  IDiag  1:
 RMSU=  7.80D-09    CP:  9.52D-01  2.04D+00  8.04D-01  7.53D-01  9.81D-01
                    CP:  1.82D+00  2.12D+00  2.06D+00  1.75D+00  2.04D+00
                    CP:  1.58D+00  1.70D+00  1.60D+00  1.72D+00  1.87D+00
                    CP:  1.60D+00  1.88D+00  1.16D+00
 E= -1707.51765173139     Delta-E=       -0.000000000170 Rises=F Damp=F
 DIIS: error= 7.22D-08 at cycle  19 NSaved=  19.
 NSaved=19 IEnMin=19 EnMin= -1707.51765173139     IErMin=19 ErrMin= 7.22D-08
 ErrMax= 7.22D-08  0.00D+00 EMaxC= 1.00D-01 BMatC= 1.36D-11 BMatP= 1.02D-10
 IDIUse=1 WtCom= 1.00D+00 WtEn= 0.00D+00
 Coeff-Com: -0.224D-05 0.298D-05-0.170D-04-0.408D-04-0.661D-04-0.975D-04
 Coeff-Com:  0.344D-03 0.777D-03-0.259D-03-0.298D-02-0.142D-02 0.340D-02
 Coeff-Com:  0.203D-01 0.226D-01-0.520D-01-0.903D-01-0.146D+00 0.133D+00
 Coeff-Com:  0.111D+01
 Coeff:     -0.224D-05 0.298D-05-0.170D-04-0.408D-04-0.661D-04-0.975D-04
 Coeff:      0.344D-03 0.777D-03-0.259D-03-0.298D-02-0.142D-02 0.340D-02
 Coeff:      0.203D-01 0.226D-01-0.520D-01-0.903D-01-0.146D+00 0.133D+00
 Coeff:      0.111D+01
 Gap=     0.140 Goal=   None    Shift=    0.000
 Gap=     0.039 Goal=   None    Shift=    0.000
 RMSDP=1.81D-08 MaxDP=2.26D-06 DE=-1.70D-10 OVMax= 1.18D-05

 Cycle  20  Pass 1  IDiag  1:
 RMSU=  4.15D-09    CP:  9.52D-01  2.04D+00  8.04D-01  7.53D-01  9.81D-01
                    CP:  1.82D+00  2.12D+00  2.06D+00  1.75D+00  2.04D+00
                    CP:  1.58D+00  1.70D+00  1.61D+00  1.75D+00  1.94D+00
                    CP:  1.74D+00  2.21D+00  1.64D+00  1.43D+00
 E= -1707.51765173146     Delta-E=       -0.000000000065 Rises=F Damp=F
 DIIS: error= 4.34D-08 at cycle  20 NSaved=  20.
 NSaved=20 IEnMin=20 EnMin= -1707.51765173146     IErMin=20 ErrMin= 4.34D-08
 ErrMax= 4.34D-08  0.00D+00 EMaxC= 1.00D-01 BMatC= 6.97D-12 BMatP= 1.36D-11
 IDIUse=1 WtCom= 1.00D+00 WtEn= 0.00D+00
 Coeff-Com: -0.110D-05 0.167D-05-0.757D-05-0.184D-04-0.439D-04-0.997D-04
 Coeff-Com:  0.363D-04 0.414D-03 0.455D-03-0.442D-03-0.108D-02-0.355D-02
 Coeff-Com:  0.606D-02 0.170D-01 0.512D-02-0.193D-01-0.189D+00-0.825D-01
 Coeff-Com:  0.632D+00 0.634D+00
 Coeff:     -0.110D-05 0.167D-05-0.757D-05-0.184D-04-0.439D-04-0.997D-04
 Coeff:      0.363D-04 0.414D-03 0.455D-03-0.442D-03-0.108D-02-0.355D-02
 Coeff:      0.606D-02 0.170D-01 0.512D-02-0.193D-01-0.189D+00-0.825D-01
 Coeff:      0.632D+00 0.634D+00
 Gap=     0.140 Goal=   None    Shift=    0.000
 Gap=     0.039 Goal=   None    Shift=    0.000
 RMSDP=5.77D-09 MaxDP=7.15D-07 DE=-6.55D-11 OVMax= 3.30D-06

 Error on total polarization charges =  0.04997
 SCF Done:  E(UB3LYP) =  -1707.51765173     A.U. after   20 cycles
            NFock= 20  Conv=0.58D-08     -V/T= 2.0091
 <Sx>= 0.0000 <Sy>= 0.0000 <Sz>= 0.5000 <S**2>= 0.7615 S= 0.5058
 <L.S>= 0.000000000000E+00
 KE= 1.692044734501D+03 PE=-1.277298932741D+04 EE= 4.951290149525D+03
 Annihilation of the first spin contaminant:
 S**2 before annihilation     0.7615,   after     0.7501
 Leave Link  502 at Thu Dec 20 18:49:42 2018, MaxMem=  1342177280 cpu:            5218.6 elap:             332.3
 (Enter /gpfs/apps/hpc/Apps/Restricted/Gaussian/Rev_A.03/g16/l801.exe)
 DoSCS=F DFT=T ScalE2(SS,OS)=  1.000000  1.000000
 Range of M.O.s used for correlation:     1   820
 NBasis=   820 NAE=   147 NBE=   146 NFC=     0 NFV=     0
 NROrb=    820 NOA=   147 NOB=   146 NVA=   673 NVB=   674

 **** Warning!!: The smallest beta delta epsilon is  0.38822005D-01

 Leave Link  801 at Thu Dec 20 18:49:42 2018, MaxMem=  1342177280 cpu:               4.0 elap:               0.3
 (Enter /gpfs/apps/hpc/Apps/Restricted/Gaussian/Rev_A.03/g16/l1101.exe)
 Using compressed storage, NAtomX=    82.
 Will process     83 centers per pass.
 PrsmSu:  requested number of processors reduced to:  15 ShMem   1 Linda.
 R6Disp: Adding Grimme-D3(BJ) dispersion energy 1st derivatives to the gradient.
 Leave Link 1101 at Thu Dec 20 18:49:45 2018, MaxMem=  1342177280 cpu:              45.3 elap:               3.0
 (Enter /gpfs/apps/hpc/Apps/Restricted/Gaussian/Rev_A.03/g16/l1102.exe)
 Symmetrizing basis deriv contribution to polar:
 IMax=3 JMax=2 DiffMx= 0.00D+00
 Leave Link 1102 at Thu Dec 20 18:49:46 2018, MaxMem=  1342177280 cpu:               1.5 elap:               0.1
 (Enter /gpfs/apps/hpc/Apps/Restricted/Gaussian/Rev_A.03/g16/l1110.exe)
 Forming Gx(P) for the SCF density, NAtomX=    82.
 Integral derivatives from FoFJK, PRISM(SPDF).
 Do as many integral derivatives as possible in FoFJK.
 G2DrvN: MDV=    1342171240.
 G2DrvN: will do    28 centers at a time, making    3 passes.
 G2DrvN:  IPasSy=1 do centers    0 through   27.
 Calling FoFCou, ICntrl=  3107 FMM=T I1Cent=   0 AccDes= 0.00D+00.
 FoFJK:  IHMeth= 1 ICntrl=    3107 DoSepK=F KAlg= 0 I1Cent=           0 FoldK=F
 IRaf=         0 NMat=       1 IRICut=       1 DoRegI=T DoRafI=F ISym2E= 0 IDoP0=0 IntGTp=1.
 FoFCou: FMM=T IPFlag=           0 FMFlag=      100000 FMFlg1=        2001
         NFxFlg=           0 DoJE=F BraDBF=F KetDBF=F FulRan=T
         wScrn=  0.000000 ICntrl=      3107 IOpCl=  1 I1Cent=           0 NGrid=           0
         NMat0=    1 NMatS0=      1 NMatT0=    0 NMatD0=    1 NMtDS0=    0 NMtDT0=    0
 Symmetry not used in FoFCou.
 FMM levels:  10  Number of levels for PrismC:   9
 G2DrvN:  IPasSy=1 do centers   28 through   55.
 Calling FoFCou, ICntrl=  3107 FMM=T I1Cent=   0 AccDes= 0.00D+00.
 G2DrvN:  IPasSy=1 do centers   56 through   82.
 Calling FoFCou, ICntrl=  3107 FMM=T I1Cent=   0 AccDes= 0.00D+00.
 NEqPCM:  Using equilibrium solvation (IEInf=0, Eps=   8.9300, EpsInf=   2.0283)
 G2PCM: DoFxE=T DoFxN=T DoGrad=T DoDP/DQ/DG/TGxP=FFFF NFrqRd=   0 IEInf=0 SqF1=F DoCFld=F IF1Alg=4.
 GePol: Maximum number of non-zero 1st derivatives   =     194
 End of G2Drv F.D. properties file   721 does not exist.
 End of G2Drv F.D. properties file   722 does not exist.
 End of G2Drv F.D. properties file   788 does not exist.
 Leave Link 1110 at Thu Dec 20 19:07:36 2018, MaxMem=  1342177280 cpu:           17071.5 elap:            1070.8
 (Enter /gpfs/apps/hpc/Apps/Restricted/Gaussian/Rev_A.03/g16/l1002.exe)
 Minotr:  UHF open shell wavefunction.
          IDoAtm=11111111111111111111111111111111111111111111111111
          IDoAtm=11111111111111111111111111111111
 NEqPCM:  Using equilibrium solvation (IEInf=0, Eps=   8.9300, EpsInf=   2.0283)
          Direct CPHF calculation.
          Differentiating once with respect to nuclear coordinates.
          Requested convergence is 1.0D-08 RMS, and 1.0D-07 maximum.
          Secondary convergence is 1.0D-12 RMS, and 1.0D-12 maximum.
          NewPWx=T KeepS1=F KeepF1=F KeepIn=T MapXYZ=F SortEE=F KeepMc=T.
        25305 words used for storage of precomputed grid.
 Two-electron integral symmetry not used.
          MDV=    1342177280 using IRadAn=       1.
          Solving linear equations simultaneously, MaxMat=      72.
 FoF2E skips out because all densities are zero.
 CalDSu exits because no D1Ps are significant.
 FoFJK:  IHMeth= 1 ICntrl=       0 DoSepK=F KAlg= 0 I1Cent=           0 FoldK=F
 IRaf= 570000000 NMat=      48 IRICut=       1 DoRegI=T DoRafI=F ISym2E= 0 IDoP0=0 IntGTp=1.
