 Entering Gaussian System, Link 0=g16
 Initial command:
 /gpfs/apps/hpc/Apps/Restricted/Gaussian/Rev_A.03/g16/l1.exe "/gpfs/scratch60/fas/hammes_schiffer/jg2487/c45n02/Gau-55720.inp" -scrdir="/gpfs/scratch60/fas/hammes_schiffer/jg2487/c45n02/"
 Entering Link 1 = /gpfs/apps/hpc/Apps/Restricted/Gaussian/Rev_A.03/g16/l1.exe PID=     55721.
  
 Copyright (c) 1988,1990,1992,1993,1995,1998,2003,2009,2016,
            Gaussian, Inc.  All Rights Reserved.
  
 This is part of the Gaussian(R) 16 program.  It is based on
 the Gaussian(R) 09 system (copyright 2009, Gaussian, Inc.),
 the Gaussian(R) 03 system (copyright 2003, Gaussian, Inc.),
 the Gaussian(R) 98 system (copyright 1998, Gaussian, Inc.),
 the Gaussian(R) 94 system (copyright 1995, Gaussian, Inc.),
 the Gaussian 92(TM) system (copyright 1992, Gaussian, Inc.),
 the Gaussian 90(TM) system (copyright 1990, Gaussian, Inc.),
 the Gaussian 88(TM) system (copyright 1988, Gaussian, Inc.),
 the Gaussian 86(TM) system (copyright 1986, Carnegie Mellon
 University), and the Gaussian 82(TM) system (copyright 1983,
 Carnegie Mellon University). Gaussian is a federally registered
 trademark of Gaussian, Inc.
  
 This software contains proprietary and confidential information,
 including trade secrets, belonging to Gaussian, Inc.
  
 This software is provided under written license and may be
 used, copied, transmitted, or stored only in accord with that
 written license.
  
 The following legend is applicable only to US Government
 contracts under FAR:
  
                    RESTRICTED RIGHTS LEGEND
  
 Use, reproduction and disclosure by the US Government is
 subject to restrictions as set forth in subparagraphs (a)
 and (c) of the Commercial Computer Software - Restricted
 Rights clause in FAR 52.227-19.
  
 Gaussian, Inc.
 340 Quinnipiac St., Bldg. 40, Wallingford CT 06492
  
  
 ---------------------------------------------------------------
 Warning -- This program may not be used in any manner that
 competes with the business of Gaussian, Inc. or will provide
 assistance to any competitor of Gaussian, Inc.  The licensee
 of this program is prohibited from giving any competitor of
 Gaussian, Inc. access to this program.  By using this program,
 the user acknowledges that Gaussian, Inc. is engaged in the
 business of creating and licensing software in the field of
 computational chemistry and represents and warrants to the
 licensee that it is not a competitor of Gaussian, Inc. and that
 it will not use this program in any manner prohibited above.
 ---------------------------------------------------------------
  

 Cite this work as:
 Gaussian 16, Revision A.03,
 M. J. Frisch, G. W. Trucks, H. B. Schlegel, G. E. Scuseria, 
 M. A. Robb, J. R. Cheeseman, G. Scalmani, V. Barone, 
 G. A. Petersson, H. Nakatsuji, X. Li, M. Caricato, A. V. Marenich, 
 J. Bloino, B. G. Janesko, R. Gomperts, B. Mennucci, H. P. Hratchian, 
 J. V. Ortiz, A. F. Izmaylov, J. L. Sonnenberg, D. Williams-Young, 
 F. Ding, F. Lipparini, F. Egidi, J. Goings, B. Peng, A. Petrone, 
 T. Henderson, D. Ranasinghe, V. G. Zakrzewski, J. Gao, N. Rega, 
 G. Zheng, W. Liang, M. Hada, M. Ehara, K. Toyota, R. Fukuda, 
 J. Hasegawa, M. Ishida, T. Nakajima, Y. Honda, O. Kitao, H. Nakai, 
 T. Vreven, K. Throssell, J. A. Montgomery, Jr., J. E. Peralta, 
 F. Ogliaro, M. J. Bearpark, J. J. Heyd, E. N. Brothers, K. N. Kudin, 
 V. N. Staroverov, T. A. Keith, R. Kobayashi, J. Normand, 
 K. Raghavachari, A. P. Rendell, J. C. Burant, S. S. Iyengar, 
 J. Tomasi, M. Cossi, J. M. Millam, M. Klene, C. Adamo, R. Cammi, 
 J. W. Ochterski, R. L. Martin, K. Morokuma, O. Farkas, 
 J. B. Foresman, and D. J. Fox, Gaussian, Inc., Wallingford CT, 2016.
 
 ******************************************
 Gaussian 16:  ES64L-G16RevA.03 25-Dec-2016
                18-Dec-2018 
 ******************************************
 %chk=cyclohexyl-diBIP-TS1.chk
 %mem=10GB
 %nprocshared=16
 Will use up to   16 processors via shared memory.
 ----------------------------------------------------------------------
 #p opt=(readfc,recalcfc=6,tight,ts,noeigentest) freq=internalmodes b3l
 yp/6-31g(d,p) scrf=(cpcm,solvent=dichloromethane,read) nosymm guess=re
 ad empiricaldispersion=gd3bj int=grid=ultrafine
 ----------------------------------------------------------------------
 1/5=1,7=10,10=3,11=1,18=20,26=6,38=1,40=2,71=6/1,3;
 2/9=110,12=2,15=1,17=6,18=5,40=1/2;
 3/5=1,6=6,7=101,11=2,25=1,30=1,70=2103,71=2,72=9,74=-5,75=-5,116=-2,124=41,140=1/1,2,3;
 4/5=1/1;
 5/5=2,38=6,53=9/2;
 8/6=4,10=90,11=11/1;
 11/6=1,8=1,9=11,15=111,16=1,31=1/1,2,10;
 10/6=1,31=1/2;
 6/7=2,8=2,9=2,10=2,28=1/1;
 7/10=1,25=1,30=1/1,2,3,16;
 1/5=1,7=10,11=1,18=20,26=6,71=6/3(3);
 2/9=110,15=1/2;
 7/9=1,25=1,30=1,44=-1/16;
 99//99;
 2/9=110,15=1/2;
 3/5=1,6=6,7=101,11=2,25=1,30=1,70=2105,71=2,72=9,74=-5,75=-5,124=41,140=1/1,2,3;
 4/5=5,16=3,69=1/1;
 5/5=2,38=5,53=9/2;
 8/6=4,10=90,11=11/1;
 11/6=1,8=1,9=11,15=111,16=1,31=1/1,2,10;
 10/6=1,31=1/2;
 7/10=1,25=1,30=1/1,2,3,16;
 1/5=1,7=10,11=1,18=20,26=6,71=6/3(-8);
 2/9=110,15=1/2;
 6/7=2,8=2,9=2,10=2,19=2,28=1/1;
 7/9=1,25=1,30=1,44=-1/16;
 99/9=1/99;
 Leave Link    1 at Tue Dec 18 09:28:21 2018, MaxMem=  1342177280 cpu:               7.5 elap:               0.5
 (Enter /gpfs/apps/hpc/Apps/Restricted/Gaussian/Rev_A.03/g16/l101.exe)
 ----------------------------------------------------------------------
 cyclohexylimine diBIP oxidized, first proton transition state optimiza
 tion
 ----------------------------------------------------------------------
 Symbolic Z-matrix:
 Charge =  1 Multiplicity = 2
 C                     1.67486   1.39686   0.15875 
 C                     0.45605   2.09591  -0.00246 
 C                     0.45803   3.49823  -0.0067 
 C                     1.67773   4.14919   0.16297 
 C                     2.87813   3.43525   0.33384 
 C                     2.91165   2.03663   0.3335 
 C                    -0.01131  -0.01515  -0.06204 
 H                    -0.46139   4.05468  -0.14002 
 H                     1.70758   5.23242   0.16574 
 H                     3.80775   3.97755   0.46896 
 C                    -2.15435  -1.24571  -0.13087 
 C                    -2.94039  -2.42943  -0.16497 
 C                    -2.32065  -3.68909  -0.20948 
 C                    -0.93441  -3.71158  -0.22231 
 C                    -0.16188  -2.52894  -0.17994 
 C                    -0.74787  -1.26475  -0.13341 
 C                    -4.29849  -0.73071  -0.08184 
 H                    -2.90583  -4.59886  -0.23534 
 H                    -0.41864  -4.66281  -0.26342 
 H                     0.91826  -2.61242  -0.19032 
 N                    -0.58306   1.1858   -0.13393 
 C                    -6.76867  -0.76373  -0.23319 
 C                    -5.53864  -0.00463  -0.06327 
 C                    -5.61965   1.37534   0.08435 
 C                    -6.85513   2.02716   0.04763 
 C                    -8.04901   1.26459  -0.11968 
 C                    -8.04105  -0.09901  -0.2586 
 H                    -4.71949   1.95563   0.23763 
 H                    -8.99447   1.7964   -0.12792 
 C                    -6.96408   3.50727   0.19062 
 H                    -7.59763   3.74337   1.0524 
 H                    -5.99626   3.99158   0.32736 
 H                    -7.46752   3.93752  -0.68076 
 C                    -9.28468  -0.91895  -0.39855 
 H                    -9.16784  -1.68754  -1.16484 
 H                    -9.50188  -1.43398   0.54291 
 H                    -10.13457  -0.285    -0.65015 
 O                    -6.75551  -2.05956  -0.35745 
 N                    -3.03587  -0.20204  -0.07556 
 N                    -4.26326  -2.07232  -0.1265 
 H                    -2.72008   0.76569  -0.09727 
 N                     1.34698   0.06552   0.10975 
 H                     2.03925  -0.66568   0.23152 
 C                     4.15422   1.28724   0.51141 
 H                     5.05636   1.89281   0.62744 
 N                     4.16317   0.00689   0.52913 
 C                     5.42434  -0.72304   0.6694 
 C                     5.62203  -1.57707  -0.59746 
 C                     6.68523   0.09429   0.97058 
 H                     5.27169  -1.42164   1.50421 
 C                     6.84436  -2.49129  -0.47021 
 H                     5.74986  -0.89686  -1.44881 
 H                     4.71349  -2.15715  -0.78281 
 C                     7.89579  -0.83586   1.12172 
 H                     6.87049   0.80027   0.1513 
 H                     6.5391    0.68605   1.88049 
 C                     8.10482  -1.68524  -0.13711 
 H                     6.98836  -3.05605  -1.39689 
 H                     6.66609  -3.22285   0.32751 
 H                     8.79427  -0.25465   1.34752 
 H                     7.73258  -1.50605   1.97522 
 H                     8.9587   -2.35609  -0.00258 
 H                     8.34672  -1.02714  -0.98123 
 H                    -5.76541  -2.38492  -0.29965 
 
 ITRead=  0  0  0  0  0  0  0  0  0  0  0  0  0  0  0  0  0  0  0  0
 ITRead=  0  0  0  0  0  0  0  0  0  0  0  0  0  0  0  0  0  0  0  0
 ITRead=  0  0  0  0  0  0  0  0  0  0  0  0  0  0  0  0  0  0  0  0
 ITRead=  0  0  0  0
 MicOpt= -1 -1 -1 -1 -1 -1 -1 -1 -1 -1 -1 -1 -1 -1 -1 -1 -1 -1 -1 -1
 MicOpt= -1 -1 -1 -1 -1 -1 -1 -1 -1 -1 -1 -1 -1 -1 -1 -1 -1 -1 -1 -1
 MicOpt= -1 -1 -1 -1 -1 -1 -1 -1 -1 -1 -1 -1 -1 -1 -1 -1 -1 -1 -1 -1
 MicOpt= -1 -1 -1 -1
 NAtoms=     64 NQM=       64 NQMF=       0 NMMI=      0 NMMIF=      0
                NMic=       0 NMicF=      0.
                    Isotopes and Nuclear Properties:
 (Nuclear quadrupole moments (NQMom) in fm**2, nuclear magnetic moments (NMagM)
  in nuclear magnetons)

  Atom         1           2           3           4           5           6           7           8           9          10
 IAtWgt=          12          12          12          12          12          12          12           1           1           1
 AtmWgt=  12.0000000  12.0000000  12.0000000  12.0000000  12.0000000  12.0000000  12.0000000   1.0078250   1.0078250   1.0078250
 NucSpn=           0           0           0           0           0           0           0           1           1           1
 AtZEff=  -0.0000000  -0.0000000  -0.0000000  -0.0000000  -0.0000000  -0.0000000  -0.0000000  -0.0000000  -0.0000000  -0.0000000
 NQMom=    0.0000000   0.0000000   0.0000000   0.0000000   0.0000000   0.0000000   0.0000000   0.0000000   0.0000000   0.0000000
 NMagM=    0.0000000   0.0000000   0.0000000   0.0000000   0.0000000   0.0000000   0.0000000   2.7928460   2.7928460   2.7928460
 AtZNuc=   6.0000000   6.0000000   6.0000000   6.0000000   6.0000000   6.0000000   6.0000000   1.0000000   1.0000000   1.0000000

  Atom        11          12          13          14          15          16          17          18          19          20
 IAtWgt=          12          12          12          12          12          12          12           1           1           1
 AtmWgt=  12.0000000  12.0000000  12.0000000  12.0000000  12.0000000  12.0000000  12.0000000   1.0078250   1.0078250   1.0078250
 NucSpn=           0           0           0           0           0           0           0           1           1           1
 AtZEff=  -0.0000000  -0.0000000  -0.0000000  -0.0000000  -0.0000000  -0.0000000  -0.0000000  -0.0000000  -0.0000000  -0.0000000
 NQMom=    0.0000000   0.0000000   0.0000000   0.0000000   0.0000000   0.0000000   0.0000000   0.0000000   0.0000000   0.0000000
 NMagM=    0.0000000   0.0000000   0.0000000   0.0000000   0.0000000   0.0000000   0.0000000   2.7928460   2.7928460   2.7928460
 AtZNuc=   6.0000000   6.0000000   6.0000000   6.0000000   6.0000000   6.0000000   6.0000000   1.0000000   1.0000000   1.0000000

  Atom        21          22          23          24          25          26          27          28          29          30
 IAtWgt=          14          12          12          12          12          12          12           1           1          12
 AtmWgt=  14.0030740  12.0000000  12.0000000  12.0000000  12.0000000  12.0000000  12.0000000   1.0078250   1.0078250  12.0000000
 NucSpn=           2           0           0           0           0           0           0           1           1           0
 AtZEff=  -0.0000000  -0.0000000  -0.0000000  -0.0000000  -0.0000000  -0.0000000  -0.0000000  -0.0000000  -0.0000000  -0.0000000
 NQMom=    2.0440000   0.0000000   0.0000000   0.0000000   0.0000000   0.0000000   0.0000000   0.0000000   0.0000000   0.0000000
 NMagM=    0.4037610   0.0000000   0.0000000   0.0000000   0.0000000   0.0000000   0.0000000   2.7928460   2.7928460   0.0000000
 AtZNuc=   7.0000000   6.0000000   6.0000000   6.0000000   6.0000000   6.0000000   6.0000000   1.0000000   1.0000000   6.0000000

  Atom        31          32          33          34          35          36          37          38          39          40
 IAtWgt=           1           1           1          12           1           1           1          16          14          14
 AtmWgt=   1.0078250   1.0078250   1.0078250  12.0000000   1.0078250   1.0078250   1.0078250  15.9949146  14.0030740  14.0030740
 NucSpn=           1           1           1           0           1           1           1           0           2           2
 AtZEff=  -0.0000000  -0.0000000  -0.0000000  -0.0000000  -0.0000000  -0.0000000  -0.0000000  -0.0000000  -0.0000000  -0.0000000
 NQMom=    0.0000000   0.0000000   0.0000000   0.0000000   0.0000000   0.0000000   0.0000000   0.0000000   2.0440000   2.0440000
 NMagM=    2.7928460   2.7928460   2.7928460   0.0000000   2.7928460   2.7928460   2.7928460   0.0000000   0.4037610   0.4037610
 AtZNuc=   1.0000000   1.0000000   1.0000000   6.0000000   1.0000000   1.0000000   1.0000000   8.0000000   7.0000000   7.0000000

  Atom        41          42          43          44          45          46          47          48          49          50
 IAtWgt=           1          14           1          12           1          14          12          12          12           1
 AtmWgt=   1.0078250  14.0030740   1.0078250  12.0000000   1.0078250  14.0030740  12.0000000  12.0000000  12.0000000   1.0078250
 NucSpn=           1           2           1           0           1           2           0           0           0           1
 AtZEff=  -0.0000000  -0.0000000  -0.0000000  -0.0000000  -0.0000000  -0.0000000  -0.0000000  -0.0000000  -0.0000000  -0.0000000
 NQMom=    0.0000000   2.0440000   0.0000000   0.0000000   0.0000000   2.0440000   0.0000000   0.0000000   0.0000000   0.0000000
 NMagM=    2.7928460   0.4037610   2.7928460   0.0000000   2.7928460   0.4037610   0.0000000   0.0000000   0.0000000   2.7928460
 AtZNuc=   1.0000000   7.0000000   1.0000000   6.0000000   1.0000000   7.0000000   6.0000000   6.0000000   6.0000000   1.0000000

  Atom        51          52          53          54          55          56          57          58          59          60
 IAtWgt=          12           1           1          12           1           1          12           1           1           1
 AtmWgt=  12.0000000   1.0078250   1.0078250  12.0000000   1.0078250   1.0078250  12.0000000   1.0078250   1.0078250   1.0078250
 NucSpn=           0           1           1           0           1           1           0           1           1           1
 AtZEff=  -0.0000000  -0.0000000  -0.0000000  -0.0000000  -0.0000000  -0.0000000  -0.0000000  -0.0000000  -0.0000000  -0.0000000
 NQMom=    0.0000000   0.0000000   0.0000000   0.0000000   0.0000000   0.0000000   0.0000000   0.0000000   0.0000000   0.0000000
 NMagM=    0.0000000   2.7928460   2.7928460   0.0000000   2.7928460   2.7928460   0.0000000   2.7928460   2.7928460   2.7928460
 AtZNuc=   6.0000000   1.0000000   1.0000000   6.0000000   1.0000000   1.0000000   6.0000000   1.0000000   1.0000000   1.0000000

  Atom        61          62          63          64
 IAtWgt=           1           1           1           1
 AtmWgt=   1.0078250   1.0078250   1.0078250   1.0078250
 NucSpn=           1           1           1           1
 AtZEff=  -0.0000000  -0.0000000  -0.0000000  -0.0000000
 NQMom=    0.0000000   0.0000000   0.0000000   0.0000000
 NMagM=    2.7928460   2.7928460   2.7928460   2.7928460
 AtZNuc=   1.0000000   1.0000000   1.0000000   1.0000000
 Leave Link  101 at Tue Dec 18 09:28:22 2018, MaxMem=  1342177280 cpu:               4.1 elap:               0.3
 (Enter /gpfs/apps/hpc/Apps/Restricted/Gaussian/Rev_A.03/g16/l103.exe)

 GradGradGradGradGradGradGradGradGradGradGradGradGradGradGradGradGradGrad
 Berny optimization.
 Initialization pass.
 Force constant matrix read from checkpoint file:
 "cyclohexyl-diBIP-TS1.chk"
 NVar current= 371 chk= 382 common= 371.
                           ----------------------------
                           !    Initial Parameters    !
                           ! (Angstroms and Degrees)  !
 --------------------------                            --------------------------
 ! Name  Definition              Value          Derivative Info.                !
 --------------------------------------------------------------------------------
 ! R1    R(1,2)                  1.4143         D2E/DX2 =    0.292              !
 ! R2    R(1,6)                  1.4034         D2E/DX2 =    0.404              !
 ! R3    R(1,42)                 1.372          D2E/DX2 =    0.3826             !
 ! R4    R(2,3)                  1.4023         D2E/DX2 =    0.3879             !
 ! R5    R(2,21)                 1.3876         D2E/DX2 =    0.3237             !
 ! R6    R(3,4)                  1.3929         D2E/DX2 =    0.4057             !
 ! R7    R(3,8)                  1.0829         D2E/DX2 =    0.3668             !
 ! R8    R(4,5)                  1.4071         D2E/DX2 =    0.3699             !
 ! R9    R(4,9)                  1.0836         D2E/DX2 =    0.3641             !
 ! R10   R(5,6)                  1.399          D2E/DX2 =    0.3993             !
 ! R11   R(5,10)                 1.0847         D2E/DX2 =    0.3639             !
 ! R12   R(6,44)                 1.4619         D2E/DX2 =    0.3539             !
 ! R13   R(7,16)                 1.4523         D2E/DX2 =    0.3792             !
 ! R14   R(7,21)                 1.332          D2E/DX2 =    0.4166             !
 ! R15   R(7,42)                 1.3715         D2E/DX2 =    0.3511             !
 ! R16   R(11,12)                1.4213         D2E/DX2 =    0.2762             !
 ! R17   R(11,16)                1.4066         D2E/DX2 =    0.3971             !
 ! R18   R(11,39)                1.3673         D2E/DX2 =    0.3693             !
 ! R19   R(12,13)                1.4046         D2E/DX2 =    0.3754             !
 ! R20   R(12,40)                1.3708         D2E/DX2 =    0.3397             !
 ! R21   R(13,14)                1.3865         D2E/DX2 =    0.4142             !
 ! R22   R(13,18)                1.082          D2E/DX2 =    0.3692             !
 ! R23   R(14,15)                1.4132         D2E/DX2 =    0.3501             !
 ! R24   R(14,19)                1.0828         D2E/DX2 =    0.367              !
 ! R25   R(15,16)                1.3942         D2E/DX2 =    0.4011             !
 ! R26   R(15,20)                1.0834         D2E/DX2 =    0.3662             !
 ! R27   R(17,23)                1.4372         D2E/DX2 =    0.3256             !
 ! R28   R(17,39)                1.3688         D2E/DX2 =    0.3472             !
 ! R29   R(17,40)                1.3428         D2E/DX2 =    0.3103             !
 ! R30   R(22,23)                1.4554         D2E/DX2 =    0.2422             !
 ! R31   R(22,27)                1.4358         D2E/DX2 =    0.3215             !
 ! R32   R(22,38)                1.3018         D2E/DX2 =    0.4743             !
 ! R33   R(23,24)                1.3902         D2E/DX2 =    0.3905             !
 ! R34   R(24,25)                1.3974         D2E/DX2 =    0.3562             !
 ! R35   R(24,28)                1.0819         D2E/DX2 =    0.3653             !
 ! R36   R(25,26)                1.4265         D2E/DX2 =    0.3285             !
 ! R37   R(25,30)                1.491          D2E/DX2 =    0.3178             !
 ! R38   R(26,27)                1.3707         D2E/DX2 =    0.4546             !
 ! R39   R(26,29)                1.0848         D2E/DX2 =    0.3629             !
 ! R40   R(27,34)                1.4962         D2E/DX2 =    0.3131             !
 ! R41   R(30,31)                1.0954         D2E/DX2 =    0.3387             !
 ! R42   R(30,32)                1.0908         D2E/DX2 =    0.3508             !
 ! R43   R(30,33)                1.0945         D2E/DX2 =    0.3426             !
 ! R44   R(34,35)                1.0916         D2E/DX2 =    0.3481             !
 ! R45   R(34,36)                1.0949         D2E/DX2 =    0.3402             !
 ! R46   R(34,37)                1.0897         D2E/DX2 =    0.3506             !
 ! R47   R(38,64)                1.0438         D2E/DX2 =    0.251              !
 ! R48   R(39,41)                1.0182         D2E/DX2 =    0.4301             !
 ! R49   R(42,43)                1.0143         D2E/DX2 =    0.4536             !
 ! R50   R(44,45)                1.0927         D2E/DX2 =    0.3421             !
 ! R51   R(44,46)                1.2805         D2E/DX2 =    0.6852             !
 ! R52   R(46,47)                1.4639         D2E/DX2 =    0.3074             !
 ! R53   R(47,48)                1.5406         D2E/DX2 =    0.2365             !
 ! R54   R(47,49)                1.5325         D2E/DX2 =    0.2335             !
 ! R55   R(47,50)                1.0992         D2E/DX2 =    0.3213             !
 ! R56   R(48,51)                1.5317         D2E/DX2 =    0.2443             !
 ! R57   R(48,52)                1.0972         D2E/DX2 =    0.3331             !
 ! R58   R(48,53)                1.0938         D2E/DX2 =    0.3371             !
 ! R59   R(49,54)                1.5341         D2E/DX2 =    0.2456             !
 ! R60   R(49,55)                1.0972         D2E/DX2 =    0.3291             !
 ! R61   R(49,56)                1.0952         D2E/DX2 =    0.3358             !
 ! R62   R(51,57)                1.5328         D2E/DX2 =    0.2446             !
 ! R63   R(51,58)                1.0947         D2E/DX2 =    0.3347             !
 ! R64   R(51,59)                1.097          D2E/DX2 =    0.3289             !
 ! R65   R(54,57)                1.5329         D2E/DX2 =    0.247              !
 ! R66   R(54,60)                1.0936         D2E/DX2 =    0.337              !
 ! R67   R(54,61)                1.0974         D2E/DX2 =    0.3307             !
 ! R68   R(57,62)                1.0942         D2E/DX2 =    0.3327             !
 ! R69   R(57,63)                1.0973         D2E/DX2 =    0.3283             !
 ! A1    A(2,1,6)              123.2535         D2E/DX2 =    0.0789             !
 ! A2    A(2,1,42)             105.6417         D2E/DX2 =    0.096              !
 ! A3    A(6,1,42)             131.104          D2E/DX2 =    0.0993             !
 ! A4    A(1,2,3)              119.5649         D2E/DX2 =    0.0783             !
 ! A5    A(1,2,21)             109.3878         D2E/DX2 =    0.1069             !
 ! A6    A(3,2,21)             131.0473         D2E/DX2 =    0.1029             !
 ! A7    A(2,3,4)              117.9181         D2E/DX2 =    0.0812             !
 ! A8    A(2,3,8)              120.8639         D2E/DX2 =    0.0778             !
 ! A9    A(4,3,8)              121.2178         D2E/DX2 =    0.0782             !
 ! A10   A(3,4,5)              121.6476         D2E/DX2 =    0.0818             !
 ! A11   A(3,4,9)              119.4455         D2E/DX2 =    0.0803             !
 ! A12   A(5,4,9)              118.9068         D2E/DX2 =    0.0806             !
 ! A13   A(4,5,6)              121.8473         D2E/DX2 =    0.0854             !
 ! A14   A(4,5,10)             119.5119         D2E/DX2 =    0.0849             !
 ! A15   A(6,5,10)             118.6408         D2E/DX2 =    0.0853             !
 ! A16   A(1,6,5)              115.7642         D2E/DX2 =    0.0857             !
 ! A17   A(1,6,44)             122.0406         D2E/DX2 =    0.1659             !
 ! A18   A(5,6,44)             122.1943         D2E/DX2 =    0.1446             !
 ! A19   A(16,7,21)            123.7392         D2E/DX2 =    0.1665             !
 ! A20   A(16,7,42)            123.9907         D2E/DX2 =    0.1457             !
 ! A21   A(21,7,42)            112.2612         D2E/DX2 =    0.1265             !
 ! A22   A(12,11,16)           122.7963         D2E/DX2 =    0.0778             !
 ! A23   A(12,11,39)           106.2679         D2E/DX2 =    0.0946             !
 ! A24   A(16,11,39)           130.9263         D2E/DX2 =    0.1                !
 ! A25   A(11,12,13)           120.2415         D2E/DX2 =    0.0749             !
 ! A26   A(11,12,40)           108.4251         D2E/DX2 =    0.0882             !
 ! A27   A(13,12,40)           131.3265         D2E/DX2 =    0.0922             !
 ! A28   A(12,13,14)           117.1292         D2E/DX2 =    0.0799             !
 ! A29   A(12,13,18)           121.0766         D2E/DX2 =    0.0773             !
 ! A30   A(14,13,18)           121.7939         D2E/DX2 =    0.0774             !
 ! A31   A(13,14,15)           122.1877         D2E/DX2 =    0.0796             !
 ! A32   A(13,14,19)           119.3954         D2E/DX2 =    0.0802             !
 ! A33   A(15,14,19)           118.4167         D2E/DX2 =    0.0811             !
 ! A34   A(14,15,16)           122.0087         D2E/DX2 =    0.0826             !
 ! A35   A(14,15,20)           118.7004         D2E/DX2 =    0.0879             !
 ! A36   A(16,15,20)           119.2899         D2E/DX2 =    0.0871             !
 ! A37   A(7,16,11)            119.6954         D2E/DX2 =    0.1857             !
 ! A38   A(7,16,15)            124.6587         D2E/DX2 =    0.1615             !
 ! A39   A(11,16,15)           115.6334         D2E/DX2 =    0.0863             !
 ! A40   A(23,17,39)           126.9242         D2E/DX2 =    0.0884             !
 ! A41   A(23,17,40)           121.8587         D2E/DX2 =    0.069              !
 ! A42   A(39,17,40)           111.212          D2E/DX2 =    0.0953             !
 ! A43   A(2,21,7)             105.3557         D2E/DX2 =    0.1348             !
 ! A44   A(23,22,27)           120.6354         D2E/DX2 =    0.0788             !
 ! A45   A(23,22,38)           121.4518         D2E/DX2 =    0.0864             !
 ! A46   A(27,22,38)           117.9112         D2E/DX2 =    0.1124             !
 ! A47   A(17,23,22)           117.6636         D2E/DX2 =    0.0754             !
 ! A48   A(17,23,24)           123.5827         D2E/DX2 =    0.0926             !
 ! A49   A(22,23,24)           118.7442         D2E/DX2 =    0.075              !
 ! A50   A(23,24,25)           120.7809         D2E/DX2 =    0.0801             !
 ! A51   A(23,24,28)           119.9318         D2E/DX2 =    0.0823             !
 ! A52   A(25,24,28)           119.2855         D2E/DX2 =    0.0832             !
 ! A53   A(24,25,26)           119.5837         D2E/DX2 =    0.0808             !
 ! A54   A(24,25,30)           121.6782         D2E/DX2 =    0.1197             !
 ! A55   A(26,25,30)           118.736          D2E/DX2 =    0.1209             !
 ! A56   A(25,26,27)           122.6055         D2E/DX2 =    0.0775             !
 ! A57   A(25,26,29)           117.9205         D2E/DX2 =    0.0839             !
 ! A58   A(27,26,29)           119.4722         D2E/DX2 =    0.0823             !
 ! A59   A(22,27,26)           117.6409         D2E/DX2 =    0.0829             !
 ! A60   A(22,27,34)           118.9831         D2E/DX2 =    0.1082             !
 ! A61   A(26,27,34)           123.357          D2E/DX2 =    0.1086             !
 ! A62   A(25,30,31)           109.3712         D2E/DX2 =    0.0932             !
 ! A63   A(25,30,32)           112.8255         D2E/DX2 =    0.1039             !
 ! A64   A(25,30,33)           110.3347         D2E/DX2 =    0.1051             !
 ! A65   A(31,30,32)           108.5929         D2E/DX2 =    0.0534             !
 ! A66   A(31,30,33)           105.9987         D2E/DX2 =    0.0524             !
 ! A67   A(32,30,33)           109.4742         D2E/DX2 =    0.0565             !
 ! A68   A(27,34,35)           111.2574         D2E/DX2 =    0.1036             !
 ! A69   A(27,34,36)           110.0139         D2E/DX2 =    0.1                !
 ! A70   A(27,34,37)           110.5516         D2E/DX2 =    0.1054             !
 ! A71   A(35,34,36)           107.077          D2E/DX2 =    0.0549             !
 ! A72   A(35,34,37)           109.3296         D2E/DX2 =    0.0551             !
 ! A73   A(36,34,37)           108.5102         D2E/DX2 =    0.0537             !
 ! A74   A(22,38,64)           108.3352         D2E/DX2 =    0.0872             !
 ! A75   A(11,39,17)           107.4402         D2E/DX2 =    0.0986             !
 ! A76   A(11,39,41)           121.6461         D2E/DX2 =    0.0805             !
 ! A77   A(17,39,41)           130.7733         D2E/DX2 =    0.0662             !
 ! A78   A(12,40,17)           106.651          D2E/DX2 =    0.0813             !
 ! A79   A(1,42,7)             107.3511         D2E/DX2 =    0.1027             !
 ! A80   A(1,42,43)            122.1515         D2E/DX2 =    0.0788             !
 ! A81   A(7,42,43)            130.4367         D2E/DX2 =    0.0682             !
 ! A82   A(6,44,45)            115.503          D2E/DX2 =    0.1069             !
 ! A83   A(6,44,46)            121.3435         D2E/DX2 =    0.1791             !
 ! A84   A(45,44,46)           123.1534         D2E/DX2 =    0.1214             !
 ! A85   A(44,46,47)           120.3912         D2E/DX2 =    0.3285             !
 ! A86   A(46,47,48)           107.9486         D2E/DX2 =    0.0613             !
 ! A87   A(46,47,49)           117.4984         D2E/DX2 =    0.0688             !
 ! A88   A(46,47,50)           105.6662         D2E/DX2 =    0.0209             !
 ! A89   A(48,47,49)           110.5901         D2E/DX2 =    0.0483             !
 ! A90   A(48,47,50)           106.8597         D2E/DX2 =    0.0246             !
 ! A91   A(49,47,50)           107.6959         D2E/DX2 =    0.0249             !
 ! A92   A(47,48,51)           111.4053         D2E/DX2 =    0.054              !
 ! A93   A(47,48,52)           108.0199         D2E/DX2 =    0.0349             !
 ! A94   A(47,48,53)           109.0724         D2E/DX2 =    0.0378             !
 ! A95   A(51,48,52)           109.9697         D2E/DX2 =    0.0327             !
 ! A96   A(51,48,53)           111.1261         D2E/DX2 =    0.0374             !
 ! A97   A(52,48,53)           107.1027         D2E/DX2 =    0.015              !
 ! A98   A(47,49,54)           110.1963         D2E/DX2 =    0.052              !
 ! A99   A(47,49,55)           109.5927         D2E/DX2 =    0.0326             !
 ! A100  A(47,49,56)           109.978          D2E/DX2 =    0.0373             !
 ! A101  A(54,49,55)           109.2953         D2E/DX2 =    0.0337             !
 ! A102  A(54,49,56)           110.5505         D2E/DX2 =    0.0375             !
 ! A103  A(55,49,56)           107.1714         D2E/DX2 =    0.015              !
 ! A104  A(48,51,57)           111.1262         D2E/DX2 =    0.0548             !
 ! A105  A(48,51,58)           110.0329         D2E/DX2 =    0.0375             !
 ! A106  A(48,51,59)           109.1944         D2E/DX2 =    0.0335             !
 ! A107  A(57,51,58)           110.3092         D2E/DX2 =    0.0379             !
 ! A108  A(57,51,59)           109.0455         D2E/DX2 =    0.0331             !
 ! A109  A(58,51,59)           107.0318         D2E/DX2 =    0.0147             !
 ! A110  A(49,54,57)           111.2634         D2E/DX2 =    0.0543             !
 ! A111  A(49,54,60)           110.2674         D2E/DX2 =    0.0374             !
 ! A112  A(49,54,61)           109.2415         D2E/DX2 =    0.0346             !
 ! A113  A(57,54,60)           110.6095         D2E/DX2 =    0.0377             !
 ! A114  A(57,54,61)           108.6984         D2E/DX2 =    0.0341             !
 ! A115  A(60,54,61)           106.6282         D2E/DX2 =    0.0152             !
 ! A116  A(51,57,54)           110.9596         D2E/DX2 =    0.055              !
 ! A117  A(51,57,62)           110.2449         D2E/DX2 =    0.0382             !
 ! A118  A(51,57,63)           109.2379         D2E/DX2 =    0.0334             !
 ! A119  A(54,57,62)           110.1921         D2E/DX2 =    0.038              !
 ! A120  A(54,57,63)           109.236          D2E/DX2 =    0.0335             !
 ! A121  A(62,57,63)           106.8722         D2E/DX2 =    0.0148             !
 ! D1    D(6,1,2,3)              0.7494         D2E/DX2 =    0.005              !
 ! D2    D(6,1,2,21)          -179.2009         D2E/DX2 =    0.0043             !
 ! D3    D(42,1,2,3)          -179.5479         D2E/DX2 =    0.0053             !
 ! D4    D(42,1,2,21)            0.5018         D2E/DX2 =    0.0083             !
 ! D5    D(2,1,6,5)             -0.2982         D2E/DX2 =    0.0062             !
 ! D6    D(2,1,6,44)           179.3653         D2E/DX2 =    0.0063             !
 ! D7    D(42,1,6,5)          -179.9183         D2E/DX2 =    0.0084             !
 ! D8    D(42,1,6,44)           -0.2547         D2E/DX2 =    0.0089             !
 ! D9    D(2,1,42,7)            -0.48           D2E/DX2 =    0.0085             !
 ! D10   D(2,1,42,43)         -177.9205         D2E/DX2 =    0.0047             !
 ! D11   D(6,1,42,7)           179.19           D2E/DX2 =    0.0052             !
 ! D12   D(6,1,42,43)            1.7496         D2E/DX2 =    0.0037             !
 ! D13   D(1,2,3,4)             -0.585          D2E/DX2 =    0.0074             !
 ! D14   D(1,2,3,8)            179.2903         D2E/DX2 =    0.0069             !
 ! D15   D(21,2,3,4)           179.3529         D2E/DX2 =    0.0089             !
 ! D16   D(21,2,3,8)            -0.7718         D2E/DX2 =    0.0084             !
 ! D17   D(1,2,21,7)            -0.3187         D2E/DX2 =    0.0099             !
 ! D18   D(3,2,21,7)           179.7386         D2E/DX2 =    0.0073             !
 ! D19   D(2,3,4,5)              0.0226         D2E/DX2 =    0.0095             !
 ! D20   D(2,3,4,9)           -179.8762         D2E/DX2 =    0.0084             !
 ! D21   D(8,3,4,5)           -179.8522         D2E/DX2 =    0.0076             !
 ! D22   D(8,3,4,9)              0.249          D2E/DX2 =    0.0086             !
 ! D23   D(3,4,5,6)              0.4334         D2E/DX2 =    0.0093             !
 ! D24   D(3,4,5,10)          -179.6432         D2E/DX2 =    0.0081             !
 ! D25   D(9,4,5,6)           -179.6673         D2E/DX2 =    0.008              !
 ! D26   D(9,4,5,10)             0.2561         D2E/DX2 =    0.0085             !
 ! D27   D(4,5,6,1)             -0.288          D2E/DX2 =    0.0081             !
 ! D28   D(4,5,6,44)          -179.951          D2E/DX2 =    0.0078             !
 ! D29   D(10,5,6,1)           179.788          D2E/DX2 =    0.0074             !
 ! D30   D(10,5,6,44)            0.125          D2E/DX2 =    0.0074             !
 ! D31   D(1,6,44,45)          179.3561         D2E/DX2 =    0.0078             !
 ! D32   D(1,6,44,46)           -0.7409         D2E/DX2 =    0.0146             !
 ! D33   D(5,6,44,45)           -1.002          D2E/DX2 =    0.0097             !
 ! D34   D(5,6,44,46)          178.901          D2E/DX2 =    0.0166             !
 ! D35   D(21,7,16,11)          -7.3418         D2E/DX2 =    0.0074             !
 ! D36   D(21,7,16,15)         174.0068         D2E/DX2 =    0.0087             !
 ! D37   D(42,7,16,11)         171.4918         D2E/DX2 =    0.0051             !
 ! D38   D(42,7,16,15)          -7.1597         D2E/DX2 =    0.0056             !
 ! D39   D(16,7,21,2)          178.9653         D2E/DX2 =    0.0099             !
 ! D40   D(42,7,21,2)            0.0104         D2E/DX2 =    0.0122             !
 ! D41   D(16,7,42,1)         -178.6442         D2E/DX2 =    0.0091             !
 ! D42   D(16,7,42,43)          -1.4916         D2E/DX2 =    0.0045             !
 ! D43   D(21,7,42,1)            0.3077         D2E/DX2 =    0.0122             !
 ! D44   D(21,7,42,43)         177.4603         D2E/DX2 =    0.0055             !
 ! D45   D(16,11,12,13)         -0.292          D2E/DX2 =    0.0043             !
 ! D46   D(16,11,12,40)        178.8553         D2E/DX2 =    0.0037             !
 ! D47   D(39,11,12,13)       -179.2866         D2E/DX2 =    0.0045             !
 ! D48   D(39,11,12,40)         -0.1393         D2E/DX2 =    0.0066             !
 ! D49   D(12,11,16,7)        -178.3999         D2E/DX2 =    0.0061             !
 ! D50   D(12,11,16,15)          0.3698         D2E/DX2 =    0.0056             !
 ! D51   D(39,11,16,7)           0.3226         D2E/DX2 =    0.0084             !
 ! D52   D(39,11,16,15)        179.0922         D2E/DX2 =    0.0076             !
 ! D53   D(12,11,39,17)         -0.2483         D2E/DX2 =    0.0073             !
 ! D54   D(12,11,39,41)       -176.3768         D2E/DX2 =    0.0049             !
 ! D55   D(16,11,39,17)       -179.1296         D2E/DX2 =    0.0046             !
 ! D56   D(16,11,39,41)          4.7419         D2E/DX2 =    0.0041             !
 ! D57   D(11,12,13,14)         -0.1979         D2E/DX2 =    0.0064             !
 ! D58   D(11,12,13,18)        179.9719         D2E/DX2 =    0.0065             !
 ! D59   D(40,12,13,14)       -179.1206         D2E/DX2 =    0.0071             !
 ! D60   D(40,12,13,18)          1.0493         D2E/DX2 =    0.0073             !
 ! D61   D(11,12,40,17)          0.4764         D2E/DX2 =    0.0058             !
 ! D62   D(13,12,40,17)        179.4954         D2E/DX2 =    0.0055             !
 ! D63   D(12,13,14,15)          0.5954         D2E/DX2 =    0.0086             !
 ! D64   D(12,13,14,19)       -179.5701         D2E/DX2 =    0.0086             !
 ! D65   D(18,13,14,15)       -179.5758         D2E/DX2 =    0.0077             !
 ! D66   D(18,13,14,19)          0.2588         D2E/DX2 =    0.009              !
 ! D67   D(13,14,15,16)         -0.527          D2E/DX2 =    0.0081             !
 ! D68   D(13,14,15,20)        179.8589         D2E/DX2 =    0.0077             !
 ! D69   D(19,14,15,16)        179.6369         D2E/DX2 =    0.0078             !
 ! D70   D(19,14,15,20)          0.0228         D2E/DX2 =    0.0085             !
 ! D71   D(14,15,16,7)         178.7285         D2E/DX2 =    0.007              !
 ! D72   D(14,15,16,11)          0.0278         D2E/DX2 =    0.0068             !
 ! D73   D(20,15,16,7)          -1.6596         D2E/DX2 =    0.0076             !
 ! D74   D(20,15,16,11)        179.6397         D2E/DX2 =    0.0073             !
 ! D75   D(39,17,23,22)        172.9179         D2E/DX2 =    0.0064             !
 ! D76   D(39,17,23,24)         -5.9432         D2E/DX2 =    0.0059             !
 ! D77   D(40,17,23,22)         -6.1827         D2E/DX2 =    0.0038             !
 ! D78   D(40,17,23,24)        174.9562         D2E/DX2 =    0.0045             !
 ! D79   D(23,17,39,11)       -178.6105         D2E/DX2 =    0.0051             !
 ! D80   D(23,17,39,41)         -2.9635         D2E/DX2 =    0.0039             !
 ! D81   D(40,17,39,11)          0.5701         D2E/DX2 =    0.0078             !
 ! D82   D(40,17,39,41)        176.2171         D2E/DX2 =    0.0051             !
 ! D83   D(23,17,40,12)        178.5781         D2E/DX2 =    0.0043             !
 ! D84   D(39,17,40,12)         -0.6507         D2E/DX2 =    0.0064             !
 ! D85   D(27,22,23,17)       -178.427          D2E/DX2 =    0.0045             !
 ! D86   D(27,22,23,24)          0.4908         D2E/DX2 =    0.0048             !
 ! D87   D(38,22,23,17)          2.0402         D2E/DX2 =    0.0041             !
 ! D88   D(38,22,23,24)       -179.0419         D2E/DX2 =    0.0044             !
 ! D89   D(23,22,27,26)          0.0888         D2E/DX2 =    0.0048             !
 ! D90   D(23,22,27,34)       -178.3807         D2E/DX2 =    0.0051             !
 ! D91   D(38,22,27,26)        179.6378         D2E/DX2 =    0.0048             !
 ! D92   D(38,22,27,34)          1.1682         D2E/DX2 =    0.0061             !
 ! D93   D(23,22,38,64)          0.6642         D2E/DX2 =    0.0086             !
 ! D94   D(27,22,38,64)       -178.8809         D2E/DX2 =    0.0075             !
 ! D95   D(17,23,24,25)        177.7554         D2E/DX2 =    0.0056             !
 ! D96   D(17,23,24,28)         -2.7369         D2E/DX2 =    0.0072             !
 ! D97   D(22,23,24,25)         -1.0941         D2E/DX2 =    0.0055             !
 ! D98   D(22,23,24,28)        178.4136         D2E/DX2 =    0.0066             !
 ! D99   D(23,24,25,26)          1.1154         D2E/DX2 =    0.0058             !
 ! D100  D(23,24,25,30)       -179.4018         D2E/DX2 =    0.0068             !
 ! D101  D(28,24,25,26)       -178.3955         D2E/DX2 =    0.0065             !
 ! D102  D(28,24,25,30)          1.0873         D2E/DX2 =    0.0073             !
 ! D103  D(24,25,26,27)         -0.5148         D2E/DX2 =    0.0056             !
 ! D104  D(24,25,26,29)        179.0068         D2E/DX2 =    0.0065             !
 ! D105  D(30,25,26,27)        179.9872         D2E/DX2 =    0.006              !
 ! D106  D(30,25,26,29)         -0.4912         D2E/DX2 =    0.0072             !
 ! D107  D(24,25,30,31)       -121.2984         D2E/DX2 =    0.0113             !
 ! D108  D(24,25,30,32)         -0.323          D2E/DX2 =    0.0129             !
 ! D109  D(24,25,30,33)        122.4783         D2E/DX2 =    0.0116             !
 ! D110  D(26,25,30,31)         58.1886         D2E/DX2 =    0.0114             !
 ! D111  D(26,25,30,32)        179.164          D2E/DX2 =    0.0125             !
 ! D112  D(26,25,30,33)        -58.0347         D2E/DX2 =    0.0125             !
 ! D113  D(25,26,27,22)         -0.078          D2E/DX2 =    0.0053             !
 ! D114  D(25,26,27,34)        178.3191         D2E/DX2 =    0.006              !
 ! D115  D(29,26,27,22)       -179.5925         D2E/DX2 =    0.0072             !
 ! D116  D(29,26,27,34)         -1.1953         D2E/DX2 =    0.0077             !
 ! D117  D(22,27,34,35)        -44.2377         D2E/DX2 =    0.0122             !
 ! D118  D(22,27,34,36)         74.2551         D2E/DX2 =    0.0121             !
 ! D119  D(22,27,34,37)       -165.9166         D2E/DX2 =    0.0121             !
 ! D120  D(26,27,34,35)        137.3855         D2E/DX2 =    0.0121             !
 ! D121  D(26,27,34,36)       -104.1217         D2E/DX2 =    0.0119             !
 ! D122  D(26,27,34,37)         15.7066         D2E/DX2 =    0.0126             !
 ! D123  D(6,44,46,47)         178.2058         D2E/DX2 =    0.0329             !
 ! D124  D(45,44,46,47)         -1.8988         D2E/DX2 =    0.0242             !
 ! D125  D(44,46,47,48)       -118.21           D2E/DX2 =    0.0106             !
 ! D126  D(44,46,47,49)          7.619          D2E/DX2 =    0.0091             !
 ! D127  D(44,46,47,50)        127.7437         D2E/DX2 =    0.0115             !
 ! D128  D(46,47,48,51)       -173.8464         D2E/DX2 =    0.0217             !
 ! D129  D(46,47,48,52)         65.2719         D2E/DX2 =    0.0202             !
 ! D130  D(46,47,48,53)        -50.812          D2E/DX2 =    0.0202             !
 ! D131  D(49,47,48,51)         56.3501         D2E/DX2 =    0.0165             !
 ! D132  D(49,47,48,52)        -64.5315         D2E/DX2 =    0.0192             !
 ! D133  D(49,47,48,53)        179.3845         D2E/DX2 =    0.018              !
 ! D134  D(50,47,48,51)        -60.5952         D2E/DX2 =    0.0151             !
 ! D135  D(50,47,48,52)        178.5231         D2E/DX2 =    0.0156             !
 ! D136  D(50,47,48,53)         62.4391         D2E/DX2 =    0.0147             !
 ! D137  D(46,47,49,54)        178.4247         D2E/DX2 =    0.0201             !
 ! D138  D(46,47,49,55)        -61.2666         D2E/DX2 =    0.0179             !
 ! D139  D(46,47,49,56)         56.3038         D2E/DX2 =    0.0169             !
 ! D140  D(48,47,49,54)        -57.0568         D2E/DX2 =    0.0166             !
 ! D141  D(48,47,49,55)         63.252          D2E/DX2 =    0.0183             !
 ! D142  D(48,47,49,56)       -179.1777         D2E/DX2 =    0.0165             !
 ! D143  D(50,47,49,54)         59.3712         D2E/DX2 =    0.0157             !
 ! D144  D(50,47,49,55)        179.6799         D2E/DX2 =    0.016              !
 ! D145  D(50,47,49,56)        -62.7497         D2E/DX2 =    0.0144             !
 ! D146  D(47,48,51,57)        -55.1512         D2E/DX2 =    0.0146             !
 ! D147  D(47,48,51,58)       -177.6271         D2E/DX2 =    0.0158             !
 ! D148  D(47,48,51,59)         65.1759         D2E/DX2 =    0.0159             !
 ! D149  D(52,48,51,57)         64.5822         D2E/DX2 =    0.0169             !
 ! D150  D(52,48,51,58)        -57.8938         D2E/DX2 =    0.0155             !
 ! D151  D(52,48,51,59)       -175.0907         D2E/DX2 =    0.0166             !
 ! D152  D(53,48,51,57)       -177.0033         D2E/DX2 =    0.0156             !
 ! D153  D(53,48,51,58)         60.5208         D2E/DX2 =    0.0144             !
 ! D154  D(53,48,51,59)        -56.6761         D2E/DX2 =    0.0149             !
 ! D155  D(47,49,54,57)         57.502          D2E/DX2 =    0.0156             !
 ! D156  D(47,49,54,60)       -179.382          D2E/DX2 =    0.0158             !
 ! D157  D(47,49,54,61)        -62.5107         D2E/DX2 =    0.017              !
 ! D158  D(55,49,54,57)        -62.9857         D2E/DX2 =    0.0166             !
 ! D159  D(55,49,54,60)         60.1304         D2E/DX2 =    0.0151             !
 ! D160  D(55,49,54,61)        177.0016         D2E/DX2 =    0.0167             !
 ! D161  D(56,49,54,57)        179.284          D2E/DX2 =    0.0162             !
 ! D162  D(56,49,54,60)        -57.6            D2E/DX2 =    0.0144             !
 ! D163  D(56,49,54,61)         59.2713         D2E/DX2 =    0.0155             !
 ! D164  D(48,51,57,54)         54.9501         D2E/DX2 =    0.0151             !
 ! D165  D(48,51,57,62)        177.3105         D2E/DX2 =    0.0155             !
 ! D166  D(48,51,57,63)        -65.5373         D2E/DX2 =    0.0164             !
 ! D167  D(58,51,57,54)        177.266          D2E/DX2 =    0.0157             !
 ! D168  D(58,51,57,62)        -60.3735         D2E/DX2 =    0.0143             !
 ! D169  D(58,51,57,63)         56.7787         D2E/DX2 =    0.0152             !
 ! D170  D(59,51,57,54)        -65.4651         D2E/DX2 =    0.0167             !
 ! D171  D(59,51,57,62)         56.8953         D2E/DX2 =    0.0151             !
 ! D172  D(59,51,57,63)        174.0475         D2E/DX2 =    0.0165             !
 ! D173  D(49,54,57,51)        -56.4318         D2E/DX2 =    0.0155             !
 ! D174  D(49,54,57,62)       -178.8229         D2E/DX2 =    0.0156             !
 ! D175  D(49,54,57,63)         64.0567         D2E/DX2 =    0.0163             !
 ! D176  D(60,54,57,51)       -179.3517         D2E/DX2 =    0.0163             !
 ! D177  D(60,54,57,62)         58.2572         D2E/DX2 =    0.0144             !
 ! D178  D(60,54,57,63)        -58.8632         D2E/DX2 =    0.0153             !
 ! D179  D(61,54,57,51)         63.902          D2E/DX2 =    0.0171             !
 ! D180  D(61,54,57,62)        -58.4891         D2E/DX2 =    0.0152             !
 ! D181  D(61,54,57,63)       -175.6095         D2E/DX2 =    0.0166             !
 --------------------------------------------------------------------------------
 Trust Radius=3.00D-01 FncErr=5.00D-06 GrdErr=5.00D-06 EigMax=2.50D+02 EigMin=1.00D-04
 Number of steps in this run=    381 maximum allowed number of steps=    384.
 Search for a saddle point of order  1.
 Step   0 in ReCalcFC= 6 IGetFC= 3 compute gradient.
 GradGradGradGradGradGradGradGradGradGradGradGradGradGradGradGradGradGrad

 Leave Link  103 at Tue Dec 18 09:28:22 2018, MaxMem=  1342177280 cpu:               0.9 elap:               0.1
 (Enter /gpfs/apps/hpc/Apps/Restricted/Gaussian/Rev_A.03/g16/l202.exe)
 Symmetry turned off by external request.
 Stoichiometry    C29H29N5O(1+,2)
 Framework group  C1[X(C29H29N5O)]
 Deg. of freedom   186
 Full point group                 C1      NOp   1
                          Input orientation:                          
 ---------------------------------------------------------------------
 Center     Atomic      Atomic             Coordinates (Angstroms)
 Number     Number       Type             X           Y           Z
 ---------------------------------------------------------------------
      1          6           0        1.674855    1.396855    0.158753
      2          6           0        0.456045    2.095913   -0.002462
      3          6           0        0.458032    3.498233   -0.006704
      4          6           0        1.677729    4.149195    0.162966
      5          6           0        2.878131    3.435248    0.333843
      6          6           0        2.911647    2.036635    0.333496
      7          6           0       -0.011307   -0.015147   -0.062040
      8          1           0       -0.461392    4.054683   -0.140024
      9          1           0        1.707583    5.232420    0.165737
     10          1           0        3.807751    3.977549    0.468964
     11          6           0       -2.154350   -1.245709   -0.130871
     12          6           0       -2.940387   -2.429429   -0.164968
     13          6           0       -2.320645   -3.689089   -0.209480
     14          6           0       -0.934413   -3.711580   -0.222309
     15          6           0       -0.161879   -2.528943   -0.179936
     16          6           0       -0.747869   -1.264754   -0.133408
     17          6           0       -4.298490   -0.730712   -0.081836
     18          1           0       -2.905833   -4.598864   -0.235339
     19          1           0       -0.418637   -4.662811   -0.263423
     20          1           0        0.918263   -2.612417   -0.190322
     21          7           0       -0.583055    1.185797   -0.133928
     22          6           0       -6.768670   -0.763734   -0.233185
     23          6           0       -5.538642   -0.004633   -0.063269
     24          6           0       -5.619648    1.375343    0.084351
     25          6           0       -6.855131    2.027164    0.047630
     26          6           0       -8.049009    1.264586   -0.119681
     27          6           0       -8.041053   -0.099011   -0.258595
     28          1           0       -4.719487    1.955626    0.237627
     29          1           0       -8.994469    1.796404   -0.127916
     30          6           0       -6.964083    3.507274    0.190617
     31          1           0       -7.597626    3.743368    1.052403
     32          1           0       -5.996261    3.991580    0.327363
     33          1           0       -7.467515    3.937519   -0.680756
     34          6           0       -9.284682   -0.918953   -0.398546
     35          1           0       -9.167841   -1.687538   -1.164843
     36          1           0       -9.501877   -1.433981    0.542911
     37          1           0      -10.134573   -0.285001   -0.650152
     38          8           0       -6.755508   -2.059557   -0.357453
     39          7           0       -3.035874   -0.202042   -0.075560
     40          7           0       -4.263255   -2.072320   -0.126503
     41          1           0       -2.720077    0.765689   -0.097270
     42          7           0        1.346981    0.065519    0.109748
     43          1           0        2.039252   -0.665682    0.231517
     44          6           0        4.154220    1.287240    0.511407
     45          1           0        5.056361    1.892811    0.627439
     46          7           0        4.163166    0.006890    0.529125
     47          6           0        5.424338   -0.723040    0.669403
     48          6           0        5.622031   -1.577070   -0.597459
     49          6           0        6.685230    0.094290    0.970575
     50          1           0        5.271689   -1.421640    1.504212
     51          6           0        6.844362   -2.491285   -0.470206
     52          1           0        5.749860   -0.896858   -1.448809
     53          1           0        4.713486   -2.157148   -0.782806
     54          6           0        7.895786   -0.835859    1.121718
     55          1           0        6.870494    0.800266    0.151301
     56          1           0        6.539099    0.686045    1.880494
     57          6           0        8.104817   -1.685238   -0.137110
     58          1           0        6.988355   -3.056049   -1.396890
     59          1           0        6.666085   -3.222851    0.327510
     60          1           0        8.794271   -0.254649    1.347523
     61          1           0        7.732575   -1.506047    1.975222
     62          1           0        8.958702   -2.356092   -0.002582
     63          1           0        8.346720   -1.027138   -0.981226
     64          1           0       -5.765405   -2.384919   -0.299651
 ---------------------------------------------------------------------
 Rotational constants (GHZ):           0.2533434           0.0429257           0.0370021
 Leave Link  202 at Tue Dec 18 09:28:22 2018, MaxMem=  1342177280 cpu:               1.2 elap:               0.1
 (Enter /gpfs/apps/hpc/Apps/Restricted/Gaussian/Rev_A.03/g16/l301.exe)
 Standard basis: 6-31G(d,p) (6D, 7F)
 Ernie: Thresh=  0.10000D-02 Tol=  0.10000D-05 Strict=F.
   670 basis functions,  1183 primitive gaussians,   670 cartesian basis functions
   123 alpha electrons      122 beta electrons
       nuclear repulsion energy      3333.0190994404 Hartrees.
 IExCor=  402 DFT=T Ex+Corr=B3LYP ExCW=0 ScaHFX=  0.200000
 ScaDFX=  0.800000  0.720000  1.000000  0.810000 ScalE2=  1.000000  1.000000
 IRadAn=      5 IRanWt=     -1 IRanGd=            0 ICorTp=0 IEmpDi=141
 NAtoms=   64 NActive=   64 NUniq=   64 SFac= 1.00D+00 NAtFMM=   60 NAOKFM=T Big=T
 Integral buffers will be    131072 words long.
 Raffenetti 2 integral format.
 Two-electron integral symmetry is turned off.
 R6Disp:  Grimme-D3(BJ) Dispersion energy=       -0.1433920615 Hartrees.
 Nuclear repulsion after empirical dispersion term =     3332.8757073789 Hartrees.
 Force inversion solution in PCM.
 Using the following non-standard input for PCM:
 --- end of non-standard input.
 Force inversion solution in PCM.
 ------------------------------------------------------------------------------
 Polarizable Continuum Model (PCM)
 =================================
 Model                : C-PCM.
 Atomic radii         : UFF (Universal Force Field).
 Polarization charges : Total charges.
 Charge compensation  : None.
 Solution method      : Matrix inversion.
 Cavity type          : Scaled VdW (van der Waals Surface) (Alpha=1.100).
 Cavity algorithm     : GePol (No added spheres)
                        Default sphere list used, NSphG=   64.
                        Lebedev-Laikov grids with approx.  5.0 points / Ang**2.
                        Smoothing algorithm: York/Karplus (Gamma=1.0000).
                        Polarization charges: spherical gaussians, with
                                              point-specific exponents (IZeta= 3).
                        Self-potential: point-specific (ISelfS= 7).
                        Self-field    : sphere-specific E.n sum rule (ISelfD= 2).
 1st derivatives      : Analytical E(r).r(x)/FMM algorithm (CHGder, D1EAlg=3).
                        Cavity 1st derivative terms included.
 Solvent              : Dichloromethane, Eps=   8.930000 Eps(inf)=   2.028346
 ------------------------------------------------------------------------------
 GePol: Number of generator spheres                  =      64
 GePol: Total number of spheres                      =      64
 GePol: Number of exposed spheres                    =      64 (100.00%)
 GePol: Number of points                             =    4486
 GePol: Average weight of points                     =       0.13
 GePol: Minimum weight of points                     =   0.12D-11
 GePol: Maximum weight of points                     =    0.20577
 GePol: Number of points with low weight             =     283
 GePol: Fraction of low-weight points (<1% of avg)   =       6.31%
 GePol: Cavity surface area                          =    569.271 Ang**2
 GePol: Cavity volume                                =    640.499 Ang**3
 Leave Link  301 at Tue Dec 18 09:28:22 2018, MaxMem=  1342177280 cpu:               1.5 elap:               0.1
 (Enter /gpfs/apps/hpc/Apps/Restricted/Gaussian/Rev_A.03/g16/l302.exe)
 NPDir=0 NMtPBC=     1 NCelOv=     1 NCel=       1 NClECP=     1 NCelD=      1
         NCelK=      1 NCelE2=     1 NClLst=     1 CellRange=     0.0.
 One-electron integrals computed using PRISM.
 NBasis=   670 RedAO= T EigKep=  2.77D-04  NBF=   670
 NBsUse=   670 1.00D-06 EigRej= -1.00D+00 NBFU=   670
 Precomputing XC quadrature grid using
 IXCGrd= 4 IRadAn=           5 IRanWt=          -1 IRanGd=           0 AccXCQ= 0.00D+00.
 Generated NRdTot=       0 NPtTot=           0 NUsed=           0 NTot=          32
 NSgBfM=   619   619   619   619   619 MxSgAt=    64 MxSgA2=    64.
 Leave Link  302 at Tue Dec 18 09:28:23 2018, MaxMem=  1342177280 cpu:              15.1 elap:               1.0
 (Enter /gpfs/apps/hpc/Apps/Restricted/Gaussian/Rev_A.03/g16/l303.exe)
 DipDrv:  MaxL=1.
 Leave Link  303 at Tue Dec 18 09:28:24 2018, MaxMem=  1342177280 cpu:               2.9 elap:               0.2
 (Enter /gpfs/apps/hpc/Apps/Restricted/Gaussian/Rev_A.03/g16/l401.exe)
 Initial guess from the checkpoint file:  "cyclohexyl-diBIP-TS1.chk"
 B after Tr=     0.014490    0.030397    0.018065
         Rot=    0.999997    0.001771   -0.001353   -0.000262 Ang=   0.26 deg.
 Guess basis will be translated and rotated to current coordinates.
 JPrj=2 DoOrth=T DoCkMO=T.
 Initial guess <Sx>= 0.0000 <Sy>= 0.0000 <Sz>= 0.5000 <S**2>= 0.7624 S= 0.5062
 Leave Link  401 at Tue Dec 18 09:28:26 2018, MaxMem=  1342177280 cpu:              34.5 elap:               2.2
 (Enter /gpfs/apps/hpc/Apps/Restricted/Gaussian/Rev_A.03/g16/l502.exe)
 Two-electron integral symmetry not used.
 UHF open shell SCF:
 Using DIIS extrapolation, IDIIS=  1040.
 NGot=  1342177280 LenX=  1341263254 LenY=  1340813684
 Requested convergence on RMS density matrix=1.00D-08 within 128 cycles.
 Requested convergence on MAX density matrix=1.00D-06.
 Requested convergence on             energy=1.00D-06.
 No special actions if energy rises.
 Fock matrices will be formed incrementally for  20 cycles.

 Cycle   1  Pass 1  IDiag  1:
 FoFJK:  IHMeth= 1 ICntrl=       0 DoSepK=F KAlg= 0 I1Cent=           0 FoldK=F
 IRaf= 690000000 NMat=       1 IRICut=       1 DoRegI=T DoRafI=F ISym2E= 0 IDoP0=0 IntGTp=1.
 FoFCou: FMM=T IPFlag=           0 FMFlag=      100000 FMFlg1=        2001
         NFxFlg=           0 DoJE=F BraDBF=F KetDBF=F FulRan=T
         wScrn=  0.000000 ICntrl=         0 IOpCl=  1 I1Cent=           0 NGrid=           0
         NMat0=    1 NMatS0=      1 NMatT0=    0 NMatD0=    1 NMtDS0=    0 NMtDT0=    0
 Symmetry not used in FoFCou.
 FMM levels:  10  Number of levels for PrismC:   9
 Inv3:  Mode=1 IEnd=    60372588.
 Iteration    1 A*A^-1 deviation from unit magnitude is 1.80D-14 for   1122.
 Iteration    1 A*A^-1 deviation from orthogonality  is 3.45D-15 for   4051   1953.
 Iteration    1 A^-1*A deviation from unit magnitude is 1.80D-14 for   1122.
 Iteration    1 A^-1*A deviation from orthogonality  is 3.89D-15 for   4051   1953.
 E= -1471.46941840937    
 DIIS: error= 1.25D-02 at cycle   1 NSaved=   1.
 NSaved= 1 IEnMin= 1 EnMin= -1471.46941840937     IErMin= 1 ErrMin= 1.25D-02
 ErrMax= 1.25D-02  0.00D+00 EMaxC= 1.00D-01 BMatC= 3.06D-01 BMatP= 3.06D-01
 IDIUse=3 WtCom= 8.75D-01 WtEn= 1.25D-01
 Coeff-Com:  0.100D+01
 Coeff-En:   0.100D+01
 Coeff:      0.100D+01
 Gap=     0.231 Goal=   None    Shift=    0.000
 Gap=     0.301 Goal=   None    Shift=    0.000
 GapD=    0.231 DampG=1.000 DampE=0.500 DampFc=0.5000 IDamp=-1.
 Damping current iteration by 5.00D-01
 RMSDP=6.65D-04 MaxDP=5.57D-02              OVMax= 8.49D-02

 Cycle   2  Pass 1  IDiag  1:
 RMSU=  3.32D-04    CP:  9.99D-01
 E= -1471.54256026595     Delta-E=       -0.073141856582 Rises=F Damp=T
 DIIS: error= 6.50D-03 at cycle   2 NSaved=   2.
 NSaved= 2 IEnMin= 2 EnMin= -1471.54256026595     IErMin= 2 ErrMin= 6.50D-03
 ErrMax= 6.50D-03  0.00D+00 EMaxC= 1.00D-01 BMatC= 8.98D-02 BMatP= 3.06D-01
 IDIUse=3 WtCom= 9.35D-01 WtEn= 6.50D-02
 Coeff-Com: -0.115D+01 0.215D+01
 Coeff-En:   0.000D+00 0.100D+01
 Coeff:     -0.108D+01 0.208D+01
 Gap=     0.138 Goal=   None    Shift=    0.000
 Gap=     0.036 Goal=   None    Shift=    0.000
 RMSDP=4.05D-04 MaxDP=3.26D-02 DE=-7.31D-02 OVMax= 1.26D-02

 Cycle   3  Pass 1  IDiag  1:
 RMSU=  1.23D-04    CP:  9.97D-01  2.16D+00
 E= -1471.62293928112     Delta-E=       -0.080379015170 Rises=F Damp=F
 DIIS: error= 1.69D-03 at cycle   3 NSaved=   3.
 NSaved= 3 IEnMin= 3 EnMin= -1471.62293928112     IErMin= 3 ErrMin= 1.69D-03
 ErrMax= 1.69D-03  0.00D+00 EMaxC= 1.00D-01 BMatC= 6.51D-03 BMatP= 8.98D-02
 IDIUse=3 WtCom= 9.83D-01 WtEn= 1.69D-02
 Coeff-Com: -0.705D+00 0.130D+01 0.404D+00
 Coeff-En:   0.000D+00 0.000D+00 0.100D+01
 Coeff:     -0.693D+00 0.128D+01 0.414D+00
 Gap=     0.137 Goal=   None    Shift=    0.000
 Gap=     0.034 Goal=   None    Shift=    0.000
 RMSDP=7.55D-05 MaxDP=7.55D-03 DE=-8.04D-02 OVMax= 9.34D-03

 Cycle   4  Pass 1  IDiag  1:
 RMSU=  4.32D-05    CP:  9.97D-01  2.20D+00  5.09D-01
 E= -1471.62442285673     Delta-E=       -0.001483575602 Rises=F Damp=F
 DIIS: error= 3.66D-04 at cycle   4 NSaved=   4.
 NSaved= 4 IEnMin= 4 EnMin= -1471.62442285673     IErMin= 4 ErrMin= 3.66D-04
 ErrMax= 3.66D-04  0.00D+00 EMaxC= 1.00D-01 BMatC= 3.27D-04 BMatP= 6.51D-03
 IDIUse=3 WtCom= 9.96D-01 WtEn= 3.66D-03
 Coeff-Com: -0.154D+00 0.281D+00 0.202D+00 0.671D+00
 Coeff-En:   0.000D+00 0.000D+00 0.000D+00 0.100D+01
 Coeff:     -0.153D+00 0.280D+00 0.201D+00 0.672D+00
 Gap=     0.136 Goal=   None    Shift=    0.000
 Gap=     0.034 Goal=   None    Shift=    0.000
 RMSDP=1.79D-05 MaxDP=1.47D-03 DE=-1.48D-03 OVMax= 3.76D-03

 Cycle   5  Pass 1  IDiag  1:
 RMSU=  1.28D-05    CP:  9.97D-01  2.20D+00  5.88D-01  8.20D-01
 E= -1471.62449108967     Delta-E=       -0.000068232941 Rises=F Damp=F
 DIIS: error= 9.01D-05 at cycle   5 NSaved=   5.
 NSaved= 5 IEnMin= 5 EnMin= -1471.62449108967     IErMin= 5 ErrMin= 9.01D-05
 ErrMax= 9.01D-05  0.00D+00 EMaxC= 1.00D-01 BMatC= 4.62D-05 BMatP= 3.27D-04
 IDIUse=1 WtCom= 1.00D+00 WtEn= 0.00D+00
 Coeff-Com: -0.843D-02 0.137D-01 0.656D-01 0.362D+00 0.567D+00
 Coeff:     -0.843D-02 0.137D-01 0.656D-01 0.362D+00 0.567D+00
 Gap=     0.136 Goal=   None    Shift=    0.000
 Gap=     0.034 Goal=   None    Shift=    0.000
 RMSDP=6.93D-06 MaxDP=5.31D-04 DE=-6.82D-05 OVMax= 9.98D-04

 Cycle   6  Pass 1  IDiag  1:
 RMSU=  4.52D-06    CP:  9.97D-01  2.21D+00  5.92D-01  8.79D-01  6.43D-01
 E= -1471.62450182893     Delta-E=       -0.000010739262 Rises=F Damp=F
 DIIS: error= 4.23D-05 at cycle   6 NSaved=   6.
 NSaved= 6 IEnMin= 6 EnMin= -1471.62450182893     IErMin= 6 ErrMin= 4.23D-05
 ErrMax= 4.23D-05  0.00D+00 EMaxC= 1.00D-01 BMatC= 5.53D-06 BMatP= 4.62D-05
 IDIUse=1 WtCom= 1.00D+00 WtEn= 0.00D+00
 Coeff-Com:  0.168D-01-0.317D-01 0.926D-02 0.107D+00 0.306D+00 0.592D+00
 Coeff:      0.168D-01-0.317D-01 0.926D-02 0.107D+00 0.306D+00 0.592D+00
 Gap=     0.136 Goal=   None    Shift=    0.000
 Gap=     0.034 Goal=   None    Shift=    0.000
 RMSDP=2.61D-06 MaxDP=2.05D-04 DE=-1.07D-05 OVMax= 5.94D-04

 Cycle   7  Pass 1  IDiag  1:
 RMSU=  1.82D-06    CP:  9.97D-01  2.21D+00  5.94D-01  8.87D-01  7.33D-01
                    CP:  6.89D-01
 E= -1471.62450320685     Delta-E=       -0.000001377919 Rises=F Damp=F
 DIIS: error= 1.22D-05 at cycle   7 NSaved=   7.
 NSaved= 7 IEnMin= 7 EnMin= -1471.62450320685     IErMin= 7 ErrMin= 1.22D-05
 ErrMax= 1.22D-05  0.00D+00 EMaxC= 1.00D-01 BMatC= 8.68D-07 BMatP= 5.53D-06
 IDIUse=1 WtCom= 1.00D+00 WtEn= 0.00D+00
 Coeff-Com:  0.109D-01-0.203D-01-0.157D-02 0.222D-01 0.115D+00 0.343D+00
 Coeff-Com:  0.531D+00
 Coeff:      0.109D-01-0.203D-01-0.157D-02 0.222D-01 0.115D+00 0.343D+00
 Coeff:      0.531D+00
 Gap=     0.136 Goal=   None    Shift=    0.000
 Gap=     0.034 Goal=   None    Shift=    0.000
 RMSDP=9.26D-07 MaxDP=7.62D-05 DE=-1.38D-06 OVMax= 2.61D-04

 Cycle   8  Pass 1  IDiag  1:
 RMSU=  7.53D-07    CP:  9.97D-01  2.21D+00  5.96D-01  8.88D-01  7.39D-01
                    CP:  7.87D-01  8.80D-01
 E= -1471.62450344964     Delta-E=       -0.000000242796 Rises=F Damp=F
 DIIS: error= 5.03D-06 at cycle   8 NSaved=   8.
 NSaved= 8 IEnMin= 8 EnMin= -1471.62450344964     IErMin= 8 ErrMin= 5.03D-06
 ErrMax= 5.03D-06  0.00D+00 EMaxC= 1.00D-01 BMatC= 7.49D-08 BMatP= 8.68D-07
 IDIUse=1 WtCom= 1.00D+00 WtEn= 0.00D+00
 Coeff-Com:  0.142D-02-0.257D-02-0.204D-02-0.956D-02-0.988D-02 0.328D-01
 Coeff-Com:  0.213D+00 0.777D+00
 Coeff:      0.142D-02-0.257D-02-0.204D-02-0.956D-02-0.988D-02 0.328D-01
 Coeff:      0.213D+00 0.777D+00
 Gap=     0.136 Goal=   None    Shift=    0.000
 Gap=     0.034 Goal=   None    Shift=    0.000
 RMSDP=5.16D-07 MaxDP=4.91D-05 DE=-2.43D-07 OVMax= 2.69D-04

 Cycle   9  Pass 1  IDiag  1:
 RMSU=  3.35D-07    CP:  9.97D-01  2.21D+00  5.96D-01  8.90D-01  7.49D-01
                    CP:  8.25D-01  1.05D+00  1.12D+00
 E= -1471.62450348598     Delta-E=       -0.000000036332 Rises=F Damp=F
 DIIS: error= 2.56D-06 at cycle   9 NSaved=   9.
 NSaved= 9 IEnMin= 9 EnMin= -1471.62450348598     IErMin= 9 ErrMin= 2.56D-06
 ErrMax= 2.56D-06  0.00D+00 EMaxC= 1.00D-01 BMatC= 3.30D-08 BMatP= 7.49D-08
 IDIUse=1 WtCom= 1.00D+00 WtEn= 0.00D+00
 Coeff-Com: -0.162D-02 0.307D-02-0.841D-03-0.104D-01-0.330D-01-0.576D-01
 Coeff-Com:  0.990D-02 0.477D+00 0.614D+00
 Coeff:     -0.162D-02 0.307D-02-0.841D-03-0.104D-01-0.330D-01-0.576D-01
 Coeff:      0.990D-02 0.477D+00 0.614D+00
 Gap=     0.136 Goal=   None    Shift=    0.000
 Gap=     0.034 Goal=   None    Shift=    0.000
 RMSDP=3.01D-07 MaxDP=2.26D-05 DE=-3.63D-08 OVMax= 1.68D-04

 Cycle  10  Pass 1  IDiag  1:
 RMSU=  1.79D-07    CP:  9.97D-01  2.21D+00  5.96D-01  8.90D-01  7.55D-01
                    CP:  8.44D-01  1.13D+00  1.33D+00  9.62D-01
 E= -1471.62450350011     Delta-E=       -0.000000014134 Rises=F Damp=F
 DIIS: error= 1.54D-06 at cycle  10 NSaved=  10.
 NSaved=10 IEnMin=10 EnMin= -1471.62450350011     IErMin=10 ErrMin= 1.54D-06
 ErrMax= 1.54D-06  0.00D+00 EMaxC= 1.00D-01 BMatC= 4.79D-09 BMatP= 3.30D-08
 IDIUse=1 WtCom= 1.00D+00 WtEn= 0.00D+00
 Coeff-Com: -0.103D-02 0.194D-02-0.896D-04-0.326D-02-0.153D-01-0.337D-01
 Coeff-Com: -0.312D-01 0.939D-01 0.305D+00 0.683D+00
 Coeff:     -0.103D-02 0.194D-02-0.896D-04-0.326D-02-0.153D-01-0.337D-01
 Coeff:     -0.312D-01 0.939D-01 0.305D+00 0.683D+00
 Gap=     0.136 Goal=   None    Shift=    0.000
 Gap=     0.034 Goal=   None    Shift=    0.000
 RMSDP=1.74D-07 MaxDP=1.25D-05 DE=-1.41D-08 OVMax= 1.29D-04

 Cycle  11  Pass 1  IDiag  1:
 RMSU=  9.40D-08    CP:  9.97D-01  2.21D+00  5.96D-01  8.90D-01  7.57D-01
                    CP:  8.53D-01  1.17D+00  1.43D+00  1.22D+00  1.15D+00
 E= -1471.62450350376     Delta-E=       -0.000000003648 Rises=F Damp=F
 DIIS: error= 7.87D-07 at cycle  11 NSaved=  11.
 NSaved=11 IEnMin=11 EnMin= -1471.62450350376     IErMin=11 ErrMin= 7.87D-07
 ErrMax= 7.87D-07  0.00D+00 EMaxC= 1.00D-01 BMatC= 1.49D-09 BMatP= 4.79D-09
 IDIUse=1 WtCom= 1.00D+00 WtEn= 0.00D+00
 Coeff-Com: -0.137D-03 0.250D-03 0.130D-03 0.859D-03-0.395D-03-0.309D-02
 Coeff-Com: -0.174D-01-0.679D-01 0.669D-02 0.371D+00 0.710D+00
 Coeff:     -0.137D-03 0.250D-03 0.130D-03 0.859D-03-0.395D-03-0.309D-02
 Coeff:     -0.174D-01-0.679D-01 0.669D-02 0.371D+00 0.710D+00
 Gap=     0.136 Goal=   None    Shift=    0.000
 Gap=     0.034 Goal=   None    Shift=    0.000
 RMSDP=1.17D-07 MaxDP=7.69D-06 DE=-3.65D-09 OVMax= 8.71D-05

 Cycle  12  Pass 1  IDiag  1:
 RMSU=  4.42D-08    CP:  9.97D-01  2.21D+00  5.96D-01  8.90D-01  7.58D-01
                    CP:  8.57D-01  1.19D+00  1.49D+00  1.36D+00  1.51D+00
                    CP:  1.22D+00
 E= -1471.62450350533     Delta-E=       -0.000000001578 Rises=F Damp=F
 DIIS: error= 5.48D-07 at cycle  12 NSaved=  12.
 NSaved=12 IEnMin=12 EnMin= -1471.62450350533     IErMin=12 ErrMin= 5.48D-07
 ErrMax= 5.48D-07  0.00D+00 EMaxC= 1.00D-01 BMatC= 4.24D-10 BMatP= 1.49D-09
 IDIUse=1 WtCom= 1.00D+00 WtEn= 0.00D+00
 Coeff-Com:  0.262D-03-0.496D-03 0.898D-04 0.151D-02 0.447D-02 0.976D-02
 Coeff-Com:  0.236D-02-0.652D-01-0.980D-01-0.151D-01 0.337D+00 0.823D+00
 Coeff:      0.262D-03-0.496D-03 0.898D-04 0.151D-02 0.447D-02 0.976D-02
 Coeff:      0.236D-02-0.652D-01-0.980D-01-0.151D-01 0.337D+00 0.823D+00
 Gap=     0.136 Goal=   None    Shift=    0.000
 Gap=     0.034 Goal=   None    Shift=    0.000
 RMSDP=9.77D-08 MaxDP=7.72D-06 DE=-1.58D-09 OVMax= 8.03D-05

 Cycle  13  Pass 1  IDiag  1:
 RMSU=  2.75D-08    CP:  9.97D-01  2.21D+00  5.96D-01  8.90D-01  7.60D-01
                    CP:  8.60D-01  1.21D+00  1.54D+00  1.50D+00  1.78D+00
                    CP:  1.67D+00  1.31D+00
 E= -1471.62450350619     Delta-E=       -0.000000000859 Rises=F Damp=F
 DIIS: error= 2.95D-07 at cycle  13 NSaved=  13.
 NSaved=13 IEnMin=13 EnMin= -1471.62450350619     IErMin=13 ErrMin= 2.95D-07
 ErrMax= 2.95D-07  0.00D+00 EMaxC= 1.00D-01 BMatC= 2.07D-10 BMatP= 4.24D-10
 IDIUse=1 WtCom= 1.00D+00 WtEn= 0.00D+00
 Coeff-Com:  0.195D-03-0.365D-03-0.109D-04 0.455D-03 0.242D-02 0.695D-02
 Coeff-Com:  0.956D-02-0.617D-02-0.565D-01-0.159D+00-0.152D+00 0.484D+00
 Coeff-Com:  0.870D+00
 Coeff:      0.195D-03-0.365D-03-0.109D-04 0.455D-03 0.242D-02 0.695D-02
 Coeff:      0.956D-02-0.617D-02-0.565D-01-0.159D+00-0.152D+00 0.484D+00
 Coeff:      0.870D+00
 Gap=     0.136 Goal=   None    Shift=    0.000
 Gap=     0.034 Goal=   None    Shift=    0.000
 RMSDP=7.79D-08 MaxDP=6.03D-06 DE=-8.59D-10 OVMax= 6.15D-05

 Cycle  14  Pass 1  IDiag  1:
 RMSU=  1.43D-08    CP:  9.97D-01  2.21D+00  5.96D-01  8.90D-01  7.60D-01
                    CP:  8.61D-01  1.22D+00  1.57D+00  1.60D+00  2.01D+00
                    CP:  2.03D+00  1.90D+00  1.21D+00
 E= -1471.62450350647     Delta-E=       -0.000000000272 Rises=F Damp=F
 DIIS: error= 1.80D-07 at cycle  14 NSaved=  14.
 NSaved=14 IEnMin=14 EnMin= -1471.62450350647     IErMin=14 ErrMin= 1.80D-07
 ErrMax= 1.80D-07  0.00D+00 EMaxC= 1.00D-01 BMatC= 6.81D-11 BMatP= 2.07D-10
 IDIUse=1 WtCom= 1.00D+00 WtEn= 0.00D+00
 Coeff-Com:  0.119D-04-0.199D-04-0.504D-04-0.341D-03-0.436D-03 0.352D-03
 Coeff-Com:  0.524D-02 0.222D-01 0.403D-02-0.899D-01-0.235D+00-0.644D-02
 Coeff-Com:  0.502D+00 0.798D+00
 Coeff:      0.119D-04-0.199D-04-0.504D-04-0.341D-03-0.436D-03 0.352D-03
 Coeff:      0.524D-02 0.222D-01 0.403D-02-0.899D-01-0.235D+00-0.644D-02
 Coeff:      0.502D+00 0.798D+00
 Gap=     0.136 Goal=   None    Shift=    0.000
 Gap=     0.034 Goal=   None    Shift=    0.000
 RMSDP=4.62D-08 MaxDP=3.96D-06 DE=-2.72D-10 OVMax= 3.62D-05

 Cycle  15  Pass 1  IDiag  1:
 RMSU=  8.79D-09    CP:  9.97D-01  2.21D+00  5.96D-01  8.90D-01  7.61D-01
                    CP:  8.62D-01  1.22D+00  1.59D+00  1.66D+00  2.14D+00
                    CP:  2.25D+00  2.23D+00  1.61D+00  1.20D+00
 E= -1471.62450350657     Delta-E=       -0.000000000106 Rises=F Damp=F
 DIIS: error= 6.98D-08 at cycle  15 NSaved=  15.
 NSaved=15 IEnMin=15 EnMin= -1471.62450350657     IErMin=15 ErrMin= 6.98D-08
 ErrMax= 6.98D-08  0.00D+00 EMaxC= 1.00D-01 BMatC= 1.95D-11 BMatP= 6.81D-11
 IDIUse=1 WtCom= 1.00D+00 WtEn= 0.00D+00
 Coeff-Com: -0.553D-04 0.105D-03-0.262D-04-0.316D-03-0.103D-02-0.203D-02
 Coeff-Com: -0.335D-03 0.134D-01 0.206D-01 0.653D-02-0.764D-01-0.153D+00
 Coeff-Com: -0.244D-01 0.435D+00 0.782D+00
 Coeff:     -0.553D-04 0.105D-03-0.262D-04-0.316D-03-0.103D-02-0.203D-02
 Coeff:     -0.335D-03 0.134D-01 0.206D-01 0.653D-02-0.764D-01-0.153D+00
 Coeff:     -0.244D-01 0.435D+00 0.782D+00
 Gap=     0.136 Goal=   None    Shift=    0.000
 Gap=     0.034 Goal=   None    Shift=    0.000
 RMSDP=1.92D-08 MaxDP=2.05D-06 DE=-1.06D-10 OVMax= 1.45D-05

 Cycle  16  Pass 1  IDiag  1:
 RMSU=  4.84D-09    CP:  9.97D-01  2.21D+00  5.96D-01  8.90D-01  7.61D-01
                    CP:  8.62D-01  1.23D+00  1.60D+00  1.68D+00  2.19D+00
                    CP:  2.33D+00  2.39D+00  1.81D+00  1.56D+00  1.16D+00
 E= -1471.62450350656     Delta-E=        0.000000000015 Rises=F Damp=F
 DIIS: error= 3.40D-08 at cycle  16 NSaved=  16.
 NSaved=16 IEnMin=15 EnMin= -1471.62450350657     IErMin=16 ErrMin= 3.40D-08
 ErrMax= 3.40D-08  0.00D+00 EMaxC= 1.00D-01 BMatC= 3.58D-12 BMatP= 1.95D-11
 IDIUse=1 WtCom= 1.00D+00 WtEn= 0.00D+00
 Coeff-Com: -0.206D-04 0.384D-04 0.164D-05-0.238D-04-0.245D-03-0.725D-03
 Coeff-Com: -0.127D-02-0.285D-03 0.583D-02 0.224D-01 0.253D-01-0.384D-01
 Coeff-Com: -0.112D+00-0.247D-01 0.244D+00 0.880D+00
 Coeff:     -0.206D-04 0.384D-04 0.164D-05-0.238D-04-0.245D-03-0.725D-03
 Coeff:     -0.127D-02-0.285D-03 0.583D-02 0.224D-01 0.253D-01-0.384D-01
 Coeff:     -0.112D+00-0.247D-01 0.244D+00 0.880D+00
 Gap=     0.136 Goal=   None    Shift=    0.000
 Gap=     0.034 Goal=   None    Shift=    0.000
 RMSDP=5.09D-09 MaxDP=6.38D-07 DE= 1.55D-11 OVMax= 1.73D-06

 Error on total polarization charges =  0.01251
 SCF Done:  E(UB3LYP) =  -1471.62450351     A.U. after   16 cycles
            NFock= 16  Conv=0.51D-08     -V/T= 2.0096
 <Sx>= 0.0000 <Sy>= 0.0000 <Sz>= 0.5000 <S**2>= 0.7622 S= 0.5061
 <L.S>= 0.000000000000E+00
 KE= 1.457624549643D+03 PE=-1.005349254929D+04 EE= 3.791367788758D+03
 Annihilation of the first spin contaminant:
 S**2 before annihilation     0.7622,   after     0.7501
 Leave Link  502 at Tue Dec 18 09:31:19 2018, MaxMem=  1342177280 cpu:            2689.9 elap:             172.6
 (Enter /gpfs/apps/hpc/Apps/Restricted/Gaussian/Rev_A.03/g16/l801.exe)
 DoSCS=F DFT=T ScalE2(SS,OS)=  1.000000  1.000000
 Range of M.O.s used for correlation:     1   670
 NBasis=   670 NAE=   123 NBE=   122 NFC=     0 NFV=     0
 NROrb=    670 NOA=   123 NOB=   122 NVA=   547 NVB=   548

 **** Warning!!: The largest alpha MO coefficient is  0.10822662D+02


 **** Warning!!: The largest beta MO coefficient is  0.10766545D+02


 **** Warning!!: The smallest beta delta epsilon is  0.33877847D-01

 Leave Link  801 at Tue Dec 18 09:31:19 2018, MaxMem=  1342177280 cpu:               0.8 elap:               0.1
 (Enter /gpfs/apps/hpc/Apps/Restricted/Gaussian/Rev_A.03/g16/l1101.exe)
 Leave Link 1101 at Tue Dec 18 09:31:19 2018, MaxMem=  1342177280 cpu:               0.4 elap:               0.0
 (Enter /gpfs/apps/hpc/Apps/Restricted/Gaussian/Rev_A.03/g16/l1102.exe)
 Symmetrizing basis deriv contribution to polar:
 IMax=3 JMax=2 DiffMx= 0.00D+00
 Leave Link 1102 at Tue Dec 18 09:31:19 2018, MaxMem=  1342177280 cpu:               1.3 elap:               0.1
 (Enter /gpfs/apps/hpc/Apps/Restricted/Gaussian/Rev_A.03/g16/l1110.exe)
 Leave Link 1110 at Tue Dec 18 09:31:19 2018, MaxMem=  1342177280 cpu:               0.9 elap:               0.1
 (Enter /gpfs/apps/hpc/Apps/Restricted/Gaussian/Rev_A.03/g16/l1002.exe)
 Minotr:  UHF open shell wavefunction.
 Leave Link 1002 at Tue Dec 18 09:31:19 2018, MaxMem=  1342177280 cpu:               0.7 elap:               0.1
 (Enter /gpfs/apps/hpc/Apps/Restricted/Gaussian/Rev_A.03/g16/l601.exe)
 Copying SCF densities to generalized density rwf, IOpCl= 1 IROHF=0.

 **********************************************************************

            Population analysis using the SCF density.

 **********************************************************************

 Alpha  occ. eigenvalues --  -19.24185 -14.43268 -14.40355 -14.38696 -14.34744
 Alpha  occ. eigenvalues --  -14.34141 -10.33532 -10.31734 -10.28661 -10.27662
 Alpha  occ. eigenvalues --  -10.27594 -10.26702 -10.26418 -10.25450 -10.24561
 Alpha  occ. eigenvalues --  -10.24510 -10.24326 -10.24277 -10.24188 -10.23356
 Alpha  occ. eigenvalues --  -10.23168 -10.22784 -10.22589 -10.21988 -10.21650
 Alpha  occ. eigenvalues --  -10.21337 -10.20996 -10.20968 -10.20916 -10.20420
 Alpha  occ. eigenvalues --  -10.18535 -10.18505 -10.18422 -10.18340 -10.18129
 Alpha  occ. eigenvalues --   -1.13668  -1.07259  -1.03982  -0.93746  -0.93486
 Alpha  occ. eigenvalues --   -0.92013  -0.89922  -0.89386  -0.86542  -0.84355
 Alpha  occ. eigenvalues --   -0.83025  -0.82949  -0.80475  -0.77815  -0.77479
 Alpha  occ. eigenvalues --   -0.74941  -0.74692  -0.73680  -0.73202  -0.72510
 Alpha  occ. eigenvalues --   -0.70396  -0.67916  -0.66604  -0.66117  -0.64849
 Alpha  occ. eigenvalues --   -0.62947  -0.62862  -0.62248  -0.61752  -0.60995
 Alpha  occ. eigenvalues --   -0.59371  -0.59065  -0.56815  -0.55986  -0.55801
 Alpha  occ. eigenvalues --   -0.53677  -0.52913  -0.52744  -0.51324  -0.50950
 Alpha  occ. eigenvalues --   -0.50229  -0.49380  -0.49259  -0.48704  -0.48061
 Alpha  occ. eigenvalues --   -0.47289  -0.46903  -0.46759  -0.45902  -0.45713
 Alpha  occ. eigenvalues --   -0.45600  -0.45428  -0.44993  -0.44609  -0.44160
 Alpha  occ. eigenvalues --   -0.43701  -0.43419  -0.42960  -0.41515  -0.41109
 Alpha  occ. eigenvalues --   -0.40531  -0.40442  -0.40161  -0.39644  -0.39179
 Alpha  occ. eigenvalues --   -0.38589  -0.38398  -0.38301  -0.38033  -0.37568
 Alpha  occ. eigenvalues --   -0.36937  -0.36008  -0.35455  -0.34821  -0.33973
 Alpha  occ. eigenvalues --   -0.33892  -0.32557  -0.32211  -0.31929  -0.31341
 Alpha  occ. eigenvalues --   -0.30881  -0.29955  -0.28464  -0.27870  -0.26431
 Alpha  occ. eigenvalues --   -0.25767  -0.24028  -0.23606
 Alpha virt. eigenvalues --   -0.09966  -0.07130  -0.05226  -0.04267  -0.02129
 Alpha virt. eigenvalues --    0.00277   0.01039   0.03481   0.05904   0.06302
 Alpha virt. eigenvalues --    0.06591   0.08673   0.09136   0.09705   0.09854
 Alpha virt. eigenvalues --    0.10161   0.10374   0.10890   0.11214   0.11793
 Alpha virt. eigenvalues --    0.12108   0.12554   0.13539   0.13997   0.14295
 Alpha virt. eigenvalues --    0.14720   0.15206   0.15689   0.15744   0.15887
 Alpha virt. eigenvalues --    0.16224   0.16522   0.16660   0.16975   0.17148
 Alpha virt. eigenvalues --    0.17247   0.17632   0.17719   0.17961   0.18125
 Alpha virt. eigenvalues --    0.18438   0.18732   0.19823   0.19933   0.20310
 Alpha virt. eigenvalues --    0.20818   0.21347   0.21802   0.22915   0.23232
 Alpha virt. eigenvalues --    0.23629   0.24298   0.24928   0.25232   0.26045
 Alpha virt. eigenvalues --    0.26136   0.26912   0.27391   0.27751   0.28432
 Alpha virt. eigenvalues --    0.29488   0.29985   0.30720   0.31218   0.32035
 Alpha virt. eigenvalues --    0.32712   0.33116   0.34890   0.37189   0.37547
 Alpha virt. eigenvalues --    0.38649   0.39717   0.40384   0.41088   0.42287
 Alpha virt. eigenvalues --    0.43669   0.44566   0.45396   0.45715   0.47506
 Alpha virt. eigenvalues --    0.47628   0.48265   0.49043   0.49156   0.50141
 Alpha virt. eigenvalues --    0.50409   0.50587   0.50728   0.51142   0.51226
 Alpha virt. eigenvalues --    0.51686   0.51924   0.51982   0.52501   0.52611
 Alpha virt. eigenvalues --    0.52978   0.53281   0.53870   0.53981   0.54066
 Alpha virt. eigenvalues --    0.54960   0.55006   0.55159   0.55996   0.56393
 Alpha virt. eigenvalues --    0.57184   0.57466   0.57620   0.57890   0.58192
 Alpha virt. eigenvalues --    0.58463   0.58638   0.59140   0.59457   0.59742
 Alpha virt. eigenvalues --    0.60122   0.60546   0.60695   0.61409   0.62115
 Alpha virt. eigenvalues --    0.62344   0.62663   0.63048   0.63640   0.63934
 Alpha virt. eigenvalues --    0.64483   0.64924   0.65866   0.66784   0.66846
 Alpha virt. eigenvalues --    0.67703   0.68358   0.69086   0.69312   0.70595
 Alpha virt. eigenvalues --    0.71119   0.71359   0.72424   0.72849   0.73132
 Alpha virt. eigenvalues --    0.74202   0.74645   0.74932   0.75432   0.75860
 Alpha virt. eigenvalues --    0.76035   0.76947   0.77586   0.78346   0.78979
[...]
   D89        0.00114   0.00000   0.00000  -0.00015  -0.00015   0.00099
   D90       -3.14057  -0.00000   0.00000  -0.00007  -0.00007  -3.14064
   D91       -3.14006   0.00000   0.00000  -0.00017  -0.00017  -3.14023
   D92        0.00141   0.00000   0.00000  -0.00009  -0.00009   0.00132
   D93        0.00204  -0.00000   0.00000   0.00003   0.00003   0.00207
   D94       -3.13994  -0.00000   0.00000   0.00005   0.00005  -3.13989
   D95       -3.13830  -0.00000   0.00000  -0.00033  -0.00033  -3.13863
   D96        0.00369  -0.00000   0.00000  -0.00039  -0.00039   0.00329
   D97        0.00208   0.00000   0.00000  -0.00015  -0.00015   0.00193
   D98       -3.13912  -0.00000   0.00000  -0.00021  -0.00021  -3.13933
   D99       -0.00015  -0.00000   0.00000  -0.00005  -0.00005  -0.00020
   D100      -3.14092   0.00000   0.00000  -0.00023  -0.00023  -3.14114
   D101       3.14105   0.00000   0.00000   0.00001   0.00001   3.14106
   D102       0.00028   0.00000   0.00000  -0.00016  -0.00016   0.00012
   D103      -0.00140   0.00000   0.00000   0.00016   0.00016  -0.00124
   D104       3.14063   0.00000   0.00000   0.00014   0.00014   3.14077
   D105       3.13938  -0.00000   0.00000   0.00033   0.00033   3.13972
   D106      -0.00177   0.00000   0.00000   0.00031   0.00031  -0.00146
   D107      -2.14105  -0.00000   0.00000   0.00320   0.00320  -2.13785
   D108      -0.02254   0.00000   0.00000   0.00301   0.00301  -0.01953
   D109       2.09261   0.00000   0.00000   0.00329   0.00329   2.09589
   D110       1.00137  -0.00000   0.00000   0.00302   0.00302   1.00439
   D111       3.11988   0.00000   0.00000   0.00284   0.00284   3.12271
   D112      -1.04816   0.00000   0.00000   0.00311   0.00311  -1.04505
   D113       0.00085  -0.00000   0.00000  -0.00006  -0.00006   0.00080
   D114      -3.14062   0.00000   0.00000  -0.00014  -0.00014  -3.14076
   D115      -3.14119  -0.00000   0.00000  -0.00003  -0.00003  -3.14122
   D116       0.00053  -0.00000   0.00000  -0.00011  -0.00011   0.00042
   D117      -0.00098   0.00000   0.00000  -0.00130  -0.00130  -0.00228
   D118       2.10652   0.00000   0.00000  -0.00135  -0.00135   2.10517
   D119      -2.10877  -0.00000   0.00000  -0.00140  -0.00140  -2.11017
   D120       3.14049   0.00000   0.00000  -0.00122  -0.00122   3.13927
   D121      -1.03520   0.00000   0.00000  -0.00127  -0.00127  -1.03647
   D122       1.03270  -0.00000   0.00000  -0.00131  -0.00131   1.03138
   D123       3.12116   0.00000   0.00000  -0.00003  -0.00003   3.12113
   D124      -0.02185   0.00000   0.00000  -0.00001  -0.00001  -0.02186
   D125      -2.14563   0.00000   0.00000   0.00047   0.00047  -2.14516
   D126       0.05115   0.00000   0.00000   0.00048   0.00048   0.05163
   D127       2.14767   0.00000   0.00000   0.00048   0.00048   2.14814
   D128      -3.04547   0.00000   0.00000   0.00010   0.00010  -3.04537
   D129       1.12658   0.00000   0.00000   0.00011   0.00011   1.12669
   D130      -0.89892   0.00000   0.00000   0.00010   0.00010  -0.89881
   D131       0.97193  -0.00000   0.00000   0.00006   0.00006   0.97199
   D132      -1.13920  -0.00000   0.00000   0.00007   0.00007  -1.13914
   D133       3.11848  -0.00000   0.00000   0.00006   0.00006   3.11854
   D134      -1.07516   0.00000   0.00000   0.00009   0.00009  -1.07507
   D135       3.09690  -0.00000   0.00000   0.00009   0.00009   3.09699
   D136       1.07140  -0.00000   0.00000   0.00009   0.00009   1.07148
   D137       3.12992  -0.00000   0.00000  -0.00015  -0.00015   3.12977
   D138      -1.05452   0.00000   0.00000  -0.00017  -0.00017  -1.05469
   D139       0.99705   0.00000   0.00000  -0.00015  -0.00015   0.99690
   D140      -0.98004  -0.00000   0.00000  -0.00013  -0.00013  -0.98017
   D141       1.11871  -0.00000   0.00000  -0.00015  -0.00015   1.11856
   D142      -3.11291  -0.00000   0.00000  -0.00013  -0.00013  -3.11304
   D143       1.05727  -0.00000   0.00000  -0.00015  -0.00015   1.05713
   D144      -3.12716  -0.00000   0.00000  -0.00017  -0.00017  -3.12733
   D145      -1.07559   0.00000   0.00000  -0.00015  -0.00015  -1.07574
   D146      -0.96021   0.00000   0.00000   0.00002   0.00002  -0.96019
   D147      -3.10342  -0.00000   0.00000   0.00001   0.00001  -3.10340
   D148       1.14504  -0.00000   0.00000   0.00002   0.00002   1.14506
   D149       1.13378   0.00000   0.00000   0.00001   0.00001   1.13379
   D150      -1.00943  -0.00000   0.00000  -0.00000  -0.00000  -1.00943
   D151      -3.04415   0.00000   0.00000   0.00000   0.00000  -3.04415
   D152      -3.08891   0.00000   0.00000   0.00001   0.00001  -3.08889
   D153       1.05107  -0.00000   0.00000   0.00000   0.00000   1.05107
   D154      -0.98366   0.00000   0.00000   0.00001   0.00001  -0.98365
   D155       0.98686   0.00000   0.00000   0.00011   0.00011   0.98697
   D156       3.12856   0.00000   0.00000   0.00010   0.00010   3.12866
   D157      -1.12138   0.00000   0.00000   0.00011   0.00011  -1.12127
   D158      -1.11537   0.00000   0.00000   0.00010   0.00010  -1.11526
   D159       1.02633  -0.00000   0.00000   0.00009   0.00009   1.02643
   D160       3.05958  -0.00000   0.00000   0.00010   0.00010   3.05968
   D161       3.12277   0.00000   0.00000   0.00010   0.00010   3.12287
   D162      -1.01871   0.00000   0.00000   0.00009   0.00009  -1.01862
   D163       1.01453   0.00000   0.00000   0.00010   0.00010   1.01463
   D164       0.95364  -0.00000   0.00000  -0.00004  -0.00004   0.95361
   D165       3.09318  -0.00000   0.00000  -0.00003  -0.00003   3.09315
   D166      -1.14758   0.00000   0.00000  -0.00002  -0.00002  -1.14761
   D167       3.09004  -0.00000   0.00000  -0.00003  -0.00003   3.09002
   D168      -1.05361   0.00000   0.00000  -0.00002  -0.00002  -1.05363
   D169       0.98882   0.00000   0.00000  -0.00002  -0.00002   0.98880
   D170      -1.15050  -0.00000   0.00000  -0.00003  -0.00003  -1.15054
   D171       0.98903  -0.00000   0.00000  -0.00002  -0.00002   0.98900
   D172       3.03145   0.00000   0.00000  -0.00002  -0.00002   3.03143
   D173      -0.96985  -0.00000   0.00000  -0.00002  -0.00002  -0.96987
   D174      -3.10985  -0.00000   0.00000  -0.00003  -0.00003  -3.10988
   D175       1.13206  -0.00000   0.00000  -0.00003  -0.00003   1.13203
   D176      -3.10431   0.00000   0.00000  -0.00002  -0.00002  -3.10433
   D177       1.03887   0.00000   0.00000  -0.00002  -0.00002   1.03885
   D178      -1.00241   0.00000   0.00000  -0.00002  -0.00002  -1.00243
   D179       1.13758   0.00000   0.00000  -0.00003  -0.00003   1.13755
   D180      -1.00242  -0.00000   0.00000  -0.00003  -0.00003  -1.00246
   D181      -3.04370  -0.00000   0.00000  -0.00004  -0.00004  -3.04374
         Item               Value     Threshold  Converged?
 Maximum Force            0.000062     0.000015     NO 
 RMS     Force            0.000005     0.000010     YES
 Maximum Displacement     0.008900     0.000060     NO 
 RMS     Displacement     0.001300     0.000040     NO 
 Predicted change in Energy=-5.569648D-08
 Step  19 in ReCalcFC= 6 IGetFC= 0 compute gradient.
 GradGradGradGradGradGradGradGradGradGradGradGradGradGradGradGradGradGrad

 Leave Link  103 at Tue Dec 18 12:45:37 2018, MaxMem=  1342177280 cpu:              11.1 elap:               0.8
 (Enter /gpfs/apps/hpc/Apps/Restricted/Gaussian/Rev_A.03/g16/l202.exe)
 Symmetry turned off by external request.
 Stoichiometry    C29H29N5O(1+,2)
 Framework group  C1[X(C29H29N5O)]
 Deg. of freedom   186
 Full point group                 C1      NOp   1
                          Input orientation:                          
 ---------------------------------------------------------------------
 Center     Atomic      Atomic             Coordinates (Angstroms)
 Number     Number       Type             X           Y           Z
 ---------------------------------------------------------------------
      1          6           0        1.645623    1.394098    0.416503
      2          6           0        0.398534    2.055810    0.348186
      3          6           0        0.352974    3.456544    0.404447
      4          6           0        1.560165    4.140240    0.526051
      5          6           0        2.793042    3.462226    0.591670
      6          6           0        2.871421    2.066624    0.539445
      7          6           0       -0.000185   -0.068368    0.223126
      8          1           0       -0.593327    3.984084    0.353707
      9          1           0        1.555469    5.224047    0.571396
     10          1           0        3.710736    4.035032    0.685742
     11          6           0       -2.120190   -1.304536    0.012100
     12          6           0       -2.913191   -2.479905   -0.100870
     13          6           0       -2.299828   -3.743607   -0.119502
     14          6           0       -0.916755   -3.773611   -0.024594
     15          6           0       -0.137637   -2.596571    0.087617
     16          6           0       -0.716269   -1.328386    0.110153
     17          6           0       -4.254482   -0.762709   -0.112459
     18          1           0       -2.887501   -4.649599   -0.204932
     19          1           0       -0.404062   -4.728790   -0.035978
     20          1           0        0.939834   -2.697225    0.156261
     21          7           0       -0.611716    1.116009    0.228235
     22          6           0       -6.725753   -0.771792   -0.283108
     23          6           0       -5.482030   -0.019474   -0.162583
     24          6           0       -5.536973    1.368823   -0.100856
     25          6           0       -6.761481    2.040450   -0.150584
     26          6           0       -7.966156    1.286122   -0.266395
     27          6           0       -7.986541   -0.085850   -0.334035
     28          1           0       -4.623827    1.945757   -0.013331
     29          1           0       -8.907229    1.826781   -0.302666
     30          6           0       -6.831641    3.532611   -0.085553
     31          1           0       -7.457002    3.848136    0.757542
     32          1           0       -5.843987    3.982894    0.020697
     33          1           0       -7.304606    3.930486   -0.991133
     34          6           0       -9.266644   -0.864163   -0.457041
     35          1           0       -9.081764   -1.936346   -0.498862
     36          1           0       -9.919629   -0.656199    0.395871
     37          1           0       -9.804718   -0.567477   -1.362342
     38          8           0       -6.720483   -2.072930   -0.347176
     39          7           0       -2.989684   -0.250750    0.001651
     40          7           0       -4.229108   -2.104191   -0.175413
     41          1           0       -2.639875    0.706688    0.071638
     42          7           0        1.361543    0.053316    0.335256
     43          1           0        2.103823   -0.640053    0.365968
     44          6           0        4.138826    1.337910    0.604237
     45          1           0        5.039885    1.954106    0.683822
     46          7           0        4.160083    0.058096    0.569291
     47          6           0        5.420034   -0.681797    0.607644
     48          6           0        5.484223   -1.573588   -0.646824
     49          6           0        6.713347    0.128808    0.761430
     50          1           0        5.336409   -1.353543    1.476030
     51          6           0        6.712906   -2.490567   -0.624181
     52          1           0        5.521643   -0.921201   -1.529683
     53          1           0        4.560729   -2.157912   -0.720345
     54          6           0        7.936935   -0.798094    0.800553
     55          1           0        6.813808    0.819378   -0.087028
     56          1           0        6.674927    0.739875    1.670786
     57          6           0        8.007312   -1.687735   -0.446473
     58          1           0        6.751793   -3.082946   -1.545068
     59          1           0        6.613546   -3.203969    0.205407
     60          1           0        8.850399   -0.201238    0.897302
     61          1           0        7.880413   -1.432644    1.695519
     62          1           0        8.868156   -2.362718   -0.383321
     63          1           0        8.164811   -1.055697   -1.331299
     64          1           0       -5.730105   -2.406422   -0.295314
 ---------------------------------------------------------------------
 Rotational constants (GHZ):           0.2496952           0.0436623           0.0374564
 Leave Link  202 at Tue Dec 18 12:45:37 2018, MaxMem=  1342177280 cpu:               0.4 elap:               0.0
 (Enter /gpfs/apps/hpc/Apps/Restricted/Gaussian/Rev_A.03/g16/l301.exe)
 Standard basis: 6-31G(d,p) (6D, 7F)
 Ernie: Thresh=  0.10000D-02 Tol=  0.10000D-05 Strict=F.
   670 basis functions,  1183 primitive gaussians,   670 cartesian basis functions
   123 alpha electrons      122 beta electrons
       nuclear repulsion energy      3339.1061559326 Hartrees.
 IExCor=  402 DFT=T Ex+Corr=B3LYP ExCW=0 ScaHFX=  0.200000
 ScaDFX=  0.800000  0.720000  1.000000  0.810000 ScalE2=  1.000000  1.000000
 IRadAn=      5 IRanWt=     -1 IRanGd=            0 ICorTp=0 IEmpDi=141
 NAtoms=   64 NActive=   64 NUniq=   64 SFac= 1.00D+00 NAtFMM=   60 NAOKFM=T Big=T
 Integral buffers will be    131072 words long.
 Raffenetti 2 integral format.
 Two-electron integral symmetry is turned off.
 R6Disp:  Grimme-D3(BJ) Dispersion energy=       -0.1434061014 Hartrees.
 Nuclear repulsion after empirical dispersion term =     3338.9627498312 Hartrees.
 Force inversion solution in PCM.
 ------------------------------------------------------------------------------
 Polarizable Continuum Model (PCM)
 =================================
 Model                : C-PCM.
 Atomic radii         : UFF (Universal Force Field).
 Polarization charges : Total charges.
 Charge compensation  : None.
 Solution method      : Matrix inversion.
 Cavity type          : Scaled VdW (van der Waals Surface) (Alpha=1.100).
 Cavity algorithm     : GePol (No added spheres)
                        Default sphere list used, NSphG=   64.
                        Lebedev-Laikov grids with approx.  5.0 points / Ang**2.
                        Smoothing algorithm: York/Karplus (Gamma=1.0000).
                        Polarization charges: spherical gaussians, with
                                              point-specific exponents (IZeta= 3).
                        Self-potential: point-specific (ISelfS= 7).
                        Self-field    : sphere-specific E.n sum rule (ISelfD= 2).
 1st derivatives      : Analytical E(r).r(x)/FMM algorithm (CHGder, D1EAlg=3).
                        Cavity 1st derivative terms included.
 Solvent              : Dichloromethane, Eps=   8.930000 Eps(inf)=   2.028346
 ------------------------------------------------------------------------------
 GePol: Number of generator spheres                  =      64
 GePol: Total number of spheres                      =      64
 GePol: Number of exposed spheres                    =      64 (100.00%)
 GePol: Number of points                             =    4506
 GePol: Average weight of points                     =       0.13
 GePol: Minimum weight of points                     =   0.19D-10
 GePol: Maximum weight of points                     =    0.20577
 GePol: Number of points with low weight             =     298
 GePol: Fraction of low-weight points (<1% of avg)   =       6.61%
 GePol: Cavity surface area                          =    568.510 Ang**2
 GePol: Cavity volume                                =    639.428 Ang**3
 Leave Link  301 at Tue Dec 18 12:45:37 2018, MaxMem=  1342177280 cpu:               1.2 elap:               0.1
 (Enter /gpfs/apps/hpc/Apps/Restricted/Gaussian/Rev_A.03/g16/l302.exe)
 NPDir=0 NMtPBC=     1 NCelOv=     1 NCel=       1 NClECP=     1 NCelD=      1
         NCelK=      1 NCelE2=     1 NClLst=     1 CellRange=     0.0.
 One-electron integrals computed using PRISM.
 NBasis=   670 RedAO= T EigKep=  2.77D-04  NBF=   670
 NBsUse=   670 1.00D-06 EigRej= -1.00D+00 NBFU=   670
 Precomputing XC quadrature grid using
 IXCGrd= 4 IRadAn=           5 IRanWt=          -1 IRanGd=           0 AccXCQ= 0.00D+00.
 Generated NRdTot=       0 NPtTot=           0 NUsed=           0 NTot=          32
 NSgBfM=   619   618   619   619   619 MxSgAt=    64 MxSgA2=    64.
 Leave Link  302 at Tue Dec 18 12:45:38 2018, MaxMem=  1342177280 cpu:              15.3 elap:               1.0
 (Enter /gpfs/apps/hpc/Apps/Restricted/Gaussian/Rev_A.03/g16/l303.exe)
 DipDrv:  MaxL=1.
 Leave Link  303 at Tue Dec 18 12:45:38 2018, MaxMem=  1342177280 cpu:               1.0 elap:               0.1
 (Enter /gpfs/apps/hpc/Apps/Restricted/Gaussian/Rev_A.03/g16/l401.exe)
 Initial guess from the checkpoint file:  "cyclohexyl-diBIP-TS1.chk"
 B after Tr=    -0.000082   -0.000198    0.000275
         Rot=    1.000000    0.000040   -0.000004   -0.000001 Ang=   0.00 deg.
 Guess basis will be translated and rotated to current coordinates.
 JPrj=2 DoOrth=T DoCkMO=T.
 Initial guess <Sx>= 0.0000 <Sy>= 0.0000 <Sz>= 0.5000 <S**2>= 0.7625 S= 0.5062
 Leave Link  401 at Tue Dec 18 12:45:40 2018, MaxMem=  1342177280 cpu:              21.8 elap:               1.4
 (Enter /gpfs/apps/hpc/Apps/Restricted/Gaussian/Rev_A.03/g16/l502.exe)
 Two-electron integral symmetry not used.
 UHF open shell SCF:
 Using DIIS extrapolation, IDIIS=  1040.
 NGot=  1342177280 LenX=  1341263254 LenY=  1340813684
 Requested convergence on RMS density matrix=1.00D-08 within 128 cycles.
 Requested convergence on MAX density matrix=1.00D-06.
 Requested convergence on             energy=1.00D-06.
 No special actions if energy rises.
 Fock matrices will be formed incrementally for  20 cycles.

 Cycle   1  Pass 1  IDiag  1:
 FoFJK:  IHMeth= 1 ICntrl=       0 DoSepK=F KAlg= 0 I1Cent=           0 FoldK=F
 IRaf= 680000000 NMat=       1 IRICut=       1 DoRegI=T DoRafI=F ISym2E= 0 IDoP0=0 IntGTp=1.
 FoFCou: FMM=T IPFlag=           0 FMFlag=      100000 FMFlg1=        2001
         NFxFlg=           0 DoJE=F BraDBF=F KetDBF=F FulRan=T
         wScrn=  0.000000 ICntrl=         0 IOpCl=  1 I1Cent=           0 NGrid=           0
         NMat0=    1 NMatS0=      1 NMatT0=    0 NMatD0=    1 NMtDS0=    0 NMtDT0=    0
 Symmetry not used in FoFCou.
 FMM levels:  10  Number of levels for PrismC:   9
 Inv3:  Mode=1 IEnd=    60912108.
 Iteration    1 A*A^-1 deviation from unit magnitude is 7.77D-15 for    886.
 Iteration    1 A*A^-1 deviation from orthogonality  is 4.89D-15 for   2447    868.
 Iteration    1 A^-1*A deviation from unit magnitude is 7.33D-15 for    886.
 Iteration    1 A^-1*A deviation from orthogonality  is 2.48D-15 for   4459   2140.
 E= -1471.62413009957    
 DIIS: error= 7.57D-05 at cycle   1 NSaved=   1.
 NSaved= 1 IEnMin= 1 EnMin= -1471.62413009957     IErMin= 1 ErrMin= 7.57D-05
 ErrMax= 7.57D-05  0.00D+00 EMaxC= 1.00D-01 BMatC= 9.08D-06 BMatP= 9.08D-06
 IDIUse=1 WtCom= 1.00D+00 WtEn= 0.00D+00
 Coeff-Com:  0.100D+01
 Coeff:      0.100D+01
 Gap=     1.609 Goal=   None    Shift=    0.000
 Gap=     1.605 Goal=   None    Shift=    0.000
 RMSDP=3.93D-06 MaxDP=2.51D-04              OVMax= 5.08D-04

 Cycle   2  Pass 1  IDiag  1:
 RMSU=  3.93D-06    CP:  1.00D+00
 E= -1471.62413469339     Delta-E=       -0.000004593818 Rises=F Damp=F
 DIIS: error= 1.19D-05 at cycle   2 NSaved=   2.
 NSaved= 2 IEnMin= 2 EnMin= -1471.62413469339     IErMin= 2 ErrMin= 1.19D-05
 ErrMax= 1.19D-05  0.00D+00 EMaxC= 1.00D-01 BMatC= 2.40D-07 BMatP= 9.08D-06
 IDIUse=1 WtCom= 1.00D+00 WtEn= 0.00D+00
 Coeff-Com: -0.566D-01 0.106D+01
 Coeff:     -0.566D-01 0.106D+01
 Gap=     0.136 Goal=   None    Shift=    0.000
 Gap=     0.034 Goal=   None    Shift=    0.000
 RMSDP=1.00D-06 MaxDP=1.09D-04 DE=-4.59D-06 OVMax= 1.42D-04

 Cycle   3  Pass 1  IDiag  1:
 RMSU=  9.67D-07    CP:  1.00D+00  1.07D+00
