 Entering Gaussian System, Link 0=g16
 Initial command:
 /gpfs/apps/hpc/Apps/Restricted/Gaussian/Rev_A.03/g16/l1.exe "/gpfs/scratch60/fas/hammes_schiffer/jg2487/c08n05/Gau-8980.inp" -scrdir="/gpfs/scratch60/fas/hammes_schiffer/jg2487/c08n05/"
 Entering Link 1 = /gpfs/apps/hpc/Apps/Restricted/Gaussian/Rev_A.03/g16/l1.exe PID=      8981.
  
 Copyright (c) 1988,1990,1992,1993,1995,1998,2003,2009,2016,
            Gaussian, Inc.  All Rights Reserved.
  
 This is part of the Gaussian(R) 16 program.  It is based on
 the Gaussian(R) 09 system (copyright 2009, Gaussian, Inc.),
 the Gaussian(R) 03 system (copyright 2003, Gaussian, Inc.),
 the Gaussian(R) 98 system (copyright 1998, Gaussian, Inc.),
 the Gaussian(R) 94 system (copyright 1995, Gaussian, Inc.),
 the Gaussian 92(TM) system (copyright 1992, Gaussian, Inc.),
 the Gaussian 90(TM) system (copyright 1990, Gaussian, Inc.),
 the Gaussian 88(TM) system (copyright 1988, Gaussian, Inc.),
 the Gaussian 86(TM) system (copyright 1986, Carnegie Mellon
 University), and the Gaussian 82(TM) system (copyright 1983,
 Carnegie Mellon University). Gaussian is a federally registered
 trademark of Gaussian, Inc.
  
 This software contains proprietary and confidential information,
 including trade secrets, belonging to Gaussian, Inc.
  
 This software is provided under written license and may be
 used, copied, transmitted, or stored only in accord with that
 written license.
  
 The following legend is applicable only to US Government
 contracts under FAR:
  
                    RESTRICTED RIGHTS LEGEND
  
 Use, reproduction and disclosure by the US Government is
 subject to restrictions as set forth in subparagraphs (a)
 and (c) of the Commercial Computer Software - Restricted
 Rights clause in FAR 52.227-19.
  
 Gaussian, Inc.
 340 Quinnipiac St., Bldg. 40, Wallingford CT 06492
  
  
 ---------------------------------------------------------------
 Warning -- This program may not be used in any manner that
 competes with the business of Gaussian, Inc. or will provide
 assistance to any competitor of Gaussian, Inc.  The licensee
 of this program is prohibited from giving any competitor of
 Gaussian, Inc. access to this program.  By using this program,
 the user acknowledges that Gaussian, Inc. is engaged in the
 business of creating and licensing software in the field of
 computational chemistry and represents and warrants to the
 licensee that it is not a competitor of Gaussian, Inc. and that
 it will not use this program in any manner prohibited above.
 ---------------------------------------------------------------
  

 Cite this work as:
 Gaussian 16, Revision A.03,
 M. J. Frisch, G. W. Trucks, H. B. Schlegel, G. E. Scuseria, 
 M. A. Robb, J. R. Cheeseman, G. Scalmani, V. Barone, 
 G. A. Petersson, H. Nakatsuji, X. Li, M. Caricato, A. V. Marenich, 
 J. Bloino, B. G. Janesko, R. Gomperts, B. Mennucci, H. P. Hratchian, 
 J. V. Ortiz, A. F. Izmaylov, J. L. Sonnenberg, D. Williams-Young, 
 F. Ding, F. Lipparini, F. Egidi, J. Goings, B. Peng, A. Petrone, 
 T. Henderson, D. Ranasinghe, V. G. Zakrzewski, J. Gao, N. Rega, 
 G. Zheng, W. Liang, M. Hada, M. Ehara, K. Toyota, R. Fukuda, 
 J. Hasegawa, M. Ishida, T. Nakajima, Y. Honda, O. Kitao, H. Nakai, 
 T. Vreven, K. Throssell, J. A. Montgomery, Jr., J. E. Peralta, 
 F. Ogliaro, M. J. Bearpark, J. J. Heyd, E. N. Brothers, K. N. Kudin, 
 V. N. Staroverov, T. A. Keith, R. Kobayashi, J. Normand, 
 K. Raghavachari, A. P. Rendell, J. C. Burant, S. S. Iyengar, 
 J. Tomasi, M. Cossi, J. M. Millam, M. Klene, C. Adamo, R. Cammi, 
 J. W. Ochterski, R. L. Martin, K. Morokuma, O. Farkas, 
 J. B. Foresman, and D. J. Fox, Gaussian, Inc., Wallingford CT, 2016.
 
 ******************************************
 Gaussian 16:  ES64L-G16RevA.03 25-Dec-2016
                21-Dec-2018 
 ******************************************
 %chk=cyclohexyl-diBIP-TS1.chk
 %mem=10GB
 %nprocshared=16
 Will use up to   16 processors via shared memory.
 ----------------------------------------------------------------------
 #p opt=(tight,ts,calcfc,noeigentest) freq=internalmodes b3lyp/6-31g(d,
 p) scrf=(cpcm,solvent=dichloromethane,read) nosymm empiricaldispersion
 =gd3bj int=grid=ultrafine
 ----------------------------------------------------------------------
 1/5=1,7=10,10=4,11=1,18=20,26=6,38=1,40=2/1,3;
 2/9=110,12=2,15=1,17=6,18=5,40=1/2;
 3/5=1,6=6,7=101,11=2,25=1,30=1,70=2103,71=2,72=9,74=-5,75=-5,124=41,140=1/1,2,3;
 4//1;
 5/5=2,38=5,53=9/2;
 8/6=4,10=90,11=11/1;
 11/6=1,8=1,9=11,15=111,16=1,31=1/1,2,10;
 10/6=1,13=1,31=1/2;
 6/7=2,8=2,9=2,10=2,28=1/1;
 7/10=1,18=20,25=1,30=1/1,2,3,16;
 1/5=1,7=10,10=4,11=1,18=20,26=6/3(2);
 2/9=110,15=1/2;
 99//99;
 2/9=110,15=1/2;
 3/5=1,6=6,7=101,11=2,25=1,30=1,70=2105,71=1,72=9,74=-5,75=-5,124=41/1,2,3;
 4/5=5,16=3,69=1/1;
 5/5=2,38=5,53=9/2;
 7/30=1/1,2,3,16;
 1/5=1,7=10,11=1,18=20,26=6/3(-5);
 2/9=110,15=1/2;
 6/7=2,8=2,9=2,10=2,19=2,28=1/1;
 99/9=1/99;
 Leave Link    1 at Fri Dec 21 14:10:37 2018, MaxMem=  1342177280 cpu:               8.3 elap:               0.6
 (Enter /gpfs/apps/hpc/Apps/Restricted/Gaussian/Rev_A.03/g16/l101.exe)
 ----------------------------------------------------------------------
 cyclohexylimine diBIP oxidized, first proton transition state optimiza
 tion
 ----------------------------------------------------------------------
 Symbolic Z-matrix:
 Charge =  1 Multiplicity = 2
 C                     1.63335   1.23732   0.23095 
 C                     0.40692   1.93561   0.15366 
 C                     0.41002   3.33165   0.02818 
 C                     1.64301   3.97743  -0.01786 
 C                     2.85371   3.26551   0.06498 
 C                     2.88415   1.87223   0.18874 
 C                    -0.07074  -0.1674    0.32006 
 H                    -0.51929   3.8849   -0.0332 
 H                     1.676     5.05604  -0.11616 
 H                     3.79296   3.80651   0.02845 
 C                    -2.22506  -1.37123   0.31751 
 C                    -3.0325   -2.54177   0.3332 
 C                    -2.43732  -3.80755   0.45581 
 C                    -1.05534  -3.84807   0.55649 
 C                    -0.26027  -2.67906   0.52414 
 C                    -0.82103  -1.40901   0.39505 
 C                    -4.3554   -0.82086   0.15968 
 H                    -3.03844  -4.70708   0.47249 
 H                    -0.55851  -4.80462   0.66017 
 H                     0.8153   -2.78091   0.6055 
 N                    -0.64234   1.03188   0.21508 
 C                    -6.81819  -0.80105  -0.13152 
 C                    -5.57084  -0.06562   0.04239 
 C                    -5.5919    1.32437   0.09318 
 C                    -6.79434   2.02038  -0.02248 
 C                    -7.99939   1.27602  -0.2237 
 C                    -8.06288  -0.09437  -0.29125 
 H                    -4.66376   1.85946   0.23781 
 H                    -8.91562   1.83826  -0.32443 
 C                    -6.88448   3.53381   0.07844 
 C                    -9.37404  -0.84739  -0.5244 
 O                    -6.80997  -2.10407  -0.14869 
 N                    -3.08525  -0.31498   0.21386 
 N                    -4.3447   -2.16202   0.22594 
 H                    -2.74794   0.64467   0.17005 
 N                     1.29829  -0.08879   0.33539 
 H                     2.0032   -0.81674   0.37928 
 C                     4.13316   1.11954   0.26937 
 H                     5.04899   1.7178    0.24111 
 N                     4.13582  -0.15897   0.35969 
 C                     5.42443  -0.86362   0.37732 
 C                     5.9462   -1.02273  -1.06153 
 C                     6.50684  -0.24472   1.27562 
 H                     5.21284  -1.86723   0.76556 
 C                     7.23035  -1.85791  -1.10003 
 H                     6.14096  -0.02058  -1.46365 
 H                     5.16788  -1.47231  -1.68558 
 C                     7.7755   -1.10629   1.25303 
 H                     6.75692   0.76152   0.92222 
 H                     6.12221  -0.14276   2.29484 
 C                     8.30546  -1.27577  -0.17475 
 H                     7.60286  -1.91962  -2.12716 
 H                     7.00044  -2.88337  -0.78508 
 H                     8.54104  -0.65989   1.89508 
 H                     7.54721  -2.09359   1.67389 
 H                     9.19271  -1.91615  -0.17626 
 H                     8.61741  -0.2967   -0.55957 
 H                    -5.83236  -2.44102   0.00597 
 C                    -7.51856   4.09269  -1.21571 
 H                    -8.51411   3.68212  -1.39473 
 H                    -7.61286   5.17774  -1.12541 
 H                    -6.89437   3.87001  -2.08381 
 C                    -5.51513   4.19329   0.28351 
 H                    -5.04049   3.86093   1.21022 
 H                    -4.8368    3.98463  -0.54766 
 H                    -5.64614   5.27523   0.34679 
 C                    -7.79051   3.88436   1.28169 
 H                    -7.88901   4.97024   1.35266 
 H                    -8.79072   3.46019   1.17518 
 H                    -7.35479   3.51637   2.21321 
 C                    -10.55253   0.12608  -0.67572 
 H                    -11.45909  -0.44767  -0.87827 
 H                    -10.7211   0.70478   0.23653 
 H                    -10.40447   0.82083  -1.50642 
 C                    -9.2682   -1.67418  -1.82541 
 H                    -9.0636   -1.02342  -2.67915 
 H                    -8.48261  -2.42657  -1.76457 
 H                    -10.21934  -2.18171  -2.00626 
 C                    -9.67596  -1.77532   0.67362 
 H                    -9.76309  -1.1959    1.596 
 H                    -10.62908  -2.281     0.49812 
 H                    -8.90409  -2.5315    0.80749 
 
 ITRead=  0  0  0  0  0  0  0  0  0  0  0  0  0  0  0  0  0  0  0  0
 ITRead=  0  0  0  0  0  0  0  0  0  0  0  0  0  0  0  0  0  0  0  0
 ITRead=  0  0  0  0  0  0  0  0  0  0  0  0  0  0  0  0  0  0  0  0
 ITRead=  0  0  0  0  0  0  0  0  0  0  0  0  0  0  0  0  0  0  0  0
 ITRead=  0  0
 MicOpt= -1 -1 -1 -1 -1 -1 -1 -1 -1 -1 -1 -1 -1 -1 -1 -1 -1 -1 -1 -1
 MicOpt= -1 -1 -1 -1 -1 -1 -1 -1 -1 -1 -1 -1 -1 -1 -1 -1 -1 -1 -1 -1
 MicOpt= -1 -1 -1 -1 -1 -1 -1 -1 -1 -1 -1 -1 -1 -1 -1 -1 -1 -1 -1 -1
 MicOpt= -1 -1 -1 -1 -1 -1 -1 -1 -1 -1 -1 -1 -1 -1 -1 -1 -1 -1 -1 -1
 MicOpt= -1 -1
 NAtoms=     82 NQM=       82 NQMF=       0 NMMI=      0 NMMIF=      0
                NMic=       0 NMicF=      0.
                    Isotopes and Nuclear Properties:
 (Nuclear quadrupole moments (NQMom) in fm**2, nuclear magnetic moments (NMagM)
  in nuclear magnetons)

  Atom         1           2           3           4           5           6           7           8           9          10
 IAtWgt=          12          12          12          12          12          12          12           1           1           1
 AtmWgt=  12.0000000  12.0000000  12.0000000  12.0000000  12.0000000  12.0000000  12.0000000   1.0078250   1.0078250   1.0078250
 NucSpn=           0           0           0           0           0           0           0           1           1           1
 AtZEff=  -0.0000000  -0.0000000  -0.0000000  -0.0000000  -0.0000000  -0.0000000  -0.0000000  -0.0000000  -0.0000000  -0.0000000
 NQMom=    0.0000000   0.0000000   0.0000000   0.0000000   0.0000000   0.0000000   0.0000000   0.0000000   0.0000000   0.0000000
 NMagM=    0.0000000   0.0000000   0.0000000   0.0000000   0.0000000   0.0000000   0.0000000   2.7928460   2.7928460   2.7928460
 AtZNuc=   6.0000000   6.0000000   6.0000000   6.0000000   6.0000000   6.0000000   6.0000000   1.0000000   1.0000000   1.0000000

  Atom        11          12          13          14          15          16          17          18          19          20
 IAtWgt=          12          12          12          12          12          12          12           1           1           1
 AtmWgt=  12.0000000  12.0000000  12.0000000  12.0000000  12.0000000  12.0000000  12.0000000   1.0078250   1.0078250   1.0078250
 NucSpn=           0           0           0           0           0           0           0           1           1           1
 AtZEff=  -0.0000000  -0.0000000  -0.0000000  -0.0000000  -0.0000000  -0.0000000  -0.0000000  -0.0000000  -0.0000000  -0.0000000
 NQMom=    0.0000000   0.0000000   0.0000000   0.0000000   0.0000000   0.0000000   0.0000000   0.0000000   0.0000000   0.0000000
 NMagM=    0.0000000   0.0000000   0.0000000   0.0000000   0.0000000   0.0000000   0.0000000   2.7928460   2.7928460   2.7928460
 AtZNuc=   6.0000000   6.0000000   6.0000000   6.0000000   6.0000000   6.0000000   6.0000000   1.0000000   1.0000000   1.0000000

  Atom        21          22          23          24          25          26          27          28          29          30
 IAtWgt=          14          12          12          12          12          12          12           1           1          12
 AtmWgt=  14.0030740  12.0000000  12.0000000  12.0000000  12.0000000  12.0000000  12.0000000   1.0078250   1.0078250  12.0000000
 NucSpn=           2           0           0           0           0           0           0           1           1           0
 AtZEff=  -0.0000000  -0.0000000  -0.0000000  -0.0000000  -0.0000000  -0.0000000  -0.0000000  -0.0000000  -0.0000000  -0.0000000
 NQMom=    2.0440000   0.0000000   0.0000000   0.0000000   0.0000000   0.0000000   0.0000000   0.0000000   0.0000000   0.0000000
 NMagM=    0.4037610   0.0000000   0.0000000   0.0000000   0.0000000   0.0000000   0.0000000   2.7928460   2.7928460   0.0000000
 AtZNuc=   7.0000000   6.0000000   6.0000000   6.0000000   6.0000000   6.0000000   6.0000000   1.0000000   1.0000000   6.0000000

  Atom        31          32          33          34          35          36          37          38          39          40
 IAtWgt=          12          16          14          14           1          14           1          12           1          14
 AtmWgt=  12.0000000  15.9949146  14.0030740  14.0030740   1.0078250  14.0030740   1.0078250  12.0000000   1.0078250  14.0030740
 NucSpn=           0           0           2           2           1           2           1           0           1           2
 AtZEff=  -0.0000000  -0.0000000  -0.0000000  -0.0000000  -0.0000000  -0.0000000  -0.0000000  -0.0000000  -0.0000000  -0.0000000
 NQMom=    0.0000000   0.0000000   2.0440000   2.0440000   0.0000000   2.0440000   0.0000000   0.0000000   0.0000000   2.0440000
 NMagM=    0.0000000   0.0000000   0.4037610   0.4037610   2.7928460   0.4037610   2.7928460   0.0000000   2.7928460   0.4037610
 AtZNuc=   6.0000000   8.0000000   7.0000000   7.0000000   1.0000000   7.0000000   1.0000000   6.0000000   1.0000000   7.0000000

  Atom        41          42          43          44          45          46          47          48          49          50
 IAtWgt=          12          12          12           1          12           1           1          12           1           1
 AtmWgt=  12.0000000  12.0000000  12.0000000   1.0078250  12.0000000   1.0078250   1.0078250  12.0000000   1.0078250   1.0078250
 NucSpn=           0           0           0           1           0           1           1           0           1           1
 AtZEff=  -0.0000000  -0.0000000  -0.0000000  -0.0000000  -0.0000000  -0.0000000  -0.0000000  -0.0000000  -0.0000000  -0.0000000
 NQMom=    0.0000000   0.0000000   0.0000000   0.0000000   0.0000000   0.0000000   0.0000000   0.0000000   0.0000000   0.0000000
 NMagM=    0.0000000   0.0000000   0.0000000   2.7928460   0.0000000   2.7928460   2.7928460   0.0000000   2.7928460   2.7928460
 AtZNuc=   6.0000000   6.0000000   6.0000000   1.0000000   6.0000000   1.0000000   1.0000000   6.0000000   1.0000000   1.0000000

  Atom        51          52          53          54          55          56          57          58          59          60
 IAtWgt=          12           1           1           1           1           1           1           1          12           1
 AtmWgt=  12.0000000   1.0078250   1.0078250   1.0078250   1.0078250   1.0078250   1.0078250   1.0078250  12.0000000   1.0078250
 NucSpn=           0           1           1           1           1           1           1           1           0           1
 AtZEff=  -0.0000000  -0.0000000  -0.0000000  -0.0000000  -0.0000000  -0.0000000  -0.0000000  -0.0000000  -0.0000000  -0.0000000
 NQMom=    0.0000000   0.0000000   0.0000000   0.0000000   0.0000000   0.0000000   0.0000000   0.0000000   0.0000000   0.0000000
 NMagM=    0.0000000   2.7928460   2.7928460   2.7928460   2.7928460   2.7928460   2.7928460   2.7928460   0.0000000   2.7928460
 AtZNuc=   6.0000000   1.0000000   1.0000000   1.0000000   1.0000000   1.0000000   1.0000000   1.0000000   6.0000000   1.0000000

  Atom        61          62          63          64          65          66          67          68          69          70
 IAtWgt=           1           1          12           1           1           1          12           1           1           1
 AtmWgt=   1.0078250   1.0078250  12.0000000   1.0078250   1.0078250   1.0078250  12.0000000   1.0078250   1.0078250   1.0078250
 NucSpn=           1           1           0           1           1           1           0           1           1           1
 AtZEff=  -0.0000000  -0.0000000  -0.0000000  -0.0000000  -0.0000000  -0.0000000  -0.0000000  -0.0000000  -0.0000000  -0.0000000
 NQMom=    0.0000000   0.0000000   0.0000000   0.0000000   0.0000000   0.0000000   0.0000000   0.0000000   0.0000000   0.0000000
 NMagM=    2.7928460   2.7928460   0.0000000   2.7928460   2.7928460   2.7928460   0.0000000   2.7928460   2.7928460   2.7928460
 AtZNuc=   1.0000000   1.0000000   6.0000000   1.0000000   1.0000000   1.0000000   6.0000000   1.0000000   1.0000000   1.0000000

  Atom        71          72          73          74          75          76          77          78          79          80
 IAtWgt=          12           1           1           1          12           1           1           1          12           1
 AtmWgt=  12.0000000   1.0078250   1.0078250   1.0078250  12.0000000   1.0078250   1.0078250   1.0078250  12.0000000   1.0078250
 NucSpn=           0           1           1           1           0           1           1           1           0           1
 AtZEff=  -0.0000000  -0.0000000  -0.0000000  -0.0000000  -0.0000000  -0.0000000  -0.0000000  -0.0000000  -0.0000000  -0.0000000
 NQMom=    0.0000000   0.0000000   0.0000000   0.0000000   0.0000000   0.0000000   0.0000000   0.0000000   0.0000000   0.0000000
 NMagM=    0.0000000   2.7928460   2.7928460   2.7928460   0.0000000   2.7928460   2.7928460   2.7928460   0.0000000   2.7928460
 AtZNuc=   6.0000000   1.0000000   1.0000000   1.0000000   6.0000000   1.0000000   1.0000000   1.0000000   6.0000000   1.0000000

  Atom        81          82
 IAtWgt=           1           1
 AtmWgt=   1.0078250   1.0078250
 NucSpn=           1           1
 AtZEff=  -0.0000000  -0.0000000
 NQMom=    0.0000000   0.0000000
 NMagM=    2.7928460   2.7928460
 AtZNuc=   1.0000000   1.0000000
 Leave Link  101 at Fri Dec 21 14:10:38 2018, MaxMem=  1342177280 cpu:               6.8 elap:               0.5
 (Enter /gpfs/apps/hpc/Apps/Restricted/Gaussian/Rev_A.03/g16/l103.exe)

 GradGradGradGradGradGradGradGradGradGradGradGradGradGradGradGradGradGrad
 Berny optimization.
 Initialization pass.
                           ----------------------------
                           !    Initial Parameters    !
                           ! (Angstroms and Degrees)  !
 --------------------------                            --------------------------
 ! Name  Definition              Value          Derivative Info.                !
 --------------------------------------------------------------------------------
 ! R1    R(1,2)                  1.4134         calculate D2E/DX2 analytically  !
 ! R2    R(1,6)                  1.4034         calculate D2E/DX2 analytically  !
 ! R3    R(1,36)                 1.3718         calculate D2E/DX2 analytically  !
 ! R4    R(2,3)                  1.4017         calculate D2E/DX2 analytically  !
 ! R5    R(2,21)                 1.3862         calculate D2E/DX2 analytically  !
 ! R6    R(3,4)                  1.3926         calculate D2E/DX2 analytically  !
 ! R7    R(3,8)                  1.0833         calculate D2E/DX2 analytically  !
 ! R8    R(4,5)                  1.4069         calculate D2E/DX2 analytically  !
 ! R9    R(4,9)                  1.0836         calculate D2E/DX2 analytically  !
 ! R10   R(5,6)                  1.3991         calculate D2E/DX2 analytically  !
 ! R11   R(5,10)                 1.0845         calculate D2E/DX2 analytically  !
 ! R12   R(6,38)                 1.4605         calculate D2E/DX2 analytically  !
 ! R13   R(7,16)                 1.4526         calculate D2E/DX2 analytically  !
 ! R14   R(7,21)                 1.3327         calculate D2E/DX2 analytically  !
 ! R15   R(7,36)                 1.3714         calculate D2E/DX2 analytically  !
 ! R16   R(11,12)                1.4221         calculate D2E/DX2 analytically  !
 ! R17   R(11,16)                1.4067         calculate D2E/DX2 analytically  !
 ! R18   R(11,33)                1.3661         calculate D2E/DX2 analytically  !
 ! R19   R(12,13)                1.4041         calculate D2E/DX2 analytically  !
 ! R20   R(12,34)                1.3703         calculate D2E/DX2 analytically  !
 ! R21   R(13,14)                1.3862         calculate D2E/DX2 analytically  !
 ! R22   R(13,18)                1.082          calculate D2E/DX2 analytically  !
 ! R23   R(14,15)                1.4141         calculate D2E/DX2 analytically  !
 ! R24   R(14,19)                1.0828         calculate D2E/DX2 analytically  !
 ! R25   R(15,16)                1.3943         calculate D2E/DX2 analytically  !
 ! R26   R(15,20)                1.0834         calculate D2E/DX2 analytically  !
 ! R27   R(17,23)                1.4358         calculate D2E/DX2 analytically  !
 ! R28   R(17,33)                1.3683         calculate D2E/DX2 analytically  !
 ! R29   R(17,34)                1.3428         calculate D2E/DX2 analytically  !
 ! R30   R(22,23)                1.4584         calculate D2E/DX2 analytically  !
 ! R31   R(22,27)                1.4402         calculate D2E/DX2 analytically  !
 ! R32   R(22,32)                1.3032         calculate D2E/DX2 analytically  !
 ! R33   R(23,24)                1.3911         calculate D2E/DX2 analytically  !
 ! R34   R(24,25)                1.3941         calculate D2E/DX2 analytically  !
 ! R35   R(24,28)                1.0811         calculate D2E/DX2 analytically  !
 ! R36   R(25,26)                1.4306         calculate D2E/DX2 analytically  !
 ! R37   R(25,30)                1.5195         calculate D2E/DX2 analytically  !
 ! R38   R(26,27)                1.3735         calculate D2E/DX2 analytically  !
 ! R39   R(26,29)                1.0797         calculate D2E/DX2 analytically  !
 ! R40   R(27,31)                1.5299         calculate D2E/DX2 analytically  !
 ! R41   R(30,59)                1.5457         calculate D2E/DX2 analytically  !
 ! R42   R(30,63)                1.5337         calculate D2E/DX2 analytically  !
 ! R43   R(30,67)                1.5465         calculate D2E/DX2 analytically  !
 ! R44   R(31,71)                1.536          calculate D2E/DX2 analytically  !
 ! R45   R(31,75)                1.5451         calculate D2E/DX2 analytically  !
 ! R46   R(31,79)                1.5451         calculate D2E/DX2 analytically  !
 ! R47   R(32,58)                1.0456         calculate D2E/DX2 analytically  !
 ! R48   R(33,35)                1.0181         calculate D2E/DX2 analytically  !
 ! R49   R(36,37)                1.0143         calculate D2E/DX2 analytically  !
 ! R50   R(38,39)                1.0943         calculate D2E/DX2 analytically  !
 ! R51   R(38,40)                1.2817         calculate D2E/DX2 analytically  !
 ! R52   R(40,41)                1.4688         calculate D2E/DX2 analytically  !
 ! R53   R(41,42)                1.5388         calculate D2E/DX2 analytically  !
 ! R54   R(41,43)                1.5367         calculate D2E/DX2 analytically  !
 ! R55   R(41,44)                1.0967         calculate D2E/DX2 analytically  !
 ! R56   R(42,45)                1.5323         calculate D2E/DX2 analytically  !
 ! R57   R(42,46)                1.0972         calculate D2E/DX2 analytically  !
 ! R58   R(42,47)                1.0942         calculate D2E/DX2 analytically  !
 ! R59   R(43,48)                1.5337         calculate D2E/DX2 analytically  !
 ! R60   R(43,49)                1.0954         calculate D2E/DX2 analytically  !
 ! R61   R(43,50)                1.0941         calculate D2E/DX2 analytically  !
 ! R62   R(45,51)                1.5333         calculate D2E/DX2 analytically  !
 ! R63   R(45,52)                1.0943         calculate D2E/DX2 analytically  !
 ! R64   R(45,53)                1.0971         calculate D2E/DX2 analytically  !
 ! R65   R(48,51)                1.5324         calculate D2E/DX2 analytically  !
 ! R66   R(48,54)                1.0943         calculate D2E/DX2 analytically  !
 ! R67   R(48,55)                1.0973         calculate D2E/DX2 analytically  !
 ! R68   R(51,56)                1.0942         calculate D2E/DX2 analytically  !
 ! R69   R(51,57)                1.0973         calculate D2E/DX2 analytically  !
 ! R70   R(59,60)                1.0917         calculate D2E/DX2 analytically  !
 ! R71   R(59,61)                1.0929         calculate D2E/DX2 analytically  !
 ! R72   R(59,62)                1.0922         calculate D2E/DX2 analytically  !
 ! R73   R(63,64)                1.0929         calculate D2E/DX2 analytically  !
 ! R74   R(63,65)                1.0929         calculate D2E/DX2 analytically  !
 ! R75   R(63,66)                1.0917         calculate D2E/DX2 analytically  !
 ! R76   R(67,68)                1.0926         calculate D2E/DX2 analytically  !
 ! R77   R(67,69)                1.0916         calculate D2E/DX2 analytically  !
 ! R78   R(67,70)                1.0922         calculate D2E/DX2 analytically  !
 ! R79   R(71,72)                1.0918         calculate D2E/DX2 analytically  !
 ! R80   R(71,73)                1.0934         calculate D2E/DX2 analytically  !
 ! R81   R(71,74)                1.093          calculate D2E/DX2 analytically  !
 ! R82   R(75,76)                1.0928         calculate D2E/DX2 analytically  !
 ! R83   R(75,77)                1.0895         calculate D2E/DX2 analytically  !
 ! R84   R(75,78)                1.0931         calculate D2E/DX2 analytically  !
 ! R85   R(79,80)                1.0927         calculate D2E/DX2 analytically  !
 ! R86   R(79,81)                1.0931         calculate D2E/DX2 analytically  !
 ! R87   R(79,82)                1.0888         calculate D2E/DX2 analytically  !
 ! A1    A(2,1,6)              123.2456         calculate D2E/DX2 analytically  !
 ! A2    A(2,1,36)             105.6539         calculate D2E/DX2 analytically  !
 ! A3    A(6,1,36)             131.0985         calculate D2E/DX2 analytically  !
 ! A4    A(1,2,3)              119.6725         calculate D2E/DX2 analytically  !
 ! A5    A(1,2,21)             109.4083         calculate D2E/DX2 analytically  !
 ! A6    A(3,2,21)             130.9182         calculate D2E/DX2 analytically  !
 ! A7    A(2,3,4)              117.8244         calculate D2E/DX2 analytically  !
 ! A8    A(2,3,8)              120.7876         calculate D2E/DX2 analytically  !
 ! A9    A(4,3,8)              121.3878         calculate D2E/DX2 analytically  !
 ! A10   A(3,4,5)              121.6877         calculate D2E/DX2 analytically  !
 ! A11   A(3,4,9)              119.442          calculate D2E/DX2 analytically  !
 ! A12   A(5,4,9)              118.8699         calculate D2E/DX2 analytically  !
 ! A13   A(4,5,6)              121.859          calculate D2E/DX2 analytically  !
 ! A14   A(4,5,10)             119.3967         calculate D2E/DX2 analytically  !
 ! A15   A(6,5,10)             118.7438         calculate D2E/DX2 analytically  !
 ! A16   A(1,6,5)              115.7096         calculate D2E/DX2 analytically  !
 ! A17   A(1,6,38)             121.8303         calculate D2E/DX2 analytically  !
 ! A18   A(5,6,38)             122.4601         calculate D2E/DX2 analytically  !
 ! A19   A(16,7,21)            123.484          calculate D2E/DX2 analytically  !
 ! A20   A(16,7,36)            124.3353         calculate D2E/DX2 analytically  !
 ! A21   A(21,7,36)            112.1779         calculate D2E/DX2 analytically  !
 ! A22   A(12,11,16)           122.9559         calculate D2E/DX2 analytically  !
 ! A23   A(12,11,33)           106.244          calculate D2E/DX2 analytically  !
 ! A24   A(16,11,33)           130.7998         calculate D2E/DX2 analytically  !
 ! A25   A(11,12,13)           120.1535         calculate D2E/DX2 analytically  !
 ! A26   A(11,12,34)           108.3454         calculate D2E/DX2 analytically  !
 ! A27   A(13,12,34)           131.4989         calculate D2E/DX2 analytically  !
 ! A28   A(12,13,14)           117.083          calculate D2E/DX2 analytically  !
 ! A29   A(12,13,18)           121.0179         calculate D2E/DX2 analytically  !
 ! A30   A(14,13,18)           121.899          calculate D2E/DX2 analytically  !
 ! A31   A(13,14,15)           122.3222         calculate D2E/DX2 analytically  !
 ! A32   A(13,14,19)           119.3527         calculate D2E/DX2 analytically  !
 ! A33   A(15,14,19)           118.3247         calculate D2E/DX2 analytically  !
 ! A34   A(14,15,16)           121.9373         calculate D2E/DX2 analytically  !
 ! A35   A(14,15,20)           118.602          calculate D2E/DX2 analytically  !
 ! A36   A(16,15,20)           119.4605         calculate D2E/DX2 analytically  !
 ! A37   A(7,16,11)            119.3227         calculate D2E/DX2 analytically  !
 ! A38   A(7,16,15)            125.1421         calculate D2E/DX2 analytically  !
 ! A39   A(11,16,15)           115.5298         calculate D2E/DX2 analytically  !
 ! A40   A(23,17,33)           126.4842         calculate D2E/DX2 analytically  !
 ! A41   A(23,17,34)           122.4208         calculate D2E/DX2 analytically  !
 ! A42   A(33,17,34)           111.0945         calculate D2E/DX2 analytically  !
 ! A43   A(2,21,7)             105.3981         calculate D2E/DX2 analytically  !
 ! A44   A(23,22,27)           120.329          calculate D2E/DX2 analytically  !
 ! A45   A(23,22,32)           120.0258         calculate D2E/DX2 analytically  !
 ! A46   A(27,22,32)           119.6446         calculate D2E/DX2 analytically  !
 ! A47   A(17,23,22)           117.9382         calculate D2E/DX2 analytically  !
 ! A48   A(17,23,24)           122.3738         calculate D2E/DX2 analytically  !
 ! A49   A(22,23,24)           119.6877         calculate D2E/DX2 analytically  !
 ! A50   A(23,24,25)           120.589          calculate D2E/DX2 analytically  !
 ! A51   A(23,24,28)           119.1085         calculate D2E/DX2 analytically  !
 ! A52   A(25,24,28)           120.297          calculate D2E/DX2 analytically  !
 ! A53   A(24,25,26)           118.5817         calculate D2E/DX2 analytically  !
 ! A54   A(24,25,30)           122.8818         calculate D2E/DX2 analytically  !
 ! A55   A(26,25,30)           118.5288         calculate D2E/DX2 analytically  !
 ! A56   A(25,26,27)           124.3995         calculate D2E/DX2 analytically  !
 ! A57   A(25,26,29)           117.1925         calculate D2E/DX2 analytically  !
 ! A58   A(27,26,29)           118.4077         calculate D2E/DX2 analytically  !
 ! A59   A(22,27,26)           116.37           calculate D2E/DX2 analytically  !
 ! A60   A(22,27,31)           121.0694         calculate D2E/DX2 analytically  !
 ! A61   A(26,27,31)           122.5606         calculate D2E/DX2 analytically  !
 ! A62   A(25,30,59)           109.1996         calculate D2E/DX2 analytically  !
 ! A63   A(25,30,63)           112.5944         calculate D2E/DX2 analytically  !
 ! A64   A(25,30,67)           108.1924         calculate D2E/DX2 analytically  !
 ! A65   A(59,30,63)           108.8294         calculate D2E/DX2 analytically  !
 ! A66   A(59,30,67)           109.2165         calculate D2E/DX2 analytically  !
 ! A67   A(63,30,67)           108.7594         calculate D2E/DX2 analytically  !
 ! A68   A(27,31,71)           111.138          calculate D2E/DX2 analytically  !
 ! A69   A(27,31,75)           109.4505         calculate D2E/DX2 analytically  !
 ! A70   A(27,31,79)           110.1754         calculate D2E/DX2 analytically  !
 ! A71   A(71,31,75)           107.9824         calculate D2E/DX2 analytically  !
 ! A72   A(71,31,79)           107.8825         calculate D2E/DX2 analytically  !
 ! A73   A(75,31,79)           110.175          calculate D2E/DX2 analytically  !
 ! A74   A(22,32,58)           109.0366         calculate D2E/DX2 analytically  !
 ! A75   A(11,33,17)           107.5573         calculate D2E/DX2 analytically  !
 ! A76   A(11,33,35)           121.5606         calculate D2E/DX2 analytically  !
 ! A77   A(17,33,35)           130.8679         calculate D2E/DX2 analytically  !
 ! A78   A(12,34,17)           106.7553         calculate D2E/DX2 analytically  !
 ! A79   A(1,36,7)             107.3611         calculate D2E/DX2 analytically  !
 ! A80   A(1,36,37)            121.8277         calculate D2E/DX2 analytically  !
 ! A81   A(7,36,37)            130.7798         calculate D2E/DX2 analytically  !
 ! A82   A(6,38,39)            115.6292         calculate D2E/DX2 analytically  !
 ! A83   A(6,38,40)            121.3151         calculate D2E/DX2 analytically  !
 ! A84   A(39,38,40)           123.0546         calculate D2E/DX2 analytically  !
 ! A85   A(38,40,41)           118.7645         calculate D2E/DX2 analytically  !
 ! A86   A(40,41,42)           109.6256         calculate D2E/DX2 analytically  !
 ! A87   A(40,41,43)           115.5787         calculate D2E/DX2 analytically  !
 ! A88   A(40,41,44)           105.9023         calculate D2E/DX2 analytically  !
 ! A89   A(42,41,43)           110.4508         calculate D2E/DX2 analytically  !
 ! A90   A(42,41,44)           107.5664         calculate D2E/DX2 analytically  !
 ! A91   A(43,41,44)           107.3083         calculate D2E/DX2 analytically  !
 ! A92   A(41,42,45)           111.3468         calculate D2E/DX2 analytically  !
 ! A93   A(41,42,46)           107.9644         calculate D2E/DX2 analytically  !
 ! A94   A(41,42,47)           109.5466         calculate D2E/DX2 analytically  !
 ! A95   A(45,42,46)           109.8676         calculate D2E/DX2 analytically  !
 ! A96   A(45,42,47)           110.9666         calculate D2E/DX2 analytically  !
 ! A97   A(46,42,47)           107.0076         calculate D2E/DX2 analytically  !
 ! A98   A(41,43,48)           110.3515         calculate D2E/DX2 analytically  !
 ! A99   A(41,43,49)           110.0084         calculate D2E/DX2 analytically  !
 ! A100  A(41,43,50)           109.5391         calculate D2E/DX2 analytically  !
 ! A101  A(48,43,49)           108.8096         calculate D2E/DX2 analytically  !
 ! A102  A(48,43,50)           110.907          calculate D2E/DX2 analytically  !
 ! A103  A(49,43,50)           107.168          calculate D2E/DX2 analytically  !
 ! A104  A(42,45,51)           111.44           calculate D2E/DX2 analytically  !
 ! A105  A(42,45,52)           109.8514         calculate D2E/DX2 analytically  !
 ! A106  A(42,45,53)           109.0639         calculate D2E/DX2 analytically  !
 ! A107  A(51,45,52)           110.4342         calculate D2E/DX2 analytically  !
 ! A108  A(51,45,53)           109.1831         calculate D2E/DX2 analytically  !
 ! A109  A(52,45,53)           106.7422         calculate D2E/DX2 analytically  !
 ! A110  A(43,48,51)           111.2187         calculate D2E/DX2 analytically  !
 ! A111  A(43,48,54)           109.9296         calculate D2E/DX2 analytically  !
 ! A112  A(43,48,55)           109.1298         calculate D2E/DX2 analytically  !
 ! A113  A(51,48,54)           110.4775         calculate D2E/DX2 analytically  !
 ! A114  A(51,48,55)           109.2572         calculate D2E/DX2 analytically  !
 ! A115  A(54,48,55)           106.7115         calculate D2E/DX2 analytically  !
 ! A116  A(45,51,48)           111.2085         calculate D2E/DX2 analytically  !
 ! A117  A(45,51,56)           110.2144         calculate D2E/DX2 analytically  !
 ! A118  A(45,51,57)           109.0557         calculate D2E/DX2 analytically  !
 ! A119  A(48,51,56)           110.2702         calculate D2E/DX2 analytically  !
 ! A120  A(48,51,57)           109.051          calculate D2E/DX2 analytically  !
 ! A121  A(56,51,57)           106.9297         calculate D2E/DX2 analytically  !
 ! A122  A(30,59,60)           112.0497         calculate D2E/DX2 analytically  !
 ! A123  A(30,59,61)           108.9774         calculate D2E/DX2 analytically  !
 ! A124  A(30,59,62)           110.9359         calculate D2E/DX2 analytically  !
 ! A125  A(60,59,61)           107.9543         calculate D2E/DX2 analytically  !
 ! A126  A(60,59,62)           108.3111         calculate D2E/DX2 analytically  !
 ! A127  A(61,59,62)           108.5073         calculate D2E/DX2 analytically  !
 ! A128  A(30,63,64)           111.7384         calculate D2E/DX2 analytically  !
 ! A129  A(30,63,65)           111.7384         calculate D2E/DX2 analytically  !
 ! A130  A(30,63,66)           109.0724         calculate D2E/DX2 analytically  !
 ! A131  A(64,63,65)           108.496          calculate D2E/DX2 analytically  !
 ! A132  A(64,63,66)           107.7189         calculate D2E/DX2 analytically  !
 ! A133  A(65,63,66)           107.9255         calculate D2E/DX2 analytically  !
 ! A134  A(30,67,68)           109.1855         calculate D2E/DX2 analytically  !
 ! A135  A(30,67,69)           111.8889         calculate D2E/DX2 analytically  !
 ! A136  A(30,67,70)           110.7005         calculate D2E/DX2 analytically  !
 ! A137  A(68,67,69)           108.0533         calculate D2E/DX2 analytically  !
 ! A138  A(68,67,70)           108.3841         calculate D2E/DX2 analytically  !
 ! A139  A(69,67,70)           108.5301         calculate D2E/DX2 analytically  !
 ! A140  A(31,71,72)           108.8011         calculate D2E/DX2 analytically  !
 ! A141  A(31,71,73)           111.8095         calculate D2E/DX2 analytically  !
 ! A142  A(31,71,74)           111.9489         calculate D2E/DX2 analytically  !
 ! A143  A(72,71,73)           107.7519         calculate D2E/DX2 analytically  !
 ! A144  A(72,71,74)           107.7887         calculate D2E/DX2 analytically  !
 ! A145  A(73,71,74)           108.5763         calculate D2E/DX2 analytically  !
 ! A146  A(31,75,76)           110.6087         calculate D2E/DX2 analytically  !
 ! A147  A(31,75,77)           111.833          calculate D2E/DX2 analytically  !
 ! A148  A(31,75,78)           109.1556         calculate D2E/DX2 analytically  !
 ! A149  A(76,75,77)           108.6556         calculate D2E/DX2 analytically  !
 ! A150  A(76,75,78)           108.0681         calculate D2E/DX2 analytically  !
 ! A151  A(77,75,78)           108.4218         calculate D2E/DX2 analytically  !
 ! A152  A(31,79,80)           110.5862         calculate D2E/DX2 analytically  !
 ! A153  A(31,79,81)           108.8867         calculate D2E/DX2 analytically  !
 ! A154  A(31,79,82)           111.955          calculate D2E/DX2 analytically  !
 ! A155  A(80,79,81)           108.1366         calculate D2E/DX2 analytically  !
 ! A156  A(80,79,82)           108.723          calculate D2E/DX2 analytically  !
 ! A157  A(81,79,82)           108.4561         calculate D2E/DX2 analytically  !
 ! D1    D(6,1,2,3)              0.0038         calculate D2E/DX2 analytically  !
 ! D2    D(6,1,2,21)           179.6795         calculate D2E/DX2 analytically  !
 ! D3    D(36,1,2,3)          -179.5318         calculate D2E/DX2 analytically  !
 ! D4    D(36,1,2,21)            0.1438         calculate D2E/DX2 analytically  !
 ! D5    D(2,1,6,5)              0.0813         calculate D2E/DX2 analytically  !
 ! D6    D(2,1,6,38)          -179.9165         calculate D2E/DX2 analytically  !
 ! D7    D(36,1,6,5)           179.488          calculate D2E/DX2 analytically  !
 ! D8    D(36,1,6,38)           -0.5098         calculate D2E/DX2 analytically  !
 ! D9    D(2,1,36,7)             0.0033         calculate D2E/DX2 analytically  !
 ! D10   D(2,1,36,37)          178.1738         calculate D2E/DX2 analytically  !
 ! D11   D(6,1,36,7)          -179.4813         calculate D2E/DX2 analytically  !
 ! D12   D(6,1,36,37)           -1.3109         calculate D2E/DX2 analytically  !
 ! D13   D(1,2,3,4)              0.1184         calculate D2E/DX2 analytically  !
 ! D14   D(1,2,3,8)            179.9609         calculate D2E/DX2 analytically  !
 ! D15   D(21,2,3,4)          -179.4768         calculate D2E/DX2 analytically  !
 ! D16   D(21,2,3,8)             0.3658         calculate D2E/DX2 analytically  !
 ! D17   D(1,2,21,7)            -0.2349         calculate D2E/DX2 analytically  !
 ! D18   D(3,2,21,7)           179.3921         calculate D2E/DX2 analytically  !
 ! D19   D(2,3,4,5)             -0.3349         calculate D2E/DX2 analytically  !
 ! D20   D(2,3,4,9)            179.9006         calculate D2E/DX2 analytically  !
 ! D21   D(8,3,4,5)            179.8235         calculate D2E/DX2 analytically  !
 ! D22   D(8,3,4,9)              0.059          calculate D2E/DX2 analytically  !
 ! D23   D(3,4,5,6)              0.4399         calculate D2E/DX2 analytically  !
 ! D24   D(3,4,5,10)          -179.8061         calculate D2E/DX2 analytically  !
 ! D25   D(9,4,5,6)           -179.7944         calculate D2E/DX2 analytically  !
 ! D26   D(9,4,5,10)            -0.0403         calculate D2E/DX2 analytically  !
 ! D27   D(4,5,6,1)             -0.2963         calculate D2E/DX2 analytically  !
 ! D28   D(4,5,6,38)           179.7015         calculate D2E/DX2 analytically  !
 ! D29   D(10,5,6,1)           179.9481         calculate D2E/DX2 analytically  !
 ! D30   D(10,5,6,38)           -0.0541         calculate D2E/DX2 analytically  !
 ! D31   D(1,6,38,39)         -179.1634         calculate D2E/DX2 analytically  !
 ! D32   D(1,6,38,40)            1.1941         calculate D2E/DX2 analytically  !
 ! D33   D(5,6,38,39)            0.8389         calculate D2E/DX2 analytically  !
 ! D34   D(5,6,38,40)         -178.8035         calculate D2E/DX2 analytically  !
 ! D35   D(21,7,16,11)           1.8369         calculate D2E/DX2 analytically  !
 ! D36   D(21,7,16,15)        -179.0464         calculate D2E/DX2 analytically  !
 ! D37   D(36,7,16,11)        -177.5025         calculate D2E/DX2 analytically  !
 ! D38   D(36,7,16,15)           1.6142         calculate D2E/DX2 analytically  !
 ! D39   D(16,7,21,2)         -179.1681         calculate D2E/DX2 analytically  !
 ! D40   D(36,7,21,2)            0.2428         calculate D2E/DX2 analytically  !
 ! D41   D(16,7,36,1)          179.2468         calculate D2E/DX2 analytically  !
 ! D42   D(16,7,36,37)           1.2997         calculate D2E/DX2 analytically  !
 ! D43   D(21,7,36,1)           -0.1582         calculate D2E/DX2 analytically  !
 ! D44   D(21,7,36,37)        -178.1053         calculate D2E/DX2 analytically  !
 ! D45   D(16,11,12,13)          1.2503         calculate D2E/DX2 analytically  !
 ! D46   D(16,11,12,34)       -179.2364         calculate D2E/DX2 analytically  !
 ! D47   D(33,11,12,13)       -178.9202         calculate D2E/DX2 analytically  !
 ! D48   D(33,11,12,34)          0.5931         calculate D2E/DX2 analytically  !
 ! D49   D(12,11,16,7)         177.6247         calculate D2E/DX2 analytically  !
 ! D50   D(12,11,16,15)         -1.5749         calculate D2E/DX2 analytically  !
 ! D51   D(33,11,16,7)          -2.1591         calculate D2E/DX2 analytically  !
 ! D52   D(33,11,16,15)        178.6413         calculate D2E/DX2 analytically  !
 ! D53   D(12,11,33,17)         -0.397          calculate D2E/DX2 analytically  !
 ! D54   D(12,11,33,35)       -179.1662         calculate D2E/DX2 analytically  !
 ! D55   D(16,11,33,17)        179.414          calculate D2E/DX2 analytically  !
 ! D56   D(16,11,33,35)          0.6448         calculate D2E/DX2 analytically  !
 ! D57   D(11,12,13,14)         -0.0611         calculate D2E/DX2 analytically  !
 ! D58   D(11,12,13,18)        179.8017         calculate D2E/DX2 analytically  !
 ! D59   D(34,12,13,14)       -179.4444         calculate D2E/DX2 analytically  !
 ! D60   D(34,12,13,18)          0.4185         calculate D2E/DX2 analytically  !
 ! D61   D(11,12,34,17)         -0.5533         calculate D2E/DX2 analytically  !
 ! D62   D(13,12,34,17)        178.8848         calculate D2E/DX2 analytically  !
 ! D63   D(12,13,14,15)         -0.6951         calculate D2E/DX2 analytically  !
 ! D64   D(12,13,14,19)        179.5357         calculate D2E/DX2 analytically  !
 ! D65   D(18,13,14,15)        179.4433         calculate D2E/DX2 analytically  !
 ! D66   D(18,13,14,19)         -0.3259         calculate D2E/DX2 analytically  !
 ! D67   D(13,14,15,16)          0.3211         calculate D2E/DX2 analytically  !
 ! D68   D(13,14,15,20)       -179.861          calculate D2E/DX2 analytically  !
 ! D69   D(19,14,15,16)       -179.9074         calculate D2E/DX2 analytically  !
 ! D70   D(19,14,15,20)         -0.0896         calculate D2E/DX2 analytically  !
 ! D71   D(14,15,16,7)        -178.3472         calculate D2E/DX2 analytically  !
 ! D72   D(14,15,16,11)          0.7993         calculate D2E/DX2 analytically  !
 ! D73   D(20,15,16,7)           1.8365         calculate D2E/DX2 analytically  !
 ! D74   D(20,15,16,11)       -179.017          calculate D2E/DX2 analytically  !
 ! D75   D(33,17,23,22)        174.0813         calculate D2E/DX2 analytically  !
 ! D76   D(33,17,23,24)         -6.1128         calculate D2E/DX2 analytically  !
 ! D77   D(34,17,23,22)         -5.6538         calculate D2E/DX2 analytically  !
 ! D78   D(34,17,23,24)        174.152          calculate D2E/DX2 analytically  !
 ! D79   D(23,17,33,11)       -179.6969         calculate D2E/DX2 analytically  !
 ! D80   D(23,17,33,35)         -1.0837         calculate D2E/DX2 analytically  !
 ! D81   D(34,17,33,11)          0.0635         calculate D2E/DX2 analytically  !
 ! D82   D(34,17,33,35)        178.6766         calculate D2E/DX2 analytically  !
 ! D83   D(23,17,34,12)       -179.9164         calculate D2E/DX2 analytically  !
 ! D84   D(33,17,34,12)          0.3118         calculate D2E/DX2 analytically  !
 ! D85   D(27,22,23,17)       -178.2959         calculate D2E/DX2 analytically  !
 ! D86   D(27,22,23,24)          1.8929         calculate D2E/DX2 analytically  !
 ! D87   D(32,22,23,17)          1.4136         calculate D2E/DX2 analytically  !
 ! D88   D(32,22,23,24)       -178.3976         calculate D2E/DX2 analytically  !
 ! D89   D(23,22,27,26)         -2.1194         calculate D2E/DX2 analytically  !
 ! D90   D(23,22,27,31)        177.8098         calculate D2E/DX2 analytically  !
 ! D91   D(32,22,27,26)        178.17           calculate D2E/DX2 analytically  !
 ! D92   D(32,22,27,31)         -1.9009         calculate D2E/DX2 analytically  !
 ! D93   D(23,22,32,58)          1.7904         calculate D2E/DX2 analytically  !
 ! D94   D(27,22,32,58)       -178.4981         calculate D2E/DX2 analytically  !
 ! D95   D(17,23,24,25)       -179.8892         calculate D2E/DX2 analytically  !
 ! D96   D(17,23,24,28)         -0.747          calculate D2E/DX2 analytically  !
 ! D97   D(22,23,24,25)         -0.0867         calculate D2E/DX2 analytically  !
 ! D98   D(22,23,24,28)        179.0555         calculate D2E/DX2 analytically  !
 ! D99   D(23,24,25,26)         -1.3595         calculate D2E/DX2 analytically  !
 ! D100  D(23,24,25,30)        177.6122         calculate D2E/DX2 analytically  !
 ! D101  D(28,24,25,26)        179.5085         calculate D2E/DX2 analytically  !
 ! D102  D(28,24,25,30)         -1.5198         calculate D2E/DX2 analytically  !
 ! D103  D(24,25,26,27)          1.0913         calculate D2E/DX2 analytically  !
 ! D104  D(24,25,26,29)       -179.1444         calculate D2E/DX2 analytically  !
 ! D105  D(30,25,26,27)       -177.9258         calculate D2E/DX2 analytically  !
 ! D106  D(30,25,26,29)          1.8385         calculate D2E/DX2 analytically  !
 ! D107  D(24,25,30,59)        122.4237         calculate D2E/DX2 analytically  !
 ! D108  D(24,25,30,63)          1.4206         calculate D2E/DX2 analytically  !
 ! D109  D(24,25,30,67)       -118.8057         calculate D2E/DX2 analytically  !
 ! D110  D(26,25,30,59)        -58.6041         calculate D2E/DX2 analytically  !
 ! D111  D(26,25,30,63)       -179.6072         calculate D2E/DX2 analytically  !
 ! D112  D(26,25,30,67)         60.1665         calculate D2E/DX2 analytically  !
 ! D113  D(25,26,27,22)          0.6599         calculate D2E/DX2 analytically  !
 ! D114  D(25,26,27,31)       -179.2681         calculate D2E/DX2 analytically  !
 ! D115  D(29,26,27,22)       -179.1018         calculate D2E/DX2 analytically  !
 ! D116  D(29,26,27,31)          0.9703         calculate D2E/DX2 analytically  !
 ! D117  D(22,27,31,71)       -179.4755         calculate D2E/DX2 analytically  !
 ! D118  D(22,27,31,75)        -60.2947         calculate D2E/DX2 analytically  !
 ! D119  D(22,27,31,79)         60.9995         calculate D2E/DX2 analytically  !
 ! D120  D(26,27,31,71)          0.4491         calculate D2E/DX2 analytically  !
 ! D121  D(26,27,31,75)        119.6299         calculate D2E/DX2 analytically  !
 ! D122  D(26,27,31,79)       -119.0758         calculate D2E/DX2 analytically  !
 ! D123  D(25,30,59,60)         58.6916         calculate D2E/DX2 analytically  !
 ! D124  D(25,30,59,61)        178.097          calculate D2E/DX2 analytically  !
 ! D125  D(25,30,59,62)        -62.4991         calculate D2E/DX2 analytically  !
 ! D126  D(63,30,59,60)       -178.0386         calculate D2E/DX2 analytically  !
 ! D127  D(63,30,59,61)        -58.6332         calculate D2E/DX2 analytically  !
 ! D128  D(63,30,59,62)         60.7707         calculate D2E/DX2 analytically  !
 ! D129  D(67,30,59,60)        -59.439          calculate D2E/DX2 analytically  !
 ! D130  D(67,30,59,61)         59.9664         calculate D2E/DX2 analytically  !
 ! D131  D(67,30,59,62)        179.3703         calculate D2E/DX2 analytically  !
 ! D132  D(25,30,63,64)        -61.087          calculate D2E/DX2 analytically  !
 ! D133  D(25,30,63,65)         60.6927         calculate D2E/DX2 analytically  !
 ! D134  D(25,30,63,66)        179.9311         calculate D2E/DX2 analytically  !
 ! D135  D(59,30,63,64)        177.6985         calculate D2E/DX2 analytically  !
 ! D136  D(59,30,63,65)        -60.5219         calculate D2E/DX2 analytically  !
 ! D137  D(59,30,63,66)         58.7165         calculate D2E/DX2 analytically  !
 ! D138  D(67,30,63,64)         58.812          calculate D2E/DX2 analytically  !
 ! D139  D(67,30,63,65)       -179.4083         calculate D2E/DX2 analytically  !
 ! D140  D(67,30,63,66)        -60.1699         calculate D2E/DX2 analytically  !
 ! D141  D(25,30,67,68)       -178.45           calculate D2E/DX2 analytically  !
 ! D142  D(25,30,67,69)        -58.8846         calculate D2E/DX2 analytically  !
 ! D143  D(25,30,67,70)         62.3103         calculate D2E/DX2 analytically  !
 ! D144  D(59,30,67,68)        -59.6902         calculate D2E/DX2 analytically  !
 ! D145  D(59,30,67,69)         59.8752         calculate D2E/DX2 analytically  !
 ! D146  D(59,30,67,70)       -178.9299         calculate D2E/DX2 analytically  !
 ! D147  D(63,30,67,68)         58.953          calculate D2E/DX2 analytically  !
 ! D148  D(63,30,67,69)        178.5184         calculate D2E/DX2 analytically  !
 ! D149  D(63,30,67,70)        -60.2866         calculate D2E/DX2 analytically  !
 ! D150  D(27,31,71,72)        177.8396         calculate D2E/DX2 analytically  !
 ! D151  D(27,31,71,73)        -63.2692         calculate D2E/DX2 analytically  !
 ! D152  D(27,31,71,74)         58.8175         calculate D2E/DX2 analytically  !
 ! D153  D(75,31,71,72)         57.7838         calculate D2E/DX2 analytically  !
 ! D154  D(75,31,71,73)        176.675          calculate D2E/DX2 analytically  !
 ! D155  D(75,31,71,74)        -61.2383         calculate D2E/DX2 analytically  !
 ! D156  D(79,31,71,72)        -61.2768         calculate D2E/DX2 analytically  !
 ! D157  D(79,31,71,73)         57.6144         calculate D2E/DX2 analytically  !
 ! D158  D(79,31,71,74)        179.7011         calculate D2E/DX2 analytically  !
 ! D159  D(27,31,75,76)        -59.2152         calculate D2E/DX2 analytically  !
 ! D160  D(27,31,75,77)         62.0375         calculate D2E/DX2 analytically  !
 ! D161  D(27,31,75,78)       -177.9921         calculate D2E/DX2 analytically  !
 ! D162  D(71,31,75,76)         61.8965         calculate D2E/DX2 analytically  !
 ! D163  D(71,31,75,77)       -176.8508         calculate D2E/DX2 analytically  !
 ! D164  D(71,31,75,78)        -56.8805         calculate D2E/DX2 analytically  !
 ! D165  D(79,31,75,76)        179.4903         calculate D2E/DX2 analytically  !
 ! D166  D(79,31,75,77)        -59.257          calculate D2E/DX2 analytically  !
 ! D167  D(79,31,75,78)         60.7133         calculate D2E/DX2 analytically  !
 ! D168  D(27,31,79,80)         59.7582         calculate D2E/DX2 analytically  !
 ! D169  D(27,31,79,81)        178.4395         calculate D2E/DX2 analytically  !
 ! D170  D(27,31,79,82)        -61.6486         calculate D2E/DX2 analytically  !
 ! D171  D(71,31,79,80)        -61.725          calculate D2E/DX2 analytically  !
 ! D172  D(71,31,79,81)         56.9563         calculate D2E/DX2 analytically  !
 ! D173  D(71,31,79,82)        176.8682         calculate D2E/DX2 analytically  !
 ! D174  D(75,31,79,80)       -179.3806         calculate D2E/DX2 analytically  !
 ! D175  D(75,31,79,81)        -60.6993         calculate D2E/DX2 analytically  !
 ! D176  D(75,31,79,82)         59.2126         calculate D2E/DX2 analytically  !
 ! D177  D(6,38,40,41)         177.3146         calculate D2E/DX2 analytically  !
 ! D178  D(39,38,40,41)         -2.3007         calculate D2E/DX2 analytically  !
 ! D179  D(38,40,41,42)        -81.3857         calculate D2E/DX2 analytically  !
 ! D180  D(38,40,41,43)         44.2018         calculate D2E/DX2 analytically  !
 ! D181  D(38,40,41,44)        162.8438         calculate D2E/DX2 analytically  !
 ! D182  D(40,41,42,45)       -175.1495         calculate D2E/DX2 analytically  !
 ! D183  D(40,41,42,46)         64.1667         calculate D2E/DX2 analytically  !
 ! D184  D(40,41,42,47)        -52.027          calculate D2E/DX2 analytically  !
 ! D185  D(43,41,42,45)         56.3744         calculate D2E/DX2 analytically  !
 ! D186  D(43,41,42,46)        -64.3093         calculate D2E/DX2 analytically  !
 ! D187  D(43,41,42,47)        179.497          calculate D2E/DX2 analytically  !
 ! D188  D(44,41,42,45)        -60.4404         calculate D2E/DX2 analytically  !
 ! D189  D(44,41,42,46)        178.8758         calculate D2E/DX2 analytically  !
 ! D190  D(44,41,42,47)         62.6821         calculate D2E/DX2 analytically  !
 ! D191  D(40,41,43,48)        177.479          calculate D2E/DX2 analytically  !
 ! D192  D(40,41,43,49)        -62.4515         calculate D2E/DX2 analytically  !
 ! D193  D(40,41,43,50)         55.1007         calculate D2E/DX2 analytically  !
 ! D194  D(42,41,43,48)        -57.3574         calculate D2E/DX2 analytically  !
 ! D195  D(42,41,43,49)         62.7121         calculate D2E/DX2 analytically  !
 ! D196  D(42,41,43,50)       -179.7357         calculate D2E/DX2 analytically  !
 ! D197  D(44,41,43,48)         59.6172         calculate D2E/DX2 analytically  !
 ! D198  D(44,41,43,49)        179.6868         calculate D2E/DX2 analytically  !
 ! D199  D(44,41,43,50)        -62.761          calculate D2E/DX2 analytically  !
 ! D200  D(41,42,45,51)        -54.873          calculate D2E/DX2 analytically  !
 ! D201  D(41,42,45,52)       -177.595          calculate D2E/DX2 analytically  !
 ! D202  D(41,42,45,53)         65.7382         calculate D2E/DX2 analytically  !
 ! D203  D(46,42,45,51)         64.6866         calculate D2E/DX2 analytically  !
 ! D204  D(46,42,45,52)        -58.0354         calculate D2E/DX2 analytically  !
 ! D205  D(46,42,45,53)       -174.7023         calculate D2E/DX2 analytically  !
 ! D206  D(47,42,45,51)       -177.1797         calculate D2E/DX2 analytically  !
 ! D207  D(47,42,45,52)         60.0983         calculate D2E/DX2 analytically  !
 ! D208  D(47,42,45,53)        -56.5685         calculate D2E/DX2 analytically  !
 ! D209  D(41,43,48,51)         57.3551         calculate D2E/DX2 analytically  !
 ! D210  D(41,43,48,54)       -179.964          calculate D2E/DX2 analytically  !
 ! D211  D(41,43,48,55)        -63.2516         calculate D2E/DX2 analytically  !
 ! D212  D(49,43,48,51)        -63.4335         calculate D2E/DX2 analytically  !
 ! D213  D(49,43,48,54)         59.2473         calculate D2E/DX2 analytically  !
 ! D214  D(49,43,48,55)        175.9598         calculate D2E/DX2 analytically  !
 ! D215  D(50,43,48,51)        178.9262         calculate D2E/DX2 analytically  !
 ! D216  D(50,43,48,54)        -58.393          calculate D2E/DX2 analytically  !
 ! D217  D(50,43,48,55)         58.3194         calculate D2E/DX2 analytically  !
 ! D218  D(42,45,51,48)         54.3499         calculate D2E/DX2 analytically  !
 ! D219  D(42,45,51,56)        176.9582         calculate D2E/DX2 analytically  !
 ! D220  D(42,45,51,57)        -65.9455         calculate D2E/DX2 analytically  !
 ! D221  D(52,45,51,48)        176.7371         calculate D2E/DX2 analytically  !
 ! D222  D(52,45,51,56)        -60.6546         calculate D2E/DX2 analytically  !
 ! D223  D(52,45,51,57)         56.4417         calculate D2E/DX2 analytically  !
 ! D224  D(53,45,51,48)        -66.1913         calculate D2E/DX2 analytically  !
 ! D225  D(53,45,51,56)         56.4169         calculate D2E/DX2 analytically  !
 ! D226  D(53,45,51,57)        173.5133         calculate D2E/DX2 analytically  !
 ! D227  D(43,48,51,45)        -55.7771         calculate D2E/DX2 analytically  !
 ! D228  D(43,48,51,56)       -178.3531         calculate D2E/DX2 analytically  !
 ! D229  D(43,48,51,57)         64.5211         calculate D2E/DX2 analytically  !
 ! D230  D(54,48,51,45)       -178.1417         calculate D2E/DX2 analytically  !
 ! D231  D(54,48,51,56)         59.2823         calculate D2E/DX2 analytically  !
 ! D232  D(54,48,51,57)        -57.8435         calculate D2E/DX2 analytically  !
 ! D233  D(55,48,51,45)         64.7546         calculate D2E/DX2 analytically  !
 ! D234  D(55,48,51,56)        -57.8215         calculate D2E/DX2 analytically  !
 ! D235  D(55,48,51,57)       -174.9472         calculate D2E/DX2 analytically  !
 --------------------------------------------------------------------------------
 Trust Radius=3.00D-01 FncErr=5.00D-06 GrdErr=5.00D-06 EigMax=2.50D+02 EigMin=1.00D-04
 Number of steps in this run=    489 maximum allowed number of steps=    492.
 Search for a saddle point of order  1.
 GradGradGradGradGradGradGradGradGradGradGradGradGradGradGradGradGradGrad

 Leave Link  103 at Fri Dec 21 14:10:38 2018, MaxMem=  1342177280 cpu:               0.7 elap:               0.1
 (Enter /gpfs/apps/hpc/Apps/Restricted/Gaussian/Rev_A.03/g16/l202.exe)
 Symmetry turned off by external request.
 Stoichiometry    C35H41N5O(1+,2)
 Framework group  C1[X(C35H41N5O)]
 Deg. of freedom   240
 Full point group                 C1      NOp   1
                          Input orientation:                          
 ---------------------------------------------------------------------
 Center     Atomic      Atomic             Coordinates (Angstroms)
 Number     Number       Type             X           Y           Z
 ---------------------------------------------------------------------
      1          6           0        1.633350    1.237324    0.230952
      2          6           0        0.406923    1.935607    0.153662
      3          6           0        0.410015    3.331648    0.028175
      4          6           0        1.643007    3.977431   -0.017863
      5          6           0        2.853713    3.265510    0.064979
      6          6           0        2.884154    1.872232    0.188737
      7          6           0       -0.070738   -0.167397    0.320057
      8          1           0       -0.519289    3.884904   -0.033198
      9          1           0        1.675999    5.056040   -0.116162
     10          1           0        3.792957    3.806505    0.028454
     11          6           0       -2.225057   -1.371225    0.317510
     12          6           0       -3.032496   -2.541774    0.333197
     13          6           0       -2.437321   -3.807552    0.455814
     14          6           0       -1.055336   -3.848074    0.556488
     15          6           0       -0.260269   -2.679064    0.524139
     16          6           0       -0.821027   -1.409006    0.395049
     17          6           0       -4.355401   -0.820855    0.159684
     18          1           0       -3.038438   -4.707084    0.472487
     19          1           0       -0.558507   -4.804615    0.660173
     20          1           0        0.815302   -2.780908    0.605495
     21          7           0       -0.642341    1.031878    0.215079
     22          6           0       -6.818189   -0.801049   -0.131523
     23          6           0       -5.570838   -0.065621    0.042393
     24          6           0       -5.591904    1.324373    0.093181
     25          6           0       -6.794338    2.020378   -0.022479
     26          6           0       -7.999393    1.276023   -0.223698
     27          6           0       -8.062875   -0.094370   -0.291251
     28          1           0       -4.663763    1.859462    0.237811
     29          1           0       -8.915616    1.838256   -0.324427
     30          6           0       -6.884482    3.533811    0.078438
     31          6           0       -9.374041   -0.847392   -0.524402
     32          8           0       -6.809974   -2.104073   -0.148693
     33          7           0       -3.085250   -0.314984    0.213861
     34          7           0       -4.344701   -2.162023    0.225935
     35          1           0       -2.747940    0.644666    0.170052
     36          7           0        1.298293   -0.088793    0.335388
     37          1           0        2.003202   -0.816744    0.379284
     38          6           0        4.133165    1.119539    0.269368
     39          1           0        5.048994    1.717797    0.241110
     40          7           0        4.135820   -0.158973    0.359694
     41          6           0        5.424435   -0.863615    0.377316
     42          6           0        5.946202   -1.022732   -1.061527
     43          6           0        6.506836   -0.244721    1.275620
     44          1           0        5.212836   -1.867233    0.765555
     45          6           0        7.230346   -1.857912   -1.100025
     46          1           0        6.140961   -0.020578   -1.463650
     47          1           0        5.167878   -1.472312   -1.685583
     48          6           0        7.775495   -1.106289    1.253034
     49          1           0        6.756916    0.761521    0.922219
     50          1           0        6.122205   -0.142757    2.294837
     51          6           0        8.305465   -1.275770   -0.174752
     52          1           0        7.602859   -1.919624   -2.127163
     53          1           0        7.000442   -2.883372   -0.785081
     54          1           0        8.541035   -0.659890    1.895082
     55          1           0        7.547207   -2.093592    1.673890
     56          1           0        9.192711   -1.916150   -0.176262
     57          1           0        8.617414   -0.296698   -0.559571
     58          1           0       -5.832357   -2.441015    0.005972
     59          6           0       -7.518559    4.092689   -1.215712
     60          1           0       -8.514107    3.682119   -1.394727
     61          1           0       -7.612864    5.177736   -1.125410
     62          1           0       -6.894369    3.870007   -2.083813
     63          6           0       -5.515127    4.193286    0.283514
     64          1           0       -5.040489    3.860932    1.210223
     65          1           0       -4.836801    3.984625   -0.547660
     66          1           0       -5.646141    5.275230    0.346793
     67          6           0       -7.790514    3.884360    1.281686
     68          1           0       -7.889013    4.970237    1.352661
     69          1           0       -8.790717    3.460185    1.175181
     70          1           0       -7.354794    3.516372    2.213209
     71          6           0      -10.552531    0.126081   -0.675724
     72          1           0      -11.459093   -0.447670   -0.878270
     73          1           0      -10.721103    0.704781    0.236525
     74          1           0      -10.404472    0.820826   -1.506421
     75          6           0       -9.268203   -1.674182   -1.825414
     76          1           0       -9.063597   -1.023420   -2.679148
     77          1           0       -8.482614   -2.426570   -1.764565
     78          1           0      -10.219341   -2.181711   -2.006257
     79          6           0       -9.675963   -1.775317    0.673622
     80          1           0       -9.763093   -1.195902    1.596004
     81          1           0      -10.629077   -2.280996    0.498118
     82          1           0       -8.904086   -2.531495    0.807488
 ---------------------------------------------------------------------
 Rotational constants (GHZ):           0.1774796           0.0304347           0.0266209
 Leave Link  202 at Fri Dec 21 14:10:38 2018, MaxMem=  1342177280 cpu:               0.2 elap:               0.0
 (Enter /gpfs/apps/hpc/Apps/Restricted/Gaussian/Rev_A.03/g16/l301.exe)
 Standard basis: 6-31G(d,p) (6D, 7F)
 Ernie: Thresh=  0.10000D-02 Tol=  0.10000D-05 Strict=F.
   820 basis functions,  1435 primitive gaussians,   820 cartesian basis functions
   147 alpha electrons      146 beta electrons
       nuclear repulsion energy      4410.4962890855 Hartrees.
 IExCor=  402 DFT=T Ex+Corr=B3LYP ExCW=0 ScaHFX=  0.200000
 ScaDFX=  0.800000  0.720000  1.000000  0.810000 ScalE2=  1.000000  1.000000
 IRadAn=      5 IRanWt=     -1 IRanGd=            0 ICorTp=0 IEmpDi=141
 NAtoms=   82 NActive=   82 NUniq=   82 SFac= 1.00D+00 NAtFMM=   60 NAOKFM=T Big=T
 Integral buffers will be    131072 words long.
 Raffenetti 2 integral format.
 Two-electron integral symmetry is turned off.
 R6Disp:  Grimme-D3(BJ) Dispersion energy=       -0.1855484428 Hartrees.
 Nuclear repulsion after empirical dispersion term =     4410.3107406427 Hartrees.
 Force inversion solution in PCM.
 Using the following non-standard input for PCM:
 radii=bondi
 dis
 rep
 cav
 --- end of non-standard input.
 Force inversion solution in PCM.
 ------------------------------------------------------------------------------
 Polarizable Continuum Model (PCM)
 =================================
 Model                : C-PCM.
 Atomic radii         : Bondi.
 Polarization charges : Total charges.
 Charge compensation  : None.
 Solution method      : Matrix inversion.
 Cavity type          : Scaled VdW (van der Waals Surface) (Alpha=1.100).
 Cavity algorithm     : GePol (No added spheres)
                        Default sphere list used, NSphG=   82.
                        Lebedev-Laikov grids with approx.  5.0 points / Ang**2.
                        Smoothing algorithm: York/Karplus (Gamma=1.0000).
                        Polarization charges: spherical gaussians, with
                                              point-specific exponents (IZeta= 3).
                        Self-potential: point-specific (ISelfS= 7).
                        Self-field    : sphere-specific E.n sum rule (ISelfD= 2).
 1st derivatives      : Analytical E(r).r(x)/FMM algorithm (CHGder, D1EAlg=3).
                        Cavity 1st derivative terms included.
 2nd derivatives      : Analytical E(r).r(xy)/FMM algorithm (CHGder, D2EAlg=3).
                        Cavity 2nd derivative terms included.
 Solvent              : Dichloromethane, Eps=   8.930000 Eps(inf)=   2.028346
 ------------------------------------------------------------------------------
 GePol: Number of generator spheres                  =      82
 GePol: Total number of spheres                      =      82
 GePol: Number of exposed spheres                    =      82 (100.00%)
 GePol: Number of points                             =    5273
 GePol: Average weight of points                     =       0.12
 GePol: Minimum weight of points                     =   0.21D-11
 GePol: Maximum weight of points                     =    0.21770
 GePol: Number of points with low weight             =     360
 GePol: Fraction of low-weight points (<1% of avg)   =       6.83%
 GePol: Cavity surface area                          =    624.302 Ang**2
 GePol: Cavity volume                                =    611.964 Ang**3
 PCM non-electrostatic energy =         0.0287025320 Hartrees.
 Nuclear repulsion after PCM non-electrostatic terms =     4410.3394431747 Hartrees.
 Leave Link  301 at Fri Dec 21 14:10:38 2018, MaxMem=  1342177280 cpu:               8.1 elap:               0.5
 (Enter /gpfs/apps/hpc/Apps/Restricted/Gaussian/Rev_A.03/g16/l302.exe)
 NPDir=0 NMtPBC=     1 NCelOv=     1 NCel=       1 NClECP=     1 NCelD=      1
         NCelK=      1 NCelE2=     1 NClLst=     1 CellRange=     0.0.
 One-electron integrals computed using PRISM.
 NBasis=   820 RedAO= T EigKep=  2.76D-04  NBF=   820
 NBsUse=   820 1.00D-06 EigRej= -1.00D+00 NBFU=   820
 Precomputing XC quadrature grid using
 IXCGrd= 4 IRadAn=           5 IRanWt=          -1 IRanGd=           0 AccXCQ= 0.00D+00.
 Generated NRdTot=       0 NPtTot=           0 NUsed=           0 NTot=          32
 NSgBfM=   744   744   744   744   744 MxSgAt=    82 MxSgA2=    82.
 Leave Link  302 at Fri Dec 21 14:10:41 2018, MaxMem=  1342177280 cpu:              36.3 elap:               2.3
 (Enter /gpfs/apps/hpc/Apps/Restricted/Gaussian/Rev_A.03/g16/l303.exe)
 DipDrv:  MaxL=1.
 Leave Link  303 at Fri Dec 21 14:10:41 2018, MaxMem=  1342177280 cpu:               2.4 elap:               0.2
 (Enter /gpfs/apps/hpc/Apps/Restricted/Gaussian/Rev_A.03/g16/l401.exe)
 ExpMin= 1.61D-01 ExpMax= 5.48D+03 ExpMxC= 8.25D+02 IAcc=3 IRadAn=         5 AccDes= 0.00D+00
 Harris functional with IExCor=  402 and IRadAn=       5 diagonalized for initial guess.
 HarFok:  IExCor=  402 AccDes= 0.00D+00 IRadAn=         5 IDoV= 1 UseB2=F ITyADJ=14
 ICtDFT=  3500011 ScaDFX=  1.000000  1.000000  1.000000  1.000000
 FoFCou: FMM=F IPFlag=           0 FMFlag=      100000 FMFlg1=        2001
         NFxFlg=           0 DoJE=T BraDBF=F KetDBF=T FulRan=T
         wScrn=  0.000000 ICntrl=       500 IOpCl=  0 I1Cent=   200000004 NGrid=           0
         NMat0=    1 NMatS0=      1 NMatT0=    0 NMatD0=    1 NMtDS0=    0 NMtDT0=    0
 Symmetry not used in FoFCou.
 Harris En= -1707.45533321497    
 JPrj=0 DoOrth=F DoCkMO=F.
 Initial guess <Sx>= 0.0000 <Sy>= 0.0000 <Sz>= 0.5000 <S**2>= 0.7500 S= 0.5000
 Leave Link  401 at Fri Dec 21 14:10:48 2018, MaxMem=  1342177280 cpu:             114.9 elap:               7.2
 (Enter /gpfs/apps/hpc/Apps/Restricted/Gaussian/Rev_A.03/g16/l502.exe)
 Two-electron integral symmetry not used.
 UHF open shell SCF:
 Using DIIS extrapolation, IDIIS=  1040.
 NGot=  1342177280 LenX=  1340812546 LenY=  1340139326
 Requested convergence on RMS density matrix=1.00D-08 within 128 cycles.
 Requested convergence on MAX density matrix=1.00D-06.
 Requested convergence on             energy=1.00D-06.
 No special actions if energy rises.
 Fock matrices will be formed incrementally for  20 cycles.

 Cycle   1  Pass 1  IDiag  1:
 FoFJK:  IHMeth= 1 ICntrl=       0 DoSepK=F KAlg= 0 I1Cent=           0 FoldK=F
 IRaf= 620000000 NMat=       1 IRICut=       1 DoRegI=T DoRafI=F ISym2E= 0 IDoP0=0 IntGTp=1.
 FoFCou: FMM=T IPFlag=           0 FMFlag=      100000 FMFlg1=        2001
         NFxFlg=           0 DoJE=F BraDBF=F KetDBF=F FulRan=T
         wScrn=  0.000000 ICntrl=         0 IOpCl=  1 I1Cent=           0 NGrid=           0
         NMat0=    1 NMatS0=      1 NMatT0=    0 NMatD0=    1 NMtDS0=    0 NMtDT0=    0
 Symmetry not used in FoFCou.
 FMM levels:  10  Number of levels for PrismC:   9
 Inv3:  Mode=1 IEnd=    83413587.
 Iteration    1 A*A^-1 deviation from unit magnitude is 1.63D-14 for    651.
 Iteration    1 A*A^-1 deviation from orthogonality  is 3.79D-15 for   5254   5193.
 Iteration    1 A^-1*A deviation from unit magnitude is 1.32D-14 for    651.
 Iteration    1 A^-1*A deviation from orthogonality  is 2.40D-15 for   4306   3578.
 E= -1706.57877520929    
 DIIS: error= 2.94D-02 at cycle   1 NSaved=   1.
 NSaved= 1 IEnMin= 1 EnMin= -1706.57877520929     IErMin= 1 ErrMin= 2.94D-02
 ErrMax= 2.94D-02  0.00D+00 EMaxC= 1.00D-01 BMatC= 3.63D+00 BMatP= 3.63D+00
 IDIUse=3 WtCom= 7.06D-01 WtEn= 2.94D-01
 Coeff-Com:  0.100D+01
 Coeff-En:   0.100D+01
 Coeff:      0.100D+01
 Gap=     0.180 Goal=   None    Shift=    0.000
 Gap=     0.015 Goal=   None    Shift=    0.000
 GapD=    0.015 DampG=0.250 DampE=0.500 DampFc=0.2500 IDamp=-1.
 Damping current iteration by 2.50D-01
 RMSDP=2.84D-03 MaxDP=1.53D-01              OVMax= 3.10D-01

 Cycle   2  Pass 1  IDiag  1:
 RMSU=  6.86D-04    CP:  9.84D-01
 E= -1706.92359087045     Delta-E=       -0.344815661168 Rises=F Damp=T
 DIIS: error= 1.65D-02 at cycle   2 NSaved=   2.
 NSaved= 2 IEnMin= 2 EnMin= -1706.92359087045     IErMin= 2 ErrMin= 1.65D-02
 ErrMax= 1.65D-02  0.00D+00 EMaxC= 1.00D-01 BMatC= 9.77D-01 BMatP= 3.63D+00
 IDIUse=3 WtCom= 8.35D-01 WtEn= 1.65D-01
 Coeff-Com: -0.860D+00 0.186D+01
 Coeff-En:   0.000D+00 0.100D+01
 Coeff:     -0.717D+00 0.172D+01
 Gap=     0.172 Goal=   None    Shift=    0.000
 Gap=     0.041 Goal=   None    Shift=    0.000
 RMSDP=1.11D-03 MaxDP=7.57D-02 DE=-3.45D-01 OVMax= 2.90D-01

 Cycle   3  Pass 1  IDiag  1:
 RMSU=  7.65D-04    CP:  9.51D-01  2.05D+00
 E= -1707.50454285043     Delta-E=       -0.580951979980 Rises=F Damp=F
 DIIS: error= 4.65D-03 at cycle   3 NSaved=   3.
 NSaved= 3 IEnMin= 3 EnMin= -1707.50454285043     IErMin= 3 ErrMin= 4.65D-03
 ErrMax= 4.65D-03  0.00D+00 EMaxC= 1.00D-01 BMatC= 1.21D-01 BMatP= 9.77D-01
 IDIUse=3 WtCom= 9.54D-01 WtEn= 4.65D-02
 Coeff-Com: -0.325D+00 0.708D+00 0.618D+00
 Coeff-En:   0.000D+00 0.000D+00 0.100D+01
 Coeff:     -0.310D+00 0.675D+00 0.636D+00
 Gap=     0.143 Goal=   None    Shift=    0.000
 Gap=     0.036 Goal=   None    Shift=    0.000
 RMSDP=3.75D-04 MaxDP=3.56D-02 DE=-5.81D-01 OVMax= 1.21D-01

 Cycle   4  Pass 1  IDiag  1:
 RMSU=  3.01D-04    CP:  9.54D-01  2.08D+00  7.12D-01
 E= -1707.52529977421     Delta-E=       -0.020756923773 Rises=F Damp=F
 DIIS: error= 3.29D-03 at cycle   4 NSaved=   4.
 NSaved= 4 IEnMin= 4 EnMin= -1707.52529977421     IErMin= 4 ErrMin= 3.29D-03
 ErrMax= 3.29D-03  0.00D+00 EMaxC= 1.00D-01 BMatC= 4.79D-02 BMatP= 1.21D-01
 IDIUse=3 WtCom= 9.67D-01 WtEn= 3.29D-02
 Coeff-Com: -0.492D-01 0.120D+00 0.384D+00 0.545D+00
 Coeff-En:   0.000D+00 0.000D+00 0.283D+00 0.717D+00
 Coeff:     -0.476D-01 0.116D+00 0.381D+00 0.550D+00
 Gap=     0.141 Goal=   None    Shift=    0.000
 Gap=     0.036 Goal=   None    Shift=    0.000
 RMSDP=1.60D-04 MaxDP=1.74D-02 DE=-2.08D-02 OVMax= 3.66D-02

 Cycle   5  Pass 1  IDiag  1:
 RMSU=  9.17D-05    CP:  9.54D-01  2.04D+00  7.97D-01  6.30D-01
 E= -1707.53677286428     Delta-E=       -0.011473090077 Rises=F Damp=F
 DIIS: error= 7.00D-04 at cycle   5 NSaved=   5.
 NSaved= 5 IEnMin= 5 EnMin= -1707.53677286428     IErMin= 5 ErrMin= 7.00D-04
 ErrMax= 7.00D-04  0.00D+00 EMaxC= 1.00D-01 BMatC= 3.05D-03 BMatP= 4.79D-02
 IDIUse=3 WtCom= 9.93D-01 WtEn= 7.00D-03
 Coeff-Com:  0.302D-02 0.106D-02 0.149D+00 0.285D+00 0.562D+00
 Coeff-En:   0.000D+00 0.000D+00 0.000D+00 0.000D+00 0.100D+01
 Coeff:      0.300D-02 0.105D-02 0.148D+00 0.283D+00 0.565D+00
 Gap=     0.141 Goal=   None    Shift=    0.000
 Gap=     0.038 Goal=   None    Shift=    0.000
 RMSDP=5.07D-05 MaxDP=6.24D-03 DE=-1.15D-02 OVMax= 2.03D-02

 Cycle   6  Pass 1  IDiag  1:
 RMSU=  3.77D-05    CP:  9.53D-01  2.05D+00  8.05D-01  6.83D-01  6.85D-01
 E= -1707.53755115968     Delta-E=       -0.000778295402 Rises=F Damp=F
 DIIS: error= 2.37D-04 at cycle   6 NSaved=   6.
 NSaved= 6 IEnMin= 6 EnMin= -1707.53755115968     IErMin= 6 ErrMin= 2.37D-04
 ErrMax= 2.37D-04  0.00D+00 EMaxC= 1.00D-01 BMatC= 2.95D-04 BMatP= 3.05D-03
 IDIUse=3 WtCom= 9.98D-01 WtEn= 2.37D-03
 Coeff-Com:  0.520D-02-0.801D-02 0.478D-01 0.968D-01 0.295D+00 0.563D+00
 Coeff-En:   0.000D+00 0.000D+00 0.000D+00 0.000D+00 0.000D+00 0.100D+01
 Coeff:      0.518D-02-0.799D-02 0.477D-01 0.966D-01 0.294D+00 0.564D+00
 Gap=     0.141 Goal=   None    Shift=    0.000
 Gap=     0.038 Goal=   None    Shift=    0.000
 RMSDP=1.71D-05 MaxDP=1.71D-03 DE=-7.78D-04 OVMax= 1.05D-02

 Cycle   7  Pass 1  IDiag  1:
 RMSU=  1.40D-05    CP:  9.53D-01  2.05D+00  8.05D-01  6.92D-01  7.84D-01
                    CP:  1.05D+00
 E= -1707.53765287624     Delta-E=       -0.000101716555 Rises=F Damp=F
 DIIS: error= 1.54D-04 at cycle   7 NSaved=   7.
 NSaved= 7 IEnMin= 7 EnMin= -1707.53765287624     IErMin= 7 ErrMin= 1.54D-04
 ErrMax= 1.54D-04  0.00D+00 EMaxC= 1.00D-01 BMatC= 5.23D-05 BMatP= 2.95D-04
 IDIUse=3 WtCom= 9.98D-01 WtEn= 1.54D-03
 Coeff-Com:  0.232D-02-0.445D-02-0.232D-02-0.793D-02 0.525D-01 0.262D+00
 Coeff-Com:  0.698D+00
 Coeff-En:   0.000D+00 0.000D+00 0.000D+00 0.000D+00 0.000D+00 0.000D+00
 Coeff-En:   0.100D+01
 Coeff:      0.232D-02-0.444D-02-0.231D-02-0.792D-02 0.524D-01 0.261D+00
 Coeff:      0.699D+00
 Gap=     0.141 Goal=   None    Shift=    0.000
 Gap=     0.038 Goal=   None    Shift=    0.000
 RMSDP=1.35D-05 MaxDP=1.35D-03 DE=-1.02D-04 OVMax= 1.02D-02

 Cycle   8  Pass 1  IDiag  1:
 RMSU=  7.31D-06    CP:  9.53D-01  2.05D+00  8.05D-01  7.03D-01  8.32D-01
                    CP:  1.30D+00  1.17D+00
 E= -1707.53769531078     Delta-E=       -0.000042434536 Rises=F Damp=F
 DIIS: error= 1.06D-04 at cycle   8 NSaved=   8.
 NSaved= 8 IEnMin= 8 EnMin= -1707.53769531078     IErMin= 8 ErrMin= 1.06D-04
 ErrMax= 1.06D-04  0.00D+00 EMaxC= 1.00D-01 BMatC= 1.76D-05 BMatP= 5.23D-05
 IDIUse=3 WtCom= 9.99D-01 WtEn= 1.06D-03
 Coeff-Com: -0.669D-03 0.959D-03-0.164D-01-0.409D-01-0.789D-01-0.126D+00
 Coeff-Com:  0.301D+00 0.960D+00
 Coeff-En:   0.000D+00 0.000D+00 0.000D+00 0.000D+00 0.000D+00 0.000D+00
 Coeff-En:   0.000D+00 0.100D+01
 Coeff:     -0.668D-03 0.958D-03-0.164D-01-0.409D-01-0.788D-01-0.126D+00
 Coeff:      0.301D+00 0.960D+00
 Gap=     0.140 Goal=   None    Shift=    0.000
 Gap=     0.039 Goal=   None    Shift=    0.000
 RMSDP=1.45D-05 MaxDP=1.52D-03 DE=-4.24D-05 OVMax= 1.20D-02

 Cycle   9  Pass 1  IDiag  1:
 RMSU=  4.02D-06    CP:  9.53D-01  2.05D+00  8.05D-01  7.14D-01  8.88D-01
                    CP:  1.55D+00  1.71D+00  1.41D+00
 E= -1707.53772154226     Delta-E=       -0.000026231489 Rises=F Damp=F
 DIIS: error= 4.96D-05 at cycle   9 NSaved=   9.
 NSaved= 9 IEnMin= 9 EnMin= -1707.53772154226     IErMin= 9 ErrMin= 4.96D-05
 ErrMax= 4.96D-05  0.00D+00 EMaxC= 1.00D-01 BMatC= 8.37D-06 BMatP= 1.76D-05
 IDIUse=1 WtCom= 1.00D+00 WtEn= 0.00D+00
 Coeff-Com: -0.750D-03 0.135D-02-0.961D-02-0.246D-01-0.636D-01-0.160D+00
 Coeff-Com: -0.202D-01 0.621D+00 0.657D+00
 Coeff:     -0.750D-03 0.135D-02-0.961D-02-0.246D-01-0.636D-01-0.160D+00
 Coeff:     -0.202D-01 0.621D+00 0.657D+00
 Gap=     0.140 Goal=   None    Shift=    0.000
 Gap=     0.039 Goal=   None    Shift=    0.000
 RMSDP=7.44D-06 MaxDP=7.10D-04 DE=-2.62D-05 OVMax= 6.03D-03

[...]
 ! D227  D(43,48,51,45)        -55.7771         calculate D2E/DX2 analytically  !
 ! D228  D(43,48,51,56)       -178.3531         calculate D2E/DX2 analytically  !
 ! D229  D(43,48,51,57)         64.5211         calculate D2E/DX2 analytically  !
 ! D230  D(54,48,51,45)       -178.1417         calculate D2E/DX2 analytically  !
 ! D231  D(54,48,51,56)         59.2823         calculate D2E/DX2 analytically  !
 ! D232  D(54,48,51,57)        -57.8435         calculate D2E/DX2 analytically  !
 ! D233  D(55,48,51,45)         64.7546         calculate D2E/DX2 analytically  !
 ! D234  D(55,48,51,56)        -57.8215         calculate D2E/DX2 analytically  !
 ! D235  D(55,48,51,57)       -174.9472         calculate D2E/DX2 analytically  !
 --------------------------------------------------------------------------------
 Trust Radius=3.00D-01 FncErr=1.00D-07 GrdErr=1.00D-07 EigMax=2.50D+02 EigMin=1.00D-04
 Number of steps in this run=      2 maximum allowed number of steps=      2.
 Search for a saddle point of order  1.
 GradGradGradGradGradGradGradGradGradGradGradGradGradGradGradGradGradGrad

 Leave Link  103 at Fri Dec 21 16:16:31 2018, MaxMem=  1342177280 cpu:               0.5 elap:               0.1
 (Enter /gpfs/apps/hpc/Apps/Restricted/Gaussian/Rev_A.03/g16/l202.exe)
 Symmetry turned off by external request.
 Stoichiometry    C35H41N5O(1+,2)
 Framework group  C1[X(C35H41N5O)]
 Deg. of freedom   240
 Full point group                 C1      NOp   1
                          Input orientation:                          
 ---------------------------------------------------------------------
 Center     Atomic      Atomic             Coordinates (Angstroms)
 Number     Number       Type             X           Y           Z
 ---------------------------------------------------------------------
      1          6           0        1.633350    1.237324    0.230952
      2          6           0        0.406923    1.935607    0.153662
      3          6           0        0.410015    3.331648    0.028175
      4          6           0        1.643007    3.977431   -0.017863
      5          6           0        2.853713    3.265510    0.064979
      6          6           0        2.884154    1.872232    0.188737
      7          6           0       -0.070738   -0.167397    0.320057
      8          1           0       -0.519289    3.884904   -0.033198
      9          1           0        1.675999    5.056040   -0.116162
     10          1           0        3.792957    3.806505    0.028454
     11          6           0       -2.225057   -1.371225    0.317510
     12          6           0       -3.032496   -2.541774    0.333197
     13          6           0       -2.437321   -3.807552    0.455814
     14          6           0       -1.055336   -3.848074    0.556488
     15          6           0       -0.260269   -2.679064    0.524139
     16          6           0       -0.821027   -1.409006    0.395049
     17          6           0       -4.355401   -0.820855    0.159684
     18          1           0       -3.038438   -4.707084    0.472487
     19          1           0       -0.558507   -4.804615    0.660173
     20          1           0        0.815302   -2.780908    0.605495
     21          7           0       -0.642341    1.031878    0.215079
     22          6           0       -6.818189   -0.801049   -0.131523
     23          6           0       -5.570838   -0.065621    0.042393
     24          6           0       -5.591904    1.324373    0.093181
     25          6           0       -6.794338    2.020378   -0.022479
     26          6           0       -7.999393    1.276023   -0.223698
     27          6           0       -8.062875   -0.094370   -0.291251
     28          1           0       -4.663763    1.859462    0.237811
     29          1           0       -8.915616    1.838256   -0.324427
     30          6           0       -6.884482    3.533811    0.078438
     31          6           0       -9.374041   -0.847392   -0.524402
     32          8           0       -6.809974   -2.104073   -0.148693
     33          7           0       -3.085250   -0.314984    0.213861
     34          7           0       -4.344701   -2.162023    0.225935
     35          1           0       -2.747940    0.644666    0.170052
     36          7           0        1.298293   -0.088793    0.335388
     37          1           0        2.003202   -0.816744    0.379284
     38          6           0        4.133165    1.119539    0.269368
     39          1           0        5.048994    1.717797    0.241110
     40          7           0        4.135820   -0.158973    0.359694
     41          6           0        5.424435   -0.863615    0.377316
     42          6           0        5.946202   -1.022732   -1.061527
     43          6           0        6.506836   -0.244721    1.275620
     44          1           0        5.212836   -1.867233    0.765555
     45          6           0        7.230346   -1.857912   -1.100025
     46          1           0        6.140961   -0.020578   -1.463650
     47          1           0        5.167878   -1.472312   -1.685583
     48          6           0        7.775495   -1.106289    1.253034
     49          1           0        6.756916    0.761521    0.922219
     50          1           0        6.122205   -0.142757    2.294837
     51          6           0        8.305465   -1.275770   -0.174752
     52          1           0        7.602859   -1.919624   -2.127163
     53          1           0        7.000442   -2.883372   -0.785081
     54          1           0        8.541035   -0.659890    1.895082
     55          1           0        7.547207   -2.093592    1.673890
     56          1           0        9.192711   -1.916150   -0.176262
     57          1           0        8.617414   -0.296698   -0.559571
     58          1           0       -5.832357   -2.441015    0.005972
     59          6           0       -7.518559    4.092689   -1.215712
     60          1           0       -8.514107    3.682119   -1.394727
     61          1           0       -7.612864    5.177736   -1.125410
     62          1           0       -6.894369    3.870007   -2.083813
     63          6           0       -5.515127    4.193286    0.283514
     64          1           0       -5.040489    3.860932    1.210223
     65          1           0       -4.836801    3.984625   -0.547660
     66          1           0       -5.646141    5.275230    0.346793
     67          6           0       -7.790514    3.884360    1.281686
     68          1           0       -7.889013    4.970237    1.352661
     69          1           0       -8.790717    3.460185    1.175181
     70          1           0       -7.354794    3.516372    2.213209
     71          6           0      -10.552531    0.126081   -0.675724
     72          1           0      -11.459093   -0.447670   -0.878270
     73          1           0      -10.721103    0.704781    0.236525
     74          1           0      -10.404472    0.820826   -1.506421
     75          6           0       -9.268203   -1.674182   -1.825414
     76          1           0       -9.063597   -1.023420   -2.679148
     77          1           0       -8.482614   -2.426570   -1.764565
     78          1           0      -10.219341   -2.181711   -2.006257
     79          6           0       -9.675963   -1.775317    0.673622
     80          1           0       -9.763093   -1.195902    1.596004
     81          1           0      -10.629077   -2.280996    0.498118
     82          1           0       -8.904086   -2.531495    0.807488
 ---------------------------------------------------------------------
 Rotational constants (GHZ):           0.1774796           0.0304347           0.0266209
 Leave Link  202 at Fri Dec 21 16:16:31 2018, MaxMem=  1342177280 cpu:               0.2 elap:               0.0
 (Enter /gpfs/apps/hpc/Apps/Restricted/Gaussian/Rev_A.03/g16/l301.exe)
 Standard basis: 6-31G(d,p) (6D, 7F)
 Ernie: Thresh=  0.10000D-02 Tol=  0.10000D-05 Strict=F.
   820 basis functions,  1435 primitive gaussians,   820 cartesian basis functions
   147 alpha electrons      146 beta electrons
       nuclear repulsion energy      4410.4962890855 Hartrees.
 IExCor=  402 DFT=T Ex+Corr=B3LYP ExCW=0 ScaHFX=  0.200000
 ScaDFX=  0.800000  0.720000  1.000000  0.810000 ScalE2=  1.000000  1.000000
 IRadAn=      5 IRanWt=     -1 IRanGd=            0 ICorTp=0 IEmpDi=141
 NAtoms=   82 NActive=   82 NUniq=   82 SFac= 1.00D+00 NAtFMM=   60 NAOKFM=T Big=T
 Integral buffers will be    131072 words long.
 Raffenetti 2 integral format.
 Two-electron integral symmetry is turned off.
 R6Disp:  Grimme-D3(BJ) Dispersion energy=       -0.1855484428 Hartrees.
 Nuclear repulsion after empirical dispersion term =     4410.3107406427 Hartrees.
 Force inversion solution in PCM.
 ------------------------------------------------------------------------------
 Polarizable Continuum Model (PCM)
 =================================
 Model                : C-PCM.
 Atomic radii         : Bondi.
 Polarization charges : Total charges.
 Charge compensation  : None.
 Solution method      : Matrix inversion.
 Cavity type          : Scaled VdW (van der Waals Surface) (Alpha=1.100).
 Cavity algorithm     : GePol (No added spheres)
                        Default sphere list used, NSphG=   82.
                        Lebedev-Laikov grids with approx.  5.0 points / Ang**2.
                        Smoothing algorithm: York/Karplus (Gamma=1.0000).
                        Polarization charges: spherical gaussians, with
                                              point-specific exponents (IZeta= 3).
                        Self-potential: point-specific (ISelfS= 7).
                        Self-field    : sphere-specific E.n sum rule (ISelfD= 2).
 1st derivatives      : Analytical E(r).r(x)/FMM algorithm (CHGder, D1EAlg=3).
                        Cavity 1st derivative terms included.
 2nd derivatives      : Analytical E(r).r(xy)/FMM algorithm (CHGder, D2EAlg=3).
                        Cavity 2nd derivative terms included.
 Solvent              : Dichloromethane, Eps=   8.930000 Eps(inf)=   2.028346
 ------------------------------------------------------------------------------
 GePol: Number of generator spheres                  =      82
 GePol: Total number of spheres                      =      82
 GePol: Number of exposed spheres                    =      82 (100.00%)
 GePol: Number of points                             =    5273
 GePol: Average weight of points                     =       0.12
 GePol: Minimum weight of points                     =   0.21D-11
 GePol: Maximum weight of points                     =    0.21770
 GePol: Number of points with low weight             =     360
 GePol: Fraction of low-weight points (<1% of avg)   =       6.83%
 GePol: Cavity surface area                          =    624.302 Ang**2
 GePol: Cavity volume                                =    611.964 Ang**3
 PCM non-electrostatic energy =         0.0287025320 Hartrees.
 Nuclear repulsion after PCM non-electrostatic terms =     4410.3394431747 Hartrees.
 Leave Link  301 at Fri Dec 21 16:16:32 2018, MaxMem=  1342177280 cpu:               6.6 elap:               0.4
 (Enter /gpfs/apps/hpc/Apps/Restricted/Gaussian/Rev_A.03/g16/l302.exe)
 NPDir=0 NMtPBC=     1 NCelOv=     1 NCel=       1 NClECP=     1 NCelD=      1
         NCelK=      1 NCelE2=     1 NClLst=     1 CellRange=     0.0.
 One-electron integrals computed using PRISM.
 NBasis=   820 RedAO= T EigKep=  2.76D-04  NBF=   820
 NBsUse=   820 1.00D-06 EigRej= -1.00D+00 NBFU=   820
 Precomputing XC quadrature grid using
 IXCGrd= 4 IRadAn=           5 IRanWt=          -1 IRanGd=           0 AccXCQ= 0.00D+00.
 Generated NRdTot=       0 NPtTot=           0 NUsed=           0 NTot=          32
 NSgBfM=   744   744   744   744   744 MxSgAt=    82 MxSgA2=    82.
 Leave Link  302 at Fri Dec 21 16:16:34 2018, MaxMem=  1342177280 cpu:              38.6 elap:               2.4
 (Enter /gpfs/apps/hpc/Apps/Restricted/Gaussian/Rev_A.03/g16/l303.exe)
 DipDrv:  MaxL=1.
 Leave Link  303 at Fri Dec 21 16:16:35 2018, MaxMem=  1342177280 cpu:               1.9 elap:               0.1
 (Enter /gpfs/apps/hpc/Apps/Restricted/Gaussian/Rev_A.03/g16/l401.exe)
 Initial guess from the checkpoint file:  "cyclohexyl-diBIP-TS1.chk"
 B after Tr=     0.000000   -0.000000   -0.000000
         Rot=    1.000000    0.000000   -0.000000    0.000000 Ang=   0.00 deg.
 Guess basis will be translated and rotated to current coordinates.
 JPrj=2 DoOrth=T DoCkMO=T.
 Initial guess <Sx>= 0.0000 <Sy>= 0.0000 <Sz>= 0.5000 <S**2>= 0.7618 S= 0.5059
 Leave Link  401 at Fri Dec 21 16:16:39 2018, MaxMem=  1342177280 cpu:              73.8 elap:               4.7
 (Enter /gpfs/apps/hpc/Apps/Restricted/Gaussian/Rev_A.03/g16/l502.exe)
 Two-electron integral symmetry not used.
 UHF open shell SCF:
 Using DIIS extrapolation, IDIIS=  1040.
 NGot=  1342177280 LenX=  1340812546 LenY=  1340139326
 Requested convergence on RMS density matrix=1.00D-08 within 128 cycles.
 Requested convergence on MAX density matrix=1.00D-06.
 Requested convergence on             energy=1.00D-06.
 No special actions if energy rises.
 Fock matrices will be formed incrementally for  20 cycles.

 Cycle   1  Pass 1  IDiag  1:
 FoFJK:  IHMeth= 1 ICntrl=       0 DoSepK=F KAlg= 0 I1Cent=           0 FoldK=F
 IRaf= 620000000 NMat=       1 IRICut=       1 DoRegI=T DoRafI=F ISym2E= 0 IDoP0=0 IntGTp=1.
 FoFCou: FMM=T IPFlag=           0 FMFlag=      100000 FMFlg1=        2001
         NFxFlg=           0 DoJE=F BraDBF=F KetDBF=F FulRan=T
         wScrn=  0.000000 ICntrl=         0 IOpCl=  1 I1Cent=           0 NGrid=           0
         NMat0=    1 NMatS0=      1 NMatT0=    0 NMatD0=    1 NMtDS0=    0 NMtDT0=    0
 Symmetry not used in FoFCou.
 FMM levels:  10  Number of levels for PrismC:   9
 Inv3:  Mode=1 IEnd=    83413587.
 Iteration    1 A*A^-1 deviation from unit magnitude is 1.63D-14 for    651.
 Iteration    1 A*A^-1 deviation from orthogonality  is 3.76D-15 for   3055   1754.
 Iteration    1 A^-1*A deviation from unit magnitude is 1.32D-14 for    651.
 Iteration    1 A^-1*A deviation from orthogonality  is 2.19D-15 for   5272   2254.
 E= -1707.53773287304    
 DIIS: error= 2.87D-08 at cycle   1 NSaved=   1.
 NSaved= 1 IEnMin= 1 EnMin= -1707.53773287304     IErMin= 1 ErrMin= 2.87D-08
 ErrMax= 2.87D-08  0.00D+00 EMaxC= 1.00D-01 BMatC= 1.55D-12 BMatP= 1.55D-12
 IDIUse=1 WtCom= 1.00D+00 WtEn= 0.00D+00
 Coeff-Com:  0.100D+01
 Coeff:      0.100D+01
 Gap=     0.140 Goal=   None    Shift=    0.000
 Gap=     0.039 Goal=   None    Shift=    0.000
 RMSDP=2.47D-09 MaxDP=4.32D-07              OVMax= 1.01D-06

 Error on total polarization charges =  0.05040
 SCF Done:  E(UB3LYP) =  -1707.53773287     A.U. after    1 cycles
            NFock=  1  Conv=0.25D-08     -V/T= 2.0096
 <Sx>= 0.0000 <Sy>= 0.0000 <Sz>= 0.5000 <S**2>= 0.7618 S= 0.5059
 <L.S>= 0.000000000000E+00
 KE= 1.691269535719D+03 PE=-1.274882810857D+04 EE= 4.939681396804D+03
 Annihilation of the first spin contaminant:
 S**2 before annihilation     0.7618,   after     0.7501
 Leave Link  502 at Fri Dec 21 16:17:32 2018, MaxMem=  1342177280 cpu:             734.4 elap:              52.5
 (Enter /gpfs/apps/hpc/Apps/Restricted/Gaussian/Rev_A.03/g16/l801.exe)
 DoSCS=F DFT=T ScalE2(SS,OS)=  1.000000  1.000000
 Range of M.O.s used for correlation:     1   820
 NBasis=   820 NAE=   147 NBE=   146 NFC=     0 NFV=     0
 NROrb=    820 NOA=   147 NOB=   146 NVA=   673 NVB=   674

 **** Warning!!: The smallest beta delta epsilon is  0.38500072D-01

 Leave Link  801 at Fri Dec 21 16:17:32 2018, MaxMem=  1342177280 cpu:               4.0 elap:               0.3
 (Enter /gpfs/apps/hpc/Apps/Restricted/Gaussian/Rev_A.03/g16/l1101.exe)
 Using compressed storage, NAtomX=    82.
 Will process     83 centers per pass.
 PrsmSu:  requested number of processors reduced to:  15 ShMem   1 Linda.
 R6Disp: Adding Grimme-D3(BJ) dispersion energy 1st derivatives to the gradient.
 Leave Link 1101 at Fri Dec 21 16:17:35 2018, MaxMem=  1342177280 cpu:              50.3 elap:               3.3
 (Enter /gpfs/apps/hpc/Apps/Restricted/Gaussian/Rev_A.03/g16/l1102.exe)
 Symmetrizing basis deriv contribution to polar:
 IMax=3 JMax=2 DiffMx= 0.00D+00
 Leave Link 1102 at Fri Dec 21 16:17:36 2018, MaxMem=  1342177280 cpu:               1.6 elap:               0.1
 (Enter /gpfs/apps/hpc/Apps/Restricted/Gaussian/Rev_A.03/g16/l1110.exe)
 Forming Gx(P) for the SCF density, NAtomX=    82.
 Integral derivatives from FoFJK, PRISM(SPDF).
 Do as many integral derivatives as possible in FoFJK.
 G2DrvN: MDV=    1342171240.
 G2DrvN: will do    28 centers at a time, making    3 passes.
 G2DrvN:  IPasSy=1 do centers    0 through   27.
 Calling FoFCou, ICntrl=  3107 FMM=T I1Cent=   0 AccDes= 0.00D+00.
 FoFJK:  IHMeth= 1 ICntrl=    3107 DoSepK=F KAlg= 0 I1Cent=           0 FoldK=F
 IRaf=         0 NMat=       1 IRICut=       1 DoRegI=T DoRafI=F ISym2E= 0 IDoP0=0 IntGTp=1.
 FoFCou: FMM=T IPFlag=           0 FMFlag=      100000 FMFlg1=        2001
         NFxFlg=           0 DoJE=F BraDBF=F KetDBF=F FulRan=T
         wScrn=  0.000000 ICntrl=      3107 IOpCl=  1 I1Cent=           0 NGrid=           0
         NMat0=    1 NMatS0=      1 NMatT0=    0 NMatD0=    1 NMtDS0=    0 NMtDT0=    0
 Symmetry not used in FoFCou.
 FMM levels:  10  Number of levels for PrismC:   9
 G2DrvN:  IPasSy=1 do centers   28 through   55.
 Calling FoFCou, ICntrl=  3107 FMM=T I1Cent=   0 AccDes= 0.00D+00.
 G2DrvN:  IPasSy=1 do centers   56 through   82.
 Calling FoFCou, ICntrl=  3107 FMM=T I1Cent=   0 AccDes= 0.00D+00.
 NEqPCM:  Using equilibrium solvation (IEInf=0, Eps=   8.9300, EpsInf=   2.0283)
 G2PCM: DoFxE=T DoFxN=T DoGrad=T DoDP/DQ/DG/TGxP=FFFF NFrqRd=   0 IEInf=0 SqF1=F DoCFld=F IF1Alg=4.
 GePol: Maximum number of non-zero 1st derivatives   =     200
 End of G2Drv F.D. properties file   721 does not exist.
 End of G2Drv F.D. properties file   722 does not exist.
 End of G2Drv F.D. properties file   788 does not exist.
 Leave Link 1110 at Fri Dec 21 16:43:52 2018, MaxMem=  1342177280 cpu:           25185.2 elap:            1576.1
 (Enter /gpfs/apps/hpc/Apps/Restricted/Gaussian/Rev_A.03/g16/l1002.exe)
 Minotr:  UHF open shell wavefunction.
          IDoAtm=11111111111111111111111111111111111111111111111111
          IDoAtm=11111111111111111111111111111111
 NEqPCM:  Using equilibrium solvation (IEInf=0, Eps=   8.9300, EpsInf=   2.0283)
          Direct CPHF calculation.
          Differentiating once with respect to electric field.
                with respect to dipole field.
          Differentiating once with respect to nuclear coordinates.
          Requested convergence is 1.0D-08 RMS, and 1.0D-07 maximum.
          Secondary convergence is 1.0D-12 RMS, and 1.0D-12 maximum.
          NewPWx=T KeepS1=F KeepF1=F KeepIn=T MapXYZ=F SortEE=F KeepMc=T.
        25319 words used for storage of precomputed grid.
 Two-electron integral symmetry not used.
          MDV=    1342177280 using IRadAn=       1.
          Solving linear equations simultaneously, MaxMat=      72.
 FoF2E skips out because all densities are zero.
 CalDSu exits because no D1Ps are significant.
 FoFJK:  IHMeth= 1 ICntrl=       0 DoSepK=F KAlg= 0 I1Cent=           0 FoldK=F
 IRaf= 570000000 NMat=      48 IRICut=       1 DoRegI=T DoRafI=F ISym2E= 0 IDoP0=0 IntGTp=1.
          There are   249 degrees of freedom in the 1st order CPHF.  IDoFFX=6 NUNeed=     3.
    249 vectors produced by pass  0 Test12= 1.97D-13 1.00D-09 XBig12= 3.73D+03 4.44D+01.
 AX will form    48 AO Fock derivatives at one time.
    249 vectors produced by pass  1 Test12= 1.97D-13 1.00D-09 XBig12= 3.11D+02 2.81D+00.
    247 vectors produced by pass  2 Test12= 1.97D-13 1.00D-09 XBig12= 5.86D+00 3.37D-01.
    246 vectors produced by pass  3 Test12= 1.97D-13 1.00D-09 XBig12= 4.91D-02 3.64D-02.
