 Entering Gaussian System, Link 0=g16
 Initial command:
 /gpfs/apps/hpc/Apps/Restricted/Gaussian/g16/Rev_B.01-AVX/g16/l1.exe "/gpfs/scratch60/fas/hammes_schiffer/jg2487/c43n03/Gau-226131.inp" -scrdir="/gpfs/scratch60/fas/hammes_schiffer/jg2487/c43n03/"
 Entering Link 1 = /gpfs/apps/hpc/Apps/Restricted/Gaussian/g16/Rev_B.01-AVX/g16/l1.exe PID=    226132.
  
 Copyright (c) 1988-2017, Gaussian, Inc.  All Rights Reserved.
  
 This is part of the Gaussian(R) 16 program.  It is based on
 the Gaussian(R) 09 system (copyright 2009, Gaussian, Inc.),
 the Gaussian(R) 03 system (copyright 2003, Gaussian, Inc.),
 the Gaussian(R) 98 system (copyright 1998, Gaussian, Inc.),
 the Gaussian(R) 94 system (copyright 1995, Gaussian, Inc.),
 the Gaussian 92(TM) system (copyright 1992, Gaussian, Inc.),
 the Gaussian 90(TM) system (copyright 1990, Gaussian, Inc.),
 the Gaussian 88(TM) system (copyright 1988, Gaussian, Inc.),
 the Gaussian 86(TM) system (copyright 1986, Carnegie Mellon
 University), and the Gaussian 82(TM) system (copyright 1983,
 Carnegie Mellon University). Gaussian is a federally registered
 trademark of Gaussian, Inc.
  
 This software contains proprietary and confidential information,
 including trade secrets, belonging to Gaussian, Inc.
  
 This software is provided under written license and may be
 used, copied, transmitted, or stored only in accord with that
 written license.
  
 The following legend is applicable only to US Government
 contracts under FAR:
  
                    RESTRICTED RIGHTS LEGEND
  
 Use, reproduction and disclosure by the US Government is
 subject to restrictions as set forth in subparagraphs (a)
 and (c) of the Commercial Computer Software - Restricted
 Rights clause in FAR 52.227-19.
  
 Gaussian, Inc.
 340 Quinnipiac St., Bldg. 40, Wallingford CT 06492
  
  
 ---------------------------------------------------------------
 Warning -- This program may not be used in any manner that
 competes with the business of Gaussian, Inc. or will provide
 assistance to any competitor of Gaussian, Inc.  The licensee
 of this program is prohibited from giving any competitor of
 Gaussian, Inc. access to this program.  By using this program,
 the user acknowledges that Gaussian, Inc. is engaged in the
 business of creating and licensing software in the field of
 computational chemistry and represents and warrants to the
 licensee that it is not a competitor of Gaussian, Inc. and that
 it will not use this program in any manner prohibited above.
 ---------------------------------------------------------------
  

 Cite this work as:
 Gaussian 16, Revision B.01,
 M. J. Frisch, G. W. Trucks, H. B. Schlegel, G. E. Scuseria, 
 M. A. Robb, J. R. Cheeseman, G. Scalmani, V. Barone, 
 G. A. Petersson, H. Nakatsuji, X. Li, M. Caricato, A. V. Marenich, 
 J. Bloino, B. G. Janesko, R. Gomperts, B. Mennucci, H. P. Hratchian, 
 J. V. Ortiz, A. F. Izmaylov, J. L. Sonnenberg, D. Williams-Young, 
 F. Ding, F. Lipparini, F. Egidi, J. Goings, B. Peng, A. Petrone, 
 T. Henderson, D. Ranasinghe, V. G. Zakrzewski, J. Gao, N. Rega, 
 G. Zheng, W. Liang, M. Hada, M. Ehara, K. Toyota, R. Fukuda, 
 J. Hasegawa, M. Ishida, T. Nakajima, Y. Honda, O. Kitao, H. Nakai, 
 T. Vreven, K. Throssell, J. A. Montgomery, Jr., J. E. Peralta, 
 F. Ogliaro, M. J. Bearpark, J. J. Heyd, E. N. Brothers, K. N. Kudin, 
 V. N. Staroverov, T. A. Keith, R. Kobayashi, J. Normand, 
 K. Raghavachari, A. P. Rendell, J. C. Burant, S. S. Iyengar, 
 J. Tomasi, M. Cossi, J. M. Millam, M. Klene, C. Adamo, R. Cammi, 
 J. W. Ochterski, R. L. Martin, K. Morokuma, O. Farkas, 
 J. B. Foresman, and D. J. Fox, Gaussian, Inc., Wallingford CT, 2016.
 
 ******************************************
 Gaussian 16:  ES64L-G16RevB.01 20-Dec-2017
                12-Feb-2019 
 ******************************************
 %chk=amide-monoBIP-E1PT.chk
 %mem=10GB
 %nprocshared=16
 Will use up to   16 processors via shared memory.
 ----------------------------------------------------------------------
 #p opt=(calcfc,tight) freq=internalmodes b3lyp/6-31g(d,p) scrf=(cpcm,s
 olvent=dichloromethane,read) nosymm empiricaldispersion=gd3bj int=grid
 =ultrafine
 ----------------------------------------------------------------------
 1/7=10,10=4,18=20,19=15,26=6,38=1,40=2/1,3;
 2/9=110,12=2,15=1,17=6,18=5,40=1/2;
 3/5=1,6=6,7=101,11=2,25=1,30=1,70=2103,71=2,72=9,74=-5,75=-5,124=41,140=1/1,2,3;
 4//1;
 5/5=2,38=5,53=9/2;
 8/6=4,10=90,11=11/1;
 11/6=1,8=1,9=11,15=111,16=1,31=1/1,2,10;
 10/6=1,13=1,31=1/2;
 6/7=2,8=2,9=2,10=2,28=1/1;
 7/10=1,18=20,25=1,30=1/1,2,3,16;
 1/7=10,10=4,18=20,19=15,26=6/3(2);
 2/9=110,15=1/2;
 99//99;
 2/9=110,15=1/2;
 3/5=1,6=6,7=101,11=2,25=1,30=1,70=2105,71=1,72=9,74=-5,75=-5,124=41/1,2,3;
 4/5=5,16=3,69=1/1;
 5/5=2,38=5,53=9/2;
 7/30=1/1,2,3,16;
 1/7=10,18=20,19=15,26=6/3(-5);
 2/9=110,15=1/2;
 6/7=2,8=2,9=2,10=2,19=2,28=1/1;
 99/9=1/99;
 Leave Link    1 at Tue Feb 12 14:55:46 2019, MaxMem=  1342177280 cpu:               7.8 elap:               0.5
 (Enter /gpfs/apps/hpc/Apps/Restricted/Gaussian/g16/Rev_B.01-AVX/g16/l101.exe)
 --------------------------------------
 Simple amide-monoBIP E1PT optimization
 --------------------------------------
 Symbolic Z-matrix:
 Charge =  1 Multiplicity = 2
 C                    -0.46043   2.73552   0.44632 
 C                    -1.86938   2.86098   0.31912 
 C                    -2.45923   4.12806   0.21212 
 C                    -1.61183   5.2264    0.23978 
 C                    -0.21295   5.08783   0.36666 
 C                     0.40348   3.84109   0.47084 
 C                    -1.40216   0.73696   0.43937 
 H                    -3.53118   4.23901   0.11128 
 H                    -2.02798   6.22321   0.16285 
 H                     0.38515   5.99075   0.38624 
 N                    -2.41829   1.60056   0.32007 
 C                    -2.98182  -1.17836   0.35049 
 C                    -1.61015  -0.69135   0.4564 
 C                    -0.57508  -1.6008    0.54441 
 C                    -0.8251   -2.9862    0.53631 
 C                    -2.16795  -3.43647   0.44223 
 C                    -3.25664  -2.59666   0.3529 
 H                     0.44529  -1.24766   0.61456 
 H                    -2.34015  -4.49989   0.44021 
 C                     0.34458  -3.95344   0.60054 
 C                    -4.68749  -3.12415   0.25374 
 O                    -3.96411  -0.33474   0.24371 
 N                    -0.20671   1.39093   0.52119 
 H                     0.73766   1.03451   0.61838 
 C                     1.86856   3.58919   0.59277 
 C                     1.23136  -3.71279  -0.64446 
 H                     1.5986   -2.68539  -0.68099 
 H                     2.09334  -4.38335  -0.60486 
 H                     0.67709  -3.91621  -1.5635 
 C                     1.17192  -3.66553   1.87407 
 H                     0.57311  -3.82569   2.77332 
 H                     2.02653  -4.34577   1.90307 
 H                     1.55379  -2.64293   1.88896 
 C                    -0.09979  -5.42173   0.62071 
 H                    -0.71756  -5.64563   1.49408 
 H                    -0.65775  -5.68884  -0.28029 
 H                     0.78521  -6.05917   0.66566 
 C                    -5.31826  -2.68134  -1.08627 
 H                    -6.3275   -3.0945   -1.15551 
 H                    -5.38528  -1.59744  -1.16896 
 H                    -4.73623  -3.06142  -1.92932 
 C                    -5.52564  -2.59131   1.4386 
 H                    -5.6152   -1.50635   1.41633 
 H                    -6.5285   -3.02215   1.38675 
 H                    -5.07547  -2.8852    2.3899 
 C                    -4.71416  -4.6602    0.30564 
 H                    -4.1592   -5.1041   -0.52484 
 H                    -4.29884  -5.03995   1.24254 
 H                    -5.75016  -4.99682   0.23544 
 O                     2.29259   2.42583   0.70211 
 N                     2.69305   4.65335   0.58715 
 H                     2.3741    5.59327   0.41983 
 H                     3.68763   4.48726   0.62033 
 H                    -3.38917   1.37272   0.24597 
 
 ITRead=  0  0  0  0  0  0  0  0  0  0  0  0  0  0  0  0  0  0  0  0
 ITRead=  0  0  0  0  0  0  0  0  0  0  0  0  0  0  0  0  0  0  0  0
 ITRead=  0  0  0  0  0  0  0  0  0  0  0  0  0  0
 MicOpt= -1 -1 -1 -1 -1 -1 -1 -1 -1 -1 -1 -1 -1 -1 -1 -1 -1 -1 -1 -1
 MicOpt= -1 -1 -1 -1 -1 -1 -1 -1 -1 -1 -1 -1 -1 -1 -1 -1 -1 -1 -1 -1
 MicOpt= -1 -1 -1 -1 -1 -1 -1 -1 -1 -1 -1 -1 -1 -1
 NAtoms=     54 NQM=       54 NQMF=       0 NMMI=      0 NMMIF=      0
                NMic=       0 NMicF=      0.
                    Isotopes and Nuclear Properties:
 (Nuclear quadrupole moments (NQMom) in fm**2, nuclear magnetic moments (NMagM)
  in nuclear magnetons)

  Atom         1           2           3           4           5           6           7           8           9          10
 IAtWgt=          12          12          12          12          12          12          12           1           1           1
 AtmWgt=  12.0000000  12.0000000  12.0000000  12.0000000  12.0000000  12.0000000  12.0000000   1.0078250   1.0078250   1.0078250
 NucSpn=           0           0           0           0           0           0           0           1           1           1
 AtZEff=  -0.0000000  -0.0000000  -0.0000000  -0.0000000  -0.0000000  -0.0000000  -0.0000000  -0.0000000  -0.0000000  -0.0000000
 NQMom=    0.0000000   0.0000000   0.0000000   0.0000000   0.0000000   0.0000000   0.0000000   0.0000000   0.0000000   0.0000000
 NMagM=    0.0000000   0.0000000   0.0000000   0.0000000   0.0000000   0.0000000   0.0000000   2.7928460   2.7928460   2.7928460
 AtZNuc=   6.0000000   6.0000000   6.0000000   6.0000000   6.0000000   6.0000000   6.0000000   1.0000000   1.0000000   1.0000000

  Atom        11          12          13          14          15          16          17          18          19          20
 IAtWgt=          14          12          12          12          12          12          12           1           1          12
 AtmWgt=  14.0030740  12.0000000  12.0000000  12.0000000  12.0000000  12.0000000  12.0000000   1.0078250   1.0078250  12.0000000
 NucSpn=           2           0           0           0           0           0           0           1           1           0
 AtZEff=  -0.0000000  -0.0000000  -0.0000000  -0.0000000  -0.0000000  -0.0000000  -0.0000000  -0.0000000  -0.0000000  -0.0000000
 NQMom=    2.0440000   0.0000000   0.0000000   0.0000000   0.0000000   0.0000000   0.0000000   0.0000000   0.0000000   0.0000000
 NMagM=    0.4037610   0.0000000   0.0000000   0.0000000   0.0000000   0.0000000   0.0000000   2.7928460   2.7928460   0.0000000
 AtZNuc=   7.0000000   6.0000000   6.0000000   6.0000000   6.0000000   6.0000000   6.0000000   1.0000000   1.0000000   6.0000000

  Atom        21          22          23          24          25          26          27          28          29          30
 IAtWgt=          12          16          14           1          12          12           1           1           1          12
 AtmWgt=  12.0000000  15.9949146  14.0030740   1.0078250  12.0000000  12.0000000   1.0078250   1.0078250   1.0078250  12.0000000
 NucSpn=           0           0           2           1           0           0           1           1           1           0
 AtZEff=  -0.0000000  -0.0000000  -0.0000000  -0.0000000  -0.0000000  -0.0000000  -0.0000000  -0.0000000  -0.0000000  -0.0000000
 NQMom=    0.0000000   0.0000000   2.0440000   0.0000000   0.0000000   0.0000000   0.0000000   0.0000000   0.0000000   0.0000000
 NMagM=    0.0000000   0.0000000   0.4037610   2.7928460   0.0000000   0.0000000   2.7928460   2.7928460   2.7928460   0.0000000
 AtZNuc=   6.0000000   8.0000000   7.0000000   1.0000000   6.0000000   6.0000000   1.0000000   1.0000000   1.0000000   6.0000000

  Atom        31          32          33          34          35          36          37          38          39          40
 IAtWgt=           1           1           1          12           1           1           1          12           1           1
 AtmWgt=   1.0078250   1.0078250   1.0078250  12.0000000   1.0078250   1.0078250   1.0078250  12.0000000   1.0078250   1.0078250
 NucSpn=           1           1           1           0           1           1           1           0           1           1
 AtZEff=  -0.0000000  -0.0000000  -0.0000000  -0.0000000  -0.0000000  -0.0000000  -0.0000000  -0.0000000  -0.0000000  -0.0000000
 NQMom=    0.0000000   0.0000000   0.0000000   0.0000000   0.0000000   0.0000000   0.0000000   0.0000000   0.0000000   0.0000000
 NMagM=    2.7928460   2.7928460   2.7928460   0.0000000   2.7928460   2.7928460   2.7928460   0.0000000   2.7928460   2.7928460
 AtZNuc=   1.0000000   1.0000000   1.0000000   6.0000000   1.0000000   1.0000000   1.0000000   6.0000000   1.0000000   1.0000000

  Atom        41          42          43          44          45          46          47          48          49          50
 IAtWgt=           1          12           1           1           1          12           1           1           1          16
 AtmWgt=   1.0078250  12.0000000   1.0078250   1.0078250   1.0078250  12.0000000   1.0078250   1.0078250   1.0078250  15.9949146
 NucSpn=           1           0           1           1           1           0           1           1           1           0
 AtZEff=  -0.0000000  -0.0000000  -0.0000000  -0.0000000  -0.0000000  -0.0000000  -0.0000000  -0.0000000  -0.0000000  -0.0000000
 NQMom=    0.0000000   0.0000000   0.0000000   0.0000000   0.0000000   0.0000000   0.0000000   0.0000000   0.0000000   0.0000000
 NMagM=    2.7928460   0.0000000   2.7928460   2.7928460   2.7928460   0.0000000   2.7928460   2.7928460   2.7928460   0.0000000
 AtZNuc=   1.0000000   6.0000000   1.0000000   1.0000000   1.0000000   6.0000000   1.0000000   1.0000000   1.0000000   8.0000000

  Atom        51          52          53          54
 IAtWgt=          14           1           1           1
 AtmWgt=  14.0030740   1.0078250   1.0078250   1.0078250
 NucSpn=           2           1           1           1
 AtZEff=  -0.0000000  -0.0000000  -0.0000000  -0.0000000
 NQMom=    2.0440000   0.0000000   0.0000000   0.0000000
 NMagM=    0.4037610   2.7928460   2.7928460   2.7928460
 AtZNuc=   7.0000000   1.0000000   1.0000000   1.0000000
 Leave Link  101 at Tue Feb 12 14:55:46 2019, MaxMem=  1342177280 cpu:               4.0 elap:               0.3
 (Enter /gpfs/apps/hpc/Apps/Restricted/Gaussian/g16/Rev_B.01-AVX/g16/l103.exe)

 GradGradGradGradGradGradGradGradGradGradGradGradGradGradGradGradGradGrad
 Berny optimization.
 Initialization pass.
                           ----------------------------
                           !    Initial Parameters    !
                           ! (Angstroms and Degrees)  !
 --------------------------                            --------------------------
 ! Name  Definition              Value          Derivative Info.                !
 --------------------------------------------------------------------------------
 ! R1    R(1,2)                  1.4202         calculate D2E/DX2 analytically  !
 ! R2    R(1,6)                  1.4033         calculate D2E/DX2 analytically  !
 ! R3    R(1,23)                 1.3704         calculate D2E/DX2 analytically  !
 ! R4    R(2,3)                  1.4017         calculate D2E/DX2 analytically  !
 ! R5    R(2,11)                 1.3748         calculate D2E/DX2 analytically  !
 ! R6    R(3,4)                  1.3875         calculate D2E/DX2 analytically  !
 ! R7    R(3,8)                  1.0824         calculate D2E/DX2 analytically  !
 ! R8    R(4,5)                  1.4114         calculate D2E/DX2 analytically  !
 ! R9    R(4,9)                  1.0829         calculate D2E/DX2 analytically  !
 ! R10   R(5,6)                  1.3947         calculate D2E/DX2 analytically  !
 ! R11   R(5,10)                 1.0832         calculate D2E/DX2 analytically  !
 ! R12   R(6,25)                 1.4916         calculate D2E/DX2 analytically  !
 ! R13   R(7,11)                 1.3389         calculate D2E/DX2 analytically  !
 ! R14   R(7,13)                 1.4435         calculate D2E/DX2 analytically  !
 ! R15   R(7,23)                 1.3651         calculate D2E/DX2 analytically  !
 ! R16   R(11,54)                1.0            calculate D2E/DX2 analytically  !
 ! R17   R(12,13)                1.4594         calculate D2E/DX2 analytically  !
 ! R18   R(12,17)                1.4447         calculate D2E/DX2 analytically  !
 ! R19   R(12,22)                1.2992         calculate D2E/DX2 analytically  !
 ! R20   R(13,14)                1.3807         calculate D2E/DX2 analytically  !
 ! R21   R(14,15)                1.4078         calculate D2E/DX2 analytically  !
 ! R22   R(14,18)                1.082          calculate D2E/DX2 analytically  !
 ! R23   R(15,16)                1.4194         calculate D2E/DX2 analytically  !
 ! R24   R(15,20)                1.5191         calculate D2E/DX2 analytically  !
 ! R25   R(16,17)                1.3779         calculate D2E/DX2 analytically  !
 ! R26   R(16,19)                1.0773         calculate D2E/DX2 analytically  !
 ! R27   R(17,21)                1.5282         calculate D2E/DX2 analytically  !
 ! R28   R(20,26)                1.5474         calculate D2E/DX2 analytically  !
 ! R29   R(20,30)                1.5457         calculate D2E/DX2 analytically  !
 ! R30   R(20,34)                1.5342         calculate D2E/DX2 analytically  !
 ! R31   R(21,38)                1.5458         calculate D2E/DX2 analytically  !
 ! R32   R(21,42)                1.5461         calculate D2E/DX2 analytically  !
 ! R33   R(21,46)                1.5372         calculate D2E/DX2 analytically  !
 ! R34   R(23,24)                1.0141         calculate D2E/DX2 analytically  !
 ! R35   R(25,50)                1.243          calculate D2E/DX2 analytically  !
 ! R36   R(25,51)                1.3462         calculate D2E/DX2 analytically  !
 ! R37   R(26,27)                1.0917         calculate D2E/DX2 analytically  !
 ! R38   R(26,28)                1.0928         calculate D2E/DX2 analytically  !
 ! R39   R(26,29)                1.0924         calculate D2E/DX2 analytically  !
 ! R40   R(30,31)                1.0922         calculate D2E/DX2 analytically  !
 ! R41   R(30,32)                1.0927         calculate D2E/DX2 analytically  !
 ! R42   R(30,33)                1.0917         calculate D2E/DX2 analytically  !
 ! R43   R(34,35)                1.093          calculate D2E/DX2 analytically  !
 ! R44   R(34,36)                1.0929         calculate D2E/DX2 analytically  !
 ! R45   R(34,37)                1.0916         calculate D2E/DX2 analytically  !
 ! R46   R(38,39)                1.0927         calculate D2E/DX2 analytically  !
 ! R47   R(38,40)                1.0891         calculate D2E/DX2 analytically  !
 ! R48   R(38,41)                1.0927         calculate D2E/DX2 analytically  !
 ! R49   R(42,43)                1.0889         calculate D2E/DX2 analytically  !
 ! R50   R(42,44)                1.0927         calculate D2E/DX2 analytically  !
 ! R51   R(42,45)                1.0927         calculate D2E/DX2 analytically  !
 ! R52   R(46,47)                1.093          calculate D2E/DX2 analytically  !
 ! R53   R(46,48)                1.0929         calculate D2E/DX2 analytically  !
 ! R54   R(46,49)                1.0916         calculate D2E/DX2 analytically  !
 ! R55   R(51,52)                1.0066         calculate D2E/DX2 analytically  !
 ! R56   R(51,53)                1.0089         calculate D2E/DX2 analytically  !
 ! A1    A(2,1,6)              122.8684         calculate D2E/DX2 analytically  !
 ! A2    A(2,1,23)             105.9761         calculate D2E/DX2 analytically  !
 ! A3    A(6,1,23)             131.1544         calculate D2E/DX2 analytically  !
 ! A4    A(1,2,3)              120.2741         calculate D2E/DX2 analytically  !
 ! A5    A(1,2,11)             108.3643         calculate D2E/DX2 analytically  !
 ! A6    A(3,2,11)             131.3606         calculate D2E/DX2 analytically  !
 ! A7    A(2,3,4)              117.1953         calculate D2E/DX2 analytically  !
 ! A8    A(2,3,8)              121.0981         calculate D2E/DX2 analytically  !
 ! A9    A(4,3,8)              121.7065         calculate D2E/DX2 analytically  !
 ! A10   A(3,4,5)              121.9634         calculate D2E/DX2 analytically  !
 ! A11   A(3,4,9)              119.5065         calculate D2E/DX2 analytically  !
 ! A12   A(5,4,9)              118.5301         calculate D2E/DX2 analytically  !
 ! A13   A(4,5,6)              122.176          calculate D2E/DX2 analytically  !
 ! A14   A(4,5,10)             117.8414         calculate D2E/DX2 analytically  !
 ! A15   A(6,5,10)             119.982          calculate D2E/DX2 analytically  !
 ! A16   A(1,6,5)              115.5221         calculate D2E/DX2 analytically  !
 ! A17   A(1,6,25)             118.2338         calculate D2E/DX2 analytically  !
 ! A18   A(5,6,25)             126.2423         calculate D2E/DX2 analytically  !
 ! A19   A(11,7,13)            122.0016         calculate D2E/DX2 analytically  !
 ! A20   A(11,7,23)            111.1596         calculate D2E/DX2 analytically  !
 ! A21   A(13,7,23)            126.8347         calculate D2E/DX2 analytically  !
 ! A22   A(2,11,7)             106.7626         calculate D2E/DX2 analytically  !
 ! A23   A(2,11,54)            126.6187         calculate D2E/DX2 analytically  !
 ! A24   A(7,11,54)            126.6187         calculate D2E/DX2 analytically  !
 ! A25   A(13,12,17)           120.4168         calculate D2E/DX2 analytically  !
 ! A26   A(13,12,22)           119.9924         calculate D2E/DX2 analytically  !
 ! A27   A(17,12,22)           119.589          calculate D2E/DX2 analytically  !
 ! A28   A(7,13,12)            117.6952         calculate D2E/DX2 analytically  !
 ! A29   A(7,13,14)            122.992          calculate D2E/DX2 analytically  !
 ! A30   A(12,13,14)           119.3032         calculate D2E/DX2 analytically  !
 ! A31   A(13,14,15)           120.9789         calculate D2E/DX2 analytically  !
 ! A32   A(13,14,18)           119.7438         calculate D2E/DX2 analytically  !
 ! A33   A(15,14,18)           119.2762         calculate D2E/DX2 analytically  !
 ! A34   A(14,15,16)           118.7215         calculate D2E/DX2 analytically  !
 ! A35   A(14,15,20)           119.313          calculate D2E/DX2 analytically  !
 ! A36   A(16,15,20)           121.9544         calculate D2E/DX2 analytically  !
 ! A37   A(15,16,17)           123.9488         calculate D2E/DX2 analytically  !
 ! A38   A(15,16,19)           117.6765         calculate D2E/DX2 analytically  !
 ! A39   A(17,16,19)           118.3747         calculate D2E/DX2 analytically  !
 ! A40   A(12,17,16)           116.6261         calculate D2E/DX2 analytically  !
 ! A41   A(12,17,21)           121.1227         calculate D2E/DX2 analytically  !
 ! A42   A(16,17,21)           122.2505         calculate D2E/DX2 analytically  !
 ! A43   A(15,20,26)           107.952          calculate D2E/DX2 analytically  !
 ! A44   A(15,20,30)           109.1692         calculate D2E/DX2 analytically  !
 ! A45   A(15,20,34)           112.7607         calculate D2E/DX2 analytically  !
 ! A46   A(26,20,30)           109.0989         calculate D2E/DX2 analytically  !
 ! A47   A(26,20,34)           108.9906         calculate D2E/DX2 analytically  !
 ! A48   A(30,20,34)           108.8116         calculate D2E/DX2 analytically  !
 ! A49   A(17,21,38)           109.8416         calculate D2E/DX2 analytically  !
 ! A50   A(17,21,42)           109.8095         calculate D2E/DX2 analytically  !
 ! A51   A(17,21,46)           111.0376         calculate D2E/DX2 analytically  !
 ! A52   A(38,21,42)           110.145          calculate D2E/DX2 analytically  !
 ! A53   A(38,21,46)           107.9652         calculate D2E/DX2 analytically  !
 ! A54   A(42,21,46)           108.0059         calculate D2E/DX2 analytically  !
 ! A55   A(1,23,7)             107.7369         calculate D2E/DX2 analytically  !
 ! A56   A(1,23,24)            121.5018         calculate D2E/DX2 analytically  !
 ! A57   A(7,23,24)            130.7612         calculate D2E/DX2 analytically  !
 ! A58   A(6,25,50)            120.0208         calculate D2E/DX2 analytically  !
 ! A59   A(6,25,51)            117.8876         calculate D2E/DX2 analytically  !
 ! A60   A(50,25,51)           122.0906         calculate D2E/DX2 analytically  !
 ! A61   A(20,26,27)           111.4739         calculate D2E/DX2 analytically  !
 ! A62   A(20,26,28)           109.1145         calculate D2E/DX2 analytically  !
 ! A63   A(20,26,29)           110.9275         calculate D2E/DX2 analytically  !
 ! A64   A(27,26,28)           108.2617         calculate D2E/DX2 analytically  !
 ! A65   A(27,26,29)           108.5295         calculate D2E/DX2 analytically  !
 ! A66   A(28,26,29)           108.4484         calculate D2E/DX2 analytically  !
 ! A67   A(20,30,31)           110.952          calculate D2E/DX2 analytically  !
 ! A68   A(20,30,32)           108.9378         calculate D2E/DX2 analytically  !
 ! A69   A(20,30,33)           111.897          calculate D2E/DX2 analytically  !
 ! A70   A(31,30,32)           108.4019         calculate D2E/DX2 analytically  !
 ! A71   A(31,30,33)           108.5371         calculate D2E/DX2 analytically  !
 ! A72   A(32,30,33)           108.0112         calculate D2E/DX2 analytically  !
 ! A73   A(20,34,35)           111.7332         calculate D2E/DX2 analytically  !
 ! A74   A(20,34,36)           111.7733         calculate D2E/DX2 analytically  !
 ! A75   A(20,34,37)           108.9406         calculate D2E/DX2 analytically  !
 ! A76   A(35,34,36)           108.6712         calculate D2E/DX2 analytically  !
 ! A77   A(35,34,37)           107.8015         calculate D2E/DX2 analytically  !
 ! A78   A(36,34,37)           107.7658         calculate D2E/DX2 analytically  !
 ! A79   A(21,38,39)           108.8737         calculate D2E/DX2 analytically  !
 ! A80   A(21,38,40)           112.0867         calculate D2E/DX2 analytically  !
 ! A81   A(21,38,41)           110.5985         calculate D2E/DX2 analytically  !
 ! A82   A(39,38,40)           108.3398         calculate D2E/DX2 analytically  !
 ! A83   A(39,38,41)           108.1531         calculate D2E/DX2 analytically  !
 ! A84   A(40,38,41)           108.686          calculate D2E/DX2 analytically  !
 ! A85   A(21,42,43)           111.859          calculate D2E/DX2 analytically  !
 ! A86   A(21,42,44)           108.9829         calculate D2E/DX2 analytically  !
 ! A87   A(21,42,45)           110.5587         calculate D2E/DX2 analytically  !
 ! A88   A(43,42,44)           108.4454         calculate D2E/DX2 analytically  !
 ! A89   A(43,42,45)           108.6433         calculate D2E/DX2 analytically  !
 ! A90   A(44,42,45)           108.2623         calculate D2E/DX2 analytically  !
 ! A91   A(21,46,47)           111.7996         calculate D2E/DX2 analytically  !
 ! A92   A(21,46,48)           111.6889         calculate D2E/DX2 analytically  !
 ! A93   A(21,46,49)           108.8116         calculate D2E/DX2 analytically  !
 ! A94   A(47,46,48)           108.4975         calculate D2E/DX2 analytically  !
 ! A95   A(47,46,49)           107.9249         calculate D2E/DX2 analytically  !
 ! A96   A(48,46,49)           107.9778         calculate D2E/DX2 analytically  !
 ! A97   A(25,51,52)           123.01           calculate D2E/DX2 analytically  !
 ! A98   A(25,51,53)           118.2615         calculate D2E/DX2 analytically  !
 ! A99   A(52,51,53)           118.1352         calculate D2E/DX2 analytically  !
 ! D1    D(6,1,2,3)             -0.0562         calculate D2E/DX2 analytically  !
 ! D2    D(6,1,2,11)           179.6197         calculate D2E/DX2 analytically  !
 ! D3    D(23,1,2,3)          -179.7173         calculate D2E/DX2 analytically  !
 ! D4    D(23,1,2,11)           -0.0414         calculate D2E/DX2 analytically  !
 ! D5    D(2,1,6,5)              0.2436         calculate D2E/DX2 analytically  !
 ! D6    D(2,1,6,25)          -179.3126         calculate D2E/DX2 analytically  !
 ! D7    D(23,1,6,5)           179.8109         calculate D2E/DX2 analytically  !
 ! D8    D(23,1,6,25)            0.2548         calculate D2E/DX2 analytically  !
 ! D9    D(2,1,23,7)             0.166          calculate D2E/DX2 analytically  !
 ! D10   D(2,1,23,24)         -179.9194         calculate D2E/DX2 analytically  !
 ! D11   D(6,1,23,7)          -179.4561         calculate D2E/DX2 analytically  !
 ! D12   D(6,1,23,24)            0.4586         calculate D2E/DX2 analytically  !
 ! D13   D(1,2,3,4)             -0.1424         calculate D2E/DX2 analytically  !
 ! D14   D(1,2,3,8)            179.7924         calculate D2E/DX2 analytically  !
 ! D15   D(11,2,3,4)          -179.7325         calculate D2E/DX2 analytically  !
 ! D16   D(11,2,3,8)             0.2022         calculate D2E/DX2 analytically  !
 ! D17   D(1,2,11,7)            -0.1013         calculate D2E/DX2 analytically  !
 ! D18   D(1,2,11,54)          179.8987         calculate D2E/DX2 analytically  !
 ! D19   D(3,2,11,7)           179.5258         calculate D2E/DX2 analytically  !
 ! D20   D(3,2,11,54)           -0.4742         calculate D2E/DX2 analytically  !
 ! D21   D(2,3,4,5)              0.1458         calculate D2E/DX2 analytically  !
 ! D22   D(2,3,4,9)           -179.8185         calculate D2E/DX2 analytically  !
 ! D23   D(8,3,4,5)           -179.7885         calculate D2E/DX2 analytically  !
 ! D24   D(8,3,4,9)              0.2472         calculate D2E/DX2 analytically  !
 ! D25   D(3,4,5,6)              0.0521         calculate D2E/DX2 analytically  !
 ! D26   D(3,4,5,10)          -179.6795         calculate D2E/DX2 analytically  !
 ! D27   D(9,4,5,6)           -179.9833         calculate D2E/DX2 analytically  !
 ! D28   D(9,4,5,10)             0.2851         calculate D2E/DX2 analytically  !
 ! D29   D(4,5,6,1)             -0.2408         calculate D2E/DX2 analytically  !
 ! D30   D(4,5,6,25)           179.2743         calculate D2E/DX2 analytically  !
 ! D31   D(10,5,6,1)           179.4851         calculate D2E/DX2 analytically  !
 ! D32   D(10,5,6,25)           -0.9997         calculate D2E/DX2 analytically  !
 ! D33   D(1,6,25,50)           -1.7432         calculate D2E/DX2 analytically  !
 ! D34   D(1,6,25,51)          178.6243         calculate D2E/DX2 analytically  !
 ! D35   D(5,6,25,50)          178.7534         calculate D2E/DX2 analytically  !
 ! D36   D(5,6,25,51)           -0.8791         calculate D2E/DX2 analytically  !
 ! D37   D(13,7,11,2)         -179.0988         calculate D2E/DX2 analytically  !
 ! D38   D(13,7,11,54)           0.9012         calculate D2E/DX2 analytically  !
 ! D39   D(23,7,11,2)            0.2116         calculate D2E/DX2 analytically  !
 ! D40   D(23,7,11,54)        -179.7884         calculate D2E/DX2 analytically  !
 ! D41   D(11,7,13,12)          -0.5491         calculate D2E/DX2 analytically  !
 ! D42   D(11,7,13,14)         178.3123         calculate D2E/DX2 analytically  !
 ! D43   D(23,7,13,12)        -179.7457         calculate D2E/DX2 analytically  !
 ! D44   D(23,7,13,14)          -0.8842         calculate D2E/DX2 analytically  !
 ! D45   D(11,7,23,1)           -0.2413         calculate D2E/DX2 analytically  !
 ! D46   D(11,7,23,24)         179.8548         calculate D2E/DX2 analytically  !
 ! D47   D(13,7,23,1)          179.0281         calculate D2E/DX2 analytically  !
 ! D48   D(13,7,23,24)          -0.8759         calculate D2E/DX2 analytically  !
 ! D49   D(17,12,13,7)         179.6043         calculate D2E/DX2 analytically  !
 ! D50   D(17,12,13,14)          0.6993         calculate D2E/DX2 analytically  !
 ! D51   D(22,12,13,7)           0.0917         calculate D2E/DX2 analytically  !
 ! D52   D(22,12,13,14)       -178.8132         calculate D2E/DX2 analytically  !
 ! D53   D(13,12,17,16)         -0.7726         calculate D2E/DX2 analytically  !
 ! D54   D(13,12,17,21)        179.5212         calculate D2E/DX2 analytically  !
 ! D55   D(22,12,17,16)        178.7419         calculate D2E/DX2 analytically  !
 ! D56   D(22,12,17,21)         -0.9643         calculate D2E/DX2 analytically  !
 ! D57   D(7,13,14,15)        -178.9849         calculate D2E/DX2 analytically  !
 ! D58   D(7,13,14,18)           0.6274         calculate D2E/DX2 analytically  !
 ! D59   D(12,13,14,15)         -0.1409         calculate D2E/DX2 analytically  !
 ! D60   D(12,13,14,18)        179.4714         calculate D2E/DX2 analytically  !
 ! D61   D(13,14,15,16)         -0.3096         calculate D2E/DX2 analytically  !
 ! D62   D(13,14,15,20)        178.5021         calculate D2E/DX2 analytically  !
 ! D63   D(18,14,15,16)       -179.9237         calculate D2E/DX2 analytically  !
 ! D64   D(18,14,15,20)         -1.112          calculate D2E/DX2 analytically  !
 ! D65   D(14,15,16,17)          0.2172         calculate D2E/DX2 analytically  !
 ! D66   D(14,15,16,19)       -179.8339         calculate D2E/DX2 analytically  !
 ! D67   D(20,15,16,17)       -178.5616         calculate D2E/DX2 analytically  !
 ! D68   D(20,15,16,19)          1.3873         calculate D2E/DX2 analytically  !
 ! D69   D(14,15,20,26)        -61.0841         calculate D2E/DX2 analytically  !
 ! D70   D(14,15,20,30)         57.3904         calculate D2E/DX2 analytically  !
 ! D71   D(14,15,20,34)        178.4592         calculate D2E/DX2 analytically  !
 ! D72   D(16,15,20,26)        117.6877         calculate D2E/DX2 analytically  !
 ! D73   D(16,15,20,30)       -123.8378         calculate D2E/DX2 analytically  !
 ! D74   D(16,15,20,34)         -2.769          calculate D2E/DX2 analytically  !
 ! D75   D(15,16,17,12)          0.3226         calculate D2E/DX2 analytically  !
 ! D76   D(15,16,17,21)       -179.9748         calculate D2E/DX2 analytically  !
 ! D77   D(19,16,17,12)       -179.626          calculate D2E/DX2 analytically  !
 ! D78   D(19,16,17,21)          0.0767         calculate D2E/DX2 analytically  !
 ! D79   D(12,17,21,38)         61.8026         calculate D2E/DX2 analytically  !
 ! D80   D(12,17,21,42)        -59.472          calculate D2E/DX2 analytically  !
 ! D81   D(12,17,21,46)       -178.8498         calculate D2E/DX2 analytically  !
 ! D82   D(16,17,21,38)       -117.8869         calculate D2E/DX2 analytically  !
 ! D83   D(16,17,21,42)        120.8385         calculate D2E/DX2 analytically  !
 ! D84   D(16,17,21,46)          1.4608         calculate D2E/DX2 analytically  !
 ! D85   D(15,20,26,27)         59.114          calculate D2E/DX2 analytically  !
 ! D86   D(15,20,26,28)        178.6331         calculate D2E/DX2 analytically  !
 ! D87   D(15,20,26,29)        -61.9539         calculate D2E/DX2 analytically  !
 ! D88   D(30,20,26,27)        -59.4054         calculate D2E/DX2 analytically  !
 ! D89   D(30,20,26,28)         60.1137         calculate D2E/DX2 analytically  !
 ! D90   D(30,20,26,29)        179.5267         calculate D2E/DX2 analytically  !
 ! D91   D(34,20,26,27)       -178.094          calculate D2E/DX2 analytically  !
 ! D92   D(34,20,26,28)        -58.5748         calculate D2E/DX2 analytically  !
 ! D93   D(34,20,26,29)         60.8382         calculate D2E/DX2 analytically  !
 ! D94   D(15,20,30,31)         62.201          calculate D2E/DX2 analytically  !
 ! D95   D(15,20,30,32)       -178.5403         calculate D2E/DX2 analytically  !
 ! D96   D(15,20,30,33)        -59.185          calculate D2E/DX2 analytically  !
 ! D97   D(26,20,30,31)        179.9562         calculate D2E/DX2 analytically  !
 ! D98   D(26,20,30,32)        -60.7851         calculate D2E/DX2 analytically  !
 ! D99   D(26,20,30,33)         58.5701         calculate D2E/DX2 analytically  !
 ! D100  D(34,20,30,31)        -61.2436         calculate D2E/DX2 analytically  !
 ! D101  D(34,20,30,32)         58.0151         calculate D2E/DX2 analytically  !
 ! D102  D(34,20,30,33)        177.3704         calculate D2E/DX2 analytically  !
 ! D103  D(15,20,34,35)        -61.0795         calculate D2E/DX2 analytically  !
 ! D104  D(15,20,34,36)         60.9483         calculate D2E/DX2 analytically  !
 ! D105  D(15,20,34,37)        179.9246         calculate D2E/DX2 analytically  !
 ! D106  D(26,20,34,35)        179.0609         calculate D2E/DX2 analytically  !
 ! D107  D(26,20,34,36)        -58.9113         calculate D2E/DX2 analytically  !
 ! D108  D(26,20,34,37)         60.065          calculate D2E/DX2 analytically  !
 ! D109  D(30,20,34,35)         60.1928         calculate D2E/DX2 analytically  !
 ! D110  D(30,20,34,36)       -177.7794         calculate D2E/DX2 analytically  !
 ! D111  D(30,20,34,37)        -58.8031         calculate D2E/DX2 analytically  !
 ! D112  D(17,21,38,39)        178.1154         calculate D2E/DX2 analytically  !
 ! D113  D(17,21,38,40)        -62.0439         calculate D2E/DX2 analytically  !
 ! D114  D(17,21,38,41)         59.4146         calculate D2E/DX2 analytically  !
 ! D115  D(42,21,38,39)        -60.8115         calculate D2E/DX2 analytically  !
 ! D116  D(42,21,38,40)         59.0291         calculate D2E/DX2 analytically  !
 ! D117  D(42,21,38,41)       -179.5123         calculate D2E/DX2 analytically  !
 ! D118  D(46,21,38,39)         56.9039         calculate D2E/DX2 analytically  !
 ! D119  D(46,21,38,40)        176.7446         calculate D2E/DX2 analytically  !
 ! D120  D(46,21,38,41)        -61.7969         calculate D2E/DX2 analytically  !
 ! D121  D(17,21,42,43)         63.3417         calculate D2E/DX2 analytically  !
 ! D122  D(17,21,42,44)       -176.7565         calculate D2E/DX2 analytically  !
 ! D123  D(17,21,42,45)        -57.8784         calculate D2E/DX2 analytically  !
 ! D124  D(38,21,42,43)        -57.7505         calculate D2E/DX2 analytically  !
 ! D125  D(38,21,42,44)         62.1514         calculate D2E/DX2 analytically  !
 ! D126  D(38,21,42,45)       -178.9706         calculate D2E/DX2 analytically  !
 ! D127  D(46,21,42,43)       -175.4408         calculate D2E/DX2 analytically  !
 ! D128  D(46,21,42,44)        -55.5389         calculate D2E/DX2 analytically  !
 ! D129  D(46,21,42,45)         63.3391         calculate D2E/DX2 analytically  !
 ! D130  D(17,21,46,47)        -61.0697         calculate D2E/DX2 analytically  !
 ! D131  D(17,21,46,48)         60.7202         calculate D2E/DX2 analytically  !
 ! D132  D(17,21,46,49)        179.8241         calculate D2E/DX2 analytically  !
 ! D133  D(38,21,46,47)         59.3952         calculate D2E/DX2 analytically  !
 ! D134  D(38,21,46,48)       -178.8149         calculate D2E/DX2 analytically  !
 ! D135  D(38,21,46,49)        -59.711          calculate D2E/DX2 analytically  !
 ! D136  D(42,21,46,47)        178.4788         calculate D2E/DX2 analytically  !
 ! D137  D(42,21,46,48)        -59.7313         calculate D2E/DX2 analytically  !
 ! D138  D(42,21,46,49)         59.3726         calculate D2E/DX2 analytically  !
 ! D139  D(6,25,51,52)          -5.8415         calculate D2E/DX2 analytically  !
 ! D140  D(6,25,51,53)        -176.8346         calculate D2E/DX2 analytically  !
 ! D141  D(50,25,51,52)        174.5341         calculate D2E/DX2 analytically  !
 ! D142  D(50,25,51,53)          3.541          calculate D2E/DX2 analytically  !
 --------------------------------------------------------------------------------
 Trust Radius=3.00D-01 FncErr=5.00D-06 GrdErr=5.00D-06 EigMax=2.50D+02 EigMin=1.00D-04
 Number of steps in this run=    307 maximum allowed number of steps=    324.
 GradGradGradGradGradGradGradGradGradGradGradGradGradGradGradGradGradGrad

 Leave Link  103 at Tue Feb 12 14:55:47 2019, MaxMem=  1342177280 cpu:               1.0 elap:               0.2
 (Enter /gpfs/apps/hpc/Apps/Restricted/Gaussian/g16/Rev_B.01-AVX/g16/l202.exe)
 Symmetry turned off by external request.
 Stoichiometry    C22H27N3O2(1+,2)
 Framework group  C1[X(C22H27N3O2)]
 Deg. of freedom   156
 Full point group                 C1      NOp   1
                          Input orientation:                          
 ---------------------------------------------------------------------
 Center     Atomic      Atomic             Coordinates (Angstroms)
 Number     Number       Type             X           Y           Z
 ---------------------------------------------------------------------
      1          6           0       -0.460428    2.735524    0.446323
      2          6           0       -1.869381    2.860977    0.319116
      3          6           0       -2.459229    4.128064    0.212122
      4          6           0       -1.611825    5.226396    0.239775
      5          6           0       -0.212952    5.087825    0.366656
      6          6           0        0.403475    3.841091    0.470839
      7          6           0       -1.402162    0.736962    0.439368
      8          1           0       -3.531181    4.239008    0.111281
      9          1           0       -2.027980    6.223212    0.162846
     10          1           0        0.385150    5.990746    0.386241
     11          7           0       -2.418291    1.600557    0.320074
     12          6           0       -2.981818   -1.178361    0.350492
     13          6           0       -1.610147   -0.691347    0.456400
     14          6           0       -0.575082   -1.600797    0.544414
     15          6           0       -0.825096   -2.986204    0.536308
     16          6           0       -2.167945   -3.436468    0.442229
     17          6           0       -3.256643   -2.596661    0.352900
     18          1           0        0.445286   -1.247657    0.614560
     19          1           0       -2.340147   -4.499892    0.440209
     20          6           0        0.344584   -3.953436    0.600540
     21          6           0       -4.687489   -3.124153    0.253744
     22          8           0       -3.964111   -0.334742    0.243709
     23          7           0       -0.206714    1.390931    0.521193
     24          1           0        0.737656    1.034509    0.618382
     25          6           0        1.868559    3.589190    0.592767
     26          6           0        1.231363   -3.712792   -0.644456
     27          1           0        1.598602   -2.685387   -0.680988
     28          1           0        2.093341   -4.383355   -0.604858
     29          1           0        0.677091   -3.916210   -1.563500
     30          6           0        1.171921   -3.665529    1.874069
     31          1           0        0.573105   -3.825688    2.773317
     32          1           0        2.026535   -4.345768    1.903067
     33          1           0        1.553789   -2.642932    1.888956
     34          6           0       -0.099791   -5.421726    0.620713
     35          1           0       -0.717561   -5.645629    1.494084
     36          1           0       -0.657753   -5.688837   -0.280285
     37          1           0        0.785206   -6.059173    0.665660
     38          6           0       -5.318263   -2.681335   -1.086270
     39          1           0       -6.327499   -3.094500   -1.155507
     40          1           0       -5.385280   -1.597440   -1.168956
     41          1           0       -4.736228   -3.061421   -1.929322
     42          6           0       -5.525635   -2.591310    1.438600
     43          1           0       -5.615197   -1.506346    1.416332
     44          1           0       -6.528499   -3.022146    1.386748
     45          1           0       -5.075469   -2.885195    2.389898
     46          6           0       -4.714164   -4.660197    0.305642
     47          1           0       -4.159200   -5.104099   -0.524840
     48          1           0       -4.298835   -5.039954    1.242535
     49          1           0       -5.750160   -4.996818    0.235438
     50          8           0        2.292593    2.425832    0.702114
     51          7           0        2.693045    4.653346    0.587152
     52          1           0        2.374103    5.593270    0.419830
     53          1           0        3.687634    4.487258    0.620330
     54          1           0       -3.389166    1.372717    0.245970
 ---------------------------------------------------------------------
 Rotational constants (GHZ):           0.2896074           0.1099549           0.0826228
 Leave Link  202 at Tue Feb 12 14:55:47 2019, MaxMem=  1342177280 cpu:               0.8 elap:               0.1
 (Enter /gpfs/apps/hpc/Apps/Restricted/Gaussian/g16/Rev_B.01-AVX/g16/l301.exe)
 Standard basis: 6-31G(d,p) (6D, 7F)
 Ernie: Thresh=  0.10000D-02 Tol=  0.10000D-05 Strict=F.
   540 basis functions,   945 primitive gaussians,   540 cartesian basis functions
    98 alpha electrons       97 beta electrons
       nuclear repulsion energy      2454.7652276222 Hartrees.
 IExCor=  402 DFT=T Ex+Corr=B3LYP ExCW=0 ScaHFX=  0.200000
 ScaDFX=  0.800000  0.720000  1.000000  0.810000 ScalE2=  1.000000  1.000000
 IRadAn=      5 IRanWt=     -1 IRanGd=            0 ICorTp=0 IEmpDi=141
 NAtoms=   54 NActive=   54 NUniq=   54 SFac= 1.00D+00 NAtFMM=   60 NAOKFM=F Big=F
 Integral buffers will be    131072 words long.
 Raffenetti 2 integral format.
 Two-electron integral symmetry is turned off.
 R6Disp:  Grimme-D3(BJ) Dispersion energy=       -0.1195089021 Hartrees.
 Nuclear repulsion after empirical dispersion term =     2454.6457187201 Hartrees.
 Force inversion solution in PCM.
 Using the following non-standard input for PCM:
 radii=bondi
 dis
 rep
 cav
 --- end of non-standard input.
 Force inversion solution in PCM.
 ------------------------------------------------------------------------------
 Polarizable Continuum Model (PCM)
 =================================
 Model                : C-PCM.
 Atomic radii         : Bondi.
 Polarization charges : Total charges.
 Charge compensation  : None.
 Solution method      : Matrix inversion.
 Cavity type          : Scaled VdW (van der Waals Surface) (Alpha=1.100).
 Cavity algorithm     : GePol (No added spheres)
                        Default sphere list used, NSphG=   54.
                        Lebedev-Laikov grids with approx.  5.0 points / Ang**2.
                        Smoothing algorithm: York/Karplus (Gamma=1.0000).
                        Polarization charges: spherical gaussians, with
                                              point-specific exponents (IZeta= 3).
                        Self-potential: point-specific (ISelfS= 7).
                        Self-field    : sphere-specific E.n sum rule (ISelfD= 2).
 1st derivatives      : Analytical E(r).r(x)/FMM algorithm (CHGder, D1EAlg=3).
                        Cavity 1st derivative terms included.
 2nd derivatives      : Analytical E(r).r(xy)/FMM algorithm (CHGder, D2EAlg=3).
                        Cavity 2nd derivative terms included.
 Solvent              : Dichloromethane, Eps=   8.930000 Eps(inf)=   2.028346
 ------------------------------------------------------------------------------
 GePol: Number of generator spheres                  =      54
 GePol: Total number of spheres                      =      54
 GePol: Number of exposed spheres                    =      54 (100.00%)
 GePol: Number of points                             =    3496
 GePol: Average weight of points                     =       0.12
 GePol: Minimum weight of points                     =   0.16D-10
 GePol: Maximum weight of points                     =    0.21770
 GePol: Number of points with low weight             =     247
 GePol: Fraction of low-weight points (<1% of avg)   =       7.07%
 GePol: Cavity surface area                          =    419.238 Ang**2
 GePol: Cavity volume                                =    404.831 Ang**3
 PCM non-electrostatic energy =         0.0177458161 Hartrees.
 Nuclear repulsion after PCM non-electrostatic terms =     2454.6634645363 Hartrees.
 Leave Link  301 at Tue Feb 12 14:55:47 2019, MaxMem=  1342177280 cpu:               2.2 elap:               0.2
 (Enter /gpfs/apps/hpc/Apps/Restricted/Gaussian/g16/Rev_B.01-AVX/g16/l302.exe)
 NPDir=0 NMtPBC=     1 NCelOv=     1 NCel=       1 NClECP=     1 NCelD=      1
         NCelK=      1 NCelE2=     1 NClLst=     1 CellRange=     0.0.
 One-electron integrals computed using PRISM.
 NBasis=   540 RedAO= T EigKep=  3.04D-04  NBF=   540
 NBsUse=   540 1.00D-06 EigRej= -1.00D+00 NBFU=   540
 Precomputing XC quadrature grid using
 IXCGrd= 4 IRadAn=           5 IRanWt=          -1 IRanGd=           0 AccXCQ= 0.00D+00.
 Generated NRdTot=       0 NPtTot=           0 NUsed=           0 NTot=          32
 NSgBfM=   533   533   533   533   533 MxSgAt=    54 MxSgA2=    54.
 Leave Link  302 at Tue Feb 12 14:55:48 2019, MaxMem=  1342177280 cpu:              10.7 elap:               0.8
 (Enter /gpfs/apps/hpc/Apps/Restricted/Gaussian/g16/Rev_B.01-AVX/g16/l303.exe)
 DipDrv:  MaxL=1.
 Leave Link  303 at Tue Feb 12 14:55:48 2019, MaxMem=  1342177280 cpu:               2.2 elap:               0.2
 (Enter /gpfs/apps/hpc/Apps/Restricted/Gaussian/g16/Rev_B.01-AVX/g16/l401.exe)
 ExpMin= 1.61D-01 ExpMax= 5.48D+03 ExpMxC= 8.25D+02 IAcc=3 IRadAn=         5 AccDes= 0.00D+00
 Harris functional with IExCor=  402 and IRadAn=       5 diagonalized for initial guess.
 HarFok:  IExCor=  402 AccDes= 0.00D+00 IRadAn=         5 IDoV= 1 UseB2=F ITyADJ=14
 ICtDFT=  3500011 ScaDFX=  1.000000  1.000000  1.000000  1.000000
 FoFCou: FMM=F IPFlag=           0 FMFlag=      100000 FMFlg1=           0
         NFxFlg=           0 DoJE=T BraDBF=F KetDBF=T FulRan=T
         wScrn=  0.000000 ICntrl=       500 IOpCl=  0 I1Cent=   200000004 NGrid=           0
         NMat0=    1 NMatS0=      1 NMatT0=    0 NMatD0=    1 NMtDS0=    0 NMtDT0=    0
 Symmetry not used in FoFCou.
 Harris En= -1169.31360081850    
 JPrj=0 DoOrth=F DoCkMO=F.
 Initial guess <Sx>= 0.0000 <Sy>= 0.0000 <Sz>= 0.5000 <S**2>= 0.7500 S= 0.5000
 Leave Link  401 at Tue Feb 12 14:55:51 2019, MaxMem=  1342177280 cpu:              36.3 elap:               2.3
 (Enter /gpfs/apps/hpc/Apps/Restricted/Gaussian/g16/Rev_B.01-AVX/g16/l502.exe)
 Two-electron integral symmetry not used.
 UHF open shell SCF:
 Using DIIS extrapolation, IDIIS=  1040.
 NGot=  1342177280 LenX=  1341580900 LenY=  1341288760
 Requested convergence on RMS density matrix=1.00D-08 within 128 cycles.
 Requested convergence on MAX density matrix=1.00D-06.
 Requested convergence on             energy=1.00D-06.
 No special actions if energy rises.
 Fock matrices will be formed incrementally for  20 cycles.

 Cycle   1  Pass 1  IDiag  1:
 FoFJK:  IHMeth= 1 ICntrl=       0 DoSepK=F KAlg= 0 I1Cent=           0 FoldK=F
 IRaf= 630000000 NMat=       1 IRICut=       1 DoRegI=T DoRafI=F ISym2E= 0 IDoP0=0 IntGTp=1.
 FoFCou: FMM=F IPFlag=           0 FMFlag=      100000 FMFlg1=           0
         NFxFlg=           0 DoJE=F BraDBF=F KetDBF=F FulRan=T
         wScrn=  0.000000 ICntrl=         0 IOpCl=  1 I1Cent=           0 NGrid=           0
         NMat0=    1 NMatS0=      1 NMatT0=    0 NMatD0=    1 NMtDS0=    0 NMtDT0=    0
 Symmetry not used in FoFCou.
 Inv3:  Mode=1 IEnd=    36666048.
 Iteration    1 A*A^-1 deviation from unit magnitude is 9.44D-15 for   3478.
 Iteration    1 A*A^-1 deviation from orthogonality  is 6.68D-15 for   3478   3361.
 Iteration    1 A^-1*A deviation from unit magnitude is 8.88D-15 for   3478.
 Iteration    1 A^-1*A deviation from orthogonality  is 1.78D-15 for   3495   1607.
 E= -1168.65926938495    
 DIIS: error= 2.75D-02 at cycle   1 NSaved=   1.
 NSaved= 1 IEnMin= 1 EnMin= -1168.65926938495     IErMin= 1 ErrMin= 2.75D-02
 ErrMax= 2.75D-02  0.00D+00 EMaxC= 1.00D-01 BMatC= 2.82D+00 BMatP= 2.82D+00
 IDIUse=3 WtCom= 7.25D-01 WtEn= 2.75D-01
 Coeff-Com:  0.100D+01
 Coeff-En:   0.100D+01
 Coeff:      0.100D+01
 Gap=     0.130 Goal=   None    Shift=    0.000
 Gap=     0.085 Goal=   None    Shift=    0.000
 GapD=    0.085 DampG=0.500 DampE=0.500 DampFc=0.2500 IDamp=-1.
 Damping current iteration by 2.50D-01
 RMSDP=3.88D-03 MaxDP=1.93D-01              OVMax= 3.18D-01

 Cycle   2  Pass 1  IDiag  1:
 RMSU=  9.52D-04    CP:  9.86D-01
 E= -1168.91055500076     Delta-E=       -0.251285615815 Rises=F Damp=T
 DIIS: error= 1.44D-02 at cycle   2 NSaved=   2.
 NSaved= 2 IEnMin= 2 EnMin= -1168.91055500076     IErMin= 2 ErrMin= 1.44D-02
 ErrMax= 1.44D-02  0.00D+00 EMaxC= 1.00D-01 BMatC= 6.73D-01 BMatP= 2.82D+00
 IDIUse=3 WtCom= 8.56D-01 WtEn= 1.44D-01
 Coeff-Com: -0.727D+00 0.173D+01
 Coeff-En:   0.000D+00 0.100D+01
 Coeff:     -0.622D+00 0.162D+01
 Gap=     0.165 Goal=   None    Shift=    0.000
 Gap=     0.132 Goal=   None    Shift=    0.000
 RMSDP=1.38D-03 MaxDP=6.13D-02 DE=-2.51D-01 OVMax= 2.24D-01

 Cycle   3  Pass 1  IDiag  1:
 RMSU=  1.11D-03    CP:  9.54D-01  1.73D+00
 E= -1169.31102711868     Delta-E=       -0.400472117915 Rises=F Damp=F
 DIIS: error= 9.21D-03 at cycle   3 NSaved=   3.
 NSaved= 3 IEnMin= 3 EnMin= -1169.31102711868     IErMin= 3 ErrMin= 9.21D-03
 ErrMax= 9.21D-03  0.00D+00 EMaxC= 1.00D-01 BMatC= 1.99D-01 BMatP= 6.73D-01
 IDIUse=3 WtCom= 9.08D-01 WtEn= 9.21D-02
 Coeff-Com: -0.385D+00 0.873D+00 0.511D+00
 Coeff-En:   0.000D+00 0.000D+00 0.100D+01
 Coeff:     -0.349D+00 0.793D+00 0.556D+00
 Gap=     0.141 Goal=   None    Shift=    0.000
 Gap=     0.084 Goal=   None    Shift=    0.000
 RMSDP=6.18D-04 MaxDP=7.11D-02 DE=-4.00D-01 OVMax= 1.06D-01

 Cycle   4  Pass 1  IDiag  1:
 RMSU=  4.72D-04    CP:  9.59D-01  1.87D+00  6.64D-01
 E= -1169.34421815864     Delta-E=       -0.033191039962 Rises=F Damp=F
 DIIS: error= 5.88D-03 at cycle   4 NSaved=   4.
 NSaved= 4 IEnMin= 4 EnMin= -1169.34421815864     IErMin= 4 ErrMin= 5.88D-03
 ErrMax= 5.88D-03  0.00D+00 EMaxC= 1.00D-01 BMatC= 6.18D-02 BMatP= 1.99D-01
 IDIUse=3 WtCom= 9.41D-01 WtEn= 5.88D-02
 Coeff-Com: -0.644D-01 0.158D+00 0.354D+00 0.552D+00
 Coeff-En:   0.000D+00 0.000D+00 0.237D+00 0.763D+00
 Coeff:     -0.606D-01 0.149D+00 0.347D+00 0.565D+00
 Gap=     0.145 Goal=   None    Shift=    0.000
 Gap=     0.084 Goal=   None    Shift=    0.000
 RMSDP=2.73D-04 MaxDP=3.23D-02 DE=-3.32D-02 OVMax= 3.69D-02

 Cycle   5  Pass 1  IDiag  1:
 RMSU=  1.57D-04    CP:  9.58D-01  1.80D+00  7.66D-01  6.11D-01
 E= -1169.35579761956     Delta-E=       -0.011579460920 Rises=F Damp=F
 DIIS: error= 1.79D-03 at cycle   5 NSaved=   5.
 NSaved= 5 IEnMin= 5 EnMin= -1169.35579761956     IErMin= 5 ErrMin= 1.79D-03
 ErrMax= 1.79D-03  0.00D+00 EMaxC= 1.00D-01 BMatC= 5.17D-03 BMatP= 6.18D-02
 IDIUse=3 WtCom= 9.82D-01 WtEn= 1.79D-02
 Coeff-Com: -0.601D-03 0.898D-02 0.158D+00 0.329D+00 0.505D+00
 Coeff-En:   0.000D+00 0.000D+00 0.000D+00 0.000D+00 0.100D+01
 Coeff:     -0.590D-03 0.882D-02 0.155D+00 0.323D+00 0.514D+00
 Gap=     0.146 Goal=   None    Shift=    0.000
 Gap=     0.087 Goal=   None    Shift=    0.000
 RMSDP=8.79D-05 MaxDP=1.33D-02 DE=-1.16D-02 OVMax= 2.43D-02

 Cycle   6  Pass 1  IDiag  1:
 RMSU=  5.82D-05    CP:  9.57D-01  1.80D+00  7.75D-01  6.81D-01  6.45D-01
 E= -1169.35702259006     Delta-E=       -0.001224970496 Rises=F Damp=F
 DIIS: error= 5.70D-04 at cycle   6 NSaved=   6.
 NSaved= 6 IEnMin= 6 EnMin= -1169.35702259006     IErMin= 6 ErrMin= 5.70D-04
 ErrMax= 5.70D-04  0.00D+00 EMaxC= 1.00D-01 BMatC= 6.32D-04 BMatP= 5.17D-03
 IDIUse=3 WtCom= 9.94D-01 WtEn= 5.70D-03
 Coeff-Com:  0.683D-02-0.117D-01 0.485D-01 0.108D+00 0.293D+00 0.555D+00
 Coeff-En:   0.000D+00 0.000D+00 0.000D+00 0.000D+00 0.000D+00 0.100D+01
 Coeff:      0.679D-02-0.116D-01 0.483D-01 0.108D+00 0.291D+00 0.557D+00
 Gap=     0.146 Goal=   None    Shift=    0.000
 Gap=     0.088 Goal=   None    Shift=    0.000
 RMSDP=3.26D-05 MaxDP=4.00D-03 DE=-1.22D-03 OVMax= 9.24D-03

 Cycle   7  Pass 1  IDiag  1:
 RMSU=  2.70D-05    CP:  9.57D-01  1.80D+00  7.78D-01  6.78D-01  7.54D-01
                    CP:  9.37D-01
 E= -1169.35721192424     Delta-E=       -0.000189334186 Rises=F Damp=F
 DIIS: error= 3.02D-04 at cycle   7 NSaved=   7.
 NSaved= 7 IEnMin= 7 EnMin= -1169.35721192424     IErMin= 7 ErrMin= 3.02D-04
 ErrMax= 3.02D-04  0.00D+00 EMaxC= 1.00D-01 BMatC= 9.86D-05 BMatP= 6.32D-04
 IDIUse=3 WtCom= 9.97D-01 WtEn= 3.02D-03
 Coeff-Com:  0.309D-02-0.663D-02-0.142D-01-0.366D-01 0.189D-01 0.247D+00
 Coeff-Com:  0.789D+00
 Coeff-En:   0.000D+00 0.000D+00 0.000D+00 0.000D+00 0.000D+00 0.000D+00
 Coeff-En:   0.100D+01
 Coeff:      0.308D-02-0.661D-02-0.141D-01-0.365D-01 0.189D-01 0.246D+00
 Coeff:      0.789D+00
 Gap=     0.147 Goal=   None    Shift=    0.000
 Gap=     0.089 Goal=   None    Shift=    0.000
 RMSDP=2.14D-05 MaxDP=3.69D-03 DE=-1.89D-04 OVMax= 8.13D-03

 Cycle   8  Pass 1  IDiag  1:
 RMSU=  1.36D-05    CP:  9.57D-01  1.80D+00  7.81D-01  6.84D-01  8.07D-01
                    CP:  1.17D+00  1.03D+00
 E= -1169.35727631414     Delta-E=       -0.000064389899 Rises=F Damp=F
 DIIS: error= 1.85D-04 at cycle   8 NSaved=   8.
 NSaved= 8 IEnMin= 8 EnMin= -1169.35727631414     IErMin= 8 ErrMin= 1.85D-04
 ErrMax= 1.85D-04  0.00D+00 EMaxC= 1.00D-01 BMatC= 5.34D-05 BMatP= 9.86D-05
 IDIUse=3 WtCom= 9.98D-01 WtEn= 1.85D-03
 Coeff-Com: -0.147D-04-0.543D-03-0.241D-01-0.617D-01-0.813D-01-0.654D-01
 Coeff-Com:  0.515D+00 0.718D+00
 Coeff-En:   0.000D+00 0.000D+00 0.000D+00 0.000D+00 0.000D+00 0.000D+00
 Coeff-En:   0.000D+00 0.100D+01
 Coeff:     -0.147D-04-0.542D-03-0.241D-01-0.616D-01-0.811D-01-0.653D-01
 Coeff:      0.514D+00 0.718D+00
 Gap=     0.148 Goal=   None    Shift=    0.000
 Gap=     0.090 Goal=   None    Shift=    0.000
 RMSDP=1.57D-05 MaxDP=2.11D-03 DE=-6.44D-05 OVMax= 4.99D-03

 Cycle   9  Pass 1  IDiag  1:
 RMSU=  8.09D-06    CP:  9.57D-01  1.80D+00  7.83D-01  6.85D-01  8.49D-01
                    CP:  1.30D+00  1.34D+00  1.03D+00
 E= -1169.35730363776     Delta-E=       -0.000027323612 Rises=F Damp=F
 DIIS: error= 8.71D-05 at cycle   9 NSaved=   9.
 NSaved= 9 IEnMin= 9 EnMin= -1169.35730363776     IErMin= 9 ErrMin= 8.71D-05
 ErrMax= 8.71D-05  0.00D+00 EMaxC= 1.00D-01 BMatC= 1.22D-05 BMatP= 5.34D-05
 IDIUse=1 WtCom= 1.00D+00 WtEn= 0.00D+00
 Coeff-Com: -0.775D-03 0.167D-02-0.878D-02-0.253D-01-0.508D-01-0.137D+00
 Coeff-Com:  0.773D-01 0.419D+00 0.725D+00
 Coeff:     -0.775D-03 0.167D-02-0.878D-02-0.253D-01-0.508D-01-0.137D+00
 Coeff:      0.773D-01 0.419D+00 0.725D+00
 Gap=     0.148 Goal=   None    Shift=    0.000
 Gap=     0.090 Goal=   None    Shift=    0.000
 RMSDP=8.16D-06 MaxDP=1.15D-03 DE=-2.73D-05 OVMax= 2.60D-03

 Cycle  10  Pass 1  IDiag  1:
 RMSU=  3.46D-06    CP:  9.57D-01  1.80D+00  7.84D-01  6.84D-01  8.70D-01
                    CP:  1.36D+00  1.49D+00  1.32D+00  9.19D-01
 E= -1169.35731028227     Delta-E=       -0.000006644518 Rises=F Damp=F
 DIIS: error= 3.13D-05 at cycle  10 NSaved=  10.
 NSaved=10 IEnMin=10 EnMin= -1169.35731028227     IErMin=10 ErrMin= 3.13D-05
 ErrMax= 3.13D-05  0.00D+00 EMaxC= 1.00D-01 BMatC= 1.65D-06 BMatP= 1.22D-05
 IDIUse=1 WtCom= 1.00D+00 WtEn= 0.00D+00
 Coeff-Com: -0.985D-04 0.381D-03-0.369D-03-0.234D-02-0.901D-02-0.554D-01
 Coeff-Com: -0.323D-01 0.651D-01 0.317D+00 0.717D+00
 Coeff:     -0.985D-04 0.381D-03-0.369D-03-0.234D-02-0.901D-02-0.554D-01
 Coeff:     -0.323D-01 0.651D-01 0.317D+00 0.717D+00
 Gap=     0.148 Goal=   None    Shift=    0.000
 Gap=     0.090 Goal=   None    Shift=    0.000
 RMSDP=2.61D-06 MaxDP=2.98D-04 DE=-6.64D-06 OVMax= 6.36D-04

 Cycle  11  Pass 1  IDiag  1:
 RMSU=  1.61D-06    CP:  9.57D-01  1.80D+00  7.84D-01  6.84D-01  8.73D-01
                    CP:  1.37D+00  1.53D+00  1.36D+00  1.08D+00  1.02D+00
 E= -1169.35731097996     Delta-E=       -0.000000697691 Rises=F Damp=F
 DIIS: error= 1.12D-05 at cycle  11 NSaved=  11.
 NSaved=11 IEnMin=11 EnMin= -1169.35731097996     IErMin=11 ErrMin= 1.12D-05
 ErrMax= 1.12D-05  0.00D+00 EMaxC= 1.00D-01 BMatC= 4.41D-07 BMatP= 1.65D-06
 IDIUse=1 WtCom= 1.00D+00 WtEn= 0.00D+00
 Coeff-Com:  0.137D-03-0.185D-03 0.222D-02 0.543D-02 0.935D-02 0.569D-02
 Coeff-Com: -0.313D-01-0.774D-01-0.252D-01 0.388D+00 0.723D+00
 Coeff:      0.137D-03-0.185D-03 0.222D-02 0.543D-02 0.935D-02 0.569D-02
 Coeff:     -0.313D-01-0.774D-01-0.252D-01 0.388D+00 0.723D+00
 Gap=     0.148 Goal=   None    Shift=    0.000
 Gap=     0.090 Goal=   None    Shift=    0.000
 RMSDP=1.25D-06 MaxDP=1.97D-04 DE=-6.98D-07 OVMax= 3.25D-04

 Cycle  12  Pass 1  IDiag  1:
 RMSU=  6.56D-07    CP:  9.57D-01  1.80D+00  7.84D-01  6.84D-01  8.74D-01
                    CP:  1.37D+00  1.54D+00  1.39D+00  1.14D+00  1.23D+00
                    CP:  9.16D-01
 E= -1169.35731115839     Delta-E=       -0.000000178430 Rises=F Damp=F
 DIIS: error= 1.01D-05 at cycle  12 NSaved=  12.
 NSaved=12 IEnMin=12 EnMin= -1169.35731115839     IErMin=12 ErrMin= 1.01D-05
 ErrMax= 1.01D-05  0.00D+00 EMaxC= 1.00D-01 BMatC= 6.25D-08 BMatP= 4.41D-07
 IDIUse=1 WtCom= 1.00D+00 WtEn= 0.00D+00
 Coeff-Com:  0.776D-04-0.138D-03 0.117D-02 0.305D-02 0.611D-02 0.105D-01
 Coeff-Com: -0.113D-01-0.474D-01-0.556D-01 0.104D+00 0.351D+00 0.638D+00
 Coeff:      0.776D-04-0.138D-03 0.117D-02 0.305D-02 0.611D-02 0.105D-01
 Coeff:     -0.113D-01-0.474D-01-0.556D-01 0.104D+00 0.351D+00 0.638D+00
 Gap=     0.148 Goal=   None    Shift=    0.000
 Gap=     0.090 Goal=   None    Shift=    0.000
 RMSDP=4.44D-07 MaxDP=6.52D-05 DE=-1.78D-07 OVMax= 1.46D-04

 Cycle  13  Pass 1  IDiag  1:
 RMSU=  2.97D-07    CP:  9.57D-01  1.80D+00  7.84D-01  6.83D-01  8.74D-01
                    CP:  1.37D+00  1.54D+00  1.40D+00  1.15D+00  1.28D+00
                    CP:  1.05D+00  7.82D-01
 E= -1169.35731118302     Delta-E=       -0.000000024622 Rises=F Damp=F
 DIIS: error= 2.80D-06 at cycle  13 NSaved=  13.
 NSaved=13 IEnMin=13 EnMin= -1169.35731118302     IErMin=13 ErrMin= 2.80D-06
 ErrMax= 2.80D-06  0.00D+00 EMaxC= 1.00D-01 BMatC= 1.93D-08 BMatP= 6.25D-08
 IDIUse=1 WtCom= 1.00D+00 WtEn= 0.00D+00
 Coeff-Com: -0.355D-05-0.161D-04-0.101D-04 0.937D-04 0.591D-03 0.401D-02
 Coeff-Com:  0.195D-02-0.371D-02-0.229D-01-0.492D-01-0.196D-01 0.377D+00
 Coeff-Com:  0.712D+00
 Coeff:     -0.355D-05-0.161D-04-0.101D-04 0.937D-04 0.591D-03 0.401D-02
 Coeff:      0.195D-02-0.371D-02-0.229D-01-0.492D-01-0.196D-01 0.377D+00
 Coeff:      0.712D+00
 Gap=     0.148 Goal=   None    Shift=    0.000
 Gap=     0.090 Goal=   None    Shift=    0.000
 RMSDP=2.43D-07 MaxDP=4.35D-05 DE=-2.46D-08 OVMax= 7.03D-05

 Cycle  14  Pass 1  IDiag  1:
 RMSU=  1.23D-07    CP:  9.57D-01  1.80D+00  7.84D-01  6.83D-01  8.74D-01
                    CP:  1.37D+00  1.54D+00  1.40D+00  1.16D+00  1.31D+00
                    CP:  1.07D+00  1.01D+00  9.53D-01
 E= -1169.35731119146     Delta-E=       -0.000000008445 Rises=F Damp=F
 DIIS: error= 1.02D-06 at cycle  14 NSaved=  14.
 NSaved=14 IEnMin=14 EnMin= -1169.35731119146     IErMin=14 ErrMin= 1.02D-06
 ErrMax= 1.02D-06  0.00D+00 EMaxC= 1.00D-01 BMatC= 1.46D-09 BMatP= 1.93D-08
 IDIUse=1 WtCom= 1.00D+00 WtEn= 0.00D+00
 Coeff-Com: -0.158D-04 0.195D-04-0.160D-03-0.359D-03-0.642D-03 0.477D-04
 Coeff-Com:  0.199D-02 0.493D-02-0.414D-03-0.292D-01-0.525D-01 0.512D-01
 Coeff-Com:  0.217D+00 0.808D+00
 Coeff:     -0.158D-04 0.195D-04-0.160D-03-0.359D-03-0.642D-03 0.477D-04
 Coeff:      0.199D-02 0.493D-02-0.414D-03-0.292D-01-0.525D-01 0.512D-01
 Coeff:      0.217D+00 0.808D+00
 Gap=     0.148 Goal=   None    Shift=    0.000
 Gap=     0.090 Goal=   None    Shift=    0.000
 RMSDP=8.77D-08 MaxDP=9.65D-06 DE=-8.44D-09 OVMax= 2.29D-05

 Cycle  15  Pass 1  IDiag  1:
 RMSU=  5.17D-08    CP:  9.57D-01  1.80D+00  7.84D-01  6.83D-01  8.74D-01
                    CP:  1.37D+00  1.54D+00  1.41D+00  1.16D+00  1.32D+00
                    CP:  1.09D+00  1.07D+00  1.10D+00  1.08D+00
 E= -1169.35731119247     Delta-E=       -0.000000001010 Rises=F Damp=F
 DIIS: error= 5.58D-07 at cycle  15 NSaved=  15.
 NSaved=15 IEnMin=15 EnMin= -1169.35731119247     IErMin=15 ErrMin= 5.58D-07
 ErrMax= 5.58D-07  0.00D+00 EMaxC= 1.00D-01 BMatC= 6.16D-10 BMatP= 1.46D-09
 IDIUse=1 WtCom= 1.00D+00 WtEn= 0.00D+00
 Coeff-Com: -0.831D-05 0.155D-04-0.740D-04-0.184D-03-0.461D-03-0.870D-03
 Coeff-Com:  0.418D-03 0.321D-02 0.504D-02-0.302D-02-0.216D-01-0.612D-01
 Coeff-Com: -0.677D-01 0.424D+00 0.723D+00
 Coeff:     -0.831D-05 0.155D-04-0.740D-04-0.184D-03-0.461D-03-0.870D-03
 Coeff:      0.418D-03 0.321D-02 0.504D-02-0.302D-02-0.216D-01-0.612D-01
 Coeff:     -0.677D-01 0.424D+00 0.723D+00
 Gap=     0.148 Goal=   None    Shift=    0.000
 Gap=     0.090 Goal=   None    Shift=    0.000
 RMSDP=4.95D-08 MaxDP=5.48D-06 DE=-1.01D-09 OVMax= 1.31D-05

 Cycle  16  Pass 1  IDiag  1:
 RMSU=  2.53D-08    CP:  9.57D-01  1.80D+00  7.84D-01  6.83D-01  8.74D-01
                    CP:  1.37D+00  1.54D+00  1.41D+00  1.16D+00  1.32D+00
                    CP:  1.09D+00  1.09D+00  1.16D+00  1.31D+00  9.55D-01
 E= -1169.35731119280     Delta-E=       -0.000000000327 Rises=F Damp=F
 DIIS: error= 3.60D-07 at cycle  16 NSaved=  16.
 NSaved=16 IEnMin=16 EnMin= -1169.35731119280     IErMin=16 ErrMin= 3.60D-07
 ErrMax= 3.60D-07  0.00D+00 EMaxC= 1.00D-01 BMatC= 1.04D-10 BMatP= 6.16D-10
 IDIUse=1 WtCom= 1.00D+00 WtEn= 0.00D+00
 Coeff-Com:  0.360D-06 0.124D-05 0.923D-05 0.225D-04-0.249D-04-0.327D-03
 Coeff-Com: -0.403D-03 0.666D-05 0.193D-02 0.628D-02 0.465D-02-0.341D-01
 Coeff-Com: -0.788D-01-0.226D-01 0.289D+00 0.834D+00
 Coeff:      0.360D-06 0.124D-05 0.923D-05 0.225D-04-0.249D-04-0.327D-03
 Coeff:     -0.403D-03 0.666D-05 0.193D-02 0.628D-02 0.465D-02-0.341D-01
 Coeff:     -0.788D-01-0.226D-01 0.289D+00 0.834D+00
 Gap=     0.148 Goal=   None    Shift=    0.000
 Gap=     0.090 Goal=   None    Shift=    0.000
 RMSDP=2.53D-08 MaxDP=2.73D-06 DE=-3.27D-10 OVMax= 6.27D-06

 Cycle  17  Pass 1  IDiag  1:
 RMSU=  1.37D-08    CP:  9.57D-01  1.80D+00  7.84D-01  6.84D-01  8.74D-01
                    CP:  1.37D+00  1.54D+00  1.41D+00  1.16D+00  1.32D+00
                    CP:  1.09D+00  1.10D+00  1.19D+00  1.41D+00  1.18D+00
                    CP:  1.11D+00
 E= -1169.35731119288     Delta-E=       -0.000000000080 Rises=F Damp=F
 DIIS: error= 2.77D-07 at cycle  17 NSaved=  17.
 NSaved=17 IEnMin=17 EnMin= -1169.35731119288     IErMin=17 ErrMin= 2.77D-07
 ErrMax= 2.77D-07  0.00D+00 EMaxC= 1.00D-01 BMatC= 4.16D-11 BMatP= 1.04D-10
 IDIUse=1 WtCom= 1.00D+00 WtEn= 0.00D+00
 Coeff-Com:  0.159D-05-0.204D-05 0.195D-04 0.505D-04 0.763D-04-0.108D-04
 Coeff-Com: -0.335D-03-0.600D-03 0.666D-04 0.439D-02 0.678D-02-0.719D-02
 Coeff-Com: -0.310D-01-0.100D+00 0.197D-01 0.484D+00 0.624D+00
 Coeff:      0.159D-05-0.204D-05 0.195D-04 0.505D-04 0.763D-04-0.108D-04
 Coeff:     -0.335D-03-0.600D-03 0.666D-04 0.439D-02 0.678D-02-0.719D-02
 Coeff:     -0.310D-01-0.100D+00 0.197D-01 0.484D+00 0.624D+00
 Gap=     0.148 Goal=   None    Shift=    0.000
 Gap=     0.090 Goal=   None    Shift=    0.000
 RMSDP=1.14D-08 MaxDP=1.25D-06 DE=-8.05D-11 OVMax= 2.90D-06

 Cycle  18  Pass 1  IDiag  1:
 RMSU=  6.74D-09    CP:  9.57D-01  1.80D+00  7.84D-01  6.84D-01  8.74D-01
                    CP:  1.37D+00  1.54D+00  1.41D+00  1.16D+00  1.32D+00
                    CP:  1.09D+00  1.11D+00  1.20D+00  1.44D+00  1.26D+00
                    CP:  1.34D+00  9.84D-01
 E= -1169.35731119288     Delta-E=       -0.000000000000 Rises=F Damp=F
 DIIS: error= 9.96D-08 at cycle  18 NSaved=  18.
 NSaved=18 IEnMin=18 EnMin= -1169.35731119288     IErMin=18 ErrMin= 9.96D-08
 ErrMax= 9.96D-08  0.00D+00 EMaxC= 1.00D-01 BMatC= 7.50D-12 BMatP= 4.16D-11
 IDIUse=1 WtCom= 1.00D+00 WtEn= 0.00D+00
 Coeff-Com:  0.323D-06-0.912D-06 0.605D-05 0.173D-04 0.451D-04 0.110D-03
 Coeff-Com: -0.330D-04-0.261D-03-0.670D-03 0.394D-04 0.141D-02 0.798D-02
 Coeff-Com:  0.133D-01-0.400D-01-0.875D-01-0.467D-01 0.264D+00 0.888D+00
 Coeff:      0.323D-06-0.912D-06 0.605D-05 0.173D-04 0.451D-04 0.110D-03
 Coeff:     -0.330D-04-0.261D-03-0.670D-03 0.394D-04 0.141D-02 0.798D-02
 Coeff:      0.133D-01-0.400D-01-0.875D-01-0.467D-01 0.264D+00 0.888D+00
 Gap=     0.148 Goal=   None    Shift=    0.000
 Gap=     0.090 Goal=   None    Shift=    0.000
 RMSDP=8.17D-09 MaxDP=7.26D-07 DE=-4.55D-13 OVMax= 2.39D-06

 Error on total polarization charges =  0.03715
 SCF Done:  E(UB3LYP) =  -1169.35731119     A.U. after   18 cycles
            NFock= 18  Conv=0.82D-08     -V/T= 2.0096
 <Sx>= 0.0000 <Sy>= 0.0000 <Sz>= 0.5000 <S**2>= 0.7725 S= 0.5112
 <L.S>=  0.00000000000    
 KE= 1.158264721504D+03 PE=-7.599588032208D+03 EE= 2.817302534975D+03
 Annihilation of the first spin contaminant:
 S**2 before annihilation     0.7725,   after     0.7503
 Leave Link  502 at Tue Feb 12 14:58:17 2019, MaxMem=  1342177280 cpu:            2306.2 elap:             146.3
 (Enter /gpfs/apps/hpc/Apps/Restricted/Gaussian/g16/Rev_B.01-AVX/g16/l801.exe)
 DoSCS=F DFT=T ScalE2(SS,OS)=  1.000000  1.000000
 Range of M.O.s used for correlation:     1   540
 NBasis=   540 NAE=    98 NBE=    97 NFC=     0 NFV=     0
 NROrb=    540 NOA=    98 NOB=    97 NVA=   442 NVB=   443

 **** Warning!!: The smallest beta delta epsilon is  0.90217960D-01

 Leave Link  801 at Tue Feb 12 14:58:18 2019, MaxMem=  1342177280 cpu:               1.0 elap:               0.1
 (Enter /gpfs/apps/hpc/Apps/Restricted/Gaussian/g16/Rev_B.01-AVX/g16/l1101.exe)
 Using compressed storage, NAtomX=    54.
 Will process     55 centers per pass.
 R6Disp: Adding Grimme-D3(BJ) dispersion energy 1st derivatives to the gradient.
 Leave Link 1101 at Tue Feb 12 14:58:19 2019, MaxMem=  1342177280 cpu:              14.2 elap:               0.9
 (Enter /gpfs/apps/hpc/Apps/Restricted/Gaussian/g16/Rev_B.01-AVX/g16/l1102.exe)
 Symmetrizing basis deriv contribution to polar:
 IMax=3 JMax=2 DiffMx= 0.00D+00
 Leave Link 1102 at Tue Feb 12 14:58:19 2019, MaxMem=  1342177280 cpu:               1.9 elap:               0.2
 (Enter /gpfs/apps/hpc/Apps/Restricted/Gaussian/g16/Rev_B.01-AVX/g16/l1110.exe)
 Forming Gx(P) for the SCF density, NAtomX=    54.
 Integral derivatives from FoFJK, PRISM(SPDF).
 Do as many integral derivatives as possible in FoFJK.
 G2DrvN: MDV=    1342172824.
 G2DrvN: will do    55 centers at a time, making    1 passes.
 Calling FoFCou, ICntrl=  3107 FMM=F I1Cent=   0 AccDes= 0.00D+00.
 FoFJK:  IHMeth= 1 ICntrl=    3107 DoSepK=F KAlg= 0 I1Cent=           0 FoldK=F
 IRaf=         0 NMat=       1 IRICut=       1 DoRegI=T DoRafI=F ISym2E= 0 IDoP0=0 IntGTp=1.
 FoFCou: FMM=F IPFlag=           0 FMFlag=      100000 FMFlg1=           0
         NFxFlg=           0 DoJE=F BraDBF=F KetDBF=F FulRan=T
         wScrn=  0.000000 ICntrl=      3107 IOpCl=  1 I1Cent=           0 NGrid=           0
         NMat0=    1 NMatS0=      1 NMatT0=    0 NMatD0=    1 NMtDS0=    0 NMtDT0=    0
 Symmetry not used in FoFCou.
 NEqPCM:  Using equilibrium solvation (IEInf=0, Eps=   8.9300, EpsInf=   2.0283)
 G2PCM: DoFxE=T DoFxN=T DoGrad=T DoDP/DQ/DG/TGxP=FFFF NFrqRd=   0 IEInf=0 SqF1=F DoCFld=F IF1Alg=4.
 GePol: Maximum number of non-zero 1st derivatives   =     200
 End of G2Drv F.D. properties file   721 does not exist.
 End of G2Drv F.D. properties file   722 does not exist.
 End of G2Drv F.D. properties file   788 does not exist.
 Leave Link 1110 at Tue Feb 12 15:05:23 2019, MaxMem=  1342177280 cpu:            6698.6 elap:             423.7
 (Enter /gpfs/apps/hpc/Apps/Restricted/Gaussian/g16/Rev_B.01-AVX/g16/l1002.exe)
 Minotr:  UHF open shell wavefunction.
          IDoAtm=11111111111111111111111111111111111111111111111111
          IDoAtm=1111
 NEqPCM:  Using equilibrium solvation (IEInf=0, Eps=   8.9300, EpsInf=   2.0283)
          Direct CPHF calculation.
          Differentiating once with respect to nuclear coordinates.
          Requested convergence is 1.0D-08 RMS, and 1.0D-07 maximum.
          Secondary convergence is 1.0D-12 RMS, and 1.0D-12 maximum.
          NewPWx=T KeepS1=F KeepF1=F KeepIn=T MapXYZ=F SortEE=F KeepMc=T.
        16401 words used for storage of precomputed grid.
 Two-electron integral symmetry not used.
          MDV=    1342177280 using IRadAn=       1.
          Solving linear equations simultaneously, MaxMat=     384.
 FoF2E skips out because all densities are zero.
 CalDSu exits because no D1Ps are significant.
 FoFJK:  IHMeth= 1 ICntrl=       0 DoSepK=F KAlg= 0 I1Cent=           0 FoldK=F
 IRaf= 590000000 NMat=      96 IRICut=     240 DoRegI=T DoRafI=T ISym2E= 0 IDoP0=0 IntGTp=1.
          There are   165 degrees of freedom in the 1st order CPHF.  IDoFFX=6 NUNeed=     0.
    159 vectors produced by pass  0 Test12= 8.63D-14 1.00D-09 XBig12= 4.92D-01 1.87D-01.
 AX will form    80 AO Fock derivatives at one time.
    159 vectors produced by pass  1 Test12= 8.63D-14 1.00D-09 XBig12= 9.13D-02 5.42D-02.
    159 vectors produced by pass  2 Test12= 8.63D-14 1.00D-09 XBig12= 2.45D-03 1.14D-02.
    159 vectors produced by pass  3 Test12= 8.63D-14 1.00D-09 XBig12= 1.48D-05 5.97D-04.
    159 vectors produced by pass  4 Test12= 8.63D-14 1.00D-09 XBig12= 5.84D-08 2.81D-05.
    159 vectors produced by pass  5 Test12= 8.63D-14 1.00D-09 XBig12= 2.35D-10 1.30D-06.
     91 vectors produced by pass  6 Test12= 8.63D-14 1.00D-09 XBig12= 7.97D-13 7.71D-08.
     16 vectors produced by pass  7 Test12= 8.63D-14 1.00D-09 XBig12= 2.80D-15 3.50D-09.
 InvSVY:  IOpt=1 It=  1 EMax= 1.11D-15
 Solved reduced A of dimension  1061 with   165 vectors.
 End of Minotr F.D. properties file   721 does not exist.
 End of Minotr F.D. properties file   722 does not exist.
 End of Minotr F.D. properties file   788 does not exist.
 Leave Link 1002 at Tue Feb 12 15:21:21 2019, MaxMem=  1342177280 cpu:           15235.3 elap:             957.4
 (Enter /gpfs/apps/hpc/Apps/Restricted/Gaussian/g16/Rev_B.01-AVX/g16/l601.exe)
 Copying SCF densities to generalized density rwf, IOpCl= 1 IROHF=0.

 **********************************************************************

            Population analysis using the SCF Density.

 **********************************************************************

 Alpha  occ. eigenvalues --  -19.17300 -19.14190 -14.43889 -14.43341 -14.37429
 Alpha  occ. eigenvalues --  -10.33401 -10.32145 -10.29493 -10.27444 -10.27021
 Alpha  occ. eigenvalues --  -10.25335 -10.24495 -10.23834 -10.23486 -10.23449
 Alpha  occ. eigenvalues --  -10.23041 -10.22957 -10.22202 -10.22132 -10.21768
 Alpha  occ. eigenvalues --  -10.21623 -10.18629 -10.18585 -10.18230 -10.17932
 Alpha  occ. eigenvalues --  -10.17757 -10.17715  -1.09320  -1.05657  -1.04718
 Alpha  occ. eigenvalues --   -0.96547  -0.92589  -0.90264  -0.88788  -0.84564
 Alpha  occ. eigenvalues --   -0.83967  -0.79963  -0.79385  -0.76674  -0.74804
 Alpha  occ. eigenvalues --   -0.70955  -0.70462  -0.69715  -0.69346  -0.69042
 Alpha  occ. eigenvalues --   -0.68262  -0.67030  -0.64755  -0.63561  -0.61973
 Alpha  occ. eigenvalues --   -0.59011  -0.57809  -0.56615  -0.56145  -0.54216
 Alpha  occ. eigenvalues --   -0.53928  -0.51993  -0.51180  -0.51116  -0.50888
 Alpha  occ. eigenvalues --   -0.49112  -0.47638  -0.47015  -0.46524  -0.46382
 Alpha  occ. eigenvalues --   -0.45881  -0.44777  -0.44438  -0.44375  -0.44094
 Alpha  occ. eigenvalues --   -0.43654  -0.43079  -0.42260  -0.40825  -0.40178
 Alpha  occ. eigenvalues --   -0.40129  -0.39702  -0.39129  -0.38743  -0.38280
 Alpha  occ. eigenvalues --   -0.38165  -0.37622  -0.37448  -0.37004  -0.36202
 Alpha  occ. eigenvalues --   -0.36170  -0.34732  -0.34322  -0.34024  -0.33881
 Alpha  occ. eigenvalues --   -0.32874  -0.30767  -0.29161  -0.28776  -0.28640
 Alpha  occ. eigenvalues --   -0.27516  -0.26487  -0.24060
 Alpha virt. eigenvalues --   -0.09255  -0.05318  -0.03340  -0.02036   0.01443
 Alpha virt. eigenvalues --    0.04469   0.06364   0.06792   0.08553   0.08918
 Alpha virt. eigenvalues --    0.10096   0.11011   0.11874   0.12081   0.12376
 Alpha virt. eigenvalues --    0.12724   0.12892   0.13568   0.13788   0.14582
 Alpha virt. eigenvalues --    0.15292   0.15375   0.15649   0.15923   0.16326
 Alpha virt. eigenvalues --    0.16788   0.16896   0.17133   0.17745   0.18304
 Alpha virt. eigenvalues --    0.19082   0.19639   0.19668   0.20127   0.20290
 Alpha virt. eigenvalues --    0.20884   0.21076   0.21590   0.21898   0.22590
 Alpha virt. eigenvalues --    0.23016   0.23551   0.24112   0.24164   0.24678
 Alpha virt. eigenvalues --    0.24867   0.25154   0.26933   0.27467   0.28734
 Alpha virt. eigenvalues --    0.30628   0.32477   0.32728   0.33654   0.35039
 Alpha virt. eigenvalues --    0.35783   0.36640   0.39028   0.40982   0.43120
 Alpha virt. eigenvalues --    0.43947   0.45250   0.46732   0.47205   0.47357
 Alpha virt. eigenvalues --    0.48003   0.48117   0.48740   0.49470   0.49761
 Alpha virt. eigenvalues --    0.50252   0.50741   0.51507   0.51815   0.52021
 Alpha virt. eigenvalues --    0.52102   0.52728   0.52837   0.54120   0.54563
 Alpha virt. eigenvalues --    0.55550   0.56455   0.57707   0.58319   0.58623
 Alpha virt. eigenvalues --    0.58907   0.59142   0.59764   0.59897   0.59986
 Alpha virt. eigenvalues --    0.60613   0.60721   0.61439   0.61523   0.62895
 Alpha virt. eigenvalues --    0.63036   0.63954   0.65126   0.65879   0.67035
 Alpha virt. eigenvalues --    0.67929   0.68582   0.69587   0.69802   0.70537
 Alpha virt. eigenvalues --    0.71505   0.73574   0.73709   0.73874   0.74135
 Alpha virt. eigenvalues --    0.76118   0.76486   0.77414   0.77605   0.78406
 Alpha virt. eigenvalues --    0.78606   0.79511   0.79727   0.81251   0.81793
 Alpha virt. eigenvalues --    0.81801   0.82164   0.83248   0.83680   0.83885
 Alpha virt. eigenvalues --    0.84872   0.84966   0.85393   0.85648   0.85852
 Alpha virt. eigenvalues --    0.86574   0.86757   0.87529   0.87544   0.88100
 Alpha virt. eigenvalues --    0.88546   0.88631   0.88697   0.89519   0.90382
 Alpha virt. eigenvalues --    0.91086   0.91398   0.91884   0.92569   0.93048
 Alpha virt. eigenvalues --    0.93405   0.93978   0.94347   0.94843   0.95799
 Alpha virt. eigenvalues --    0.95883   0.96916   0.97114   0.98936   0.99333
 Alpha virt. eigenvalues --    1.00360   1.00664   1.02066   1.03288   1.04138
 Alpha virt. eigenvalues --    1.05860   1.06760   1.07868   1.10544   1.11242
 Alpha virt. eigenvalues --    1.13875   1.14287   1.15167   1.15215   1.16893
 Alpha virt. eigenvalues --    1.17665   1.18192   1.19089   1.21398   1.22190
 Alpha virt. eigenvalues --    1.22742   1.23664   1.24119   1.24210   1.24881
 Alpha virt. eigenvalues --    1.26142   1.26216   1.27132   1.29415   1.30144
 Alpha virt. eigenvalues --    1.32711   1.34500   1.34829   1.35242   1.36769
 Alpha virt. eigenvalues --    1.37075   1.37437   1.38010   1.38365   1.40131
 Alpha virt. eigenvalues --    1.41837   1.42916   1.44430   1.45458   1.46590
 Alpha virt. eigenvalues --    1.47064   1.47701   1.48413   1.48684   1.49195
 Alpha virt. eigenvalues --    1.49453   1.51739   1.53430   1.53654   1.56647
 Alpha virt. eigenvalues --    1.57495   1.59088   1.62153   1.66701   1.67133
 Alpha virt. eigenvalues --    1.68117   1.70565   1.70579   1.71063   1.72812
 Alpha virt. eigenvalues --    1.73750   1.75197   1.75525   1.77072   1.77356
 Alpha virt. eigenvalues --    1.78103   1.78882   1.79269   1.79586   1.79793
 Alpha virt. eigenvalues --    1.80111   1.80944   1.81305   1.81837   1.83053
 Alpha virt. eigenvalues --    1.83147   1.83967   1.84123   1.85242   1.85940
 Alpha virt. eigenvalues --    1.86987   1.87125   1.87445   1.88184   1.89110
 Alpha virt. eigenvalues --    1.90258   1.91131   1.92104   1.92765   1.95142
 Alpha virt. eigenvalues --    1.95543   1.96057   1.96214   1.97808   1.99022
 Alpha virt. eigenvalues --    1.99594   1.99848   2.02161   2.03404   2.03924
 Alpha virt. eigenvalues --    2.04140   2.04256   2.04399   2.04582   2.04755
 Alpha virt. eigenvalues --    2.05337   2.05618   2.06540   2.07049   2.07716
 Alpha virt. eigenvalues --    2.08117   2.08310   2.09189   2.09819   2.10016
 Alpha virt. eigenvalues --    2.10463   2.10656   2.11375   2.12093   2.12585
 Alpha virt. eigenvalues --    2.13004   2.13150   2.13564   2.13985   2.15262
 Alpha virt. eigenvalues --    2.15955   2.16930   2.17361   2.19638   2.20286
 Alpha virt. eigenvalues --    2.21413   2.21559   2.22432   2.22656   2.23730
 Alpha virt. eigenvalues --    2.25380   2.26297   2.26691   2.27374   2.28711
 Alpha virt. eigenvalues --    2.29699   2.29925   2.30824   2.31041   2.32170
[...]
 67650,0.00000084,0.00000041,0.00000176,-0.00000132,-0.00000190,-0.0000
 0235,0.00000060,-0.00000073,-0.00000099,0.00000120,0.00000166,0.000002
 01,0.00000023,-0.00000442,-0.00000178,-0.00000144,-0.00000135,0.000002
 27,0.00000085,-0.00000005,0.00000081,0.00000043,0.00000126,-0.00000176
 ,0.00000137,0.00000004,0.00000184,-0.00000139,-0.00000109,0.00000070,0
 .00000098,0.00000122,0.00000106,0.00000033,-0.00000075,-0.00000067,-0.
 00000029,-0.00000076,0.00000063,-0.00000082,-0.00000019,-0.00000041,0.
 00000077,-0.00000058,-0.00000052,-0.00000029,0.00000100,0.00000112,-0.
 00000075,-0.00000154,-0.00000257,0.00000033,0.00000040,-0.00000102,-0.
 00000075,0.00000025,0.00000084,0.00000050,-0.00000097,0.00000157,-0.00
 000109,0.00000059,-0.00000046,-0.00000026,0.00000064,0.00000058,0.0000
 0057,-0.00000071,0.00000066,-0.00000039,-0.00000048,-0.00000022,0.0012
 8732,0.00172437,0.01788080,0.01290911,-0.02859388,0.02046649,0.0002455
 1,0.00020604,0.00000192,-0.00003467,0.00006191,-0.00000374,0.00027893,
 -0.00017570,0.00001838,0.00016854,0.00101651,-0.00001144,-0.00306877,-
 0.00256310,0.00057158,-0.00098128,0.00024038,0.00001369,0.00022552,0.0
 0018611,0.00000414,0.00007312,0.00009270,-0.00000403,0.00001640,-0.000
 03355,0.00000111,-0.00617806,0.00345427,0.00067959,-0.00006657,0.00017
 518,-0.00000484,-0.00000778,0.00005924,-0.00000090,0.00000014,-0.00006
 425,0.00000158,-0.00000662,0.00012144,-0.00000291,-0.00003239,-0.00010
 982,-0.00000246,0.00006820,-0.00000531,0.00000562,-0.00004744,0.000004
 06,-0.00000389,0.,0.00000365,-0.00000071,0.00000151,0.00000215,0.00000
 002,-0.00000444,-0.00001163,0.00000134,0.00000045,-0.00000959,-0.00000
 019,0.00003869,-0.00000214,0.00000365,-0.00028278,-0.00013961,0.000000
 61,0.00054333,0.00025278,-0.00000419,0.01778324,-0.01861322,0.00151283
 ,-0.00000379,0.00001302,-0.00001150,0.00000344,0.00000047,-0.00000104,
 -0.00000451,0.00000194,0.00000548,0.00000053,-0.00000043,0.00000116,-0
 .00000406,0.00001263,0.00001021,0.00000053,-0.00000058,-0.00000104,-0.
 00000395,0.00000179,-0.00000555,0.00000328,0.00000040,0.00000101,-0.00
 000849,0.,-0.00000035,0.00000095,-0.00000014,0.00000081,0.00000097,-0.
 00000027,-0.00000075,-0.00000160,0.00000421,-0.00000023,0.00000445,0.0
 0000726,-0.00001003,0.00000419,-0.00000052,0.00000445,-0.00000216,-0.0
 0000013,-0.00000135,-0.00000128,0.00000055,0.00000091,0.00000292,0.000
 00784,0.00001030,-0.00000252,-0.00000006,0.00000083,0.00000488,-0.0000
 0056,-0.00000359,-0.00000116,0.00000032,-0.00000092,0.00000691,-0.0000
 0395,0.00000062,-0.00000141,0.00000016,-0.00000029,-0.00000127,0.00000
 023,0.00000009,0.00000243,0.00000288,0.00000017,-0.00323286,-0.0070707
 0,-0.00016459,-0.10652175,0.10803698,-0.00637239,0.10067646,0.00012255
 ,-0.00071401,0.00001648,0.00015538,-0.00007931,0.00001184,0.00017097,0
 .00005956,0.00000480,0.00003630,0.00009356,-0.00002902,0.00183045,0.00
 098816,-0.00002070,0.00002058,-0.00042599,-0.00010203,-0.00015073,0.00
 002757,-0.00000810,0.00001169,0.00000674,0.00000421,0.00004455,-0.0000
 2604,0.00000208,0.00198342,0.00021879,-0.00031831,0.00009282,0.0000133
 5,0.00000467,-0.00003041,0.00004437,-0.00000191,0.00000779,0.00000939,
 0.00000044,0.00000415,0.00005749,-0.00000171,-0.00001536,-0.00005805,-
 0.00000122,0.00004099,-0.00000243,0.00000322,-0.00003250,-0.00000022,-
 0.00000275,0.00000198,-0.00000345,0.00000049,0.00000061,0.00000172,0.0
 0000007,-0.00000174,-0.00000674,0.00000107,-0.00000048,-0.00000757,-0.
 00000009,0.00004292,-0.00000222,0.00000359,-0.00003813,0.00025642,-0.0
 0001327,0.00021913,0.00013481,0.00000996,0.00940454,-0.01830165,0.0007
 1800,-0.00000308,0.00000445,-0.00000714,0.00000233,0.00000165,-0.00000
 088,-0.00000302,0.00000119,0.00000296,0.00000093,0.00000007,0.00000109
 ,-0.00000327,0.00000448,0.00000634,0.00000104,0.00000007,-0.00000114,-
 0.00000271,0.00000112,-0.00000304,0.00000218,0.00000166,0.00000096,-0.
 00000522,-0.00000059,-0.00000027,0.00000114,0.00000034,-0.00000004,0.0
 0000101,0.00000019,0.00000004,-0.00000131,0.00000262,-0.00000014,0.000
 00354,0.00000602,-0.00000769,0.00000378,0.00000003,0.00000357,-0.00000
 227,-0.00000017,-0.00000126,-0.00000103,0.00000018,0.00000043,0.000002
 39,0.00000653,0.00000800,-0.00000257,-0.00000018,0.00000084,0.00000430
 ,-0.00000001,-0.00000288,-0.00000100,0.00000010,-0.00000056,0.00000567
 ,-0.00000271,0.00000053,-0.00000109,-0.00000013,-0.00000060,-0.0000010
 8,0.,0.00000037,0.00000240,0.00000247,0.00000017,-0.00391418,0.0008329
 1,0.00017280,0.10828460,-0.43712345,0.02031763,-0.11425518,0.45179797,
 -0.00000932,-0.00000197,-0.00008620,0.00000040,-0.00000088,0.00000076,
 -0.00000567,-0.00000032,0.00009039,0.00002121,-0.00001150,-0.00052070,
 -0.00007533,-0.00004177,-0.00028931,0.00010150,0.00000324,-0.00130772,
 -0.00000620,-0.00000389,-0.00005049,-0.00000231,0.00000289,0.00006851,
 0.00000100,-0.00000163,-0.00002603,0.00059757,-0.00045514,0.00059306,0
 .00000251,0.00000044,0.00002019,-0.00000104,0.00000140,0.00000189,0.00
 000039,0.00000080,-0.00000295,0.00000045,0.00000202,-0.00000055,-0.000
 00013,-0.00000157,0.00000002,0.00000075,-0.00000006,-0.00000023,-0.000
 00068,-0.00000009,-0.00000069,-0.00000004,-0.00000052,0.00000191,-0.00
 000003,0.00000005,0.00000081,-0.00000013,-0.00000028,0.00000162,-0.000
 00004,-0.00000017,0.00000035,0.00000120,0.00000013,-0.00000314,0.00000
 620,0.00000423,-0.00013419,-0.00000542,0.00000147,0.00033491,0.0001213
 8,-0.00096885,-0.01006534,-0.00000050,-0.00000125,-0.00000002,0.000000
 63,0.00000047,0.00000119,-0.00000003,0.00000042,0.00000011,-0.00000057
 ,-0.00000080,-0.00000103,0.00000033,0.00000176,0.00000051,0.00000065,0
 .00000070,-0.00000105,-0.00000021,-0.00000024,-0.00000016,-0.00000047,
 -0.00000050,0.00000133,-0.00000017,-0.00000003,-0.00000083,0.00000066,
 0.00000057,-0.00000040,-0.00000056,-0.00000060,-0.00000049,-0.00000008
 ,0.00000013,0.00000030,-0.00000018,-0.00000023,0.00000031,0.00000017,0
 .00000015,-0.00000009,-0.00000027,0.00000037,0.00000045,0.00000024,-0.
 00000059,-0.00000067,0.00000024,0.00000047,0.00000074,0.00000002,-0.00
 000027,0.00000054,0.00000010,-0.00000015,-0.00000023,-0.00000020,0.000
 00052,-0.00000079,0.00000013,-0.00000008,0.00000013,0.00000022,-0.0000
 0036,-0.00000030,-0.00000022,0.00000038,-0.00000038,0.00000005,0.00000
 006,0.00000013,-0.00026417,0.00009259,0.00803714,-0.00584821,0.0221191
 0,0.00040852,0.00511450,-0.02057010,0.00732626,-0.00078308,0.00038858,
 -0.00005705,0.00006765,-0.00031460,0.00002130,0.00011335,-0.00003466,0
 .00000321,0.00008521,0.00021908,-0.00000399,0.00060951,-0.00024928,0.0
 0003490,0.00031322,-0.00318818,-0.00000546,-0.00019407,-0.00015386,-0.
 00000399,0.00000613,0.00001705,-0.00000113,-0.00000143,-0.00001205,0.0
 0000073,0.00004557,0.00020226,-0.00000108,0.00003273,-0.00001343,0.000
 00183,-0.00003202,0.00002921,-0.00000210,0.00000559,0.00002713,-0.0000
 0012,0.00000179,0.00002554,-0.00000101,-0.00000122,-0.00003499,-0.0000
 0042,0.00002112,0.00000030,0.00000164,-0.00001858,-0.00000106,-0.00000
 162,0.00000444,-0.00001376,0.00000194,0.00000111,0.00000127,0.00000009
 ,-0.00000082,-0.00000515,0.00000086,-0.00000065,-0.00000502,-0.0000000
 6,0.00002730,-0.00000953,0.00000214,0.00046263,0.00027314,0.00000203,-
 0.00044003,-0.00028387,-0.00000563,-0.02219301,0.00414242,-0.00018110,
 -0.00000222,0.00000222,-0.00000523,0.00000333,0.00000087,-0.00000097,-
 0.00000264,0.00000238,0.00000211,0.00000066,0.,0.00000059,-0.00000242,
 0.00000216,0.00000457,0.00000063,-0.00000008,-0.00000055,-0.00000239,0
 .00000232,-0.00000227,0.00000326,0.00000086,0.00000109,-0.00000380,-0.
 00000060,-0.00000016,0.00000084,0.00000011,0.00000022,0.00000083,0.000
 00003,-0.00000016,-0.00000135,0.00000249,-0.00000015,0.00000246,0.0000
 0383,-0.00000530,0.00000277,0.00000004,0.00000235,-0.00000171,0.000000
 07,-0.00000092,-0.00000085,-0.00000003,0.00000038,0.00000163,0.0000042
 4,0.00000544,-0.00000195,0.00000003,0.00000056,0.00000312,0.00000003,-
 0.00000184,-0.00000078,-0.00000014,-0.00000040,0.00000408,-0.00000183,
 0.00000035,-0.00000085,-0.00000003,-0.00000023,-0.00000079,0.00000003,
 0.00000010,0.00000178,0.00000171,0.00000012,0.00200990,0.00425527,-0.0
 0005876,-0.44417188,0.08657353,-0.00637457,0.00038574,-0.00399140,0.00
 025267,0.46365049,-0.00121237,0.00101067,-0.00005490,-0.00007175,-0.00
 031228,0.00000204,0.00004182,0.00000835,0.00000341,-0.00003542,0.00024
 031,0.00000026,0.00035017,-0.00068046,0.00001445,-0.00246417,-0.004460
 22,0.00015714,0.00008853,-0.00002511,0.00000397,0.00000448,0.00002534,
 -0.00000246,-0.00002822,0.00001139,-0.00000130,-0.00000688,0.00047943,
 -0.00001431,-0.00020398,0.00000956,-0.00000964,0.00000655,-0.00002732,
 0.00000058,-0.00000658,0.00000736,-0.00000020,-0.00000754,-0.00004771,
 0.00000011,0.00000810,0.00004338,0.00000070,-0.00002147,0.00000049,-0.
 00000168,0.00001532,0.,0.00000131,-0.00000080,0.00000139,0.00000007,-0
 .00000075,-0.00000095,0.,0.00000161,0.00000569,-0.00000065,0.00000010,
 0.00000275,0.00000011,-0.00002044,-0.00001405,-0.00000225,0.00015453,0
 .00001000,0.00000618,-0.00016021,-0.00009257,-0.00000225,-0.03104632,0
 .01371130,-0.00058442,0.00000107,-0.00000927,0.00000569,-0.00000231,0.
 00000105,0.00000027,0.00000192,-0.00000134,-0.00000310,0.00000050,0.00
 000061,-0.00000008,0.00000121,-0.00000887,-0.00000508,0.00000062,0.000
 00071,0.,0.00000159,-0.00000124,0.00000311,-0.00000227,0.00000133,-0.0
 0000045,0.00000477,-0.00000055,0.00000013,0.00000005,0.00000055,-0.000
 00094,-0.00000007,0.00000056,0.00000090,0.00000045,-0.00000228,0.00000
 012,-0.00000171,-0.00000254,0.00000367,-0.00000111,0.00000030,-0.00000
 167,0.00000065,0.,0.00000060,0.00000035,-0.00000041,-0.00000056,-0.000
 00117,-0.00000277,-0.00000373,0.00000084,-0.00000007,-0.00000041,-0.00
 000140,0.00000031,0.00000140,0.00000027,-0.00000027,0.00000050,-0.0000
 0290,0.00000157,-0.00000024,0.00000042,-0.00000023,-0.00000007,0.00000
 032,-0.00000022,0.00000009,-0.00000047,-0.00000112,-0.00000003,0.00434
 997,0.00194077,-0.00020014,0.08896933,-0.09393201,0.00316160,0.0290849
 0,0.00217948,-0.00017041,-0.08782868,0.07994609,-0.00004591,-0.0000174
 5,0.00068957,0.00002118,-0.00002586,-0.00035193,0.00000503,-0.00000020
 ,0.00005503,0.00000299,0.00000229,0.00011664,0.00003384,0.00003690,-0.
 00043638,-0.00008467,0.00007153,0.00551327,-0.00002107,-0.00000955,0.0
 0000365,0.00000017,-0.00000083,-0.00001331,0.00000191,-0.00000128,0.00
 000592,0.00001843,-0.00002764,-0.00026861,0.00001047,-0.00000345,-0.00
 003538,-0.00000286,0.00000346,0.00000263,0.00000063,0.00000187,0.00000
 440,0.00000135,0.00000407,-0.00000327,-0.00000070,-0.00000475,-0.00000
 120,0.00000256,-0.00000014,0.00000036,-0.00000206,-0.00000004,0.000001
 00,-0.00000004,-0.00000091,0.00000470,0.00000008,0.00000012,0.00000023
 ,-0.00000022,-0.00000060,0.00000243,-0.00000006,-0.00000045,0.00000049
 ,0.00000280,-0.00000069,-0.00000224,0.00002009,0.00003202,0.00008958,-
 0.00002118,-0.00001468,-0.00005336,-0.00038423,-0.00070841,0.00033466,
 -0.00000039,-0.00000128,-0.00000067,0.00000035,0.00000065,0.00000177,-
 0.00000016,0.00000040,0.00000045,-0.00000076,-0.00000096,-0.00000122,0
 .00000015,0.00000255,0.00000051,0.00000082,0.00000077,-0.00000128,-0.0
 0000036,0.00000003,-0.00000016,0.00000013,-0.00000085,0.00000214,-0.00
 000042,-0.00000003,-0.00000146,0.00000083,0.00000072,-0.00000045,-0.00
 000067,-0.00000078,-0.00000061,-0.00000014,0.00000029,0.00000047,0.000
 00013,0.00000055,0.00000006,0.00000030,0.00000014,0.00000012,-0.000000
 42,0.00000020,0.00000018,0.00000017,-0.00000056,-0.00000055,0.00000014
 ,0.00000023,0.00000113,0.00000006,-0.00000013,0.00000034,0.00000025,-0
 .00000016,-0.00000027,-0.00000022,0.00000048,-0.00000071,0.00000034,-0
 .00000018,0.00000039,0.00000017,-0.00000033,-0.00000031,-0.00000025,0.
 00000035,-0.00000037,0.00000013,0.00000016,0.00000009,0.00000257,0.000
 10998,-0.00502181,-0.00458475,0.00306601,-0.00643156,-0.00134980,-0.00
 020058,-0.00443262,0.00637330,-0.00230995,0.01027215,0.00267906,-0.000
 49053,-0.00005456,0.00392096,-0.00702732,0.00068518,0.00071328,0.00131
 391,0.00012881,-0.00119212,-0.00010275,-0.00004360,0.00073056,-0.00019
 792,0.00004705,0.00090312,0.00012573,-0.00003194,-0.02073424,-0.000688
 94,-0.00067622,-0.00049483,0.00005762,-0.00005054,0.00005997,0.0001246
 1,-0.00000795,0.00003819,0.00006039,-0.00000307,-0.40281168,-0.0761419
 2,-0.01590278,0.00634851,0.00055398,0.00050919,0.00047151,-0.00057856,
 0.00025535,-0.00090001,-0.00003622,-0.00004051,0.00048604,0.00005823,0
 .00002124,-0.00059407,0.00043660,-0.00004999,-0.00079432,0.00036186,-0
 .00019439,-0.00011283,0.00009884,-0.00002555,-0.00013573,0.00007770,0.
 00000085,-0.00017740,-0.00007781,-0.00000432,-0.00011715,-0.00012253,-
 0.00000238,-0.01132731,0.00247263,0.00009147,0.00426364,0.00365821,-0.
 00008761,-0.00022662,-0.00000186,-0.00014042,-0.00085533,0.00029473,-0
 .00004853,0.00000830,0.00007156,-0.00003971,-0.00001216,-0.00001704,0.
 00000237,-0.00001260,-0.00001545,0.00001627,0.00000252,-0.00000290,-0.
 00000019,0.00000756,0.00006668,0.00003154,0.00000147,-0.00000249,-0.00
 000008,-0.00000991,-0.00001449,-0.00001542,-0.00001206,-0.00001553,-0.
 00000318,0.00001716,-0.00001962,0.00000114,0.00000283,-0.00000287,0.00
 000464,0.00000233,-0.00000275,-0.00000477,-0.00000661,-0.00000965,-0.0
 0000040,0.00002819,-0.00006191,0.00003670,-0.00000143,0.00003870,0.000
 00051,-0.00005074,0.00001587,-0.00006694,-0.00000170,0.00001869,0.0000
 1952,0.00003059,-0.00007626,-0.00002463,-0.00006720,0.00001731,0.00004
 819,-0.00000164,0.00004270,-0.00000088,-0.00000031,0.00001518,-0.00001
 644,0.00000309,0.00000204,0.00000576,-0.00000030,0.00001478,0.00000699
 ,0.00000104,0.00001230,-0.00000677,-0.00000009,0.00000722,-0.00000050,
 0.00039809,-0.00012094,0.00001941,0.00051811,0.00015503,0.00001526,-0.
 00003965,-0.00004836,-0.00000299,-0.00001034,0.00003856,-0.00000004,0.
 41906426,-0.00027366,-0.00667601,0.00022806,-0.02256795,-0.00027956,-0
 .00118647,0.00091303,0.00170479,-0.00005583,-0.00070376,-0.00004773,-0
 .00002055,0.00041632,-0.00021083,0.00001613,-0.00050865,0.00111465,-0.
 00002315,0.02116644,0.01981862,0.00051461,0.00052523,-0.00030975,0.000
 24383,0.00003823,0.00003063,-0.00000086,0.00003036,0.00000939,0.000001
 76,-0.08436680,-0.08717938,-0.00086526,0.01083298,-0.00717969,0.000869
 88,-0.00085926,-0.00107177,0.00001611,-0.00100886,0.00110689,-0.000075
 53,0.00041004,-0.00089416,0.00001628,-0.00046886,0.00065515,-0.0000459
 9,-0.00153448,0.00055557,-0.00020930,-0.00031215,0.00016708,-0.0000479
 6,-0.00020274,0.00019175,-0.00001202,-0.00029841,-0.00025259,0.0000223
 8,-0.00022459,-0.00044716,-0.00000869,-0.00664160,0.00925891,-0.000969
 91,0.00994119,-0.00335617,0.00041653,-0.00014907,0.00135878,0.00001273
 ,-0.00020666,-0.00061371,0.00001106,-0.00004665,0.00028539,-0.00025603
 ,0.00002758,-0.00001682,-0.00001844,-0.00009026,-0.00000355,0.00011299
 ,0.00001601,-0.00000101,0.00002583,-0.00005433,0.00027464,0.00022212,0
 .00001587,-0.00000188,-0.00002717,-0.00007662,-0.00000362,-0.00011289,
 0.00002537,-0.00001492,0.00001922,-0.00013002,-0.00004151,-0.00000524,
 0.00002524,-0.00000069,0.00001298,0.00002315,-0.00000339,-0.00001226,-
 0.00003094,0.00005606,-0.00000386,0.00018763,0.00008475,-0.00008641,0.
 00008063,0.00009872,0.00010442,-0.00020744,0.00006481,-0.00022477,-0.0
 0001637,0.00005534,0.00005667,0.00018913,0.00007908,0.00012150,-0.0002
 6509,0.00007901,0.00017820,0.00009461,0.00010661,-0.00009316,-0.000013
 15,0.00004740,-0.00005468,0.00016339,-0.00007151,0.00002047,-0.0000214
 3,0.00002407,-0.00000334,-0.00001871,0.00002463,-0.00000043,0.00004572
 ,0.00008530,0.00000188,0.00042584,0.00046868,-0.00000422,0.00006710,0.
 00024150,-0.00000103,0.00000844,-0.00000052,-0.00000011,-0.00003594,-0
 .00001686,-0.00000303,0.07566494,0.07064662,0.00013629,0.00032491,0.00
 276587,0.00133863,-0.00069182,-0.00533364,0.00010111,-0.00004620,-0.00
 130049,-0.00003757,0.00000577,0.00001305,0.00002958,-0.00000917,-0.000
 22392,0.00005515,-0.00001699,0.00095442,-0.00123867,-0.00045953,-0.002
 74131,-0.00006419,0.00020358,-0.00012960,0.00000111,0.00001096,0.00007
 945,0.00000057,0.00000476,0.00003799,-0.01639517,-0.00066264,-0.017088
 56,0.00042847,0.00012625,0.00010312,0.00008829,0.00000898,-0.00255759,
 -0.00001951,-0.00000318,-0.00027011,0.00000723,-0.00000509,0.00025687,
 -0.00001962,0.00004333,-0.00003543,-0.00019584,0.00004003,0.00112702,-
 0.00000559,0.00000267,-0.00006129,0.00000019,0.00000758,-0.00013512,-0
 .00000818,-0.00000558,0.00001687,-0.00001079,-0.00001305,-0.00001123,0
 .00035954,-0.00038363,-0.00461692,-0.00008390,0.00028559,0.00334057,-0
 .00005533,0.00001340,0.00228781,-0.00005225,0.00005378,0.00026794,0.00
 000364,0.00000349,-0.00000328,0.00000187,0.00000004,0.00000100,-0.0000
 0180,0.00000044,0.00000022,-0.00000034,-0.00000218,-0.00000230,-0.0000
 0483,0.00000837,0.00000609,0.00000104,0.00000211,-0.00000304,-0.000001
 50,-0.00000146,-0.00000406,-0.00000195,-0.00000131,0.00000116,-0.00000
 225,-0.00000117,-0.00000377,0.00000101,0.00000237,0.00000012,0.0000003
 1,-0.00000291,-0.00000100,-0.00000073,0.00000068,-0.00000150,-0.000038
 79,-0.00003405,-0.00001682,0.00000501,0.00000039,-0.00000791,0.0000039
 5,-0.00000599,0.00001850,-0.00000051,-0.00000322,-0.00000972,0.0000508
 8,0.00002755,-0.00000622,-0.00002100,0.00000862,0.00003010,-0.00000031
 ,0.00000559,-0.00001259,-0.00000003,0.00000643,-0.00001356,0.00000673,
 -0.00000264,-0.00003255,-0.00000017,-0.00000730,-0.00000139,-0.0000006
 2,0.00000958,-0.00000221,0.00000091,0.00000181,-0.00000057,0.00001035,
 -0.00003131,-0.00011082,0.00003183,-0.00000285,-0.00005575,-0.00000388
 ,-0.00000123,0.00003451,0.00000173,0.00000252,-0.00004462,0.01559989,0
 .00118294,0.02349623\\0.00000350,-0.00000094,0.00000523,0.00000384,0.0
 0000039,0.00000282,0.00000521,0.00000096,0.00000300,0.00000614,0.00000
 009,0.00000566,0.00000591,-0.00000128,0.00000807,0.00000455,-0.0000018
 9,0.00000795,0.00000159,0.,0.00000153,0.00000543,0.00000206,0.00000110
 ,0.00000726,0.00000051,0.00000588,0.00000673,-0.00000189,0.00001011,0.
 00000253,0.00000097,0.00000053,-0.00000013,0.00000166,-0.00000332,0.00
 000014,0.00000022,-0.00000027,-0.00000085,-0.00000094,0.00000099,-0.00
 000219,-0.00000072,-0.00000068,-0.00000245,0.00000067,-0.00000361,-0.0
 0000150,0.00000181,-0.00000501,-0.00000066,-0.00000193,0.00000325,-0.0
 0000345,0.00000080,-0.00000486,-0.00000321,-0.00000196,0.00000083,-0.0
 0000182,0.00000325,-0.00000820,0.00000084,0.00000245,-0.00000434,0.000
 00214,-0.00000109,0.00000436,0.00000169,-0.00000212,0.00000580,0.00000
 403,-0.00000333,0.00001039,-0.00000062,-0.00000169,0.00000277,0.000000
 43,-0.00000201,0.00000434,-0.00000132,-0.00000260,0.00000390,0.0000009
 4,-0.00000035,0.00000158,-0.00000537,-0.00000387,0.00000259,-0.0000072
 3,-0.00000410,0.00000124,-0.00000607,-0.00000478,0.00000368,-0.0000044
 3,-0.00000424,0.00000417,-0.00000465,-0.00000159,-0.00000127,-0.000006
 53,-0.00000178,-0.00000268,-0.00000318,-0.00000024,-0.00000253,-0.0000
 0531,-0.00000251,-0.00000009,0.00000117,0.00000510,-0.00000898,0.00000
 089,0.00000614,-0.00001128,0.00000231,0.00000522,-0.00000814,0.0000024
 2,0.00000531,-0.00000821,-0.00000358,0.00000302,-0.00000937,-0.0000025
 3,0.00000314,-0.00000860,-0.00000392,0.00000402,-0.00001168,-0.0000056
 8,0.00000172,-0.00000878,-0.00000333,0.00000325,-0.00000957,-0.0000021
 5,0.00000346,-0.00000886,-0.00000548,0.00000198,-0.00000913,-0.0000035
 2,0.00000430,-0.00001184,0.00000294,-0.00000362,0.00000999,0.00000511,
 -0.00000412,0.00001303,0.00000612,-0.00000382,0.00001334,0.00000488,-0
 .00000509,0.00001467,0.00000244,0.00000196,-0.00000152\\\@


 DEFINE YOUR TERMS, YOU WILL PERMIT ME AGAIN TO SAY, 
 OR WE SHALL NEVER UNDERSTAND ONE ANOTHER.

                                    -- VOLTAIRE
 Job cpu time:       0 days  7 hours 46 minutes 56.3 seconds.
 Elapsed time:       0 days  0 hours 29 minutes 28.6 seconds.
 File lengths (MBytes):  RWF=   3280 Int=      0 D2E=      0 Chk=     60 Scr=      8
 Normal termination of Gaussian 16 at Tue Feb 12 16:18:17 2019.
