 Entering Gaussian System, Link 0=g16
 Input=cyclohexyl-monoBIP-E1PT.com
 Output=cyclohexyl-monoBIP-E1PT.log
 Initial command:
 /gpfs/apps/hpc/Apps/Restricted/Gaussian/Rev_A.03/g16/l1.exe "/gpfs/scratch60/fas/hammes_schiffer/jg2487/c42n01/Gau-72055.inp" -scrdir="/gpfs/scratch60/fas/hammes_schiffer/jg2487/c42n01/"
 Entering Link 1 = /gpfs/apps/hpc/Apps/Restricted/Gaussian/Rev_A.03/g16/l1.exe PID=     72056.
  
 Copyright (c) 1988,1990,1992,1993,1995,1998,2003,2009,2016,
            Gaussian, Inc.  All Rights Reserved.
  
 This is part of the Gaussian(R) 16 program.  It is based on
 the Gaussian(R) 09 system (copyright 2009, Gaussian, Inc.),
 the Gaussian(R) 03 system (copyright 2003, Gaussian, Inc.),
 the Gaussian(R) 98 system (copyright 1998, Gaussian, Inc.),
 the Gaussian(R) 94 system (copyright 1995, Gaussian, Inc.),
 the Gaussian 92(TM) system (copyright 1992, Gaussian, Inc.),
 the Gaussian 90(TM) system (copyright 1990, Gaussian, Inc.),
 the Gaussian 88(TM) system (copyright 1988, Gaussian, Inc.),
 the Gaussian 86(TM) system (copyright 1986, Carnegie Mellon
 University), and the Gaussian 82(TM) system (copyright 1983,
 Carnegie Mellon University). Gaussian is a federally registered
 trademark of Gaussian, Inc.
  
 This software contains proprietary and confidential information,
 including trade secrets, belonging to Gaussian, Inc.
  
 This software is provided under written license and may be
 used, copied, transmitted, or stored only in accord with that
 written license.
  
 The following legend is applicable only to US Government
 contracts under FAR:
  
                    RESTRICTED RIGHTS LEGEND
  
 Use, reproduction and disclosure by the US Government is
 subject to restrictions as set forth in subparagraphs (a)
 and (c) of the Commercial Computer Software - Restricted
 Rights clause in FAR 52.227-19.
  
 Gaussian, Inc.
 340 Quinnipiac St., Bldg. 40, Wallingford CT 06492
  
  
 ---------------------------------------------------------------
 Warning -- This program may not be used in any manner that
 competes with the business of Gaussian, Inc. or will provide
 assistance to any competitor of Gaussian, Inc.  The licensee
 of this program is prohibited from giving any competitor of
 Gaussian, Inc. access to this program.  By using this program,
 the user acknowledges that Gaussian, Inc. is engaged in the
 business of creating and licensing software in the field of
 computational chemistry and represents and warrants to the
 licensee that it is not a competitor of Gaussian, Inc. and that
 it will not use this program in any manner prohibited above.
 ---------------------------------------------------------------
  

 Cite this work as:
 Gaussian 16, Revision A.03,
 M. J. Frisch, G. W. Trucks, H. B. Schlegel, G. E. Scuseria, 
 M. A. Robb, J. R. Cheeseman, G. Scalmani, V. Barone, 
 G. A. Petersson, H. Nakatsuji, X. Li, M. Caricato, A. V. Marenich, 
 J. Bloino, B. G. Janesko, R. Gomperts, B. Mennucci, H. P. Hratchian, 
 J. V. Ortiz, A. F. Izmaylov, J. L. Sonnenberg, D. Williams-Young, 
 F. Ding, F. Lipparini, F. Egidi, J. Goings, B. Peng, A. Petrone, 
 T. Henderson, D. Ranasinghe, V. G. Zakrzewski, J. Gao, N. Rega, 
 G. Zheng, W. Liang, M. Hada, M. Ehara, K. Toyota, R. Fukuda, 
 J. Hasegawa, M. Ishida, T. Nakajima, Y. Honda, O. Kitao, H. Nakai, 
 T. Vreven, K. Throssell, J. A. Montgomery, Jr., J. E. Peralta, 
 F. Ogliaro, M. J. Bearpark, J. J. Heyd, E. N. Brothers, K. N. Kudin, 
 V. N. Staroverov, T. A. Keith, R. Kobayashi, J. Normand, 
 K. Raghavachari, A. P. Rendell, J. C. Burant, S. S. Iyengar, 
 J. Tomasi, M. Cossi, J. M. Millam, M. Klene, C. Adamo, R. Cammi, 
 J. W. Ochterski, R. L. Martin, K. Morokuma, O. Farkas, 
 J. B. Foresman, and D. J. Fox, Gaussian, Inc., Wallingford CT, 2016.
 
 ******************************************
 Gaussian 16:  ES64L-G16RevA.03 25-Dec-2016
                21-Dec-2018 
 ******************************************
 %chk=cyclohexyl-monoBIP-E1PT.chk
 %mem=10GB
 %nprocshared=16
 Will use up to   16 processors via shared memory.
 ----------------------------------------------------------------
 #p freq(ReadFC,InternalModes) Geom(AllCheck) NoSymm scale=0.9631
 ----------------------------------------------------------------
 1/18=20,29=7,38=1,114=963100/1,3;
 2/9=110,12=2,15=1,40=1/2;
 7/8=21,25=11,30=1/16;
 99/5=2/99;
 Leave Link    1 at Fri Dec 21 18:10:06 2018, MaxMem=  1342177280 cpu:               8.1 elap:               0.5
 (Enter /gpfs/apps/hpc/Apps/Restricted/Gaussian/Rev_A.03/g16/l101.exe)
 Structure from the checkpoint file:  "cyclohexyl-monoBIP-E1PT.chk"
 ----------------------------------------------------------------------
 cyclohexylimine monoBIP oxidized, with first proton transferred optimi
 zation
 ----------------------------------------------------------------------
 Charge =  1 Multiplicity = 2
 Redundant internal coordinates found in file.  (old form).
 C,0,-0.5007,2.795099,0.366564
 C,0,-1.888756,2.988755,0.285152
 C,0,-2.439117,4.269532,0.19518
 C,0,-1.539354,5.331386,0.197421
 C,0,-0.14753,5.133655,0.282622
 C,0,0.414372,3.857939,0.366325
 C,0,-1.472879,0.789421,0.397006
 H,0,-3.507434,4.423448,0.125656
 H,0,-1.92062,6.342852,0.132039
 H,0,0.511075,5.994513,0.282171
 N,0,-2.443276,1.720964,0.307419
 C,0,-3.051167,-1.165079,0.324995
 C,0,-1.681522,-0.639533,0.43673
 C,0,-0.608879,-1.496606,0.563803
 C,0,-0.787015,-2.897044,0.585282
 C,0,-2.095986,-3.411943,0.477239
 C,0,-3.22338,-2.622391,0.349004
 H,0,0.395795,-1.102185,0.650899
 H,0,-2.218517,-4.483276,0.49594
 C,0,0.439552,-3.791576,0.699391
 C,0,-4.620524,-3.224009,0.230773
 O,0,-4.026144,-0.38029,0.211266
 N,0,-0.287163,1.435613,0.433712
 H,0,0.662886,1.069181,0.482507
 C,0,1.855667,3.620564,0.43897
 H,0,2.487593,4.512926,0.429056
 N,0,2.319926,2.428818,0.504615
 C,0,3.776936,2.240335,0.536736
 C,0,4.373273,2.434557,-0.868008
 C,0,4.511964,3.11688,1.562939
 H,0,3.93681,1.194257,0.820326
 C,0,5.875025,2.129741,-0.872772
 H,0,4.202597,3.474257,-1.173386
 H,0,3.843548,1.797243,-1.582001
 C,0,6.011139,2.797698,1.565411
 H,0,4.372407,4.175044,1.314526
 H,0,4.078484,2.957532,2.554789
 C,0,6.620745,2.970221,0.1699
 H,0,6.285843,2.309867,-1.870635
 H,0,6.025716,1.064803,-0.656505
 H,0,6.525113,3.438601,2.287819
 H,0,6.157286,1.763038,1.900122
 H,0,7.681306,2.701871,0.18381
 H,0,6.564094,4.027534,-0.117509
 H,0,-3.417409,1.425694,0.257575
 C,0,-5.508812,-2.70914,1.386591
 H,0,-5.627835,-1.628402,1.339394
 H,0,-6.494993,-3.175805,1.317385
 H,0,-5.072553,-2.972996,2.353618
 C,0,-4.585105,-4.758692,0.305618
 H,0,-3.994593,-5.192688,-0.505392
 H,0,-4.175341,-5.106811,1.257247
 H,0,-5.604931,-5.138941,0.219065
 C,0,0.08092,-5.282855,0.729016
 H,0,-0.539622,-5.53305,1.59335
 H,0,-0.446737,-5.587369,-0.17816
 H,0,0.999174,-5.869919,0.794722
 C,0,1.347725,-3.520089,-0.521647
 H,0,0.833683,-3.773873,-1.451824
 H,0,1.649485,-2.471465,-0.569562
 H,0,2.250453,-4.131637,-0.448319
 C,0,1.207268,-3.43826,1.991994
 H,0,0.587763,-3.612041,2.874598
 H,0,2.095175,-4.070806,2.065117
 H,0,1.534375,-2.396151,1.998954
 C,0,-5.243062,-2.825314,-1.126819
 H,0,-6.240036,-3.266669,-1.20651
 H,0,-5.332081,-1.744307,-1.222704
 H,0,-4.63764,-3.202658,-1.954963
 Recover connectivity data from disk.
 ITRead=  0  0  0  0  0  0  0  0  0  0  0  0  0  0  0  0  0  0  0  0
 ITRead=  0  0  0  0  0  0  0  0  0  0  0  0  0  0  0  0  0  0  0  0
 ITRead=  0  0  0  0  0  0  0  0  0  0  0  0  0  0  0  0  0  0  0  0
 ITRead=  0  0  0  0  0  0  0  0  0
 MicOpt= -1 -1 -1 -1 -1 -1 -1 -1 -1 -1 -1 -1 -1 -1 -1 -1 -1 -1 -1 -1
 MicOpt= -1 -1 -1 -1 -1 -1 -1 -1 -1 -1 -1 -1 -1 -1 -1 -1 -1 -1 -1 -1
 MicOpt= -1 -1 -1 -1 -1 -1 -1 -1 -1 -1 -1 -1 -1 -1 -1 -1 -1 -1 -1 -1
 MicOpt= -1 -1 -1 -1 -1 -1 -1 -1 -1
 NAtoms=     69 NQM=       69 NQMF=       0 NMMI=      0 NMMIF=      0
                NMic=       0 NMicF=      0.
                    Isotopes and Nuclear Properties:
 (Nuclear quadrupole moments (NQMom) in fm**2, nuclear magnetic moments (NMagM)
  in nuclear magnetons)

  Atom         1           2           3           4           5           6           7           8           9          10
 IAtWgt=          12          12          12          12          12          12          12           1           1           1
 AtmWgt=  12.0000000  12.0000000  12.0000000  12.0000000  12.0000000  12.0000000  12.0000000   1.0078250   1.0078250   1.0078250
 NucSpn=           0           0           0           0           0           0           0           1           1           1
 AtZEff=   3.6000000   3.6000000   3.6000000   3.6000000   3.6000000   3.6000000   3.6000000   1.0000000   1.0000000   1.0000000
 NQMom=    0.0000000   0.0000000   0.0000000   0.0000000   0.0000000   0.0000000   0.0000000   0.0000000   0.0000000   0.0000000
 NMagM=    0.0000000   0.0000000   0.0000000   0.0000000   0.0000000   0.0000000   0.0000000   2.7928460   2.7928460   2.7928460
 AtZNuc=   6.0000000   6.0000000   6.0000000   6.0000000   6.0000000   6.0000000   6.0000000   1.0000000   1.0000000   1.0000000

  Atom        11          12          13          14          15          16          17          18          19          20
 IAtWgt=          14          12          12          12          12          12          12           1           1          12
 AtmWgt=  14.0030740  12.0000000  12.0000000  12.0000000  12.0000000  12.0000000  12.0000000   1.0078250   1.0078250  12.0000000
 NucSpn=           2           0           0           0           0           0           0           1           1           0
 AtZEff=   4.5500000   3.6000000   3.6000000   3.6000000   3.6000000   3.6000000   3.6000000   1.0000000   1.0000000   3.6000000
 NQMom=    2.0440000   0.0000000   0.0000000   0.0000000   0.0000000   0.0000000   0.0000000   0.0000000   0.0000000   0.0000000
 NMagM=    0.4037610   0.0000000   0.0000000   0.0000000   0.0000000   0.0000000   0.0000000   2.7928460   2.7928460   0.0000000
 AtZNuc=   7.0000000   6.0000000   6.0000000   6.0000000   6.0000000   6.0000000   6.0000000   1.0000000   1.0000000   6.0000000

  Atom        21          22          23          24          25          26          27          28          29          30
 IAtWgt=          12          16          14           1          12           1          14          12          12          12
 AtmWgt=  12.0000000  15.9949146  14.0030740   1.0078250  12.0000000   1.0078250  14.0030740  12.0000000  12.0000000  12.0000000
 NucSpn=           0           0           2           1           0           1           2           0           0           0
 AtZEff=   3.6000000   5.6000000   4.5500000   1.0000000   3.6000000   1.0000000   4.5500000   3.6000000   3.6000000   3.6000000
 NQMom=    0.0000000   0.0000000   2.0440000   0.0000000   0.0000000   0.0000000   2.0440000   0.0000000   0.0000000   0.0000000
 NMagM=    0.0000000   0.0000000   0.4037610   2.7928460   0.0000000   2.7928460   0.4037610   0.0000000   0.0000000   0.0000000
 AtZNuc=   6.0000000   8.0000000   7.0000000   1.0000000   6.0000000   1.0000000   7.0000000   6.0000000   6.0000000   6.0000000

  Atom        31          32          33          34          35          36          37          38          39          40
 IAtWgt=           1          12           1           1          12           1           1          12           1           1
 AtmWgt=   1.0078250  12.0000000   1.0078250   1.0078250  12.0000000   1.0078250   1.0078250  12.0000000   1.0078250   1.0078250
 NucSpn=           1           0           1           1           0           1           1           0           1           1
 AtZEff=   1.0000000   3.6000000   1.0000000   1.0000000   3.6000000   1.0000000   1.0000000   3.6000000   1.0000000   1.0000000
 NQMom=    0.0000000   0.0000000   0.0000000   0.0000000   0.0000000   0.0000000   0.0000000   0.0000000   0.0000000   0.0000000
 NMagM=    2.7928460   0.0000000   2.7928460   2.7928460   0.0000000   2.7928460   2.7928460   0.0000000   2.7928460   2.7928460
 AtZNuc=   1.0000000   6.0000000   1.0000000   1.0000000   6.0000000   1.0000000   1.0000000   6.0000000   1.0000000   1.0000000

  Atom        41          42          43          44          45          46          47          48          49          50
 IAtWgt=           1           1           1           1           1          12           1           1           1          12
 AtmWgt=   1.0078250   1.0078250   1.0078250   1.0078250   1.0078250  12.0000000   1.0078250   1.0078250   1.0078250  12.0000000
 NucSpn=           1           1           1           1           1           0           1           1           1           0
 AtZEff=   1.0000000   1.0000000   1.0000000   1.0000000   1.0000000   3.6000000   1.0000000   1.0000000   1.0000000   3.6000000
 NQMom=    0.0000000   0.0000000   0.0000000   0.0000000   0.0000000   0.0000000   0.0000000   0.0000000   0.0000000   0.0000000
 NMagM=    2.7928460   2.7928460   2.7928460   2.7928460   2.7928460   0.0000000   2.7928460   2.7928460   2.7928460   0.0000000
 AtZNuc=   1.0000000   1.0000000   1.0000000   1.0000000   1.0000000   6.0000000   1.0000000   1.0000000   1.0000000   6.0000000

  Atom        51          52          53          54          55          56          57          58          59          60
 IAtWgt=           1           1           1          12           1           1           1          12           1           1
 AtmWgt=   1.0078250   1.0078250   1.0078250  12.0000000   1.0078250   1.0078250   1.0078250  12.0000000   1.0078250   1.0078250
 NucSpn=           1           1           1           0           1           1           1           0           1           1
 AtZEff=   1.0000000   1.0000000   1.0000000   3.6000000   1.0000000   1.0000000   1.0000000   3.6000000   1.0000000   1.0000000
 NQMom=    0.0000000   0.0000000   0.0000000   0.0000000   0.0000000   0.0000000   0.0000000   0.0000000   0.0000000   0.0000000
 NMagM=    2.7928460   2.7928460   2.7928460   0.0000000   2.7928460   2.7928460   2.7928460   0.0000000   2.7928460   2.7928460
 AtZNuc=   1.0000000   1.0000000   1.0000000   6.0000000   1.0000000   1.0000000   1.0000000   6.0000000   1.0000000   1.0000000

  Atom        61          62          63          64          65          66          67          68          69
 IAtWgt=           1          12           1           1           1          12           1           1           1
 AtmWgt=   1.0078250  12.0000000   1.0078250   1.0078250   1.0078250  12.0000000   1.0078250   1.0078250   1.0078250
 NucSpn=           1           0           1           1           1           0           1           1           1
 AtZEff=   1.0000000   3.6000000   1.0000000   1.0000000   1.0000000   3.6000000   1.0000000   1.0000000   1.0000000
 NQMom=    0.0000000   0.0000000   0.0000000   0.0000000   0.0000000   0.0000000   0.0000000   0.0000000   0.0000000
 NMagM=    2.7928460   0.0000000   2.7928460   2.7928460   2.7928460   0.0000000   2.7928460   2.7928460   2.7928460
 AtZNuc=   1.0000000   6.0000000   1.0000000   1.0000000   1.0000000   6.0000000   1.0000000   1.0000000   1.0000000
 Leave Link  101 at Fri Dec 21 18:10:06 2018, MaxMem=  1342177280 cpu:               4.5 elap:               0.3
 (Enter /gpfs/apps/hpc/Apps/Restricted/Gaussian/Rev_A.03/g16/l103.exe)

 GradGradGradGradGradGradGradGradGradGradGradGradGradGradGradGradGradGrad
 Berny optimization.
 Initialization pass.
                           ----------------------------
                           !    Initial Parameters    !
                           ! (Angstroms and Degrees)  !
 --------------------------                            --------------------------
 ! Name  Definition              Value          Derivative Info.                !
 --------------------------------------------------------------------------------
 ! R1    R(1,2)                  1.4039         estimate D2E/DX2                !
 ! R2    R(1,6)                  1.4025         estimate D2E/DX2                !
 ! R3    R(1,23)                 1.3778         estimate D2E/DX2                !
 ! R4    R(2,3)                  1.3969         estimate D2E/DX2                !
 ! R5    R(2,11)                 1.3839         estimate D2E/DX2                !
 ! R6    R(3,4)                  1.3918         estimate D2E/DX2                !
 ! R7    R(3,8)                  1.0816         estimate D2E/DX2                !
 ! R8    R(4,5)                  1.4084         estimate D2E/DX2                !
 ! R9    R(4,9)                  1.0829         estimate D2E/DX2                !
 ! R10   R(5,6)                  1.3965         estimate D2E/DX2                !
 ! R11   R(5,10)                 1.0839         estimate D2E/DX2                !
 ! R12   R(6,25)                 1.4625         estimate D2E/DX2                !
 ! R13   R(7,11)                 1.3481         estimate D2E/DX2                !
 ! R14   R(7,13)                 1.4447         estimate D2E/DX2                !
 ! R15   R(7,23)                 1.3509         estimate D2E/DX2                !
 ! R16   R(11,45)                1.0191         estimate D2E/DX2                !
 ! R17   R(12,13)                1.4713         estimate D2E/DX2                !
 ! R18   R(12,17)                1.4676         estimate D2E/DX2                !
 ! R19   R(12,22)                1.2567         estimate D2E/DX2                !
 ! R20   R(13,14)                1.3789         estimate D2E/DX2                !
 ! R21   R(14,15)                1.4119         estimate D2E/DX2                !
 ! R22   R(14,18)                1.0828         estimate D2E/DX2                !
 ! R23   R(15,16)                1.4107         estimate D2E/DX2                !
 ! R24   R(15,20)                1.5224         estimate D2E/DX2                !
 ! R25   R(16,17)                1.3823         estimate D2E/DX2                !
 ! R26   R(16,19)                1.0785         estimate D2E/DX2                !
 ! R27   R(17,21)                1.5258         estimate D2E/DX2                !
 ! R28   R(20,54)                1.5341         estimate D2E/DX2                !
 ! R29   R(20,58)                1.5458         estimate D2E/DX2                !
 ! R30   R(20,62)                1.5444         estimate D2E/DX2                !
 ! R31   R(21,46)                1.546          estimate D2E/DX2                !
 ! R32   R(21,50)                1.5369         estimate D2E/DX2                !
 ! R33   R(21,66)                1.5458         estimate D2E/DX2                !
 ! R34   R(23,24)                1.0194         estimate D2E/DX2                !
 ! R35   R(25,26)                1.0935         estimate D2E/DX2                !
 ! R36   R(25,27)                1.2807         estimate D2E/DX2                !
 ! R37   R(27,28)                1.4695         estimate D2E/DX2                !
 ! R38   R(28,29)                1.5384         estimate D2E/DX2                !
 ! R39   R(28,30)                1.5368         estimate D2E/DX2                !
 ! R40   R(28,31)                1.0956         estimate D2E/DX2                !
 ! R41   R(29,32)                1.5324         estimate D2E/DX2                !
 ! R42   R(29,33)                1.097          estimate D2E/DX2                !
 ! R43   R(29,34)                1.0939         estimate D2E/DX2                !
 ! R44   R(30,35)                1.5328         estimate D2E/DX2                !
 ! R45   R(30,36)                1.0959         estimate D2E/DX2                !
 ! R46   R(30,37)                1.0941         estimate D2E/DX2                !
 ! R47   R(32,38)                1.5329         estimate D2E/DX2                !
 ! R48   R(32,39)                1.0941         estimate D2E/DX2                !
 ! R49   R(32,40)                1.0971         estimate D2E/DX2                !
 ! R50   R(35,38)                1.5326         estimate D2E/DX2                !
 ! R51   R(35,41)                1.094          estimate D2E/DX2                !
 ! R52   R(35,42)                1.0972         estimate D2E/DX2                !
 ! R53   R(38,43)                1.0941         estimate D2E/DX2                !
 ! R54   R(38,44)                1.0971         estimate D2E/DX2                !
 ! R55   R(46,47)                1.0883         estimate D2E/DX2                !
 ! R56   R(46,48)                1.0932         estimate D2E/DX2                !
 ! R57   R(46,49)                1.0932         estimate D2E/DX2                !
 ! R58   R(50,51)                1.0931         estimate D2E/DX2                !
 ! R59   R(50,52)                1.093          estimate D2E/DX2                !
 ! R60   R(50,53)                1.0918         estimate D2E/DX2                !
 ! R61   R(54,55)                1.093          estimate D2E/DX2                !
 ! R62   R(54,56)                1.0928         estimate D2E/DX2                !
 ! R63   R(54,57)                1.0919         estimate D2E/DX2                !
 ! R64   R(58,59)                1.0926         estimate D2E/DX2                !
 ! R65   R(58,60)                1.0922         estimate D2E/DX2                !
 ! R66   R(58,61)                1.0928         estimate D2E/DX2                !
 ! R67   R(62,63)                1.0922         estimate D2E/DX2                !
 ! R68   R(62,64)                1.0926         estimate D2E/DX2                !
 ! R69   R(62,65)                1.0923         estimate D2E/DX2                !
 ! R70   R(66,67)                1.0932         estimate D2E/DX2                !
 ! R71   R(66,68)                1.0889         estimate D2E/DX2                !
 ! R72   R(66,69)                1.093          estimate D2E/DX2                !
 ! A1    A(2,1,6)              122.7223         estimate D2E/DX2                !
 ! A2    A(2,1,23)             106.9884         estimate D2E/DX2                !
 ! A3    A(6,1,23)             130.2888         estimate D2E/DX2                !
 ! A4    A(1,2,3)              121.316          estimate D2E/DX2                !
 ! A5    A(1,2,11)             105.5971         estimate D2E/DX2                !
 ! A6    A(3,2,11)             133.0853         estimate D2E/DX2                !
 ! A7    A(2,3,4)              116.4042         estimate D2E/DX2                !
 ! A8    A(2,3,8)              121.5851         estimate D2E/DX2                !
 ! A9    A(4,3,8)              122.0106         estimate D2E/DX2                !
 ! A10   A(3,4,5)              122.1311         estimate D2E/DX2                !
 ! A11   A(3,4,9)              119.0056         estimate D2E/DX2                !
 ! A12   A(5,4,9)              118.8633         estimate D2E/DX2                !
 ! A13   A(4,5,6)              121.9728         estimate D2E/DX2                !
 ! A14   A(4,5,10)             119.2717         estimate D2E/DX2                !
 ! A15   A(6,5,10)             118.7554         estimate D2E/DX2                !
 ! A16   A(1,6,5)              115.4525         estimate D2E/DX2                !
 ! A17   A(1,6,25)             121.3313         estimate D2E/DX2                !
 ! A18   A(5,6,25)             123.2144         estimate D2E/DX2                !
 ! A19   A(11,7,13)            125.5454         estimate D2E/DX2                !
 ! A20   A(11,7,23)            107.6425         estimate D2E/DX2                !
 ! A21   A(13,7,23)            126.811          estimate D2E/DX2                !
 ! A22   A(2,11,7)             110.2215         estimate D2E/DX2                !
 ! A23   A(2,11,45)            130.3627         estimate D2E/DX2                !
 ! A24   A(7,11,45)            119.4118         estimate D2E/DX2                !
 ! A25   A(13,12,17)           117.5605         estimate D2E/DX2                !
 ! A26   A(13,12,22)           120.3993         estimate D2E/DX2                !
 ! A27   A(17,12,22)           122.0401         estimate D2E/DX2                !
 ! A28   A(7,13,12)            119.0575         estimate D2E/DX2                !
 ! A29   A(7,13,14)            120.3318         estimate D2E/DX2                !
 ! A30   A(12,13,14)           120.6074         estimate D2E/DX2                !
 ! A31   A(13,14,15)           121.3182         estimate D2E/DX2                !
 ! A32   A(13,14,18)           120.1834         estimate D2E/DX2                !
 ! A33   A(15,14,18)           118.4985         estimate D2E/DX2                !
 ! A34   A(14,15,16)           118.5501         estimate D2E/DX2                !
 ! A35   A(14,15,20)           118.8362         estimate D2E/DX2                !
 ! A36   A(16,15,20)           122.6049         estimate D2E/DX2                !
 ! A37   A(15,16,17)           123.7363         estimate D2E/DX2                !
 ! A38   A(15,16,19)           117.8174         estimate D2E/DX2                !
 ! A39   A(17,16,19)           118.4463         estimate D2E/DX2                !
 ! A40   A(12,17,16)           118.2272         estimate D2E/DX2                !
 ! A41   A(12,17,21)           119.8487         estimate D2E/DX2                !
 ! A42   A(16,17,21)           121.924          estimate D2E/DX2                !
 ! A43   A(15,20,54)           112.5995         estimate D2E/DX2                !
 ! A44   A(15,20,58)           108.1165         estimate D2E/DX2                !
 ! A45   A(15,20,62)           109.1973         estimate D2E/DX2                !
 ! A46   A(54,20,58)           108.8647         estimate D2E/DX2                !
 ! A47   A(54,20,62)           108.8108         estimate D2E/DX2                !
 ! A48   A(58,20,62)           109.2025         estimate D2E/DX2                !
 ! A49   A(17,21,46)           109.6876         estimate D2E/DX2                !
 ! A50   A(17,21,50)           111.6452         estimate D2E/DX2                !
 ! A51   A(17,21,66)           109.5805         estimate D2E/DX2                !
 ! A52   A(46,21,50)           108.0223         estimate D2E/DX2                !
 ! A53   A(46,21,66)           109.8341         estimate D2E/DX2                !
 ! A54   A(50,21,66)           108.0347         estimate D2E/DX2                !
 ! A55   A(1,23,7)             109.5505         estimate D2E/DX2                !
 ! A56   A(1,23,24)            120.0953         estimate D2E/DX2                !
 ! A57   A(7,23,24)            130.343          estimate D2E/DX2                !
 ! A58   A(6,25,26)            115.8876         estimate D2E/DX2                !
 ! A59   A(6,25,27)            120.7195         estimate D2E/DX2                !
 ! A60   A(26,25,27)           123.3925         estimate D2E/DX2                !
 ! A61   A(25,27,28)           118.6795         estimate D2E/DX2                !
 ! A62   A(27,28,29)           110.3766         estimate D2E/DX2                !
 ! A63   A(27,28,30)           114.5611         estimate D2E/DX2                !
 ! A64   A(27,28,31)           105.8319         estimate D2E/DX2                !
 ! A65   A(29,28,30)           110.6303         estimate D2E/DX2                !
 ! A66   A(29,28,31)           107.4783         estimate D2E/DX2                !
 ! A67   A(30,28,31)           107.5757         estimate D2E/DX2                !
 ! A68   A(28,29,32)           110.9537         estimate D2E/DX2                !
 ! A69   A(28,29,33)           108.2729         estimate D2E/DX2                !
 ! A70   A(28,29,34)           109.5567         estimate D2E/DX2                !
 ! A71   A(32,29,33)           109.8855         estimate D2E/DX2                !
 ! A72   A(32,29,34)           110.8954         estimate D2E/DX2                !
 ! A73   A(33,29,34)           107.1665         estimate D2E/DX2                !
 ! A74   A(28,30,35)           110.4939         estimate D2E/DX2                !
 ! A75   A(28,30,36)           109.7842         estimate D2E/DX2                !
 ! A76   A(28,30,37)           109.4379         estimate D2E/DX2                !
 ! A77   A(35,30,36)           109.0261         estimate D2E/DX2                !
 ! A78   A(35,30,37)           110.8376         estimate D2E/DX2                !
 ! A79   A(36,30,37)           107.1981         estimate D2E/DX2                !
 ! A80   A(29,32,38)           111.4434         estimate D2E/DX2                !
 ! A81   A(29,32,39)           109.76           estimate D2E/DX2                !
 ! A82   A(29,32,40)           109.0921         estimate D2E/DX2                !
 ! A83   A(38,32,39)           110.3319         estimate D2E/DX2                !
 ! A84   A(38,32,40)           109.3497         estimate D2E/DX2                !
 ! A85   A(39,32,40)           106.7406         estimate D2E/DX2                !
 ! A86   A(30,35,38)           111.3542         estimate D2E/DX2                !
 ! A87   A(30,35,41)           109.791          estimate D2E/DX2                !
 ! A88   A(30,35,42)           109.0947         estimate D2E/DX2                !
 ! A89   A(38,35,41)           110.3931         estimate D2E/DX2                !
 ! A90   A(38,35,42)           109.3256         estimate D2E/DX2                !
 ! A91   A(41,35,42)           106.7633         estimate D2E/DX2                !
 ! A92   A(32,38,35)           111.3548         estimate D2E/DX2                !
 ! A93   A(32,38,43)           110.2275         estimate D2E/DX2                !
 ! A94   A(32,38,44)           108.9712         estimate D2E/DX2                !
 ! A95   A(35,38,43)           110.2667         estimate D2E/DX2                !
 ! A96   A(35,38,44)           109.055          estimate D2E/DX2                !
 ! A97   A(43,38,44)           106.8433         estimate D2E/DX2                !
 ! A98   A(21,46,47)           111.1703         estimate D2E/DX2                !
 ! A99   A(21,46,48)           109.1978         estimate D2E/DX2                !
 ! A100  A(21,46,49)           110.589          estimate D2E/DX2                !
 ! A101  A(47,46,48)           108.8145         estimate D2E/DX2                !
 ! A102  A(47,46,49)           108.7653         estimate D2E/DX2                !
 ! A103  A(48,46,49)           108.2379         estimate D2E/DX2                !
 ! A104  A(21,50,51)           111.8875         estimate D2E/DX2                !
 ! A105  A(21,50,52)           111.6582         estimate D2E/DX2                !
 ! A106  A(21,50,53)           108.8064         estimate D2E/DX2                !
 ! A107  A(51,50,52)           108.4813         estimate D2E/DX2                !
 ! A108  A(51,50,53)           107.9091         estimate D2E/DX2                !
 ! A109  A(52,50,53)           107.9545         estimate D2E/DX2                !
 ! A110  A(20,54,55)           111.7465         estimate D2E/DX2                !
 ! A111  A(20,54,56)           111.5764         estimate D2E/DX2                !
 ! A112  A(20,54,57)           109.1007         estimate D2E/DX2                !
 ! A113  A(55,54,56)           108.575          estimate D2E/DX2                !
 ! A114  A(55,54,57)           107.8662         estimate D2E/DX2                !
 ! A115  A(56,54,57)           107.8315         estimate D2E/DX2                !
 ! A116  A(20,58,59)           110.8099         estimate D2E/DX2                !
 ! A117  A(20,58,60)           111.444          estimate D2E/DX2                !
 ! A118  A(20,58,61)           109.5136         estimate D2E/DX2                !
 ! A119  A(59,58,60)           108.3985         estimate D2E/DX2                !
 ! A120  A(59,58,61)           108.4069         estimate D2E/DX2                !
 ! A121  A(60,58,61)           108.1787         estimate D2E/DX2                !
 ! A122  A(20,62,63)           110.9766         estimate D2E/DX2                !
 ! A123  A(20,62,64)           109.1194         estimate D2E/DX2                !
 ! A124  A(20,62,65)           111.8686         estimate D2E/DX2                !
 ! A125  A(63,62,64)           108.3444         estimate D2E/DX2                !
 ! A126  A(63,62,65)           108.4521         estimate D2E/DX2                !
 ! A127  A(64,62,65)           107.9717         estimate D2E/DX2                !
 ! A128  A(21,66,67)           109.0967         estimate D2E/DX2                !
 ! A129  A(21,66,68)           111.488          estimate D2E/DX2                !
 ! A130  A(21,66,69)           110.6887         estimate D2E/DX2                !
 ! A131  A(67,66,68)           108.6524         estimate D2E/DX2                !
 ! A132  A(67,66,69)           108.0908         estimate D2E/DX2                !
 ! A133  A(68,66,69)           108.7407         estimate D2E/DX2                !
 ! D1    D(6,1,2,3)              0.1519         estimate D2E/DX2                !
 ! D2    D(6,1,2,11)           179.7375         estimate D2E/DX2                !
 ! D3    D(23,1,2,3)          -179.6056         estimate D2E/DX2                !
 ! D4    D(23,1,2,11)           -0.0201         estimate D2E/DX2                !
 ! D5    D(2,1,6,5)              0.1574         estimate D2E/DX2                !
 ! D6    D(2,1,6,25)          -179.3808         estimate D2E/DX2                !
 ! D7    D(23,1,6,5)           179.8534         estimate D2E/DX2                !
 ! D8    D(23,1,6,25)            0.3153         estimate D2E/DX2                !
 ! D9    D(2,1,23,7)             0.0226         estimate D2E/DX2                !
 ! D10   D(2,1,23,24)          178.9282         estimate D2E/DX2                !
 ! D11   D(6,1,23,7)          -179.71           estimate D2E/DX2                !
 ! D12   D(6,1,23,24)           -0.8044         estimate D2E/DX2                !
 ! D13   D(1,2,3,4)             -0.2918         estimate D2E/DX2                !
 ! D14   D(1,2,3,8)            179.5886         estimate D2E/DX2                !
 ! D15   D(11,2,3,4)          -179.7452         estimate D2E/DX2                !
 ! D16   D(11,2,3,8)             0.1352         estimate D2E/DX2                !
 ! D17   D(1,2,11,7)             0.011          estimate D2E/DX2                !
 ! D18   D(1,2,11,45)         -179.2438         estimate D2E/DX2                !
 ! D19   D(3,2,11,7)           179.5262         estimate D2E/DX2                !
 ! D20   D(3,2,11,45)            0.2715         estimate D2E/DX2                !
 ! D21   D(2,3,4,5)              0.1311         estimate D2E/DX2                !
 ! D22   D(2,3,4,9)           -179.8403         estimate D2E/DX2                !
 ! D23   D(8,3,4,5)           -179.7488         estimate D2E/DX2                !
 ! D24   D(8,3,4,9)              0.2799         estimate D2E/DX2                !
 ! D25   D(3,4,5,6)              0.1837         estimate D2E/DX2                !
 ! D26   D(3,4,5,10)          -179.902          estimate D2E/DX2                !
 ! D27   D(9,4,5,6)           -179.8449         estimate D2E/DX2                !
 ! D28   D(9,4,5,10)             0.0694         estimate D2E/DX2                !
 ! D29   D(4,5,6,1)             -0.3194         estimate D2E/DX2                !
 ! D30   D(4,5,6,25)           179.2091         estimate D2E/DX2                !
 ! D31   D(10,5,6,1)           179.7659         estimate D2E/DX2                !
 ! D32   D(10,5,6,25)           -0.7056         estimate D2E/DX2                !
 ! D33   D(1,6,25,26)          179.785          estimate D2E/DX2                !
 ! D34   D(1,6,25,27)            0.0188         estimate D2E/DX2                !
 ! D35   D(5,6,25,26)            0.2834         estimate D2E/DX2                !
 ! D36   D(5,6,25,27)         -179.4828         estimate D2E/DX2                !
 ! D37   D(13,7,11,2)         -179.6352         estimate D2E/DX2                !
 ! D38   D(13,7,11,45)          -0.2871         estimate D2E/DX2                !
 ! D39   D(23,7,11,2)            0.0027         estimate D2E/DX2                !
 ! D40   D(23,7,11,45)         179.3508         estimate D2E/DX2                !
 ! D41   D(11,7,13,12)           2.3083         estimate D2E/DX2                !
 ! D42   D(11,7,13,14)        -178.3525         estimate D2E/DX2                !
 ! D43   D(23,7,13,12)        -177.2607         estimate D2E/DX2                !
 ! D44   D(23,7,13,14)           2.0786         estimate D2E/DX2                !
 ! D45   D(11,7,23,1)           -0.0159         estimate D2E/DX2                !
 ! D46   D(11,7,23,24)        -178.7736         estimate D2E/DX2                !
 ! D47   D(13,7,23,1)          179.6161         estimate D2E/DX2                !
 ! D48   D(13,7,23,24)           0.8584         estimate D2E/DX2                !
 ! D49   D(17,12,13,7)         179.1037         estimate D2E/DX2                !
 ! D50   D(17,12,13,14)         -0.2337         estimate D2E/DX2                !
 ! D51   D(22,12,13,7)          -0.7654         estimate D2E/DX2                !
 ! D52   D(22,12,13,14)        179.8973         estimate D2E/DX2                !
 ! D53   D(13,12,17,16)          0.1325         estimate D2E/DX2                !
 ! D54   D(13,12,17,21)       -179.7395         estimate D2E/DX2                !
 ! D55   D(22,12,17,16)        179.9993         estimate D2E/DX2                !
 ! D56   D(22,12,17,21)          0.1273         estimate D2E/DX2                !
 ! D57   D(7,13,14,15)        -179.0673         estimate D2E/DX2                !
 ! D58   D(7,13,14,18)           1.0009         estimate D2E/DX2                !
 ! D59   D(12,13,14,15)          0.2616         estimate D2E/DX2                !
 ! D60   D(12,13,14,18)       -179.6702         estimate D2E/DX2                !
 ! D61   D(13,14,15,16)         -0.1816         estimate D2E/DX2                !
 ! D62   D(13,14,15,20)        178.7671         estimate D2E/DX2                !
 ! D63   D(18,14,15,16)        179.7514         estimate D2E/DX2                !
 ! D64   D(18,14,15,20)         -1.2999         estimate D2E/DX2                !
 ! D65   D(14,15,16,17)          0.0816         estimate D2E/DX2                !
 ! D66   D(14,15,16,19)       -179.9409         estimate D2E/DX2                !
 ! D67   D(20,15,16,17)       -178.8252         estimate D2E/DX2                !
 ! D68   D(20,15,16,19)          1.1523         estimate D2E/DX2                !
 ! D69   D(14,15,20,54)        179.2173         estimate D2E/DX2                !
 ! D70   D(14,15,20,58)        -60.4727         estimate D2E/DX2                !
 ! D71   D(14,15,20,62)         58.2359         estimate D2E/DX2                !
 ! D72   D(16,15,20,54)         -1.8789         estimate D2E/DX2                !
 ! D73   D(16,15,20,58)        118.4311         estimate D2E/DX2                !
 ! D74   D(16,15,20,62)       -122.8603         estimate D2E/DX2                !
 ! D75   D(15,16,17,12)         -0.0627         estimate D2E/DX2                !
 ! D76   D(15,16,17,21)        179.8065         estimate D2E/DX2                !
 ! D77   D(19,16,17,12)        179.9599         estimate D2E/DX2                !
 ! D78   D(19,16,17,21)         -0.1709         estimate D2E/DX2                !
 ! D79   D(12,17,21,46)        -59.1542         estimate D2E/DX2                !
 ! D80   D(12,17,21,50)       -178.8581         estimate D2E/DX2                !
 ! D81   D(12,17,21,66)         61.4933         estimate D2E/DX2                !
 ! D82   D(16,17,21,46)        120.9786         estimate D2E/DX2                !
 ! D83   D(16,17,21,50)          1.2748         estimate D2E/DX2                !
 ! D84   D(16,17,21,66)       -118.3738         estimate D2E/DX2                !
 ! D85   D(15,20,54,55)        -61.7395         estimate D2E/DX2                !
 ! D86   D(15,20,54,56)         60.0323         estimate D2E/DX2                !
 ! D87   D(15,20,54,57)        179.0724         estimate D2E/DX2                !
 ! D88   D(58,20,54,55)        178.3822         estimate D2E/DX2                !
 ! D89   D(58,20,54,56)        -59.846          estimate D2E/DX2                !
 ! D90   D(58,20,54,57)         59.1941         estimate D2E/DX2                !
 ! D91   D(62,20,54,55)         59.4626         estimate D2E/DX2                !
 ! D92   D(62,20,54,56)       -178.7656         estimate D2E/DX2                !
 ! D93   D(62,20,54,57)        -59.7255         estimate D2E/DX2                !
 ! D94   D(15,20,58,59)        -62.018          estimate D2E/DX2                !
 ! D95   D(15,20,58,60)         58.7821         estimate D2E/DX2                !
 ! D96   D(15,20,58,61)        178.4392         estimate D2E/DX2                !
 ! D97   D(54,20,58,59)         60.6025         estimate D2E/DX2                !
 ! D98   D(54,20,58,60)       -178.5974         estimate D2E/DX2                !
 ! D99   D(54,20,58,61)        -58.9404         estimate D2E/DX2                !
 ! D100  D(62,20,58,59)        179.2767         estimate D2E/DX2                !
 ! D101  D(62,20,58,60)        -59.9232         estimate D2E/DX2                !
 ! D102  D(62,20,58,61)         59.7338         estimate D2E/DX2                !
 ! D103  D(15,20,62,63)         61.5093         estimate D2E/DX2                !
 ! D104  D(15,20,62,64)       -179.1729         estimate D2E/DX2                !
 ! D105  D(15,20,62,65)        -59.7653         estimate D2E/DX2                !
 ! D106  D(54,20,62,63)        -61.7535         estimate D2E/DX2                !
 ! D107  D(54,20,62,64)         57.5643         estimate D2E/DX2                !
 ! D108  D(54,20,62,65)        176.9719         estimate D2E/DX2                !
 ! D109  D(58,20,62,63)        179.5388         estimate D2E/DX2                !
 ! D110  D(58,20,62,64)        -61.1434         estimate D2E/DX2                !
 ! D111  D(58,20,62,65)         58.2641         estimate D2E/DX2                !
 ! D112  D(17,21,46,47)         62.1823         estimate D2E/DX2                !
 ! D113  D(17,21,46,48)       -177.7476         estimate D2E/DX2                !
 ! D114  D(17,21,46,49)        -58.748          estimate D2E/DX2                !
 ! D115  D(50,21,46,47)       -175.9212         estimate D2E/DX2                !
 ! D116  D(50,21,46,48)        -55.8512         estimate D2E/DX2                !
 ! D117  D(50,21,46,49)         63.1484         estimate D2E/DX2                !
 ! D118  D(66,21,46,47)        -58.3114         estimate D2E/DX2                !
 ! D119  D(66,21,46,48)         61.7587         estimate D2E/DX2                !
 ! D120  D(66,21,46,49)       -179.2417         estimate D2E/DX2                !
 ! D121  D(17,21,50,51)        -60.9995         estimate D2E/DX2                !
 ! D122  D(17,21,50,52)         60.8105         estimate D2E/DX2                !
 ! D123  D(17,21,50,53)        179.8635         estimate D2E/DX2                !
 ! D124  D(46,21,50,51)        178.3192         estimate D2E/DX2                !
 ! D125  D(46,21,50,52)        -59.8708         estimate D2E/DX2                !
 ! D126  D(46,21,50,53)         59.1822         estimate D2E/DX2                !
 ! D127  D(66,21,50,51)         59.5573         estimate D2E/DX2                !
 ! D128  D(66,21,50,52)       -178.6327         estimate D2E/DX2                !
 ! D129  D(66,21,50,53)        -59.5797         estimate D2E/DX2                !
 ! D130  D(17,21,66,67)        179.5603         estimate D2E/DX2                !
 ! D131  D(17,21,66,68)        -60.4378         estimate D2E/DX2                !
 ! D132  D(17,21,66,69)         60.7438         estimate D2E/DX2                !
 ! D133  D(46,21,66,67)        -59.8812         estimate D2E/DX2                !
 ! D134  D(46,21,66,68)         60.1207         estimate D2E/DX2                !
 ! D135  D(46,21,66,69)       -178.6976         estimate D2E/DX2                !
 ! D136  D(50,21,66,67)         57.721          estimate D2E/DX2                !
 ! D137  D(50,21,66,68)        177.7228         estimate D2E/DX2                !
 ! D138  D(50,21,66,69)        -61.0955         estimate D2E/DX2                !
 ! D139  D(6,25,27,28)         178.2532         estimate D2E/DX2                !
 ! D140  D(26,25,27,28)         -1.4949         estimate D2E/DX2                !
 ! D141  D(25,27,28,29)        -76.5805         estimate D2E/DX2                !
 ! D142  D(25,27,28,30)         49.0811         estimate D2E/DX2                !
 ! D143  D(25,27,28,31)        167.4205         estimate D2E/DX2                !
 ! D144  D(27,28,29,32)       -175.3976         estimate D2E/DX2                !
 ! D145  D(27,28,29,33)         63.9377         estimate D2E/DX2                !
 ! D146  D(27,28,29,34)        -52.6231         estimate D2E/DX2                !
 ! D147  D(30,28,29,32)         56.7501         estimate D2E/DX2                !
 ! D148  D(30,28,29,33)        -63.9147         estimate D2E/DX2                !
 ! D149  D(30,28,29,34)        179.5245         estimate D2E/DX2                !
 ! D150  D(31,28,29,32)        -60.4321         estimate D2E/DX2                !
 ! D151  D(31,28,29,33)        178.9031         estimate D2E/DX2                !
 ! D152  D(31,28,29,34)         62.3423         estimate D2E/DX2                !
 ! D153  D(27,28,30,35)        177.2592         estimate D2E/DX2                !
 ! D154  D(27,28,30,36)        -62.4556         estimate D2E/DX2                !
 ! D155  D(27,28,30,37)         54.9417         estimate D2E/DX2                !
 ! D156  D(29,28,30,35)        -57.2118         estimate D2E/DX2                !
 ! D157  D(29,28,30,36)         63.0734         estimate D2E/DX2                !
 ! D158  D(29,28,30,37)       -179.5292         estimate D2E/DX2                !
 ! D159  D(31,28,30,35)         59.9105         estimate D2E/DX2                !
 ! D160  D(31,28,30,36)       -179.8043         estimate D2E/DX2                !
 ! D161  D(31,28,30,37)        -62.407          estimate D2E/DX2                !
 ! D162  D(28,29,32,38)        -55.3626         estimate D2E/DX2                !
 ! D163  D(28,29,32,39)       -177.8932         estimate D2E/DX2                !
 ! D164  D(28,29,32,40)         65.4774         estimate D2E/DX2                !
 ! D165  D(33,29,32,38)         64.3433         estimate D2E/DX2                !
 ! D166  D(33,29,32,39)        -58.1873         estimate D2E/DX2                !
 ! D167  D(33,29,32,40)       -174.8167         estimate D2E/DX2                !
 ! D168  D(34,29,32,38)       -177.3593         estimate D2E/DX2                !
 ! D169  D(34,29,32,39)         60.1101         estimate D2E/DX2                !
 ! D170  D(34,29,32,40)        -56.5194         estimate D2E/DX2                !
 ! D171  D(28,30,35,38)         56.5349         estimate D2E/DX2                !
 ! D172  D(28,30,35,41)        179.1043         estimate D2E/DX2                !
 ! D173  D(28,30,35,42)        -64.22           estimate D2E/DX2                !
 ! D174  D(36,30,35,38)        -64.2035         estimate D2E/DX2                !
 ! D175  D(36,30,35,41)         58.3659         estimate D2E/DX2                !
 ! D176  D(36,30,35,42)        175.0416         estimate D2E/DX2                !
 ! D177  D(37,30,35,38)        178.0279         estimate D2E/DX2                !
 ! D178  D(37,30,35,41)        -59.4027         estimate D2E/DX2                !
 ! D179  D(37,30,35,42)         57.273          estimate D2E/DX2                !
 ! D180  D(29,32,38,35)         54.5019         estimate D2E/DX2                !
 ! D181  D(29,32,38,43)        177.2154         estimate D2E/DX2                !
 ! D182  D(29,32,38,44)        -65.8351         estimate D2E/DX2                !
 ! D183  D(39,32,38,35)        176.7032         estimate D2E/DX2                !
 ! D184  D(39,32,38,43)        -60.5832         estimate D2E/DX2                !
 ! D185  D(39,32,38,44)         56.3663         estimate D2E/DX2                !
 ! D186  D(40,32,38,35)        -66.1873         estimate D2E/DX2                !
 ! D187  D(40,32,38,43)         56.5262         estimate D2E/DX2                !
 ! D188  D(40,32,38,44)        173.4758         estimate D2E/DX2                !
 ! D189  D(30,35,38,32)        -55.176          estimate D2E/DX2                !
 ! D190  D(30,35,38,43)       -177.867          estimate D2E/DX2                !
 ! D191  D(30,35,38,44)         65.1116         estimate D2E/DX2                !
 ! D192  D(41,35,38,32)       -177.3983         estimate D2E/DX2                !
 ! D193  D(41,35,38,43)         59.9107         estimate D2E/DX2                !
 ! D194  D(41,35,38,44)        -57.1107         estimate D2E/DX2                !
 ! D195  D(42,35,38,32)         65.4433         estimate D2E/DX2                !
 ! D196  D(42,35,38,43)        -57.2477         estimate D2E/DX2                !
 ! D197  D(42,35,38,44)       -174.2691         estimate D2E/DX2                !
 --------------------------------------------------------------------------------
 Trust Radius=3.00D-01 FncErr=1.00D-07 GrdErr=1.00D-07 EigMax=2.50D+02 EigMin=1.00D-04
 Number of steps in this run=    412 maximum allowed number of steps=    414.
 GradGradGradGradGradGradGradGradGradGradGradGradGradGradGradGradGradGrad

 Leave Link  103 at Fri Dec 21 18:10:06 2018, MaxMem=  1342177280 cpu:               0.6 elap:               0.1
 (Enter /gpfs/apps/hpc/Apps/Restricted/Gaussian/Rev_A.03/g16/l202.exe)
 Symmetry turned off by external request.
 Stoichiometry    C28H37N3O(1+,2)
 Framework group  C1[X(C28H37N3O)]
 Deg. of freedom   201
 Full point group                 C1      NOp   1
                          Input orientation:                          
 ---------------------------------------------------------------------
 Center     Atomic      Atomic             Coordinates (Angstroms)
 Number     Number       Type             X           Y           Z
 ---------------------------------------------------------------------
      1          6           0       -0.500700    2.795099    0.366564
      2          6           0       -1.888756    2.988755    0.285152
      3          6           0       -2.439117    4.269532    0.195180
      4          6           0       -1.539354    5.331386    0.197421
      5          6           0       -0.147530    5.133655    0.282622
      6          6           0        0.414372    3.857939    0.366325
      7          6           0       -1.472879    0.789421    0.397006
      8          1           0       -3.507434    4.423448    0.125656
      9          1           0       -1.920620    6.342852    0.132039
     10          1           0        0.511075    5.994513    0.282171
     11          7           0       -2.443276    1.720964    0.307419
     12          6           0       -3.051167   -1.165079    0.324995
     13          6           0       -1.681522   -0.639533    0.436730
     14          6           0       -0.608879   -1.496606    0.563803
     15          6           0       -0.787015   -2.897044    0.585282
     16          6           0       -2.095986   -3.411943    0.477239
     17          6           0       -3.223380   -2.622391    0.349004
     18          1           0        0.395795   -1.102185    0.650899
     19          1           0       -2.218517   -4.483276    0.495940
     20          6           0        0.439552   -3.791576    0.699391
     21          6           0       -4.620524   -3.224009    0.230773
     22          8           0       -4.026144   -0.380290    0.211266
     23          7           0       -0.287163    1.435613    0.433712
     24          1           0        0.662886    1.069181    0.482507
     25          6           0        1.855667    3.620564    0.438970
     26          1           0        2.487593    4.512926    0.429056
     27          7           0        2.319926    2.428818    0.504615
     28          6           0        3.776936    2.240335    0.536736
     29          6           0        4.373273    2.434557   -0.868008
     30          6           0        4.511964    3.116880    1.562939
     31          1           0        3.936810    1.194257    0.820326
     32          6           0        5.875025    2.129741   -0.872772
     33          1           0        4.202597    3.474257   -1.173386
     34          1           0        3.843548    1.797243   -1.582001
     35          6           0        6.011139    2.797698    1.565411
     36          1           0        4.372407    4.175044    1.314526
     37          1           0        4.078484    2.957532    2.554789
     38          6           0        6.620745    2.970221    0.169900
     39          1           0        6.285843    2.309867   -1.870635
     40          1           0        6.025716    1.064803   -0.656505
     41          1           0        6.525113    3.438601    2.287819
     42          1           0        6.157286    1.763038    1.900122
     43          1           0        7.681306    2.701871    0.183810
     44          1           0        6.564094    4.027534   -0.117509
     45          1           0       -3.417409    1.425694    0.257575
     46          6           0       -5.508812   -2.709140    1.386591
     47          1           0       -5.627835   -1.628402    1.339394
     48          1           0       -6.494993   -3.175805    1.317385
     49          1           0       -5.072553   -2.972996    2.353618
     50          6           0       -4.585105   -4.758692    0.305618
     51          1           0       -3.994593   -5.192688   -0.505392
     52          1           0       -4.175341   -5.106811    1.257247
     53          1           0       -5.604931   -5.138941    0.219065
     54          6           0        0.080920   -5.282855    0.729016
     55          1           0       -0.539622   -5.533050    1.593350
     56          1           0       -0.446737   -5.587369   -0.178160
     57          1           0        0.999174   -5.869919    0.794722
     58          6           0        1.347725   -3.520089   -0.521647
     59          1           0        0.833683   -3.773873   -1.451824
     60          1           0        1.649485   -2.471465   -0.569562
     61          1           0        2.250453   -4.131637   -0.448319
     62          6           0        1.207268   -3.438260    1.991994
     63          1           0        0.587763   -3.612041    2.874598
     64          1           0        2.095175   -4.070806    2.065117
     65          1           0        1.534375   -2.396151    1.998954
     66          6           0       -5.243062   -2.825314   -1.126819
     67          1           0       -6.240036   -3.266669   -1.206510
     68          1           0       -5.332081   -1.744307   -1.222704
     69          1           0       -4.637640   -3.202658   -1.954963
 ---------------------------------------------------------------------
 Rotational constants (GHZ):           0.1825543           0.0735026           0.0548526
 Leave Link  202 at Fri Dec 21 18:10:06 2018, MaxMem=  1342177280 cpu:               0.1 elap:               0.0
 (Enter /gpfs/apps/hpc/Apps/Restricted/Gaussian/Rev_A.03/g16/l716.exe)
 Electric field and nuclear coordinate derivatives read from checkpoint file.
 Dipole        =-4.43363483D-01 1.16035664D+00 8.10758820D-01
 Polarizability= 5.63361682D+02 6.55270383D+00 6.78207423D+02
                 1.69319132D+01-1.32741476D+01 2.65459710D+02
 Full mass-weighted force constant matrix:
 Low frequencies ---  -13.7132   -0.0027    0.0009    0.0027    6.4798    8.9473
 Low frequencies ---   18.7144   31.7131   39.6871
 Diagonal vibrational polarizability:
       46.7511104      70.4872772     138.6947990
 Harmonic frequencies (cm**-1), IR intensities (KM/Mole), Raman scattering
 activities (A**4/AMU), depolarization ratios for plane and unpolarized
 incident light, reduced masses (AMU), force constants (mDyne/A),
 and normal coordinates:
                      1                      2                      3
                      A                      A                      A
 Frequencies --     14.3348                31.2311                38.6178
 Red. masses --      4.0907                 3.9405                 3.7475
 Frc consts  --      0.0005                 0.0023                 0.0033
 IR Inten    --      0.6752                 1.2677                 0.4634
  Atom  AN      X      Y      Z        X      Y      Z        X      Y      Z
     1   6     0.00   0.00  -0.05     0.03  -0.03   0.01     0.02  -0.03  -0.02
     2   6     0.00   0.00  -0.06     0.03  -0.04  -0.02     0.02  -0.02   0.03
     3   6     0.01   0.00  -0.10     0.02  -0.04  -0.02     0.01  -0.02   0.05
     4   6     0.01  -0.00  -0.12     0.00  -0.03   0.01     0.01  -0.02   0.00
     5   6     0.01  -0.00  -0.10     0.00  -0.03   0.04     0.02  -0.03  -0.06
     6   6     0.00  -0.00  -0.07     0.01  -0.02   0.04     0.02  -0.03  -0.08
     7   6    -0.00   0.00  -0.02     0.02  -0.04  -0.02     0.01  -0.02   0.03
     8   1     0.01   0.00  -0.11     0.02  -0.05  -0.05     0.01  -0.02   0.09
     9   1     0.01  -0.00  -0.14    -0.00  -0.04   0.00     0.01  -0.02   0.02
    10   1     0.01  -0.00  -0.12    -0.00  -0.02   0.07     0.02  -0.03  -0.09
    11   7    -0.00   0.00  -0.04     0.03  -0.03  -0.04     0.01  -0.02   0.06
    12   6    -0.00   0.00   0.02    -0.00  -0.01  -0.03    -0.01  -0.01   0.03
    13   6    -0.00   0.00  -0.01     0.01  -0.03  -0.03    -0.00  -0.02   0.03
    14   6     0.00   0.00  -0.04    -0.01  -0.05  -0.03    -0.01  -0.03   0.02
    15   6     0.00   0.00  -0.05    -0.04  -0.05  -0.02    -0.03  -0.03   0.01
    16   6     0.00   0.00  -0.01    -0.05  -0.03  -0.01    -0.03  -0.02  -0.00
    17   6    -0.00   0.00   0.04    -0.03  -0.01  -0.01    -0.02  -0.01   0.01
    18   1     0.01   0.00  -0.07    -0.00  -0.07  -0.03    -0.01  -0.05   0.03
    19   1     0.00   0.00  -0.01    -0.06  -0.03  -0.00    -0.04  -0.02  -0.02
    20   6     0.01   0.00  -0.11    -0.05  -0.07  -0.02    -0.04  -0.05   0.03
    21   6    -0.01  -0.00   0.11    -0.05   0.02   0.02    -0.03   0.01  -0.01
    22   8    -0.01   0.00   0.04     0.01   0.00  -0.04    -0.01   0.00   0.06
    23   7    -0.00   0.00  -0.03     0.02  -0.03   0.00     0.01  -0.03  -0.02
    24   1    -0.00   0.00  -0.01     0.02  -0.05   0.01     0.01  -0.04  -0.04
    25   6     0.00  -0.01  -0.03     0.02   0.01   0.08     0.02  -0.01  -0.13
    26   1     0.01  -0.01  -0.05    -0.01   0.04   0.13     0.02  -0.01  -0.21
    27   7    -0.01  -0.01   0.01     0.06   0.03   0.05     0.04  -0.01  -0.08
    28   6    -0.01  -0.01   0.05     0.07   0.08   0.06     0.04   0.03  -0.09
    29   6     0.03   0.01   0.07     0.04  -0.03   0.03     0.08   0.19  -0.05
    30   6    -0.04  -0.03   0.09     0.06   0.20  -0.04    -0.02  -0.06   0.03
    31   1    -0.02  -0.02   0.04     0.10   0.12   0.16     0.07   0.00  -0.20
    32   6     0.03   0.02   0.10     0.05   0.02   0.03     0.09   0.21  -0.03
    33   1     0.04   0.02   0.08    -0.01  -0.07  -0.07     0.08   0.23   0.06
    34   1     0.05   0.02   0.05     0.05  -0.13   0.10     0.11   0.26  -0.13
    35   6    -0.04  -0.02   0.12     0.07   0.24  -0.03    -0.01  -0.02   0.04
    36   1    -0.04  -0.02   0.11     0.04   0.18  -0.14    -0.05  -0.04   0.13
    37   1    -0.06  -0.06   0.07     0.08   0.30  -0.02    -0.04  -0.18  -0.00
    38   6    -0.00   0.01   0.13     0.04   0.13  -0.05     0.04   0.13   0.08
    39   1     0.06   0.03   0.12     0.02  -0.04   0.01     0.12   0.30   0.00
    40   1     0.03   0.02   0.09     0.09   0.05   0.12     0.09   0.19  -0.11
    41   1    -0.06  -0.03   0.14     0.06   0.31  -0.09    -0.05  -0.07   0.12
    42   1    -0.04  -0.02   0.10     0.10   0.27   0.06     0.01  -0.04  -0.05
    43   1     0.00   0.02   0.16     0.05   0.16  -0.05     0.04   0.15   0.09
    44   1    -0.00   0.01   0.15     0.01   0.11  -0.14     0.02   0.15   0.18
    45   1    -0.00   0.01  -0.04     0.03  -0.04  -0.05     0.01  -0.02   0.09
    46   6     0.06  -0.01   0.17    -0.02   0.05   0.03    -0.03  -0.01  -0.00
    47   1     0.06  -0.00   0.18     0.00   0.05   0.02    -0.03  -0.01   0.02
    48   1     0.05   0.00   0.22    -0.03   0.07   0.05    -0.03  -0.01  -0.01
    49   1     0.12  -0.02   0.14    -0.01   0.05   0.02    -0.02  -0.03  -0.01
    50   6     0.00  -0.00   0.10    -0.07   0.02   0.04    -0.04   0.01  -0.06
    51   1    -0.04   0.00   0.07    -0.09  -0.01   0.04    -0.04   0.02  -0.06
    52   1     0.06  -0.00   0.08    -0.06   0.02   0.04    -0.06  -0.02  -0.06
    53   1    -0.00  -0.01   0.16    -0.08   0.03   0.07    -0.05   0.02  -0.08
    54   6     0.01   0.00  -0.13    -0.08  -0.07  -0.02    -0.06  -0.05  -0.01
    55   1     0.04  -0.01  -0.11    -0.09  -0.06  -0.02    -0.08  -0.06  -0.03
    56   1    -0.02   0.02  -0.12    -0.09  -0.06  -0.02    -0.04  -0.02  -0.03
    57   1     0.01   0.00  -0.17    -0.09  -0.09  -0.02    -0.06  -0.06  -0.00
    58   6    -0.04   0.03  -0.14    -0.05  -0.09  -0.02    -0.00  -0.04   0.06
    59   1    -0.07   0.06  -0.13    -0.05  -0.09  -0.02     0.02  -0.01   0.04
    60   1    -0.03   0.03  -0.12    -0.03  -0.10  -0.02     0.02  -0.04   0.09
    61   1    -0.04   0.02  -0.19    -0.06  -0.11  -0.02    -0.01  -0.05   0.07
    62   6     0.06  -0.02  -0.14    -0.05  -0.09  -0.02    -0.08  -0.08   0.06
    63   1     0.11  -0.08  -0.11    -0.06  -0.07  -0.02    -0.11  -0.08   0.03
    64   1     0.08  -0.00  -0.20    -0.07  -0.11  -0.01    -0.09  -0.10   0.08
    65   1     0.03  -0.01  -0.11    -0.03  -0.10  -0.02    -0.06  -0.08   0.08
    66   6    -0.09  -0.00   0.15    -0.06   0.01   0.02    -0.02   0.05  -0.01
    67   1    -0.09  -0.02   0.20    -0.07   0.01   0.04    -0.03   0.07  -0.02
    68   1    -0.11  -0.00   0.16    -0.06   0.01   0.01    -0.01   0.05   0.02
    69   1    -0.13   0.01   0.11    -0.08  -0.01   0.02    -0.02   0.06  -0.01
                      4                      5                      6
                      A                      A                      A
 Frequencies --     49.9167                52.3300                65.0066
 Red. masses --      3.8803                 3.1210                 3.0402
 Frc consts  --      0.0057                 0.0050                 0.0076
 IR Inten    --      0.3464                 0.2547                 0.0097
  Atom  AN      X      Y      Z        X      Y      Z        X      Y      Z
     1   6    -0.00  -0.00   0.03     0.00  -0.00   0.00    -0.00  -0.01  -0.03
     2   6     0.00  -0.00   0.01     0.00  -0.00   0.00    -0.00   0.00   0.02
     3   6     0.01  -0.01  -0.06     0.00  -0.00   0.04    -0.00   0.01   0.08
     4   6     0.01  -0.01  -0.13    -0.00   0.00   0.07     0.00   0.00   0.07
     5   6     0.01  -0.01  -0.11    -0.00   0.00   0.06     0.01  -0.01   0.02
     6   6     0.00  -0.01  -0.03     0.00   0.00   0.02     0.00  -0.01  -0.04
     7   6    -0.01   0.00   0.11     0.01  -0.00  -0.04    -0.01  -0.00  -0.02
     8   1     0.01  -0.00  -0.07     0.00  -0.00   0.04    -0.00   0.01   0.13
     9   1     0.02  -0.01  -0.19    -0.00   0.00   0.10     0.01   0.00   0.12
    10   1     0.01  -0.01  -0.17    -0.00   0.00   0.08     0.01  -0.01   0.03
    11   7    -0.01   0.00   0.07     0.00  -0.00  -0.03    -0.01   0.00   0.03
    12   6    -0.01   0.00   0.11     0.00  -0.00  -0.04    -0.01  -0.00   0.01
    13   6    -0.01   0.00   0.13     0.00  -0.00  -0.03    -0.01  -0.00  -0.02
    14   6    -0.01   0.00   0.12     0.00  -0.00  -0.02    -0.01   0.00  -0.03
    15   6    -0.01  -0.00   0.07    -0.00  -0.00   0.01    -0.01   0.00   0.01
    16   6    -0.01  -0.00   0.06    -0.01   0.00   0.06    -0.01  -0.00   0.02
    17   6    -0.01   0.00   0.07    -0.01   0.00   0.03    -0.01  -0.00   0.00
    18   1    -0.01  -0.00   0.11     0.00  -0.00  -0.03    -0.01   0.00  -0.07
    19   1    -0.00  -0.00   0.03    -0.01   0.00   0.11    -0.01  -0.00   0.04
    20   6    -0.00  -0.00  -0.03    -0.00  -0.01  -0.02    -0.00   0.01   0.01
    21   6     0.00   0.00  -0.04    -0.01  -0.00   0.04    -0.01  -0.00  -0.02
    22   8    -0.01   0.00   0.11     0.01  -0.00  -0.12    -0.02  -0.00   0.05
    23   7    -0.01  -0.00   0.09     0.00  -0.00  -0.02    -0.01  -0.01  -0.06
    24   1    -0.01  -0.01   0.10     0.00  -0.00  -0.03    -0.01  -0.02  -0.09
    25   6     0.00  -0.01  -0.02     0.00   0.00   0.01     0.00  -0.01  -0.05
    26   1     0.00  -0.01  -0.06     0.00   0.00   0.00     0.00  -0.01  -0.04
    27   7     0.01  -0.00   0.03     0.00   0.00  -0.01     0.01  -0.01  -0.06
    28   6     0.01   0.00   0.02     0.00   0.00  -0.02     0.01  -0.01  -0.02
    29   6    -0.00  -0.04   0.01     0.01   0.07  -0.01     0.05  -0.04  -0.00
    30   6     0.01   0.04  -0.01    -0.00  -0.05   0.02    -0.03   0.03  -0.02
    31   1     0.02   0.02   0.06     0.00  -0.01  -0.08     0.01   0.00   0.02
    32   6     0.00  -0.02   0.01     0.00   0.07  -0.02     0.06  -0.02   0.05
    33   1    -0.01  -0.05  -0.02     0.01   0.09   0.04     0.04  -0.06  -0.04
    34   1     0.00  -0.07   0.04     0.01   0.11  -0.05     0.09  -0.08   0.00
    35   6     0.01   0.06  -0.01    -0.00  -0.05   0.01    -0.03   0.05   0.04
    36   1    -0.00   0.03  -0.05    -0.00  -0.04   0.08    -0.03   0.02  -0.04
    37   1     0.02   0.07  -0.00    -0.01  -0.10   0.01    -0.06   0.04  -0.02
    38   6     0.00   0.02  -0.02     0.00   0.02   0.02     0.01   0.02   0.05
    39   1    -0.01  -0.05   0.00     0.01   0.11  -0.01     0.08  -0.04   0.06
    40   1     0.01  -0.01   0.04    -0.00   0.06  -0.07     0.07  -0.01   0.08
    41   1     0.01   0.08  -0.04    -0.00  -0.08   0.05    -0.06   0.07   0.04
    42   1     0.02   0.07   0.02    -0.01  -0.07  -0.03    -0.02   0.06   0.06
    43   1     0.00   0.03  -0.02     0.00   0.01   0.02     0.02   0.04   0.09
    44   1    -0.01   0.01  -0.05     0.01   0.03   0.08     0.00   0.02   0.02
    45   1    -0.01   0.00   0.08     0.01  -0.00  -0.04    -0.01   0.01   0.06
    46   6    -0.12   0.01  -0.14    -0.08   0.14  -0.08    -0.01  -0.04  -0.01
    47   1    -0.13   0.00  -0.16    -0.06   0.13  -0.20    -0.02  -0.04   0.02
    48   1    -0.10  -0.01  -0.23    -0.09   0.15  -0.12    -0.01  -0.05  -0.02
    49   1    -0.21   0.03  -0.09    -0.17   0.22  -0.02    -0.01  -0.06  -0.02
    50   6    -0.01   0.00  -0.03    -0.02   0.01   0.23    -0.00  -0.01  -0.07
    51   1     0.05  -0.01   0.02    -0.01  -0.10   0.30     0.01   0.02  -0.08
    52   1    -0.08   0.01   0.01    -0.04   0.13   0.29    -0.02  -0.04  -0.08
    53   1    -0.00   0.00  -0.10    -0.02   0.00   0.26    -0.00  -0.00  -0.10
    54   6    -0.00  -0.01  -0.09    -0.01  -0.00   0.01    -0.00   0.01   0.20
    55   1     0.04  -0.05  -0.07     0.02   0.01   0.03     0.04   0.12   0.26
    56   1    -0.04   0.03  -0.08    -0.05  -0.01   0.03    -0.04  -0.10   0.26
    57   1     0.00  -0.01  -0.15    -0.02  -0.01  -0.02     0.00   0.02   0.23
    58   6    -0.09   0.06  -0.08    -0.05  -0.02  -0.05    -0.11  -0.11  -0.10
    59   1    -0.15   0.13  -0.06    -0.09  -0.02  -0.03    -0.19  -0.20  -0.03
    60   1    -0.07   0.06  -0.03    -0.04  -0.03  -0.07    -0.13  -0.11  -0.22
    61   1    -0.09   0.04  -0.18    -0.05  -0.03  -0.09    -0.10  -0.10  -0.12
    62   6     0.09  -0.07  -0.07     0.05  -0.00  -0.05     0.13   0.14  -0.10
    63   1     0.19  -0.19  -0.03     0.10  -0.01  -0.02     0.23   0.20  -0.02
    64   1     0.13  -0.03  -0.21     0.06   0.01  -0.10     0.14   0.15  -0.14
    65   1     0.03  -0.05  -0.01     0.04   0.00  -0.06     0.12   0.14  -0.23
    66   6     0.14  -0.00  -0.10     0.08  -0.15  -0.05     0.00   0.04  -0.01
    67   1     0.13   0.02  -0.19     0.09  -0.16  -0.06    -0.00   0.04  -0.03
    68   1     0.17   0.00  -0.12     0.09  -0.16  -0.16     0.01   0.04   0.01
    69   1     0.21  -0.02  -0.04     0.14  -0.24   0.03     0.00   0.05  -0.02
                      7                      8                      9
                      A                      A                      A
 Frequencies --     72.0206                84.2815               109.4866
 Red. masses --      3.5695                 4.7593                 4.9414
 Frc consts  --      0.0109                 0.0199                 0.0349
 IR Inten    --      0.4995                 1.1276                 4.0176
  Atom  AN      X      Y      Z        X      Y      Z        X      Y      Z
     1   6    -0.01  -0.00  -0.05     0.00  -0.04   0.02     0.01  -0.00  -0.06
     2   6    -0.01   0.01   0.05     0.01   0.02  -0.03     0.01   0.00  -0.07
     3   6    -0.00   0.02   0.13     0.07   0.05  -0.05     0.01   0.01  -0.05
     4   6     0.01   0.01   0.10     0.12   0.01  -0.01     0.01   0.01  -0.00
     5   6     0.01  -0.00   0.01     0.11  -0.05   0.03     0.01   0.00   0.03
     6   6     0.00  -0.01  -0.07     0.05  -0.08   0.05     0.01   0.00   0.01
     7   6    -0.03   0.01  -0.01    -0.09   0.00  -0.01     0.00   0.00  -0.08
     8   1    -0.01   0.04   0.21     0.08   0.09  -0.09     0.01   0.01  -0.06
     9   1     0.02   0.02   0.17     0.17   0.02  -0.03     0.01   0.01   0.02
    10   1     0.02  -0.01   0.00     0.15  -0.08   0.05     0.01   0.00   0.09
    11   7    -0.03   0.02   0.07    -0.05   0.04  -0.05     0.00   0.00  -0.08
    12   6    -0.02   0.00   0.01    -0.10  -0.02  -0.02    -0.02   0.00   0.13
    13   6    -0.03   0.01  -0.01    -0.11   0.01  -0.00    -0.00  -0.00  -0.06
    14   6    -0.02   0.02  -0.02    -0.09   0.04   0.03     0.01  -0.01  -0.19
    15   6    -0.00   0.02  -0.03    -0.05   0.04   0.02     0.01  -0.00  -0.12
    16   6     0.00   0.01  -0.01    -0.03   0.00   0.00    -0.00  -0.00  -0.02
    17   6    -0.01  -0.00   0.01    -0.06  -0.03  -0.01    -0.01  -0.00   0.08
    18   1    -0.02   0.03  -0.02    -0.11   0.06   0.05     0.02  -0.01  -0.30
    19   1     0.02   0.01  -0.02    -0.00  -0.00   0.00     0.00  -0.00  -0.03
    20   6     0.01   0.04  -0.02    -0.01   0.10   0.01     0.00   0.00  -0.05
    21   6     0.00  -0.02   0.02    -0.03  -0.09  -0.01    -0.00  -0.01   0.04
    22   8    -0.03  -0.00   0.02    -0.10  -0.03  -0.04    -0.04   0.00   0.33
    23   7    -0.02  -0.00  -0.08    -0.06  -0.05   0.03     0.00  -0.00  -0.09
    24   1    -0.02  -0.02  -0.13    -0.09  -0.11   0.05     0.00  -0.00  -0.07
    25   6     0.00  -0.02  -0.11     0.05  -0.10   0.06     0.01   0.01   0.06
    26   1     0.00  -0.02  -0.08     0.04  -0.09   0.04     0.00   0.01   0.10
    27   7     0.01  -0.02  -0.12     0.06  -0.09   0.06     0.01   0.01   0.06
    28   6     0.01  -0.02  -0.04     0.08  -0.04   0.02     0.01   0.01   0.05
    29   6     0.09  -0.13  -0.02     0.04   0.03   0.01    -0.03   0.03   0.04
    30   6    -0.05   0.07  -0.06     0.08  -0.03   0.02     0.04  -0.01   0.04
    31   1    -0.01   0.01   0.06     0.13  -0.04  -0.01     0.01   0.00   0.03
    32   6     0.09  -0.10   0.09     0.05   0.09  -0.04    -0.03   0.02  -0.01
    33   1     0.08  -0.16  -0.12    -0.02   0.03   0.04    -0.03   0.03   0.06
    34   1     0.14  -0.20   0.01     0.05   0.02   0.00    -0.05   0.04   0.04
    35   6    -0.05   0.09   0.04     0.09   0.03  -0.03     0.03  -0.02  -0.00
    36   1    -0.04   0.04  -0.15     0.03  -0.03   0.04     0.03  -0.00   0.06
    37   1    -0.10   0.13  -0.07     0.11  -0.06   0.02     0.06  -0.02   0.05
    38   6     0.02  -0.01   0.06     0.05   0.10  -0.04     0.00   0.00  -0.02
    39   1     0.14  -0.17   0.09     0.02   0.13  -0.05    -0.06   0.04  -0.02
    40   1     0.10  -0.08   0.18     0.10   0.09  -0.07    -0.03   0.02  -0.03
    41   1    -0.10   0.15   0.02     0.08   0.04  -0.03     0.06  -0.03  -0.01
    42   1    -0.04   0.12   0.13     0.14   0.03  -0.06     0.04  -0.02  -0.03
    43   1     0.03   0.01   0.14     0.06   0.14  -0.08    -0.00  -0.00  -0.05
    44   1     0.02  -0.03  -0.03    -0.01   0.10  -0.01    -0.00   0.01   0.00
    45   1    -0.03   0.03   0.11    -0.06   0.10  -0.07    -0.00   0.02  -0.01
    46   6    -0.03   0.00  -0.02    -0.04  -0.12   0.01    -0.12  -0.02  -0.05
    47   1    -0.04  -0.00  -0.05    -0.06  -0.12   0.02    -0.15  -0.03  -0.08
    48   1    -0.03  -0.01  -0.03    -0.03  -0.14   0.01    -0.10  -0.06  -0.14
    49   1    -0.06   0.03  -0.00    -0.02  -0.12   0.00    -0.20   0.00  -0.01
    50   6     0.02  -0.02   0.07     0.02  -0.09  -0.01     0.00  -0.01   0.05
    51   1     0.02  -0.05   0.09     0.03  -0.06  -0.02     0.03  -0.02   0.08
    52   1     0.02   0.02   0.09     0.05  -0.07  -0.02    -0.03   0.00   0.07
    53   1     0.02  -0.04   0.09     0.04  -0.12   0.01     0.01  -0.02   0.02
    54   6     0.03   0.03  -0.12     0.06   0.08   0.01    -0.01   0.00   0.00
    55   1     0.01  -0.04  -0.15     0.08   0.05   0.01    -0.03   0.04  -0.00
    56   1     0.05   0.08  -0.15     0.07   0.06   0.01     0.02  -0.03   0.00
    57   1     0.03   0.04  -0.14     0.09   0.12  -0.00    -0.01   0.00   0.05
    58   6     0.08   0.11   0.05    -0.04   0.15   0.00     0.10  -0.08   0.01
    59   1     0.13   0.14   0.01    -0.03   0.14   0.01     0.18  -0.17  -0.01
    60   1     0.06   0.11   0.11    -0.09   0.17   0.01     0.07  -0.07  -0.07
    61   1     0.08   0.12   0.07    -0.00   0.20  -0.01     0.11  -0.04   0.14
    62   6    -0.08  -0.01   0.05    -0.01   0.14   0.00    -0.11   0.08  -0.00
    63   1    -0.15  -0.04  -0.01     0.01   0.11   0.01    -0.24   0.25  -0.06
    64   1    -0.09  -0.02   0.09     0.02   0.17  -0.01    -0.18   0.01   0.18
    65   1    -0.08  -0.01   0.10    -0.05   0.15  -0.00    -0.03   0.05  -0.09
    66   6     0.02  -0.07  -0.01    -0.07  -0.11   0.01     0.12  -0.02  -0.02
    67   1     0.03  -0.08  -0.02    -0.06  -0.15   0.03     0.12   0.01  -0.11
    68   1     0.02  -0.08  -0.04    -0.12  -0.12   0.01     0.15  -0.01  -0.04
    69   1     0.04  -0.09   0.01    -0.08  -0.09  -0.00     0.18  -0.04   0.03
                     10                     11                     12
                      A                      A                      A
 Frequencies --    111.8843               121.9521               137.8824
 Red. masses --      3.8223                 3.7812                 3.9027
 Frc consts  --      0.0282                 0.0331                 0.0437
 IR Inten    --      0.6475                 0.8586                 0.8617
  Atom  AN      X      Y      Z        X      Y      Z        X      Y      Z
     1   6     0.00  -0.00   0.08     0.01  -0.01  -0.07    -0.02  -0.04   0.07
     2   6     0.00   0.01   0.12     0.02  -0.00  -0.06    -0.01  -0.06  -0.01
     3   6     0.02   0.01   0.05     0.04   0.01   0.02    -0.02  -0.07  -0.09
     4   6     0.04  -0.00  -0.08     0.05   0.00   0.08    -0.03  -0.06  -0.05
     5   6     0.04  -0.02  -0.14     0.05  -0.02   0.05    -0.03  -0.05   0.06
     6   6     0.02  -0.02  -0.04     0.03  -0.03  -0.02    -0.02  -0.04   0.09
     7   6     0.00   0.01   0.10     0.02  -0.00  -0.08     0.00  -0.04   0.03
     8   1     0.02   0.03   0.08     0.04   0.03   0.04    -0.02  -0.08  -0.17
     9   1     0.05  -0.00  -0.15     0.06   0.01   0.14    -0.03  -0.07  -0.10
    10   1     0.06  -0.03  -0.26     0.07  -0.03   0.11    -0.05  -0.04   0.08
    11   7    -0.00   0.01   0.15     0.02  -0.00  -0.08    -0.00  -0.06  -0.02
    12   6     0.01   0.01  -0.03     0.03   0.01   0.00     0.01  -0.02   0.02
    13   6     0.01   0.00   0.01     0.03  -0.00  -0.02     0.00  -0.03   0.02
    14   6     0.01  -0.00  -0.06     0.02   0.00   0.02    -0.00  -0.03  -0.01
    15   6     0.02  -0.00  -0.12     0.02   0.00   0.06     0.00  -0.03  -0.03
    16   6     0.02   0.00  -0.14     0.01   0.01   0.09    -0.00  -0.04  -0.03
    17   6     0.01   0.01  -0.08     0.02   0.01   0.05    -0.00  -0.02   0.00
    18   1     0.01  -0.00  -0.05     0.03   0.00   0.01    -0.00  -0.03  -0.01
    19   1     0.01   0.00  -0.17     0.00   0.01   0.12    -0.01  -0.04  -0.05
    20   6     0.01   0.00  -0.03     0.02  -0.00   0.02     0.06   0.04  -0.01
    21   6     0.00   0.01  -0.02     0.01   0.05   0.01    -0.04   0.07   0.01
    22   8     0.02   0.01  -0.03     0.03   0.01  -0.01     0.02  -0.02   0.02
    23   7     0.00   0.00   0.10     0.02  -0.01  -0.10    -0.00  -0.04   0.09
    24   1     0.01   0.01   0.08     0.03   0.01  -0.06     0.00  -0.03   0.07
    25   6     0.01  -0.06  -0.09     0.01  -0.09  -0.02    -0.02  -0.04   0.10
    26   1     0.04  -0.08  -0.26     0.05  -0.13  -0.07    -0.04  -0.03   0.29
    27   7    -0.02  -0.06   0.09    -0.05  -0.11   0.05    -0.00  -0.04  -0.13
    28   6    -0.02  -0.06   0.04    -0.05  -0.12   0.04     0.00  -0.03  -0.08
    29   6    -0.06  -0.06   0.03    -0.09  -0.10   0.02     0.06  -0.02  -0.06
    30   6    -0.03  -0.04   0.03    -0.09  -0.09   0.03    -0.05  -0.02  -0.06
    31   1    -0.00  -0.06   0.05    -0.03  -0.11   0.04    -0.00  -0.03  -0.08
    32   6    -0.04   0.02   0.00    -0.06   0.06  -0.01     0.07   0.01   0.01
    33   1    -0.12  -0.07   0.01    -0.21  -0.13  -0.01     0.04  -0.03  -0.07
    34   1    -0.04  -0.10   0.05    -0.04  -0.18   0.05     0.11  -0.04  -0.08
    35   6    -0.01   0.05  -0.01    -0.06   0.07  -0.02    -0.05  -0.00   0.01
    36   1    -0.10  -0.04   0.05    -0.19  -0.09   0.07    -0.03  -0.02  -0.08
    37   1     0.00  -0.07   0.04    -0.05  -0.15   0.04    -0.09  -0.00  -0.07
    38   6    -0.07   0.09  -0.03    -0.14   0.17  -0.04     0.01   0.02   0.04
    39   1    -0.08   0.02  -0.01    -0.10   0.08  -0.02     0.10   0.03   0.02
    40   1     0.02   0.04   0.02     0.06   0.08   0.02     0.08   0.02   0.01
    41   1    -0.03   0.09  -0.03    -0.10   0.11  -0.03    -0.09  -0.00   0.04
    42   1     0.06   0.06  -0.01     0.07   0.08  -0.05    -0.05  -0.00   0.01
    43   1    -0.05   0.17  -0.07    -0.10   0.33  -0.09     0.01   0.04   0.08
    44   1    -0.16   0.08  -0.04    -0.31   0.16  -0.04     0.00   0.02   0.05
    45   1     0.00   0.01   0.12     0.02  -0.00  -0.05     0.00  -0.07  -0.05
    46   6     0.03   0.08  -0.02     0.00   0.04   0.01    -0.03   0.14  -0.00
    47   1     0.03   0.08  -0.07     0.02   0.04   0.03     0.00   0.14  -0.03
    48   1     0.03   0.08   0.03    -0.00   0.06  -0.01    -0.04   0.16   0.00
    49   1     0.06   0.13  -0.02    -0.01   0.01   0.01    -0.04   0.15   0.00
    50   6    -0.01   0.02   0.07    -0.02   0.05  -0.04    -0.14   0.08   0.01
    51   1    -0.06  -0.04   0.06     0.01   0.06  -0.02    -0.15   0.04   0.03
    52   1     0.05   0.07   0.07    -0.07   0.01  -0.03    -0.17   0.06   0.02
    53   1    -0.02   0.02   0.16    -0.02   0.07  -0.10    -0.16   0.13   0.00
    54   6     0.01   0.00   0.06     0.02  -0.00  -0.03     0.16   0.02   0.01
    55   1    -0.02   0.07   0.05     0.03  -0.04  -0.03     0.18  -0.01   0.01
    56   1     0.04  -0.06   0.06    -0.00   0.04  -0.04     0.16  -0.02   0.02
    57   1     0.00   0.01   0.13     0.02  -0.01  -0.08     0.19   0.08   0.00
    58   6     0.07  -0.08  -0.01     0.00   0.04   0.02     0.07   0.09   0.00
    59   1     0.13  -0.19  -0.01    -0.02   0.09   0.02     0.12   0.02  -0.01
    60   1     0.02  -0.07  -0.09     0.03   0.03   0.06    -0.02   0.11  -0.02
    61   1     0.09  -0.03   0.10    -0.01   0.01  -0.02     0.12   0.17   0.04
    62   6    -0.05   0.09  -0.02     0.04  -0.06   0.02     0.02   0.12  -0.01
    63   1    -0.14   0.26  -0.05     0.08  -0.15   0.03    -0.01   0.18  -0.02
    64   1    -0.12   0.01   0.13     0.07  -0.02  -0.05     0.01   0.12   0.06
    65   1     0.05   0.06  -0.12    -0.01  -0.04   0.09     0.03   0.12  -0.06
    66   6    -0.03  -0.05  -0.02     0.05   0.10   0.01    -0.01   0.12   0.00
    67   1    -0.03  -0.05   0.02     0.04   0.13  -0.02    -0.04   0.19  -0.00
    68   1    -0.03  -0.05  -0.07     0.08   0.11   0.04     0.07   0.12   0.00
    69   1    -0.05  -0.09  -0.02     0.06   0.11   0.01    -0.03   0.08   0.00
[...]
 ! R69   R(62,65)                0.0404                  2.5                    !
 ! A29   A(7,13,14)              0.0295                  1.9                    !
 ! A30   A(12,13,14)            -0.0273                  1.7                    !
 ! A31   A(13,14,15)             0.0564                  3.6                    !
 ! A32   A(13,14,18)            -0.03                    1.9                    !
 ! A33   A(15,14,18)            -0.0264                  1.7                    !
 ! A34   A(14,15,16)            -0.027                   1.7                    !
 ! A35   A(14,15,20)             0.0289                  1.8                    !
 --------------------------------------------------------------------------------
                           ----------------------------
                           ! Normal Mode   198        !
 --------------------------                            --------------------------
 ! Name  Definition              Value          Relative Weight (%)             !
 --------------------------------------------------------------------------------
 ! R4    R(2,3)                  0.0468                  2.5                    !
 ! R6    R(3,4)                  0.0633                  3.4                    !
 ! R7    R(3,8)                 -1.0082                 54.9                    !
 ! R9    R(4,9)                 -0.3968                 21.6                    !
 ! R11   R(5,10)                -0.0641                  3.5                    !
 ! A4    A(1,2,3)                0.0255                  1.4                    !
 ! A6    A(3,2,11)              -0.028                   1.5                    !
 ! A7    A(2,3,4)               -0.0427                  2.3                    !
 ! A8    A(2,3,8)                0.0247                  1.3                    !
 --------------------------------------------------------------------------------
                           ----------------------------
                           ! Normal Mode   199        !
 --------------------------                            --------------------------
 ! Name  Definition              Value          Relative Weight (%)             !
 --------------------------------------------------------------------------------
 ! R23   R(15,16)                0.0417                  2.7                    !
 ! R25   R(16,17)                0.0433                  2.8                    !
 ! R26   R(16,19)               -1.0813                 69.4                    !
 ! R59   R(50,52)               -0.0168                  1.1                    !
 ! R61   R(54,55)               -0.0115                  0.7                    !
 ! R62   R(54,56)               -0.0098                  0.6                    !
 ! A34   A(14,15,16)             0.0279                  1.8                    !
 ! A36   A(16,15,20)            -0.0291                  1.9                    !
 ! A37   A(15,16,17)            -0.057                   3.7                    !
 ! A38   A(15,16,19)             0.0274                  1.8                    !
 ! A39   A(17,16,19)             0.0296                  1.9                    !
 ! A40   A(12,17,16)             0.0281                  1.8                    !
 ! A42   A(16,17,21)            -0.0295                  1.9                    !
 --------------------------------------------------------------------------------
                           ----------------------------
                           ! Normal Mode   200        !
 --------------------------                            --------------------------
 ! Name  Definition              Value          Relative Weight (%)             !
 --------------------------------------------------------------------------------
 ! R3    R(1,23)                -0.0343                  1.7                    !
 ! R5    R(2,11)                 0.0277                  1.4                    !
 ! R13   R(7,11)                 0.0238                  1.2                    !
 ! R15   R(7,23)                -0.0384                  1.9                    !
 ! R16   R(11,45)               -0.616                  31.2                    !
 ! R34   R(23,24)                0.8745                 44.3                    !
 ! A2    A(2,1,23)              -0.0199                  1.0                    !
 ! A3    A(6,1,23)               0.0206                  1.0                    !
 ! A5    A(1,2,11)               0.0133                  0.7                    !
 ! A6    A(3,2,11)              -0.0145                  0.7                    !
 ! A19   A(11,7,13)             -0.0154                  0.8                    !
 ! A21   A(13,7,23)              0.0207                  1.0                    !
 ! A22   A(2,11,7)              -0.0281                  1.4                    !
 ! A23   A(2,11,45)              0.0362                  1.8                    !
 ! A55   A(1,23,7)               0.04                    2.0                    !
 ! A57   A(7,23,24)             -0.0493                  2.5                    !
 --------------------------------------------------------------------------------
                           ----------------------------
                           ! Normal Mode   201        !
 --------------------------                            --------------------------
 ! Name  Definition              Value          Relative Weight (%)             !
 --------------------------------------------------------------------------------
 ! R3    R(1,23)                 0.0235                  1.2                    !
 ! R5    R(2,11)                 0.0382                  1.9                    !
 ! R13   R(7,11)                 0.034                   1.7                    !
 ! R15   R(7,23)                 0.0299                  1.5                    !
 ! R16   R(11,45)               -0.8768                 44.0                    !
 ! R34   R(23,24)               -0.6179                 31.0                    !
 ! A2    A(2,1,23)               0.0146                  0.7                    !
 ! A3    A(6,1,23)              -0.0145                  0.7                    !
 ! A5    A(1,2,11)               0.02                    1.0                    !
 ! A6    A(3,2,11)              -0.0203                  1.0                    !
 ! A19   A(11,7,13)             -0.0201                  1.0                    !
 ! A20   A(11,7,23)              0.0346                  1.7                    !
 ! A21   A(13,7,23)             -0.0145                  0.7                    !
 ! A22   A(2,11,7)              -0.0405                  2.0                    !
 ! A23   A(2,11,45)              0.0502                  2.5                    !
 ! A55   A(1,23,7)              -0.0287                  1.4                    !
 ! A57   A(7,23,24)              0.0346                  1.7                    !
 --------------------------------------------------------------------------------
 -------------------------------------------------------------------
 Center     Atomic                   Forces (Hartrees/Bohr)
 Number     Number              X              Y              Z
 -------------------------------------------------------------------
      1        6          -0.000000389   -0.000000271   -0.000001500
      2        6          -0.000000310   -0.000000577   -0.000001699
      3        6          -0.000000581    0.000000103   -0.000002323
      4        6          -0.000000437   -0.000000278   -0.000002786
      5        6          -0.000001449    0.000000100   -0.000002647
      6        6          -0.000000436   -0.000000485   -0.000001931
      7        6           0.000000285   -0.000000426   -0.000000546
      8        1          -0.000000708   -0.000000702   -0.000002623
      9        1          -0.000001003   -0.000000620   -0.000003306
     10        1          -0.000000856    0.000000154   -0.000002848
     11        7          -0.000000077   -0.000000234   -0.000001236
     12        6           0.000000159   -0.000000713    0.000000071
     13        6           0.000000109   -0.000000091   -0.000000071
     14        6           0.000000511   -0.000000213    0.000000606
     15        6          -0.000000539    0.000000057    0.000001034
     16        6           0.000001223    0.000000424    0.000001398
     17        6          -0.000000109   -0.000000163    0.000000691
     18        1          -0.000000219    0.000000106    0.000000439
     19        1           0.000000637   -0.000000794    0.000001752
     20        6           0.000000874   -0.000000228    0.000001332
     21        6           0.000000701   -0.000000755    0.000001504
     22        8           0.000000196   -0.000000869   -0.000000351
     23        7          -0.000000699    0.000000129   -0.000000778
     24        1          -0.000000189    0.000000103   -0.000000551
     25        6          -0.000000535   -0.000000151   -0.000001531
     26        1          -0.000000591    0.000000571   -0.000001956
     27        7          -0.000000959    0.000000859   -0.000000992
     28        6          -0.000000237    0.000000219   -0.000000634
     29        6          -0.000000064    0.000000252   -0.000000714
     30        6          -0.000000221    0.000001394   -0.000001432
     31        1          -0.000000202    0.000000728   -0.000000212
     32        6          -0.000000032    0.000000799   -0.000000576
     33        1          -0.000000351   -0.000000109   -0.000001327
     34        1          -0.000000219   -0.000000510   -0.000000676
     35        6          -0.000000845    0.000001993   -0.000000582
     36        1          -0.000000719    0.000001111   -0.000001573
     37        1          -0.000000868    0.000001503   -0.000000715
     38        6          -0.000000260    0.000000785   -0.000001060
     39        1          -0.000000144   -0.000000173   -0.000000400
     40        1          -0.000000034    0.000000011    0.000000171
     41        1          -0.000000798    0.000001726   -0.000001100
     42        1          -0.000000387    0.000001199   -0.000000085
     43        1          -0.000000730    0.000001149   -0.000000502
     44        1          -0.000000518    0.000000554   -0.000001232
     45        1          -0.000000486   -0.000000675   -0.000001180
     46        6           0.000000256   -0.000000414    0.000000511
     47        1           0.000000170   -0.000000375    0.000000015
     48        1           0.000000286   -0.000000609    0.000000666
     49        1           0.000000206    0.000000170    0.000000652
     50        6           0.000000386   -0.000000740    0.000000672
     51        1           0.000000767   -0.000000961    0.000002138
     52        1           0.000000907   -0.000000369    0.000002340
     53        1           0.000000780   -0.000000898    0.000001738
     54        6           0.000001156    0.000000190    0.000002814
     55        1           0.000000647    0.000000467    0.000002364
     56        1           0.000000690   -0.000000438    0.000002224
     57        1           0.000000501    0.000000567    0.000002724
     58        6           0.000000796   -0.000000227    0.000002283
     59        1           0.000000449   -0.000000821    0.000001358
     60        1           0.000000448   -0.000000250    0.000001214
     61        1           0.000000647   -0.000000015    0.000002150
     62        6           0.000000471    0.000000722    0.000002040
     63        1           0.000000324    0.000001281    0.000001498
     64        1           0.000000236    0.000001165    0.000002029
     65        1           0.000000144    0.000001103    0.000001198
     66        6           0.000000809   -0.000001899   -0.000000119
     67        1           0.000000602   -0.000001724    0.000000790
     68        1           0.000000368   -0.000001244    0.000000120
     69        1           0.000000461   -0.000001674    0.000001255
 -------------------------------------------------------------------
 Cartesian Forces:  Max     0.000003306 RMS     0.000001046
 FormGI is forming the generalized inverse of G from B-inverse, IUseBI=4.
 Leave Link  716 at Fri Dec 21 18:10:07 2018, MaxMem=  1342177280 cpu:               6.4 elap:               0.4
 (Enter /gpfs/apps/hpc/Apps/Restricted/Gaussian/Rev_A.03/g16/l9999.exe)

 ----------------------------------------------------------------------

 Electric dipole moment (input orientation):
 (Debye = 10**-18 statcoulomb cm , SI units = C m)
                  (au)            (Debye)         (10**-30 SI)
   Tot        0.148335D+01      0.377030D+01      0.125764D+02
   x         -0.443363D+00     -0.112692D+01     -0.375899D+01
   y          0.116036D+01      0.294933D+01      0.983791D+01
   z          0.810759D+00      0.206074D+01      0.687390D+01

 Dipole polarizability, Alpha (input orientation).
 (esu units = cm**3 , SI units = C**2 m**2 J**-1)
 Alpha(0;0):
               (au)            (10**-24 esu)      (10**-40 SI)
   iso        0.502343D+03      0.744395D+02      0.828252D+02
   aniso      0.371033D+03      0.549814D+02      0.611751D+02
   xx         0.563362D+03      0.834816D+02      0.928858D+02
   yx         0.655270D+01      0.971011D+00      0.108039D+01
   yy         0.678207D+03      0.100500D+03      0.111821D+03
   zx         0.169319D+02      0.250905D+01      0.279170D+01
   zy        -0.132741D+02     -0.196703D+01     -0.218861D+01
   zz         0.265460D+03      0.393371D+02      0.437684D+02

 ----------------------------------------------------------------------

 Dipole orientation:
     6          0.11404224          2.50717672          4.79326527
     6         -2.34814259          2.45213367          5.77945890
     6         -3.01301272          3.89059100          7.89069067
     6         -1.10629958          5.35700121          8.95447638
     6          1.36357037          5.40286587          7.96404419
     6          2.04689499          3.98275262          5.84730009
     6         -2.17279164         -0.10611259          2.40893575
     1         -4.91051950          3.86393590          8.64982056
     1         -1.53313468          6.49985516         10.59748936
     1          2.78194287          6.57481565          8.86414038
     7         -3.68511852          0.81293985          4.24155899
     6         -5.58209030         -2.68266252          0.33678536
     6         -2.93009267         -1.85635244          0.45546773
     6         -1.19326167         -2.71656079         -1.28610354
     6         -1.89840152         -4.39854838         -3.23349383
     6         -4.43723797         -5.20082308         -3.36689423
     6         -6.29150307         -4.43164986         -1.69541096
     1          0.75750308         -2.10784510         -1.18055981
     1         -4.95091705         -6.48696996         -4.86206300
     6          0.09447744         -5.23839785         -5.13076921
     6         -9.01786650         -5.34309006         -1.91772381
     8         -7.15813411         -1.89682849          1.93012145
     7          0.14379690          0.91634401          2.73235509
     1          1.75829799          0.69715381          1.70446483
     6          4.58643358          4.01603671          4.75735305
     1          5.96095770          5.23033182          5.70931482
     7          5.10968792          2.69061858          2.80123696
     6          7.66828696          2.84413291          1.73283193
     6          7.99215522          5.31286374          0.23219117
     6          9.80709863          2.53818416          3.67335447
     1          7.81428022          1.27593684          0.38908305
     6         10.57635179          5.40082941         -1.07155157
     1          7.81279973          6.90289794          1.55010883
     1          6.46358921          5.48915155         -1.14817659
     6         12.38668956          2.59831060          2.35730467
     1          9.72060288          4.07398691          5.05982722
     1          9.54995778          0.76616562          4.70709471
     6         12.73320005          5.03240263          0.82662930
     1         10.79568116          7.19899152         -2.06798739
     1         10.66258020          3.90799107         -2.50752946
     1         13.89298821          2.40918223          3.76056607
     1         12.54037745          0.96366322          1.09098925
     1         14.55279205          5.00836579         -0.15472354
     1         12.77205488          6.64856445          2.12473865
     1         -5.53213579          0.27111537          4.30381099
     6         -9.79959402         -6.71744951          0.53892037
     1         -9.72942636         -5.44744687          2.15499539
     1        -11.72796526         -7.42983274          0.33461502
     1         -8.55198387         -8.32365080          0.90128153
     6         -9.35096710         -7.19626762         -4.12906240
     1         -8.88158849         -6.32433063         -5.94182192
     1         -8.18330322         -8.88350725         -3.89220174
     1        -11.32435552         -7.79392988         -4.20453734
     6         -0.95339873         -7.08773614         -7.10208212
     1         -1.64159429         -8.82844632         -6.22868629
     1         -2.49232033         -6.24521737         -8.19119125
     1          0.55100905         -7.59297721         -8.42069509
     6          1.09942624         -2.86390262         -6.50358164
     1         -0.41375156         -1.92555779         -7.54914659
     1          1.90924599         -1.50930104         -5.17338997
     1          2.57349925         -3.41280798         -7.84174593
     6          2.29248165         -6.52635690         -3.70701340
     1          1.63828250         -8.20651113         -2.70237405
     1          3.73405021         -7.10317379         -5.06805833
     1          3.17656702         -5.25307305         -2.34409027
     6        -10.77923836         -3.05876505         -2.37894842
     1        -12.72551870         -3.72982748         -2.55057288
     1        -10.68307000         -1.70791059         -0.82971131
     1        -10.27680443         -2.09254179         -4.13408116

 Electric dipole moment (dipole orientation):
 (Debye = 10**-18 statcoulomb cm , SI units = C m)
                  (au)            (Debye)         (10**-30 SI)
   Tot        0.148335D+01      0.377030D+01      0.125764D+02
   x          0.000000D+00      0.000000D+00      0.000000D+00
   y          0.000000D+00      0.000000D+00      0.000000D+00
   z          0.148335D+01      0.377030D+01      0.125764D+02

 Dipole polarizability, Alpha (dipole orientation).
 (esu units = cm**3 , SI units = C**2 m**2 J**-1)
 Alpha(0;0):
               (au)            (10**-24 esu)      (10**-40 SI)
   iso        0.502343D+03      0.744395D+02      0.828252D+02
   aniso      0.371033D+03      0.549814D+02      0.611751D+02
   xx         0.549577D+03      0.814389D+02      0.906130D+02
   yx         0.714836D+02      0.105928D+02      0.117860D+02
   yy         0.432757D+03      0.641279D+02      0.713519D+02
   zx        -0.275451D+02     -0.408176D+01     -0.454157D+01
   zy         0.190351D+03      0.282071D+02      0.313846D+02
   zz         0.524695D+03      0.777518D+02      0.865105D+02

 ----------------------------------------------------------------------

 This type of calculation cannot be archived.


 WHEN YOU REACH FOR THE STARS, YOU MAY NOT QUITE GET ONE,
 BUT YOU WON'T COME UP WITH A HANDFUL OF MUD, EITHER.

                                         -- LEO BURNETT (AD AGENCY HEAD)
 Job cpu time:       0 days  0 hours  0 minutes 20.4 seconds.
 Elapsed time:       0 days  0 hours  0 minutes  1.4 seconds.
 File lengths (MBytes):  RWF=     72 Int=      0 D2E=      0 Chk=     84 Scr=      8
 Normal termination of Gaussian 16 at Fri Dec 21 18:10:07 2018.
