 Entering Gaussian System, Link 0=g16
 Input=cyclohexyl-monoBIP-E1PT.com
 Output=cyclohexyl-monoBIP-E1PT.log
 Initial command:
 /gpfs/apps/hpc/Apps/Restricted/Gaussian/Rev_A.03/g16/l1.exe "/gpfs/scratch60/fas/hammes_schiffer/jg2487/c44n01/Gau-173736.inp" -scrdir="/gpfs/scratch60/fas/hammes_schiffer/jg2487/c44n01/"
 Entering Link 1 = /gpfs/apps/hpc/Apps/Restricted/Gaussian/Rev_A.03/g16/l1.exe PID=    173737.
  
 Copyright (c) 1988,1990,1992,1993,1995,1998,2003,2009,2016,
            Gaussian, Inc.  All Rights Reserved.
  
 This is part of the Gaussian(R) 16 program.  It is based on
 the Gaussian(R) 09 system (copyright 2009, Gaussian, Inc.),
 the Gaussian(R) 03 system (copyright 2003, Gaussian, Inc.),
 the Gaussian(R) 98 system (copyright 1998, Gaussian, Inc.),
 the Gaussian(R) 94 system (copyright 1995, Gaussian, Inc.),
 the Gaussian 92(TM) system (copyright 1992, Gaussian, Inc.),
 the Gaussian 90(TM) system (copyright 1990, Gaussian, Inc.),
 the Gaussian 88(TM) system (copyright 1988, Gaussian, Inc.),
 the Gaussian 86(TM) system (copyright 1986, Carnegie Mellon
 University), and the Gaussian 82(TM) system (copyright 1983,
 Carnegie Mellon University). Gaussian is a federally registered
 trademark of Gaussian, Inc.
  
 This software contains proprietary and confidential information,
 including trade secrets, belonging to Gaussian, Inc.
  
 This software is provided under written license and may be
 used, copied, transmitted, or stored only in accord with that
 written license.
  
 The following legend is applicable only to US Government
 contracts under FAR:
  
                    RESTRICTED RIGHTS LEGEND
  
 Use, reproduction and disclosure by the US Government is
 subject to restrictions as set forth in subparagraphs (a)
 and (c) of the Commercial Computer Software - Restricted
 Rights clause in FAR 52.227-19.
  
 Gaussian, Inc.
 340 Quinnipiac St., Bldg. 40, Wallingford CT 06492
  
  
 ---------------------------------------------------------------
 Warning -- This program may not be used in any manner that
 competes with the business of Gaussian, Inc. or will provide
 assistance to any competitor of Gaussian, Inc.  The licensee
 of this program is prohibited from giving any competitor of
 Gaussian, Inc. access to this program.  By using this program,
 the user acknowledges that Gaussian, Inc. is engaged in the
 business of creating and licensing software in the field of
 computational chemistry and represents and warrants to the
 licensee that it is not a competitor of Gaussian, Inc. and that
 it will not use this program in any manner prohibited above.
 ---------------------------------------------------------------
  

 Cite this work as:
 Gaussian 16, Revision A.03,
 M. J. Frisch, G. W. Trucks, H. B. Schlegel, G. E. Scuseria, 
 M. A. Robb, J. R. Cheeseman, G. Scalmani, V. Barone, 
 G. A. Petersson, H. Nakatsuji, X. Li, M. Caricato, A. V. Marenich, 
 J. Bloino, B. G. Janesko, R. Gomperts, B. Mennucci, H. P. Hratchian, 
 J. V. Ortiz, A. F. Izmaylov, J. L. Sonnenberg, D. Williams-Young, 
 F. Ding, F. Lipparini, F. Egidi, J. Goings, B. Peng, A. Petrone, 
 T. Henderson, D. Ranasinghe, V. G. Zakrzewski, J. Gao, N. Rega, 
 G. Zheng, W. Liang, M. Hada, M. Ehara, K. Toyota, R. Fukuda, 
 J. Hasegawa, M. Ishida, T. Nakajima, Y. Honda, O. Kitao, H. Nakai, 
 T. Vreven, K. Throssell, J. A. Montgomery, Jr., J. E. Peralta, 
 F. Ogliaro, M. J. Bearpark, J. J. Heyd, E. N. Brothers, K. N. Kudin, 
 V. N. Staroverov, T. A. Keith, R. Kobayashi, J. Normand, 
 K. Raghavachari, A. P. Rendell, J. C. Burant, S. S. Iyengar, 
 J. Tomasi, M. Cossi, J. M. Millam, M. Klene, C. Adamo, R. Cammi, 
 J. W. Ochterski, R. L. Martin, K. Morokuma, O. Farkas, 
 J. B. Foresman, and D. J. Fox, Gaussian, Inc., Wallingford CT, 2016.
 
 ******************************************
 Gaussian 16:  ES64L-G16RevA.03 25-Dec-2016
                14-Dec-2018 
 ******************************************
 %chk=cyclohexyl-monoBIP-E1PT.chk
 %mem=10GB
 %nprocshared=16
 Will use up to   16 processors via shared memory.
 ----------------------------------------------------------------
 #p freq(ReadFC,InternalModes) Geom(AllCheck) NoSymm scale=0.9649
 ----------------------------------------------------------------
 1/18=20,29=7,38=1,114=964900/1,3;
 2/9=110,12=2,15=1,40=1/2;
 7/8=21,25=11,30=1/16;
 99/5=2/99;
 Leave Link    1 at Fri Dec 14 13:07:39 2018, MaxMem=  1342177280 cpu:               8.8 elap:               0.6
 (Enter /gpfs/apps/hpc/Apps/Restricted/Gaussian/Rev_A.03/g16/l101.exe)
 Structure from the checkpoint file:  "cyclohexyl-monoBIP-E1PT.chk"
 ----------------------------------------------------------------------
 cyclohexylimine monoBIP oxidized, with first proton transferred optimi
 zation
 ----------------------------------------------------------------------
 Charge =  1 Multiplicity = 2
 Redundant internal coordinates found in file.  (old form).
 C,0,-0.494597,2.766864,0.316812
 C,0,-1.885957,2.952098,0.281696
 C,0,-2.445387,4.230806,0.219647
 C,0,-1.551503,5.297541,0.199089
 C,0,-0.156001,5.107165,0.230909
 C,0,0.41456,3.834244,0.287808
 C,0,-1.451004,0.756247,0.370733
 H,0,-3.516258,4.379767,0.190032
 H,0,-1.940194,6.307357,0.155334
 H,0,0.498141,5.97109,0.210643
 N,0,-2.431359,1.680442,0.315505
 C,0,-3.02429,-1.196084,0.325781
 C,0,-1.65531,-0.671278,0.413258
 C,0,-0.586169,-1.537717,0.527906
 C,0,-0.776614,-2.937012,0.565475
 C,0,-2.085292,-3.457142,0.470851
 C,0,-3.194335,-2.64723,0.352923
 H,0,0.425319,-1.154178,0.598616
 H,0,-2.216224,-4.533495,0.499268
 C,0,0.404605,-3.842274,0.717182
 H,0,1.130626,-3.669794,-0.083213
 H,0,0.920815,-3.634715,1.660232
 H,0,0.108003,-4.890639,0.703902
 C,0,-4.582941,-3.188047,0.258455
 H,0,-5.214206,-2.764181,1.044209
 H,0,-5.043815,-2.908271,-0.69361
 H,0,-4.584371,-4.274118,0.345847
 O,0,-4.022813,-0.44059,0.231873
 N,0,-0.269548,1.409096,0.373329
 H,0,0.685093,1.050764,0.39837
 C,0,1.857915,3.599225,0.308331
 H,0,2.490862,4.490276,0.262347
 N,0,2.32356,2.407928,0.376878
 C,0,3.782897,2.230162,0.395727
 C,0,4.426775,2.647495,-0.937129
 C,0,4.456404,2.958268,1.570883
 H,0,3.952736,1.155667,0.527112
 C,0,5.935382,2.375957,-0.918524
 H,0,4.24369,3.717417,-1.092005
 H,0,3.944737,2.113171,-1.761082
 C,0,5.963164,2.678837,1.59119
 H,0,4.291735,4.036957,1.464995
 H,0,3.985141,2.651987,2.509227
 C,0,6.61588,3.077198,0.26229
 H,0,6.385852,2.692144,-1.864155
 H,0,6.100202,1.294309,-0.837698
 H,0,6.428086,3.214977,2.423937
 H,0,6.129685,1.609213,1.769638
 H,0,7.684284,2.842264,0.278001
 H,0,6.530591,4.16355,0.132749
 H,0,-3.40523,1.379909,0.288803
 Recover connectivity data from disk.
 ITRead=  0  0  0  0  0  0  0  0  0  0  0  0  0  0  0  0  0  0  0  0
 ITRead=  0  0  0  0  0  0  0  0  0  0  0  0  0  0  0  0  0  0  0  0
 ITRead=  0  0  0  0  0  0  0  0  0  0  0
 MicOpt= -1 -1 -1 -1 -1 -1 -1 -1 -1 -1 -1 -1 -1 -1 -1 -1 -1 -1 -1 -1
 MicOpt= -1 -1 -1 -1 -1 -1 -1 -1 -1 -1 -1 -1 -1 -1 -1 -1 -1 -1 -1 -1
 MicOpt= -1 -1 -1 -1 -1 -1 -1 -1 -1 -1 -1
 NAtoms=     51 NQM=       51 NQMF=       0 NMMI=      0 NMMIF=      0
                NMic=       0 NMicF=      0.
                    Isotopes and Nuclear Properties:
 (Nuclear quadrupole moments (NQMom) in fm**2, nuclear magnetic moments (NMagM)
  in nuclear magnetons)

  Atom         1           2           3           4           5           6           7           8           9          10
 IAtWgt=          12          12          12          12          12          12          12           1           1           1
 AtmWgt=  12.0000000  12.0000000  12.0000000  12.0000000  12.0000000  12.0000000  12.0000000   1.0078250   1.0078250   1.0078250
 NucSpn=           0           0           0           0           0           0           0           1           1           1
 AtZEff=   3.6000000   3.6000000   3.6000000   3.6000000   3.6000000   3.6000000   3.6000000   1.0000000   1.0000000   1.0000000
 NQMom=    0.0000000   0.0000000   0.0000000   0.0000000   0.0000000   0.0000000   0.0000000   0.0000000   0.0000000   0.0000000
 NMagM=    0.0000000   0.0000000   0.0000000   0.0000000   0.0000000   0.0000000   0.0000000   2.7928460   2.7928460   2.7928460
 AtZNuc=   6.0000000   6.0000000   6.0000000   6.0000000   6.0000000   6.0000000   6.0000000   1.0000000   1.0000000   1.0000000

  Atom        11          12          13          14          15          16          17          18          19          20
 IAtWgt=          14          12          12          12          12          12          12           1           1          12
 AtmWgt=  14.0030740  12.0000000  12.0000000  12.0000000  12.0000000  12.0000000  12.0000000   1.0078250   1.0078250  12.0000000
 NucSpn=           2           0           0           0           0           0           0           1           1           0
 AtZEff=   4.5500000   3.6000000   3.6000000   3.6000000   3.6000000   3.6000000   3.6000000   1.0000000   1.0000000   3.6000000
 NQMom=    2.0440000   0.0000000   0.0000000   0.0000000   0.0000000   0.0000000   0.0000000   0.0000000   0.0000000   0.0000000
 NMagM=    0.4037610   0.0000000   0.0000000   0.0000000   0.0000000   0.0000000   0.0000000   2.7928460   2.7928460   0.0000000
 AtZNuc=   7.0000000   6.0000000   6.0000000   6.0000000   6.0000000   6.0000000   6.0000000   1.0000000   1.0000000   6.0000000

  Atom        21          22          23          24          25          26          27          28          29          30
 IAtWgt=           1           1           1          12           1           1           1          16          14           1
 AtmWgt=   1.0078250   1.0078250   1.0078250  12.0000000   1.0078250   1.0078250   1.0078250  15.9949146  14.0030740   1.0078250
 NucSpn=           1           1           1           0           1           1           1           0           2           1
 AtZEff=   1.0000000   1.0000000   1.0000000   3.6000000   1.0000000   1.0000000   1.0000000   5.6000000   4.5500000   1.0000000
 NQMom=    0.0000000   0.0000000   0.0000000   0.0000000   0.0000000   0.0000000   0.0000000   0.0000000   2.0440000   0.0000000
 NMagM=    2.7928460   2.7928460   2.7928460   0.0000000   2.7928460   2.7928460   2.7928460   0.0000000   0.4037610   2.7928460
 AtZNuc=   1.0000000   1.0000000   1.0000000   6.0000000   1.0000000   1.0000000   1.0000000   8.0000000   7.0000000   1.0000000

  Atom        31          32          33          34          35          36          37          38          39          40
 IAtWgt=          12           1          14          12          12          12           1          12           1           1
 AtmWgt=  12.0000000   1.0078250  14.0030740  12.0000000  12.0000000  12.0000000   1.0078250  12.0000000   1.0078250   1.0078250
 NucSpn=           0           1           2           0           0           0           1           0           1           1
 AtZEff=   3.6000000   1.0000000   4.5500000   3.6000000   3.6000000   3.6000000   1.0000000   3.6000000   1.0000000   1.0000000
 NQMom=    0.0000000   0.0000000   2.0440000   0.0000000   0.0000000   0.0000000   0.0000000   0.0000000   0.0000000   0.0000000
 NMagM=    0.0000000   2.7928460   0.4037610   0.0000000   0.0000000   0.0000000   2.7928460   0.0000000   2.7928460   2.7928460
 AtZNuc=   6.0000000   1.0000000   7.0000000   6.0000000   6.0000000   6.0000000   1.0000000   6.0000000   1.0000000   1.0000000

  Atom        41          42          43          44          45          46          47          48          49          50
 IAtWgt=          12           1           1          12           1           1           1           1           1           1
 AtmWgt=  12.0000000   1.0078250   1.0078250  12.0000000   1.0078250   1.0078250   1.0078250   1.0078250   1.0078250   1.0078250
 NucSpn=           0           1           1           0           1           1           1           1           1           1
 AtZEff=   3.6000000   1.0000000   1.0000000   3.6000000   1.0000000   1.0000000   1.0000000   1.0000000   1.0000000   1.0000000
 NQMom=    0.0000000   0.0000000   0.0000000   0.0000000   0.0000000   0.0000000   0.0000000   0.0000000   0.0000000   0.0000000
 NMagM=    0.0000000   2.7928460   2.7928460   0.0000000   2.7928460   2.7928460   2.7928460   2.7928460   2.7928460   2.7928460
 AtZNuc=   6.0000000   1.0000000   1.0000000   6.0000000   1.0000000   1.0000000   1.0000000   1.0000000   1.0000000   1.0000000

  Atom        51
 IAtWgt=           1
 AtmWgt=   1.0078250
 NucSpn=           1
 AtZEff=   1.0000000
 NQMom=    0.0000000
 NMagM=    2.7928460
 AtZNuc=   1.0000000
 Leave Link  101 at Fri Dec 14 13:07:40 2018, MaxMem=  1342177280 cpu:               6.3 elap:               0.4
 (Enter /gpfs/apps/hpc/Apps/Restricted/Gaussian/Rev_A.03/g16/l103.exe)

 GradGradGradGradGradGradGradGradGradGradGradGradGradGradGradGradGradGrad
 Berny optimization.
 Initialization pass.
                           ----------------------------
                           !    Initial Parameters    !
                           ! (Angstroms and Degrees)  !
 --------------------------                            --------------------------
 ! Name  Definition              Value          Derivative Info.                !
 --------------------------------------------------------------------------------
 ! R1    R(1,2)                  1.4041         estimate D2E/DX2                !
 ! R2    R(1,6)                  1.4024         estimate D2E/DX2                !
 ! R3    R(1,29)                 1.3775         estimate D2E/DX2                !
 ! R4    R(2,3)                  1.3971         estimate D2E/DX2                !
 ! R5    R(2,11)                 1.3841         estimate D2E/DX2                !
 ! R6    R(3,4)                  1.3919         estimate D2E/DX2                !
 ! R7    R(3,8)                  1.0816         estimate D2E/DX2                !
 ! R8    R(4,5)                  1.4088         estimate D2E/DX2                !
 ! R9    R(4,9)                  1.0829         estimate D2E/DX2                !
 ! R10   R(5,6)                  1.3961         estimate D2E/DX2                !
 ! R11   R(5,10)                 1.0838         estimate D2E/DX2                !
 ! R12   R(6,31)                 1.4625         estimate D2E/DX2                !
 ! R13   R(7,11)                 1.3484         estimate D2E/DX2                !
 ! R14   R(7,13)                 1.4427         estimate D2E/DX2                !
 ! R15   R(7,29)                 1.3498         estimate D2E/DX2                !
 ! R16   R(11,51)                1.0195         estimate D2E/DX2                !
 ! R17   R(12,13)                1.4687         estimate D2E/DX2                !
 ! R18   R(12,17)                1.4613         estimate D2E/DX2                !
 ! R19   R(12,28)                1.2556         estimate D2E/DX2                !
 ! R20   R(13,14)                1.3809         estimate D2E/DX2                !
 ! R21   R(14,15)                1.4127         estimate D2E/DX2                !
 ! R22   R(14,18)                1.0841         estimate D2E/DX2                !
 ! R23   R(15,16)                1.4114         estimate D2E/DX2                !
 ! R24   R(15,20)                1.4959         estimate D2E/DX2                !
 ! R25   R(16,17)                1.3783         estimate D2E/DX2                !
 ! R26   R(16,19)                1.0847         estimate D2E/DX2                !
 ! R27   R(17,24)                1.4932         estimate D2E/DX2                !
 ! R28   R(20,21)                1.0943         estimate D2E/DX2                !
 ! R29   R(20,22)                1.0949         estimate D2E/DX2                !
 ! R30   R(20,23)                1.0896         estimate D2E/DX2                !
 ! R31   R(24,25)                1.0934         estimate D2E/DX2                !
 ! R32   R(24,26)                1.0941         estimate D2E/DX2                !
 ! R33   R(24,27)                1.0896         estimate D2E/DX2                !
 ! R34   R(29,30)                1.02           estimate D2E/DX2                !
 ! R35   R(31,32)                1.0939         estimate D2E/DX2                !
 ! R36   R(31,33)                1.2809         estimate D2E/DX2                !
 ! R37   R(33,34)                1.4702         estimate D2E/DX2                !
 ! R38   R(34,35)                1.5379         estimate D2E/DX2                !
 ! R39   R(34,36)                1.5378         estimate D2E/DX2                !
 ! R40   R(34,37)                1.0957         estimate D2E/DX2                !
 ! R41   R(35,38)                1.533          estimate D2E/DX2                !
 ! R42   R(35,39)                1.0965         estimate D2E/DX2                !
 ! R43   R(35,40)                1.094          estimate D2E/DX2                !
 ! R44   R(36,41)                1.5326         estimate D2E/DX2                !
 ! R45   R(36,42)                1.0963         estimate D2E/DX2                !
 ! R46   R(36,43)                1.0938         estimate D2E/DX2                !
 ! R47   R(38,44)                1.5327         estimate D2E/DX2                !
 ! R48   R(38,45)                1.0941         estimate D2E/DX2                !
 ! R49   R(38,46)                1.0971         estimate D2E/DX2                !
 ! R50   R(41,44)                1.5332         estimate D2E/DX2                !
 ! R51   R(41,47)                1.0941         estimate D2E/DX2                !
 ! R52   R(41,48)                1.0971         estimate D2E/DX2                !
 ! R53   R(44,49)                1.094          estimate D2E/DX2                !
 ! R54   R(44,50)                1.0974         estimate D2E/DX2                !
 ! A1    A(2,1,6)              122.7852         estimate D2E/DX2                !
 ! A2    A(2,1,29)             107.0357         estimate D2E/DX2                !
 ! A3    A(6,1,29)             130.1782         estimate D2E/DX2                !
 ! A4    A(1,2,3)              121.2418         estimate D2E/DX2                !
 ! A5    A(1,2,11)             105.5846         estimate D2E/DX2                !
 ! A6    A(3,2,11)             133.1729         estimate D2E/DX2                !
 ! A7    A(2,3,4)              116.4198         estimate D2E/DX2                !
 ! A8    A(2,3,8)              121.5823         estimate D2E/DX2                !
 ! A9    A(4,3,8)              121.9979         estimate D2E/DX2                !
 ! A10   A(3,4,5)              122.1576         estimate D2E/DX2                !
 ! A11   A(3,4,9)              118.9956         estimate D2E/DX2                !
 ! A12   A(5,4,9)              118.8467         estimate D2E/DX2                !
 ! A13   A(4,5,6)              121.9351         estimate D2E/DX2                !
 ! A14   A(4,5,10)             119.3221         estimate D2E/DX2                !
 ! A15   A(6,5,10)             118.7428         estimate D2E/DX2                !
 ! A16   A(1,6,5)              115.4585         estimate D2E/DX2                !
 ! A17   A(1,6,31)             121.1447         estimate D2E/DX2                !
 ! A18   A(5,6,31)             123.3957         estimate D2E/DX2                !
 ! A19   A(11,7,13)            125.1994         estimate D2E/DX2                !
 ! A20   A(11,7,29)            107.7541         estimate D2E/DX2                !
 ! A21   A(13,7,29)            127.046          estimate D2E/DX2                !
 ! A22   A(2,11,7)             110.1341         estimate D2E/DX2                !
 ! A23   A(2,11,51)            130.2848         estimate D2E/DX2                !
 ! A24   A(7,11,51)            119.5712         estimate D2E/DX2                !
 ! A25   A(13,12,17)           117.5281         estimate D2E/DX2                !
 ! A26   A(13,12,28)           122.0515         estimate D2E/DX2                !
 ! A27   A(17,12,28)           120.4204         estimate D2E/DX2                !
 ! A28   A(7,13,12)            118.9339         estimate D2E/DX2                !
 ! A29   A(7,13,14)            120.907          estimate D2E/DX2                !
 ! A30   A(12,13,14)           120.1584         estimate D2E/DX2                !
 ! A31   A(13,14,15)           121.2868         estimate D2E/DX2                !
 ! A32   A(13,14,18)           120.3858         estimate D2E/DX2                !
 ! A33   A(15,14,18)           118.326          estimate D2E/DX2                !
 ! A34   A(14,15,16)           119.2244         estimate D2E/DX2                !
 ! A35   A(14,15,20)           119.7133         estimate D2E/DX2                !
 ! A36   A(16,15,20)           121.0599         estimate D2E/DX2                !
 ! A37   A(15,16,17)           122.3603         estimate D2E/DX2                !
 ! A38   A(15,16,19)           118.4153         estimate D2E/DX2                !
 ! A39   A(17,16,19)           119.223          estimate D2E/DX2                !
 ! A40   A(12,17,16)           119.4368         estimate D2E/DX2                !
 ! A41   A(12,17,24)           117.8204         estimate D2E/DX2                !
 ! A42   A(16,17,24)           122.7416         estimate D2E/DX2                !
 ! A43   A(15,20,21)           110.752          estimate D2E/DX2                !
 ! A44   A(15,20,22)           110.1757         estimate D2E/DX2                !
 ! A45   A(15,20,23)           111.4735         estimate D2E/DX2                !
 ! A46   A(21,20,22)           106.696          estimate D2E/DX2                !
 ! A47   A(21,20,23)           108.865          estimate D2E/DX2                !
 ! A48   A(22,20,23)           108.7368         estimate D2E/DX2                !
 ! A49   A(17,24,25)           110.55           estimate D2E/DX2                !
 ! A50   A(17,24,26)           110.7419         estimate D2E/DX2                !
 ! A51   A(17,24,27)           110.9263         estimate D2E/DX2                !
 ! A52   A(25,24,26)           106.4396         estimate D2E/DX2                !
 ! A53   A(25,24,27)           109.1478         estimate D2E/DX2                !
 ! A54   A(26,24,27)           108.9125         estimate D2E/DX2                !
 ! A55   A(1,29,7)             109.4911         estimate D2E/DX2                !
 ! A56   A(1,29,30)            120.014          estimate D2E/DX2                !
 ! A57   A(7,29,30)            130.4905         estimate D2E/DX2                !
 ! A58   A(6,31,32)            116.0742         estimate D2E/DX2                !
 ! A59   A(6,31,33)            120.5955         estimate D2E/DX2                !
 ! A60   A(32,31,33)           123.3304         estimate D2E/DX2                !
 ! A61   A(31,33,34)           118.2922         estimate D2E/DX2                !
 ! A62   A(33,34,35)           111.8166         estimate D2E/DX2                !
 ! A63   A(33,34,36)           112.7851         estimate D2E/DX2                !
 ! A64   A(33,34,37)           105.8995         estimate D2E/DX2                !
 ! A65   A(35,34,36)           110.5144         estimate D2E/DX2                !
 ! A66   A(35,34,37)           107.7654         estimate D2E/DX2                !
 ! A67   A(36,34,37)           107.7452         estimate D2E/DX2                !
 ! A68   A(34,35,38)           110.6971         estimate D2E/DX2                !
 ! A69   A(34,35,39)           108.4995         estimate D2E/DX2                !
 ! A70   A(34,35,40)           109.6168         estimate D2E/DX2                !
 ! A71   A(38,35,39)           109.8088         estimate D2E/DX2                !
 ! A72   A(38,35,40)           110.8705         estimate D2E/DX2                !
 ! A73   A(39,35,40)           107.256          estimate D2E/DX2                !
 ! A74   A(34,36,41)           110.7562         estimate D2E/DX2                !
 ! A75   A(34,36,42)           109.0428         estimate D2E/DX2                !
 ! A76   A(34,36,43)           109.53           estimate D2E/DX2                !
 ! A77   A(41,36,42)           109.1685         estimate D2E/DX2                !
 ! A78   A(41,36,43)           111.172          estimate D2E/DX2                !
 ! A79   A(42,36,43)           107.0772         estimate D2E/DX2                !
 ! A80   A(35,38,44)           111.4226         estimate D2E/DX2                !
 ! A81   A(35,38,45)           110.09           estimate D2E/DX2                !
 ! A82   A(35,38,46)           108.8671         estimate D2E/DX2                !
 ! A83   A(44,38,45)           110.5388         estimate D2E/DX2                !
 ! A84   A(44,38,46)           109.124          estimate D2E/DX2                !
 ! A85   A(45,38,46)           106.6624         estimate D2E/DX2                !
 ! A86   A(36,41,44)           111.0812         estimate D2E/DX2                !
 ! A87   A(36,41,47)           109.7863         estimate D2E/DX2                !
 ! A88   A(36,41,48)           109.2163         estimate D2E/DX2                !
 ! A89   A(44,41,47)           110.5777         estimate D2E/DX2                !
 ! A90   A(44,41,48)           109.249          estimate D2E/DX2                !
 ! A91   A(47,41,48)           106.8251         estimate D2E/DX2                !
 ! A92   A(38,44,41)           111.0922         estimate D2E/DX2                !
 ! A93   A(38,44,49)           110.2673         estimate D2E/DX2                !
 ! A94   A(38,44,50)           109.1157         estimate D2E/DX2                !
 ! A95   A(41,44,49)           110.3347         estimate D2E/DX2                !
 ! A96   A(41,44,50)           109.0531         estimate D2E/DX2                !
 ! A97   A(49,44,50)           106.8687         estimate D2E/DX2                !
 ! D1    D(6,1,2,3)             -0.2257         estimate D2E/DX2                !
 ! D2    D(6,1,2,11)           179.5197         estimate D2E/DX2                !
 ! D3    D(29,1,2,3)          -179.9126         estimate D2E/DX2                !
 ! D4    D(29,1,2,11)           -0.1672         estimate D2E/DX2                !
 ! D5    D(2,1,6,5)              0.4461         estimate D2E/DX2                !
 ! D6    D(2,1,6,31)          -179.1871         estimate D2E/DX2                !
 ! D7    D(29,1,6,5)          -179.9458         estimate D2E/DX2                !
 ! D8    D(29,1,6,31)            0.4211         estimate D2E/DX2                !
 ! D9    D(2,1,29,7)             0.1707         estimate D2E/DX2                !
 ! D10   D(2,1,29,30)          179.4876         estimate D2E/DX2                !
 ! D11   D(6,1,29,7)          -179.4847         estimate D2E/DX2                !
 ! D12   D(6,1,29,30)           -0.1679         estimate D2E/DX2                !
 ! D13   D(1,2,3,4)             -0.1871         estimate D2E/DX2                !
 ! D14   D(1,2,3,8)            179.8551         estimate D2E/DX2                !
 ! D15   D(11,2,3,4)          -179.8509         estimate D2E/DX2                !
 ! D16   D(11,2,3,8)             0.1913         estimate D2E/DX2                !
 ! D17   D(1,2,11,7)             0.1084         estimate D2E/DX2                !
 ! D18   D(1,2,11,51)         -178.723          estimate D2E/DX2                !
 ! D19   D(3,2,11,7)           179.8099         estimate D2E/DX2                !
 ! D20   D(3,2,11,51)            0.9786         estimate D2E/DX2                !
 ! D21   D(2,3,4,5)              0.3606         estimate D2E/DX2                !
 ! D22   D(2,3,4,9)           -179.7566         estimate D2E/DX2                !
 ! D23   D(8,3,4,5)           -179.6818         estimate D2E/DX2                !
 ! D24   D(8,3,4,9)              0.201          estimate D2E/DX2                !
 ! D25   D(3,4,5,6)             -0.1318         estimate D2E/DX2                !
 ! D26   D(3,4,5,10)           179.8574         estimate D2E/DX2                !
 ! D27   D(9,4,5,6)            179.9852         estimate D2E/DX2                !
 ! D28   D(9,4,5,10)            -0.0256         estimate D2E/DX2                !
 ! D29   D(4,5,6,1)             -0.2704         estimate D2E/DX2                !
 ! D30   D(4,5,6,31)           179.3535         estimate D2E/DX2                !
 ! D31   D(10,5,6,1)           179.7403         estimate D2E/DX2                !
 ! D32   D(10,5,6,31)           -0.6358         estimate D2E/DX2                !
 ! D33   D(1,6,31,32)          178.7944         estimate D2E/DX2                !
 ! D34   D(1,6,31,33)           -1.2175         estimate D2E/DX2                !
 ! D35   D(5,6,31,32)           -0.8089         estimate D2E/DX2                !
 ! D36   D(5,6,31,33)          179.1792         estimate D2E/DX2                !
 ! D37   D(13,7,11,2)         -179.7809         estimate D2E/DX2                !
 ! D38   D(13,7,11,51)          -0.8059         estimate D2E/DX2                !
 ! D39   D(29,7,11,2)           -0.0054         estimate D2E/DX2                !
 ! D40   D(29,7,11,51)         178.9697         estimate D2E/DX2                !
 ! D41   D(11,7,13,12)           3.1593         estimate D2E/DX2                !
 ! D42   D(11,7,13,14)        -177.1416         estimate D2E/DX2                !
 ! D43   D(29,7,13,12)        -176.5729         estimate D2E/DX2                !
 ! D44   D(29,7,13,14)           3.1262         estimate D2E/DX2                !
 ! D45   D(11,7,29,1)           -0.1041         estimate D2E/DX2                !
 ! D46   D(11,7,29,30)        -179.3263         estimate D2E/DX2                !
 ! D47   D(13,7,29,1)          179.6661         estimate D2E/DX2                !
 ! D48   D(13,7,29,30)           0.4439         estimate D2E/DX2                !
 ! D49   D(17,12,13,7)         179.1595         estimate D2E/DX2                !
 ! D50   D(17,12,13,14)         -0.542          estimate D2E/DX2                !
 ! D51   D(28,12,13,7)          -0.9003         estimate D2E/DX2                !
 ! D52   D(28,12,13,14)        179.3983         estimate D2E/DX2                !
 ! D53   D(13,12,17,16)          0.6277         estimate D2E/DX2                !
 ! D54   D(13,12,17,24)       -179.7418         estimate D2E/DX2                !
 ! D55   D(28,12,17,16)       -179.3137         estimate D2E/DX2                !
 ! D56   D(28,12,17,24)          0.3169         estimate D2E/DX2                !
 ! D57   D(7,13,14,15)        -179.7708         estimate D2E/DX2                !
 ! D58   D(7,13,14,18)           0.6661         estimate D2E/DX2                !
 ! D59   D(12,13,14,15)         -0.0753         estimate D2E/DX2                !
 ! D60   D(12,13,14,18)       -179.6384         estimate D2E/DX2                !
 ! D61   D(13,14,15,16)          0.616          estimate D2E/DX2                !
 ! D62   D(13,14,15,20)       -178.8144         estimate D2E/DX2                !
 ! D63   D(18,14,15,16)       -179.8122         estimate D2E/DX2                !
 ! D64   D(18,14,15,20)          0.7575         estimate D2E/DX2                !
 ! D65   D(14,15,16,17)         -0.5277         estimate D2E/DX2                !
 ! D66   D(14,15,16,19)        179.8896         estimate D2E/DX2                !
 ! D67   D(20,15,16,17)        178.8947         estimate D2E/DX2                !
 ! D68   D(20,15,16,19)         -0.688          estimate D2E/DX2                !
 ! D69   D(14,15,20,21)        -57.143          estimate D2E/DX2                !
 ! D70   D(14,15,20,22)         60.6668         estimate D2E/DX2                !
 ! D71   D(14,15,20,23)       -178.5166         estimate D2E/DX2                !
 ! D72   D(16,15,20,21)        123.4374         estimate D2E/DX2                !
 ! D73   D(16,15,20,22)       -118.7528         estimate D2E/DX2                !
 ! D74   D(16,15,20,23)          2.0637         estimate D2E/DX2                !
 ! D75   D(15,16,17,12)         -0.1036         estimate D2E/DX2                !
 ! D76   D(15,16,17,24)       -179.7151         estimate D2E/DX2                !
 ! D77   D(19,16,17,12)        179.4758         estimate D2E/DX2                !
 ! D78   D(19,16,17,24)         -0.1357         estimate D2E/DX2                !
 ! D79   D(12,17,24,25)        -55.5683         estimate D2E/DX2                !
 ! D80   D(12,17,24,26)         62.1518         estimate D2E/DX2                !
 ! D81   D(12,17,24,27)       -176.7922         estimate D2E/DX2                !
 ! D82   D(16,17,24,25)        124.0492         estimate D2E/DX2                !
 ! D83   D(16,17,24,26)       -118.2307         estimate D2E/DX2                !
 ! D84   D(16,17,24,27)          2.8252         estimate D2E/DX2                !
 ! D85   D(6,31,33,34)        -179.9372         estimate D2E/DX2                !
 ! D86   D(32,31,33,34)          0.05           estimate D2E/DX2                !
 ! D87   D(31,33,34,35)        -66.7493         estimate D2E/DX2                !
 ! D88   D(31,33,34,36)         58.5311         estimate D2E/DX2                !
 ! D89   D(31,33,34,37)        176.1368         estimate D2E/DX2                !
 ! D90   D(33,34,35,38)       -176.7164         estimate D2E/DX2                !
 ! D91   D(33,34,35,39)         62.7254         estimate D2E/DX2                !
 ! D92   D(33,34,35,40)        -54.1037         estimate D2E/DX2                !
 ! D93   D(36,34,35,38)         56.758          estimate D2E/DX2                !
 ! D94   D(36,34,35,39)        -63.8001         estimate D2E/DX2                !
 ! D95   D(36,34,35,40)        179.3708         estimate D2E/DX2                !
 ! D96   D(37,34,35,38)        -60.7324         estimate D2E/DX2                !
 ! D97   D(37,34,35,39)        178.7095         estimate D2E/DX2                !
 ! D98   D(37,34,35,40)         61.8804         estimate D2E/DX2                !
 ! D99   D(33,34,36,41)        176.8486         estimate D2E/DX2                !
 ! D100  D(33,34,36,42)        -63.0005         estimate D2E/DX2                !
 ! D101  D(33,34,36,43)         53.8753         estimate D2E/DX2                !
 ! D102  D(35,34,36,41)        -57.1675         estimate D2E/DX2                !
 ! D103  D(35,34,36,42)         62.9834         estimate D2E/DX2                !
 ! D104  D(35,34,36,43)        179.8592         estimate D2E/DX2                !
 ! D105  D(37,34,36,41)         60.3354         estimate D2E/DX2                !
 ! D106  D(37,34,36,42)       -179.5137         estimate D2E/DX2                !
 ! D107  D(37,34,36,43)        -62.6379         estimate D2E/DX2                !
 ! D108  D(34,35,38,44)        -56.018          estimate D2E/DX2                !
 ! D109  D(34,35,38,45)       -179.0289         estimate D2E/DX2                !
 ! D110  D(34,35,38,46)         64.3791         estimate D2E/DX2                !
 ! D111  D(39,35,38,44)         63.7577         estimate D2E/DX2                !
 ! D112  D(39,35,38,45)        -59.2533         estimate D2E/DX2                !
 ! D113  D(39,35,38,46)       -175.8452         estimate D2E/DX2                !
 ! D114  D(40,35,38,44)       -177.8978         estimate D2E/DX2                !
 ! D115  D(40,35,38,45)         59.0912         estimate D2E/DX2                !
 ! D116  D(40,35,38,46)        -57.5007         estimate D2E/DX2                !
 ! D117  D(34,36,41,44)         56.5955         estimate D2E/DX2                !
 ! D118  D(34,36,41,47)        179.2113         estimate D2E/DX2                !
 ! D119  D(34,36,41,48)        -63.9707         estimate D2E/DX2                !
 ! D120  D(42,36,41,44)        -63.4804         estimate D2E/DX2                !
 ! D121  D(42,36,41,47)         59.1354         estimate D2E/DX2                !
 ! D122  D(42,36,41,48)        175.9534         estimate D2E/DX2                !
 ! D123  D(43,36,41,44)        178.6125         estimate D2E/DX2                !
 ! D124  D(43,36,41,47)        -58.7717         estimate D2E/DX2                !
 ! D125  D(43,36,41,48)         58.0463         estimate D2E/DX2                !
 ! D126  D(35,38,44,41)         55.3473         estimate D2E/DX2                !
 ! D127  D(35,38,44,49)        177.9947         estimate D2E/DX2                !
 ! D128  D(35,38,44,50)        -64.9169         estimate D2E/DX2                !
 ! D129  D(45,38,44,41)        178.1013         estimate D2E/DX2                !
 ! D130  D(45,38,44,49)        -59.2513         estimate D2E/DX2                !
 ! D131  D(45,38,44,50)         57.8371         estimate D2E/DX2                !
 ! D132  D(46,38,44,41)        -64.8985         estimate D2E/DX2                !
 ! D133  D(46,38,44,49)         57.7489         estimate D2E/DX2                !
 ! D134  D(46,38,44,50)        174.8373         estimate D2E/DX2                !
 ! D135  D(36,41,44,38)        -55.528          estimate D2E/DX2                !
 ! D136  D(36,41,44,49)       -178.1365         estimate D2E/DX2                !
 ! D137  D(36,41,44,50)         64.7732         estimate D2E/DX2                !
 ! D138  D(47,41,44,38)       -177.6853         estimate D2E/DX2                !
 ! D139  D(47,41,44,49)         59.7062         estimate D2E/DX2                !
 ! D140  D(47,41,44,50)        -57.384          estimate D2E/DX2                !
 ! D141  D(48,41,44,38)         65.0188         estimate D2E/DX2                !
 ! D142  D(48,41,44,49)        -57.5896         estimate D2E/DX2                !
 ! D143  D(48,41,44,50)       -174.6799         estimate D2E/DX2                !
 --------------------------------------------------------------------------------
 Trust Radius=3.00D-01 FncErr=1.00D-07 GrdErr=1.00D-07 EigMax=2.50D+02 EigMin=1.00D-04
 Number of steps in this run=    304 maximum allowed number of steps=    306.
 GradGradGradGradGradGradGradGradGradGradGradGradGradGradGradGradGradGrad

 Leave Link  103 at Fri Dec 14 13:07:40 2018, MaxMem=  1342177280 cpu:               0.6 elap:               0.1
 (Enter /gpfs/apps/hpc/Apps/Restricted/Gaussian/Rev_A.03/g16/l202.exe)
 Symmetry turned off by external request.
 Stoichiometry    C22H25N3O(1+,2)
 Framework group  C1[X(C22H25N3O)]
 Deg. of freedom   147
 Full point group                 C1      NOp   1
                          Input orientation:                          
 ---------------------------------------------------------------------
 Center     Atomic      Atomic             Coordinates (Angstroms)
 Number     Number       Type             X           Y           Z
 ---------------------------------------------------------------------
      1          6           0       -0.494597    2.766864    0.316812
      2          6           0       -1.885957    2.952098    0.281696
      3          6           0       -2.445387    4.230806    0.219647
      4          6           0       -1.551503    5.297541    0.199089
      5          6           0       -0.156001    5.107165    0.230909
      6          6           0        0.414560    3.834244    0.287808
      7          6           0       -1.451004    0.756247    0.370733
      8          1           0       -3.516258    4.379767    0.190032
      9          1           0       -1.940194    6.307357    0.155334
     10          1           0        0.498141    5.971090    0.210643
     11          7           0       -2.431359    1.680442    0.315505
     12          6           0       -3.024290   -1.196084    0.325781
     13          6           0       -1.655310   -0.671278    0.413258
     14          6           0       -0.586169   -1.537717    0.527906
     15          6           0       -0.776614   -2.937012    0.565475
     16          6           0       -2.085292   -3.457142    0.470851
     17          6           0       -3.194335   -2.647230    0.352923
     18          1           0        0.425319   -1.154178    0.598616
     19          1           0       -2.216224   -4.533495    0.499268
     20          6           0        0.404605   -3.842274    0.717182
     21          1           0        1.130626   -3.669794   -0.083213
     22          1           0        0.920815   -3.634715    1.660232
     23          1           0        0.108003   -4.890639    0.703902
     24          6           0       -4.582941   -3.188047    0.258455
     25          1           0       -5.214206   -2.764181    1.044209
     26          1           0       -5.043815   -2.908271   -0.693610
     27          1           0       -4.584371   -4.274118    0.345847
     28          8           0       -4.022813   -0.440590    0.231873
     29          7           0       -0.269548    1.409096    0.373329
     30          1           0        0.685093    1.050764    0.398370
     31          6           0        1.857915    3.599225    0.308331
     32          1           0        2.490862    4.490276    0.262347
     33          7           0        2.323560    2.407928    0.376878
     34          6           0        3.782897    2.230162    0.395727
     35          6           0        4.426775    2.647495   -0.937129
     36          6           0        4.456404    2.958268    1.570883
     37          1           0        3.952736    1.155667    0.527112
     38          6           0        5.935382    2.375957   -0.918524
     39          1           0        4.243690    3.717417   -1.092005
     40          1           0        3.944737    2.113171   -1.761082
     41          6           0        5.963164    2.678837    1.591190
     42          1           0        4.291735    4.036957    1.464995
     43          1           0        3.985141    2.651987    2.509227
     44          6           0        6.615880    3.077198    0.262290
     45          1           0        6.385852    2.692144   -1.864155
     46          1           0        6.100202    1.294309   -0.837698
     47          1           0        6.428086    3.214977    2.423937
     48          1           0        6.129685    1.609213    1.769638
     49          1           0        7.684284    2.842264    0.278001
     50          1           0        6.530591    4.163550    0.132749
     51          1           0       -3.405230    1.379909    0.288803
 ---------------------------------------------------------------------
 Rotational constants (GHZ):           0.2806387           0.1074545           0.0803357
 Leave Link  202 at Fri Dec 14 13:07:40 2018, MaxMem=  1342177280 cpu:               1.0 elap:               0.1
 (Enter /gpfs/apps/hpc/Apps/Restricted/Gaussian/Rev_A.03/g16/l716.exe)
 Electric field and nuclear coordinate derivatives read from checkpoint file.
 Dipole        =-4.37734260D-01 1.27197493D+00 7.76554899D-01
 Polarizability= 4.60137338D+02 6.23798032D+00 5.85557310D+02
                 1.14033223D+01-1.47265560D+01 1.77408599D+02
 Full mass-weighted force constant matrix:
 Low frequencies ---   -7.3200   -0.0017   -0.0008    0.0022   11.7252   19.5660
 Low frequencies ---   34.1211   41.7079   62.1876
 Diagonal vibrational polarizability:
       50.8146736      69.4500161      83.3405531
 Harmonic frequencies (cm**-1), IR intensities (KM/Mole), Raman scattering
 activities (A**4/AMU), depolarization ratios for plane and unpolarized
 incident light, reduced masses (AMU), force constants (mDyne/A),
 and normal coordinates:
                      1                      2                      3
                      A                      A                      A
 Frequencies --     32.2104                41.5113                61.9062
 Red. masses --      4.3448                 4.4976                 4.5122
 Frc consts  --      0.0027                 0.0046                 0.0102
 IR Inten    --      1.7760                 2.1991                 1.5571
  Atom  AN      X      Y      Z        X      Y      Z        X      Y      Z
     1   6    -0.03   0.04   0.03     0.03  -0.05   0.04    -0.00   0.01   0.07
     2   6    -0.03   0.03   0.01     0.03  -0.03   0.01     0.00  -0.00  -0.06
     3   6    -0.03   0.03   0.02     0.04  -0.03   0.01    -0.00  -0.01  -0.20
     4   6    -0.03   0.03   0.05     0.04  -0.03   0.03    -0.01  -0.01  -0.17
     5   6    -0.03   0.04   0.07     0.04  -0.04   0.06    -0.01   0.01  -0.02
     6   6    -0.03   0.04   0.06     0.03  -0.05   0.06    -0.01   0.02   0.10
     7   6    -0.01   0.03  -0.00    -0.00  -0.04   0.00     0.01   0.00   0.04
     8   1    -0.03   0.03   0.00     0.04  -0.03  -0.02     0.00  -0.02  -0.33
     9   1    -0.03   0.03   0.05     0.05  -0.03   0.03    -0.01  -0.01  -0.27
    10   1    -0.03   0.04   0.08     0.04  -0.05   0.07    -0.02   0.01  -0.01
    11   7    -0.02   0.03  -0.02     0.01  -0.03  -0.02     0.01  -0.00  -0.07
    12   6     0.03  -0.00  -0.07    -0.04  -0.01  -0.07     0.01   0.00   0.02
    13   6     0.01   0.03  -0.00    -0.03  -0.03  -0.00     0.01   0.00   0.02
    14   6     0.03   0.07   0.08    -0.06  -0.05   0.07     0.01  -0.01  -0.01
    15   6     0.07   0.06   0.10    -0.09  -0.05   0.09     0.01  -0.01  -0.06
    16   6     0.09   0.02   0.01    -0.09  -0.02   0.02     0.00  -0.00  -0.03
    17   6     0.07  -0.01  -0.08    -0.07  -0.00  -0.06     0.01   0.01   0.02
    18   1     0.02   0.10   0.15    -0.05  -0.07   0.12     0.02  -0.02  -0.02
    19   1     0.11   0.02   0.02    -0.12  -0.02   0.03     0.00  -0.00  -0.05
    20   6     0.09   0.10   0.21    -0.12  -0.07   0.19     0.01  -0.02  -0.15
    21   1     0.09   0.04   0.21    -0.08  -0.13   0.22    -0.03   0.00  -0.18
    22   1     0.07   0.21   0.20    -0.16  -0.04   0.21     0.06  -0.06  -0.17
    23   1     0.11   0.09   0.31    -0.14  -0.06   0.23     0.00  -0.02  -0.17
    24   6     0.10  -0.05  -0.16    -0.08   0.02  -0.13    -0.00   0.01   0.05
    25   1     0.04  -0.06  -0.20    -0.11   0.05  -0.17     0.02   0.01   0.07
    26   1     0.15  -0.08  -0.19    -0.02   0.01  -0.16    -0.03   0.03   0.07
    27   1     0.12  -0.05  -0.14    -0.10   0.03  -0.11    -0.00   0.01   0.03
    28   8     0.02  -0.03  -0.12    -0.02   0.01  -0.14     0.01   0.00   0.01
    29   7    -0.02   0.04   0.02     0.01  -0.05   0.04     0.01   0.01   0.13
    30   1    -0.01   0.05   0.03    -0.00  -0.08   0.05     0.01   0.03   0.20
    31   6    -0.03   0.02   0.05     0.03  -0.03   0.06    -0.01   0.02   0.16
    32   1    -0.01   0.02   0.07     0.01  -0.02   0.05    -0.00   0.02   0.12
    33   7    -0.05   0.01   0.02     0.06  -0.02   0.05    -0.01   0.02   0.20
    34   6    -0.05  -0.03  -0.01     0.07   0.03   0.01    -0.01   0.01   0.12
    35   6    -0.08  -0.04  -0.02     0.00   0.05  -0.02    -0.11  -0.03   0.06
    36   6     0.00  -0.07  -0.02     0.08   0.05  -0.02     0.09   0.02   0.05
    37   1    -0.09  -0.04  -0.03     0.11   0.03   0.00    -0.01   0.01   0.14
    38   6    -0.09  -0.10  -0.07     0.02   0.13  -0.07    -0.11  -0.05  -0.06
    39   1    -0.04  -0.03  -0.00    -0.05   0.04  -0.01    -0.11  -0.04   0.06
    40   1    -0.12  -0.01  -0.02     0.00   0.03   0.00    -0.18  -0.04   0.11
    41   6    -0.01  -0.13  -0.06     0.10   0.12  -0.08     0.09   0.01  -0.07
    42   1     0.04  -0.06  -0.01     0.03   0.04  -0.00     0.09   0.02   0.05
    43   1     0.02  -0.06  -0.01     0.13   0.02   0.00     0.16   0.04   0.10
    44   6    -0.02  -0.14  -0.08     0.02   0.17  -0.10    -0.02  -0.02  -0.13
    45   1    -0.10  -0.11  -0.08    -0.03   0.15  -0.09    -0.19  -0.07  -0.10
    46   1    -0.13  -0.11  -0.08     0.08   0.14  -0.08    -0.11  -0.04  -0.04
    47   1     0.04  -0.16  -0.07     0.10   0.13  -0.09     0.17   0.02  -0.11
    48   1    -0.05  -0.14  -0.08     0.16   0.13  -0.10     0.10   0.01  -0.07
    49   1    -0.04  -0.19  -0.11     0.04   0.25  -0.14    -0.01  -0.01  -0.21
    50   1     0.02  -0.14  -0.06    -0.07   0.17  -0.09    -0.03  -0.02  -0.15
    51   1    -0.02   0.02  -0.04     0.01  -0.02  -0.05     0.01  -0.01  -0.13
                      4                      5                      6
                      A                      A                      A
 Frequencies --     67.9275                78.7774                91.7624
 Red. masses --      4.8484                 2.9398                 3.5676
 Frc consts  --      0.0132                 0.0107                 0.0177
 IR Inten    --      1.1237                 0.1205                 2.0707
  Atom  AN      X      Y      Z        X      Y      Z        X      Y      Z
     1   6     0.00   0.00  -0.07    -0.00  -0.00  -0.01    -0.01  -0.00  -0.02
     2   6     0.00  -0.01  -0.08    -0.00  -0.00   0.03    -0.00   0.04  -0.01
     3   6    -0.01  -0.00   0.03    -0.01  -0.01   0.07     0.05   0.07   0.01
     4   6    -0.01   0.00   0.14    -0.02  -0.00   0.07     0.10   0.03   0.02
     5   6    -0.01   0.01   0.16    -0.02   0.00   0.02     0.09  -0.02   0.01
     6   6    -0.00   0.01   0.06    -0.01   0.00  -0.01     0.04  -0.05  -0.01
     7   6     0.01  -0.01  -0.19     0.00  -0.00  -0.01    -0.06   0.03  -0.03
     8   1    -0.01  -0.01   0.02    -0.01  -0.01   0.11     0.06   0.12   0.02
     9   1    -0.02   0.01   0.23    -0.02  -0.00   0.10     0.14   0.05   0.04
    10   1    -0.02   0.02   0.26    -0.02   0.01   0.03     0.13  -0.05   0.03
    11   7     0.01  -0.01  -0.17    -0.00  -0.00   0.03    -0.04   0.05  -0.02
    12   6     0.01  -0.01  -0.07    -0.00  -0.00  -0.01    -0.03  -0.01   0.00
    13   6     0.01  -0.01  -0.15    -0.00  -0.00  -0.01    -0.05   0.03  -0.02
    14   6     0.01  -0.01  -0.14    -0.00  -0.01  -0.02    -0.02   0.06  -0.01
    15   6     0.00  -0.00   0.00    -0.00  -0.01  -0.02     0.03   0.06  -0.01
    16   6    -0.01   0.00   0.13    -0.00  -0.00  -0.03     0.05   0.02  -0.01
    17   6    -0.01  -0.00   0.11    -0.00  -0.00  -0.03     0.02  -0.02   0.00
    18   1     0.02  -0.01  -0.21    -0.00  -0.01  -0.01    -0.03   0.09  -0.01
    19   1    -0.02   0.01   0.27    -0.00  -0.00  -0.04     0.08   0.02  -0.01
    20   6     0.00   0.00   0.04    -0.01  -0.01  -0.01     0.07   0.11  -0.02
    21   1     0.05   0.04   0.09     0.01  -0.00   0.01     0.02   0.09  -0.08
    22   1    -0.06  -0.02   0.08    -0.02  -0.01   0.00     0.12   0.20  -0.07
    23   1     0.01   0.00  -0.01    -0.01  -0.01  -0.02     0.11   0.10   0.06
    24   6    -0.02   0.00   0.27    -0.00  -0.00  -0.04     0.04  -0.07   0.02
    25   1     0.06   0.02   0.33    -0.01   0.00  -0.05     0.03  -0.10   0.03
    26   1    -0.12  -0.01   0.31     0.01  -0.00  -0.05     0.01  -0.08   0.02
    27   1    -0.02   0.01   0.29    -0.00  -0.00  -0.04     0.08  -0.07   0.01
    28   8     0.01  -0.01  -0.14    -0.00  -0.00  -0.00    -0.05  -0.03   0.03
    29   7     0.01  -0.00  -0.15     0.00  -0.00  -0.03    -0.05  -0.01  -0.04
    30   1     0.01   0.01  -0.12    -0.00  -0.01  -0.05    -0.05  -0.03  -0.04
    31   6    -0.00   0.02   0.09    -0.00   0.02  -0.01     0.02  -0.12   0.00
    32   1    -0.01   0.03   0.18    -0.02   0.03  -0.00     0.05  -0.14  -0.01
    33   7    -0.00   0.02   0.02     0.01   0.03   0.01    -0.01  -0.13   0.03
    34   6    -0.00   0.01   0.03     0.01   0.04   0.06    -0.01  -0.13   0.04
    35   6    -0.02   0.01   0.02     0.01  -0.16   0.00    -0.04  -0.15   0.01
    36   6     0.02   0.00   0.02     0.01   0.20  -0.04    -0.03  -0.07   0.02
    37   1    -0.01   0.01   0.03     0.01   0.06   0.22     0.01  -0.12   0.08
    38   6    -0.02  -0.00  -0.01     0.01  -0.20   0.04    -0.01   0.02   0.01
    39   1    -0.01   0.01   0.03     0.03  -0.17  -0.13    -0.14  -0.18  -0.05
    40   1    -0.04   0.02   0.03     0.00  -0.25   0.07     0.01  -0.25   0.05
    41   6     0.02  -0.02  -0.00     0.01   0.18   0.00    -0.00   0.09  -0.01
    42   1     0.04   0.01   0.03     0.03   0.19  -0.19    -0.14  -0.09   0.04
    43   1     0.03   0.01   0.03     0.01   0.34  -0.00     0.02  -0.12   0.03
    44   6     0.01  -0.02  -0.01     0.03  -0.05  -0.06    -0.10   0.17  -0.03
    45   1    -0.03   0.00  -0.01     0.02  -0.34  -0.00    -0.06   0.02  -0.01
    46   1    -0.03  -0.00  -0.02    -0.03  -0.19   0.19     0.13   0.04   0.07
    47   1     0.04  -0.03  -0.01     0.02   0.30  -0.08    -0.05   0.14  -0.02
    48   1     0.01  -0.02  -0.01    -0.02   0.20   0.18     0.13   0.11  -0.02
    49   1     0.00  -0.03  -0.03     0.02  -0.10  -0.02    -0.05   0.38  -0.05
    50   1     0.02  -0.02  -0.00     0.08  -0.07  -0.22    -0.30   0.15  -0.06
    51   1     0.01  -0.01  -0.17    -0.00  -0.01   0.04    -0.05   0.09  -0.00
                      7                      8                      9
                      A                      A                      A
 Frequencies --    109.4031               117.8196               125.8642
 Red. masses --      1.1604                 4.5506                 3.8579
 Frc consts  --      0.0082                 0.0372                 0.0360
 IR Inten    --      0.0141                 3.5093                 3.9368
  Atom  AN      X      Y      Z        X      Y      Z        X      Y      Z
     1   6    -0.00  -0.00   0.01    -0.03  -0.02  -0.07     0.03   0.01  -0.08
     2   6    -0.00  -0.00   0.01    -0.03   0.01  -0.09     0.03  -0.02  -0.06
     3   6    -0.00  -0.00   0.01    -0.00   0.02  -0.06    -0.00  -0.03   0.00
     4   6    -0.00  -0.00   0.00     0.02   0.01   0.01    -0.03  -0.01   0.04
     5   6    -0.00  -0.00  -0.00     0.01  -0.02   0.06    -0.02   0.03   0.03
     6   6    -0.00  -0.00   0.00    -0.01  -0.03   0.01     0.00   0.04  -0.03
     7   6    -0.00  -0.00   0.01    -0.09  -0.00  -0.07     0.09  -0.01  -0.07
     8   1    -0.00  -0.00   0.01     0.00   0.04  -0.08    -0.01  -0.06   0.03
     9   1    -0.00  -0.00  -0.00     0.04   0.01   0.05    -0.06  -0.02   0.09
    10   1    -0.00  -0.00  -0.01     0.03  -0.03   0.13    -0.05   0.04   0.08
    11   7    -0.00  -0.00   0.01    -0.06   0.02  -0.09     0.07  -0.03  -0.05
    12   6    -0.00  -0.00  -0.02    -0.08  -0.04   0.07     0.06   0.03   0.06
    13   6    -0.00  -0.00   0.01    -0.09  -0.00  -0.02     0.08  -0.01  -0.03
    14   6    -0.00   0.00   0.03    -0.07   0.03  -0.02     0.06  -0.04  -0.05
    15   6    -0.00   0.00   0.02    -0.02   0.03   0.00     0.00  -0.04   0.01
    16   6    -0.00   0.00   0.02     0.01  -0.02  -0.04    -0.01   0.00  -0.03
    17   6    -0.00   0.00   0.01    -0.02  -0.05  -0.02     0.02   0.04  -0.03
    18   1    -0.01   0.00   0.05    -0.07   0.05  -0.03     0.07  -0.07  -0.09
    19   1    -0.00   0.00   0.04     0.04  -0.02  -0.07    -0.05   0.01  -0.04
    20   6     0.00  -0.01  -0.05     0.02   0.09   0.05    -0.05  -0.09   0.09
    21   1    -0.29  -0.37  -0.40    -0.09  -0.07  -0.09    -0.16  -0.39  -0.07
    22   1     0.37   0.34  -0.33     0.14   0.32  -0.07     0.11   0.13  -0.04
    23   1    -0.07   0.01   0.47     0.05   0.08   0.32    -0.15  -0.07   0.43
    24   6    -0.00  -0.00   0.03     0.00  -0.11  -0.08    -0.00   0.11  -0.10
    25   1     0.01  -0.00   0.04    -0.05  -0.14  -0.10    -0.04   0.18  -0.17
    26   1    -0.02   0.00   0.03     0.03  -0.13  -0.10     0.09   0.10  -0.15
    27   1    -0.00  -0.00   0.03     0.05  -0.11  -0.08    -0.07   0.11  -0.07
    28   8     0.00  -0.00  -0.07    -0.11  -0.06   0.25     0.07   0.06   0.23
    29   7    -0.00  -0.00   0.02    -0.07  -0.03  -0.08     0.07   0.02  -0.10
    30   1    -0.00  -0.00   0.01    -0.09  -0.08  -0.06     0.09   0.06  -0.08
    31   6    -0.00   0.00  -0.01     0.01   0.00   0.06    -0.00   0.03   0.02
    32   1    -0.00   0.00  -0.01    -0.03   0.03   0.13     0.02   0.01   0.05
    33   7     0.00   0.00  -0.01     0.06   0.02   0.01    -0.04   0.01   0.02
    34   6     0.00   0.01  -0.01     0.07   0.08   0.01    -0.06  -0.04   0.04
    35   6     0.01   0.00  -0.00     0.06   0.11   0.02    -0.08  -0.05   0.02
    36   6    -0.00   0.01  -0.01     0.10   0.06   0.01    -0.04  -0.05   0.04
    37   1     0.00   0.01  -0.01     0.10   0.08  -0.00    -0.08  -0.04   0.03
    38   6     0.01  -0.00   0.01     0.05   0.02  -0.02    -0.07   0.00  -0.00
    39   1     0.01   0.00  -0.01     0.11   0.12   0.08    -0.11  -0.06   0.00
    40   1     0.01   0.00  -0.01     0.03   0.17   0.01    -0.08  -0.08   0.04
    41   6    -0.00   0.00   0.01     0.09  -0.03   0.00    -0.04  -0.00  -0.01
    42   1     0.00   0.01  -0.01     0.16   0.07  -0.01    -0.07  -0.05   0.07
    43   1    -0.01   0.01  -0.01     0.09   0.10   0.01    -0.02  -0.08   0.04
    44   6     0.01  -0.01   0.01     0.13  -0.08   0.00    -0.09   0.05  -0.02
    45   1     0.02  -0.01   0.01     0.06   0.04  -0.01    -0.10   0.00  -0.01
    46   1     0.00  -0.00   0.01    -0.02   0.01  -0.07    -0.03   0.01   0.02
    47   1    -0.01   0.01   0.01     0.13  -0.06  -0.00    -0.03  -0.01  -0.01
    48   1    -0.01   0.00   0.01     0.01  -0.04   0.00     0.01  -0.00  -0.04
    49   1     0.00  -0.01   0.02     0.10  -0.21  -0.00    -0.07   0.14  -0.05
    50   1     0.02  -0.00   0.00     0.26  -0.07   0.03    -0.19   0.04  -0.01
    51   1    -0.00  -0.00  -0.01    -0.07   0.06  -0.03     0.07  -0.06   0.01
                     10                     11                     12
                      A                      A                      A
 Frequencies --    154.1474               164.2598               182.6801
 Red. masses --      4.3198                 2.0423                 1.9655
 Frc consts  --      0.0605                 0.0325                 0.0386
 IR Inten    --      0.4747                 0.3229                 2.5003
  Atom  AN      X      Y      Z        X      Y      Z        X      Y      Z
     1   6     0.00  -0.01  -0.07     0.00  -0.00  -0.07     0.01  -0.01  -0.10
     2   6    -0.00   0.00   0.09     0.00  -0.00  -0.04     0.01  -0.01  -0.08
     3   6    -0.00   0.00   0.16    -0.00   0.00   0.02    -0.00  -0.00  -0.00
     4   6     0.00  -0.00  -0.02    -0.00   0.00   0.04    -0.01  -0.00   0.06
     5   6     0.00  -0.01  -0.20    -0.00  -0.00   0.01    -0.00   0.00   0.04
     6   6     0.00  -0.01  -0.16     0.00  -0.00  -0.05     0.00   0.00  -0.05
     7   6    -0.01  -0.00  -0.01    -0.00  -0.00  -0.01     0.00  -0.00   0.01
     8   1    -0.01   0.01   0.32    -0.00   0.00   0.07    -0.00  -0.01   0.03
     9   1     0.00  -0.00  -0.01    -0.00   0.00   0.10    -0.01   0.00   0.14
    10   1     0.01  -0.02  -0.30     0.00  -0.00   0.04    -0.01   0.01   0.10
    11   7    -0.01   0.00   0.14    -0.00   0.00  -0.01     0.00  -0.00  -0.03
    12   6    -0.01  -0.01  -0.04    -0.00   0.00   0.04     0.00   0.00   0.02
    13   6    -0.01  -0.00  -0.05    -0.01   0.00   0.06    -0.00   0.00   0.10
    14   6    -0.01   0.00  -0.07    -0.00   0.01   0.08    -0.01   0.01   0.18
    15   6    -0.00   0.00  -0.03    -0.00   0.01   0.07    -0.00   0.00   0.05
    16   6     0.00  -0.00  -0.03    -0.01   0.01   0.14     0.01   0.01  -0.06
    17   6    -0.00  -0.01  -0.03    -0.01   0.00   0.08     0.00   0.01  -0.02
    18   1    -0.01   0.01  -0.07    -0.00   0.01   0.05    -0.01   0.02   0.25
    19   1     0.00  -0.00   0.00    -0.01   0.01   0.15     0.01   0.00  -0.16
    20   6     0.00   0.02   0.06     0.01  -0.01  -0.14    -0.01  -0.02  -0.05
    21   1     0.01  -0.04   0.05    -0.04   0.13  -0.15    -0.02   0.05  -0.05
    22   1    -0.02   0.11   0.05     0.07  -0.17  -0.13     0.02  -0.13  -0.04
    23   1     0.01   0.02   0.14     0.01  -0.01  -0.30    -0.02  -0.02  -0.15
    24   6    -0.01  -0.02   0.04     0.01  -0.01  -0.10     0.00   0.00   0.00
    25   1     0.05  -0.08   0.13    -0.21   0.28  -0.43     0.16  -0.37   0.34
    26   1    -0.09   0.04   0.10     0.30  -0.32  -0.33    -0.22   0.40   0.23
    27   1     0.01  -0.02  -0.02    -0.04   0.02   0.25     0.06  -0.03  -0.44
    28   8    -0.01  -0.01  -0.04     0.00  -0.00  -0.04     0.01   0.01  -0.03
    29   7    -0.00  -0.01  -0.12    -0.00  -0.00  -0.07     0.00  -0.01  -0.07
    30   1    -0.01  -0.02  -0.12    -0.00  -0.01  -0.04    -0.00  -0.02  -0.03
    31   6     0.01  -0.00  -0.12     0.00   0.00  -0.01     0.00   0.01  -0.00
    32   1     0.01  -0.02  -0.34    -0.00   0.00  -0.02    -0.00   0.01   0.03
    33   7     0.01   0.02   0.19     0.00   0.00   0.03    -0.00   0.01   0.00
    34   6     0.01   0.02   0.13     0.00   0.00   0.03    -0.00   0.00   0.02
    35   6    -0.07   0.07   0.11    -0.02   0.01   0.02    -0.01   0.00   0.01
    36   6     0.09  -0.01   0.11     0.02  -0.00   0.02     0.01  -0.00   0.02
    37   1     0.02   0.02   0.09     0.00   0.00   0.02    -0.01   0.00   0.02
    38   6    -0.08   0.03  -0.02    -0.02   0.01  -0.01    -0.01   0.00  -0.01
    39   1    -0.04   0.08   0.16    -0.01   0.01   0.03    -0.02   0.00   0.02
    40   1    -0.15   0.12   0.12    -0.03   0.02   0.03    -0.02   0.00   0.02
    41   6     0.09  -0.04  -0.01     0.02  -0.01  -0.01     0.01  -0.01  -0.00
    42   1     0.08  -0.01   0.13     0.02  -0.00   0.03     0.01  -0.00   0.02
    43   1     0.15  -0.03   0.13     0.03  -0.01   0.03     0.02  -0.00   0.02
    44   6     0.01  -0.03  -0.04     0.00  -0.00  -0.01    -0.01   0.00  -0.01
    45   1    -0.14   0.05  -0.04    -0.03   0.02  -0.01    -0.03   0.01  -0.01
    46   1    -0.10   0.02  -0.07    -0.02   0.01  -0.02    -0.01   0.00  -0.01
    47   1     0.16  -0.08  -0.03     0.04  -0.02  -0.01     0.02  -0.02  -0.01
    48   1     0.08  -0.05  -0.05     0.02  -0.01  -0.02     0.01  -0.01  -0.02
    49   1     0.01  -0.06  -0.12     0.00  -0.01  -0.03    -0.00   0.01  -0.02
    50   1     0.04  -0.02  -0.01     0.00  -0.00  -0.00    -0.01   0.00  -0.00
    51   1    -0.01   0.01   0.17    -0.00   0.00   0.00     0.00  -0.00  -0.01
                     13                     14                     15
                      A                      A                      A
 Frequencies --    205.5438               226.6709               234.0552
 Red. masses --      3.4249                 2.3316                 3.0458
 Frc consts  --      0.0853                 0.0706                 0.0983
 IR Inten    --      0.9112                 0.9750                 0.2115
  Atom  AN      X      Y      Z        X      Y      Z        X      Y      Z
     1   6     0.04  -0.02   0.02     0.01   0.03   0.05    -0.02  -0.05   0.00
     2   6     0.05   0.02  -0.02     0.02   0.04   0.04    -0.03  -0.05   0.05
     3   6     0.11   0.05  -0.01     0.02   0.04   0.02    -0.03  -0.07  -0.01
     4   6     0.14   0.03   0.03     0.02   0.04  -0.02    -0.03  -0.08  -0.07
     5   6     0.13  -0.02   0.02     0.02   0.04  -0.03    -0.02  -0.08  -0.00
     6   6     0.05  -0.04   0.01     0.01   0.04   0.02    -0.02  -0.07   0.03
     7   6     0.01  -0.00  -0.01     0.01   0.01  -0.03     0.00  -0.02  -0.01
     8   1     0.12   0.09  -0.02     0.02   0.04   0.00    -0.03  -0.07  -0.03
     9   1     0.16   0.04   0.04     0.01   0.04  -0.06    -0.02  -0.08  -0.13
    10   1     0.18  -0.06   0.01     0.02   0.04  -0.07    -0.03  -0.07   0.01
    11   7     0.02   0.02  -0.05     0.01   0.03  -0.01    -0.01  -0.05   0.08
    12   6     0.01  -0.01   0.00    -0.02  -0.02   0.01     0.02   0.04   0.01
    13   6     0.01  -0.01  -0.00    -0.00  -0.00  -0.05     0.01   0.01  -0.03
    14   6     0.01  -0.01   0.00    -0.00  -0.02  -0.10     0.02   0.03  -0.07
    15   6     0.00  -0.02   0.01    -0.02  -0.02   0.05     0.01   0.04   0.04
    16   6     0.00  -0.01   0.00    -0.02  -0.01   0.18    -0.01   0.05   0.14
    17   6     0.01  -0.01   0.00    -0.01  -0.03   0.04     0.00   0.06   0.03
    18   1     0.01  -0.02   0.00     0.01  -0.03  -0.21     0.02   0.03  -0.14
    19   1     0.00  -0.01   0.00    -0.02  -0.01   0.27    -0.02   0.06   0.20
    20   6    -0.01  -0.03   0.00    -0.05  -0.08  -0.04     0.08   0.12  -0.03
    21   1    -0.01  -0.04  -0.00    -0.07  -0.08  -0.06     0.03   0.22  -0.05
    22   1    -0.00  -0.04   0.00     0.01  -0.16  -0.05     0.10   0.15  -0.04
    23   1    -0.03  -0.03  -0.00    -0.11  -0.06  -0.08     0.18   0.09  -0.04
    24   6     0.01  -0.02  -0.00     0.03  -0.12  -0.11    -0.02   0.15  -0.09
    25   1     0.01  -0.03   0.00     0.02  -0.52   0.10     0.03  -0.08   0.07
    26   1     0.00  -0.00   0.00    -0.05   0.21   0.03    -0.05   0.48   0.02
    27   1     0.01  -0.02  -0.02     0.16  -0.16  -0.53    -0.08   0.12  -0.43
    28   8     0.01  -0.01   0.01    -0.02  -0.03   0.02     0.03   0.06   0.00
    29   7     0.02  -0.02   0.03     0.01   0.03   0.02    -0.00  -0.04  -0.06
    30   1     0.02  -0.03   0.05     0.01   0.03   0.01     0.01  -0.02  -0.11
    31   6     0.01  -0.09  -0.04     0.01   0.05  -0.01    -0.02  -0.09   0.09
    32   1     0.04  -0.12  -0.16     0.02   0.05  -0.05    -0.03  -0.08   0.20
    33   7    -0.03  -0.09   0.04    -0.00   0.05   0.00    -0.00  -0.09  -0.02
    34   6    -0.04   0.03  -0.02    -0.01   0.01  -0.01     0.01  -0.02   0.00
    35   6    -0.10   0.16  -0.00     0.00  -0.02  -0.01    -0.00   0.02   0.01
    36   6    -0.11   0.11  -0.03    -0.00  -0.02   0.00    -0.01   0.04  -0.02
    37   1     0.09   0.05  -0.04    -0.04   0.00  -0.01     0.07  -0.01   0.02
    38   6    -0.14   0.03  -0.04     0.00  -0.02   0.01    -0.00   0.03  -0.02
    39   1    -0.03   0.18   0.12     0.01  -0.02  -0.03    -0.02   0.02   0.04
    40   1    -0.17   0.27  -0.04     0.01  -0.03  -0.00    -0.00   0.04  -0.00
    41   6    -0.13   0.08   0.03    -0.00  -0.01  -0.00    -0.01   0.02   0.00
    42   1    -0.12   0.10  -0.11    -0.01  -0.02   0.02     0.01   0.03  -0.06
    43   1    -0.15   0.17  -0.03    -0.00  -0.03  -0.00    -0.01   0.08  -0.01
    44   6    -0.05  -0.11   0.01    -0.02   0.02   0.00     0.03  -0.03   0.00
    45   1    -0.09   0.05  -0.01     0.01  -0.04   0.01    -0.01   0.08  -0.01
    46   1    -0.25   0.01  -0.11     0.01  -0.01   0.04     0.00   0.03  -0.08
    47   1    -0.12   0.15  -0.02    -0.01  -0.01   0.00    -0.01   0.03  -0.01
    48   1    -0.19   0.09   0.17     0.01  -0.01  -0.02    -0.03   0.02   0.04
    49   1    -0.10  -0.35   0.04    -0.01   0.06  -0.00     0.01  -0.11   0.02
    50   1     0.20  -0.10  -0.02    -0.06   0.01  -0.00     0.11  -0.02   0.01
    51   1     0.02   0.04  -0.05     0.01   0.04  -0.01    -0.01  -0.08   0.09
                     16                     17                     18
                      A                      A                      A
 Frequencies --    236.2803               254.7227               256.5193
 Red. masses --      3.4682                 1.9069                 4.2121
 Frc consts  --      0.1141                 0.0729                 0.1633
 IR Inten    --      6.6248                 0.7649                 2.1155
  Atom  AN      X      Y      Z        X      Y      Z        X      Y      Z
     1   6     0.03   0.01  -0.08    -0.02   0.00   0.02     0.14  -0.05   0.02
     2   6     0.03   0.03   0.06    -0.01   0.01  -0.01     0.14  -0.06  -0.00
     3   6     0.05   0.04  -0.04    -0.00   0.01   0.02     0.07  -0.10   0.01
     4   6     0.05   0.03  -0.13     0.00   0.01   0.03    -0.00  -0.05   0.01
     5   6     0.05   0.03   0.01     0.00  -0.00  -0.02     0.00   0.01  -0.01
     6   6     0.02   0.02   0.03    -0.01  -0.01  -0.01     0.06   0.04  -0.01
     7   6     0.00   0.01   0.02    -0.01   0.00  -0.00     0.09  -0.04   0.01
     8   1     0.05   0.05  -0.04    -0.00   0.02   0.03     0.06  -0.18   0.02
     9   1     0.06   0.03  -0.22     0.01   0.01   0.05    -0.05  -0.07   0.03
    10   1     0.06   0.02   0.09     0.01  -0.01  -0.04    -0.03   0.03  -0.02
    11   7     0.01   0.03   0.20    -0.01   0.00  -0.04     0.12  -0.03  -0.02
    12   6    -0.01  -0.02  -0.01     0.01  -0.00   0.00    -0.08  -0.00  -0.00
    13   6    -0.01  -0.01   0.02     0.01   0.00  -0.01    -0.06  -0.01   0.00
    14   6    -0.01  -0.01   0.02     0.01  -0.00  -0.01    -0.09  -0.02   0.01
    15   6    -0.00  -0.02  -0.01     0.01  -0.00   0.00    -0.07  -0.00  -0.00
    16   6     0.00  -0.02  -0.04     0.01   0.00   0.00    -0.06  -0.03   0.00
    17   6    -0.00  -0.03  -0.01     0.01   0.00   0.00    -0.07  -0.02   0.00
    18   1    -0.01  -0.00   0.04     0.01  -0.00  -0.01    -0.09  -0.02   0.02
    19   1     0.01  -0.02  -0.04     0.01   0.00   0.01    -0.06  -0.03  -0.00
    20   6    -0.04  -0.06   0.01    -0.01  -0.02   0.00     0.10   0.22  -0.02
    21   1    -0.02  -0.11   0.02    -0.00  -0.03   0.00     0.04   0.39  -0.03
    22   1    -0.04  -0.08   0.02    -0.00  -0.03   0.00     0.07   0.36  -0.03
    23   1    -0.09  -0.04   0.02    -0.03  -0.01  -0.00     0.36   0.14  -0.00
    24   6     0.01  -0.08   0.03     0.01   0.01  -0.00    -0.07  -0.04  -0.01
    25   1    -0.01  -0.02  -0.02     0.01   0.01   0.00    -0.08  -0.06  -0.01
    26   1     0.01  -0.20  -0.00     0.01   0.03   0.00    -0.07  -0.05  -0.01
    27   1     0.06  -0.07   0.14    -0.00   0.01  -0.01    -0.05  -0.05  -0.02
    28   8    -0.01  -0.02  -0.04     0.01  -0.00   0.01    -0.08  -0.00  -0.00
    29   7     0.01  -0.01  -0.17    -0.01   0.01   0.04     0.12  -0.07   0.03
    30   1     0.00  -0.03  -0.26    -0.01   0.01   0.06     0.10  -0.10   0.03
    31   6     0.01   0.04   0.21    -0.01  -0.02  -0.04     0.06   0.13  -0.02
    32   1     0.01   0.06   0.60    -0.01  -0.02  -0.10     0.05   0.13  -0.03
    33   7    -0.00   0.01  -0.11    -0.00  -0.01   0.04     0.01   0.12  -0.01
    34   6    -0.02   0.02   0.03     0.00   0.00   0.05    -0.03   0.04   0.00
    35   6    -0.04  -0.03   0.00    -0.02  -0.12  -0.01    -0.04  -0.03  -0.02
    36   6    -0.02   0.06  -0.00     0.02   0.13  -0.04    -0.04   0.03   0.01
    37   1    -0.01   0.03   0.08     0.02   0.02   0.18    -0.07   0.04   0.04
    38   6    -0.03   0.04  -0.02     0.03   0.12  -0.04    -0.05  -0.01  -0.00
    39   1    -0.10  -0.05  -0.03    -0.19  -0.17  -0.16    -0.06  -0.05  -0.10
    40   1    -0.03  -0.08   0.03     0.06  -0.30   0.06    -0.05  -0.10   0.02
    41   6    -0.04  -0.04  -0.00    -0.03  -0.11  -0.01    -0.06  -0.06   0.00
    42   1     0.07   0.07  -0.04     0.19   0.13  -0.22     0.02   0.03   0.01
    43   1    -0.05   0.13   0.00    -0.06   0.33  -0.02    -0.08   0.04  -0.00
    44   6    -0.04  -0.01   0.01     0.01  -0.00   0.05    -0.09   0.01   0.01
    45   1    -0.05   0.11  -0.01    -0.05   0.34  -0.00    -0.04   0.00   0.01
    46   1     0.02   0.04  -0.09     0.20   0.13  -0.23    -0.02  -0.00   0.01
    47   1     0.00  -0.11   0.02     0.04  -0.30   0.07    -0.02  -0.13   0.03
    48   1    -0.12  -0.06  -0.06    -0.21  -0.17  -0.16    -0.11  -0.08  -0.07
    49   1    -0.04  -0.02   0.00     0.00  -0.04   0.04    -0.08   0.10  -0.00
    50   1    -0.03  -0.00   0.05     0.04   0.01   0.18    -0.18   0.01   0.04
    51   1     0.00   0.05   0.24    -0.01  -0.00  -0.05     0.11  -0.01  -0.02
                     19                     20                     21
                      A                      A                      A
 Frequencies --    294.6358               306.9623               319.3073
 Red. masses --      3.6250                 4.8704                 3.5245
 Frc consts  --      0.1854                 0.2704                 0.2117
 IR Inten    --      3.4760                 3.4858                13.3109
  Atom  AN      X      Y      Z        X      Y      Z        X      Y      Z
     1   6    -0.03   0.03  -0.03     0.00   0.00   0.17     0.00   0.00   0.04
     2   6    -0.03   0.05  -0.02     0.00   0.01   0.16    -0.00   0.00   0.08
     3   6     0.03   0.10  -0.01     0.01   0.01   0.16     0.00  -0.01  -0.16
     4   6     0.06   0.08   0.01     0.01   0.00  -0.10    -0.00   0.00  -0.05
     5   6     0.05   0.05   0.01     0.01  -0.00  -0.15    -0.01   0.01   0.20
     6   6    -0.00   0.03  -0.02     0.00   0.01   0.11    -0.00   0.01   0.10
     7   6    -0.05   0.01   0.03    -0.01  -0.01  -0.22     0.00  -0.00  -0.04
     8   1     0.04   0.15  -0.00     0.00   0.01   0.20     0.01  -0.01  -0.41
     9   1     0.08   0.09   0.03     0.01  -0.00  -0.25    -0.01  -0.00  -0.17
    10   1     0.09   0.02   0.03     0.01  -0.01  -0.34    -0.00   0.01   0.27
    11   7    -0.04   0.04   0.02    -0.00   0.00  -0.14    -0.00   0.00   0.13
    12   6     0.06  -0.11   0.02     0.02  -0.03  -0.10     0.00  -0.01  -0.02
    13   6     0.01  -0.04   0.03     0.01  -0.01  -0.14    -0.00  -0.00  -0.02
    14   6    -0.02  -0.09  -0.03    -0.01   0.01   0.22    -0.01  -0.00   0.04
    15   6    -0.02  -0.11  -0.00     0.00   0.00   0.14    -0.00  -0.00   0.03
    16   6    -0.01  -0.17   0.03     0.02  -0.02  -0.01     0.00  -0.01   0.00
    17   6     0.02  -0.11   0.02     0.02  -0.02  -0.08     0.00  -0.01  -0.02
    18   1     0.00  -0.14  -0.07    -0.04   0.04   0.40    -0.01   0.01   0.08
    19   1    -0.02  -0.17   0.04     0.03  -0.02  -0.04     0.00  -0.01  -0.00
    20   6     0.10   0.03   0.01     0.01  -0.02  -0.06     0.00  -0.00  -0.01
    21   1     0.07   0.12   0.00    -0.07   0.10  -0.11    -0.01   0.03  -0.02
    22   1     0.08   0.14  -0.00     0.11  -0.19  -0.08     0.02  -0.03  -0.02
    23   1     0.27  -0.02   0.04     0.00  -0.02  -0.22     0.01  -0.00  -0.04
    24   6    -0.10   0.21  -0.03    -0.02   0.07   0.03    -0.01   0.01   0.01
    25   1     0.02   0.31   0.01     0.08   0.19   0.05     0.01   0.04   0.01
    26   1    -0.03   0.43   0.00    -0.07   0.03   0.05    -0.02   0.00   0.01
    27   1    -0.40   0.20  -0.13    -0.11   0.07   0.13    -0.03   0.01   0.03
    28   8     0.03  -0.16  -0.02    -0.01  -0.04   0.10    -0.00  -0.01   0.01
    29   7    -0.05   0.02   0.01    -0.01  -0.01  -0.09     0.00  -0.01  -0.17
    30   1    -0.06   0.01   0.02    -0.02  -0.05  -0.14    -0.00  -0.01  -0.10
    31   6    -0.00   0.04   0.00     0.00   0.02   0.08     0.00   0.01  -0.16
    32   1    -0.01   0.05   0.04    -0.00   0.02   0.08     0.00  -0.01  -0.64
    33   7    -0.00   0.04  -0.02     0.00   0.01   0.01    -0.00   0.03   0.19
    34   6    -0.01   0.03   0.00    -0.00   0.01  -0.03    -0.00  -0.00  -0.05
    35   6     0.01   0.00   0.00     0.01   0.00  -0.03     0.01  -0.01  -0.06
    36   6     0.01  -0.00   0.01    -0.01  -0.00  -0.02     0.00  -0.01  -0.05
    37   1    -0.02   0.02   0.00    -0.01   0.01  -0.04    -0.01  -0.00  -0.07
    38   6    -0.00  -0.02   0.01     0.01  -0.01   0.01     0.02   0.00   0.02
    39   1     0.02   0.00  -0.01     0.02   0.00  -0.04     0.01  -0.02  -0.12
    40   1    -0.00  -0.00   0.01     0.02  -0.00  -0.03     0.06  -0.06  -0.06
    41   6     0.01  -0.02  -0.01    -0.01  -0.00   0.00    -0.01  -0.01   0.01
    42   1     0.02   0.00   0.04    -0.00  -0.00  -0.01    -0.01  -0.01  -0.10
    43   1     0.01  -0.02   0.01    -0.03  -0.01  -0.03    -0.04   0.02  -0.07
    44   6    -0.01   0.02  -0.01    -0.01   0.01   0.01     0.00   0.01   0.03
    45   1     0.01  -0.06   0.00     0.03  -0.04   0.01     0.06  -0.02   0.03
    46   1    -0.01  -0.02   0.06    -0.01  -0.01   0.04     0.02   0.00   0.05
    47   1     0.02  -0.05   0.00    -0.03   0.00   0.01    -0.04  -0.02   0.03
    48   1     0.00  -0.03  -0.05    -0.01  -0.00   0.00    -0.02  -0.02   0.01
    49   1    -0.00   0.07  -0.02    -0.01   0.03   0.01     0.01   0.03   0.03
    50   1    -0.07   0.01  -0.01    -0.03   0.00   0.00    -0.02   0.01   0.04
    51   1    -0.05   0.06   0.01    -0.01   0.03  -0.08    -0.00   0.00   0.15
                     22                     23                     24
                      A                      A                      A
 Frequencies --    336.6811               366.5003               377.3280
 Red. masses --      2.2140                 4.4845                 3.8289
 Frc consts  --      0.1479                 0.3549                 0.3212
 IR Inten    --      3.6324                 1.1774                 4.6395
  Atom  AN      X      Y      Z        X      Y      Z        X      Y      Z
     1   6     0.01   0.05  -0.01    -0.02   0.02   0.02    -0.06   0.05  -0.01
     2   6     0.01   0.02   0.00    -0.02   0.01   0.02    -0.05   0.03  -0.01
     3   6    -0.02   0.01   0.01    -0.01   0.02   0.11    -0.02   0.06  -0.02
     4   6    -0.05   0.03  -0.01     0.00   0.01  -0.05     0.00   0.05   0.01
     5   6    -0.04   0.06  -0.01     0.00   0.01  -0.09     0.00   0.04   0.01
     6   6     0.00   0.07   0.01    -0.01   0.01   0.09    -0.03   0.01  -0.02
     7   6     0.05   0.01  -0.01     0.01  -0.00  -0.07     0.04   0.01   0.01
     8   1    -0.03  -0.02   0.02    -0.01   0.04   0.21    -0.02   0.09  -0.03
     9   1    -0.07   0.02  -0.01     0.01   0.01  -0.11     0.01   0.05   0.02
    10   1    -0.06   0.08  -0.02     0.01   0.00  -0.18     0.02   0.03   0.03
    11   7     0.04   0.00  -0.00     0.00  -0.00  -0.10     0.01  -0.01   0.02
    12   6    -0.01  -0.01   0.00     0.00   0.01   0.22     0.05   0.01  -0.08
    13   6     0.00   0.00   0.01     0.01  -0.01   0.15     0.07  -0.03  -0.05
    14   6    -0.03  -0.03   0.02    -0.00  -0.04  -0.03    -0.02  -0.10   0.05
    15   6    -0.04  -0.04   0.01    -0.02  -0.04  -0.10    -0.09  -0.10   0.05
    16   6    -0.03  -0.05  -0.01    -0.02  -0.03  -0.12    -0.10  -0.07   0.02
    17   6    -0.02  -0.03  -0.00    -0.04   0.00   0.21    -0.07  -0.02  -0.10
    18   1    -0.02  -0.05   0.01     0.02  -0.08  -0.15     0.01  -0.17   0.08
    19   1    -0.04  -0.05  -0.02    -0.03  -0.04  -0.36    -0.16  -0.06   0.09
    20   6     0.01   0.03  -0.00     0.02   0.03   0.04     0.06   0.08  -0.02
    21   1    -0.01   0.09  -0.01     0.07  -0.01   0.07    -0.03   0.29  -0.05
    22   1     0.01   0.07  -0.01    -0.07   0.19   0.05     0.07   0.18  -0.05
    23   1     0.10   0.01   0.00     0.10   0.01   0.15     0.31   0.01  -0.05
    24   6    -0.03  -0.03  -0.00    -0.00  -0.05  -0.04    -0.05  -0.15   0.02
    25   1    -0.03  -0.03  -0.00    -0.19  -0.20  -0.11    -0.04  -0.18   0.04
    26   1    -0.03  -0.04  -0.00     0.16   0.02  -0.10    -0.16  -0.30   0.03
    27   1    -0.02  -0.03   0.01     0.06  -0.06  -0.18     0.10  -0.14   0.11
    28   8    -0.01  -0.03  -0.00     0.07   0.06  -0.11     0.16   0.17   0.06
    29   7     0.04   0.05  -0.02     0.00   0.01  -0.11     0.01   0.06   0.01
    30   1     0.07   0.10   0.00     0.01   0.05  -0.00     0.05   0.14   0.02
    31   6     0.01   0.00   0.02    -0.01  -0.02   0.11    -0.05  -0.09  -0.01
    32   1     0.05  -0.03   0.01    -0.00  -0.04  -0.05    -0.01  -0.11   0.03
    33   7    -0.04  -0.03   0.02    -0.01  -0.02   0.15    -0.04  -0.09  -0.02
    34   6    -0.02  -0.11   0.00     0.00   0.00  -0.09    -0.01   0.00   0.02
    35   6    -0.01  -0.06   0.02     0.01   0.03  -0.09     0.02   0.04   0.04
    36   6    -0.02  -0.07  -0.02     0.01  -0.00  -0.10     0.02   0.05  -0.02
    37   1    -0.07  -0.12   0.00     0.03   0.00  -0.13     0.05   0.02   0.03
    38   6     0.03   0.10  -0.05     0.02  -0.02   0.04     0.01  -0.03   0.04
    39   1    -0.13  -0.08   0.04     0.04   0.03  -0.11     0.08   0.06   0.11
    40   1     0.05  -0.09  -0.00     0.07   0.02  -0.12     0.00   0.12   0.00
    41   6     0.02   0.11   0.02    -0.01  -0.02   0.00     0.02  -0.04  -0.04
    42   1    -0.14  -0.09  -0.03     0.04   0.00  -0.15     0.09   0.05  -0.07
    43   1     0.03  -0.10  -0.00    -0.06   0.05  -0.11     0.03   0.12   0.01
    44   6     0.11  -0.07   0.01    -0.00   0.03   0.03     0.02   0.04  -0.01
    45   1    -0.06   0.33  -0.02     0.10  -0.14   0.05     0.02  -0.15   0.00
    46   1     0.14   0.10  -0.29    -0.04  -0.02   0.16    -0.04  -0.03   0.16
    47   1    -0.09   0.32  -0.05    -0.06  -0.04   0.04     0.05  -0.17   0.02
    48   1     0.13   0.16   0.25    -0.02  -0.03  -0.02    -0.05  -0.07  -0.17
    49   1     0.05  -0.35   0.05     0.01   0.09   0.03     0.03   0.12  -0.02
    50   1     0.40  -0.05   0.00    -0.07   0.02   0.04    -0.08   0.04  -0.01
    51   1     0.05  -0.01   0.00     0.01  -0.02  -0.09     0.03  -0.07   0.03
                     25                     26                     27
[...]
 ! A36   A(16,15,20)            -0.0301                  1.8                    !
 ! A37   A(15,16,17)            -0.0571                  3.5                    !
 ! A38   A(15,16,19)             0.0282                  1.7                    !
 ! A39   A(17,16,19)             0.0289                  1.8                    !
 ! A40   A(12,17,16)             0.0275                  1.7                    !
 ! A42   A(16,17,24)            -0.0292                  1.8                    !
 --------------------------------------------------------------------------------
                           ----------------------------
                           ! Normal Mode   142        !
 --------------------------                            --------------------------
 ! Name  Definition              Value          Relative Weight (%)             !
 --------------------------------------------------------------------------------
 ! R9    R(4,9)                  0.0486                  2.7                    !
 ! R11   R(5,10)                -0.1116                  6.2                    !
 ! R20   R(13,14)               -0.0473                  2.6                    !
 ! R21   R(14,15)               -0.0433                  2.4                    !
 ! R22   R(14,18)                1.0713                 59.3                    !
 ! R26   R(16,19)                0.1019                  5.6                    !
 ! A29   A(7,13,14)              0.0295                  1.6                    !
 ! A30   A(12,13,14)            -0.0272                  1.5                    !
 ! A31   A(13,14,15)             0.0563                  3.1                    !
 ! A32   A(13,14,18)            -0.0319                  1.8                    !
 ! A33   A(15,14,18)            -0.0243                  1.3                    !
 ! A34   A(14,15,16)            -0.0297                  1.6                    !
 ! A35   A(14,15,20)             0.0287                  1.6                    !
 --------------------------------------------------------------------------------
                           ----------------------------
                           ! Normal Mode   143        !
 --------------------------                            --------------------------
 ! Name  Definition              Value          Relative Weight (%)             !
 --------------------------------------------------------------------------------
 ! R6    R(3,4)                  0.0154                  0.7                    !
 ! R7    R(3,8)                  0.0852                  4.0                    !
 ! R8    R(4,5)                 -0.0224                  1.1                    !
 ! R9    R(4,9)                 -0.4354                 20.6                    !
 ! R10   R(5,6)                 -0.0415                  2.0                    !
 ! R11   R(5,10)                 0.9791                 46.2                    !
 ! R22   R(14,18)                0.1215                  5.7                    !
 ! R35   R(31,32)               -0.0208                  1.0                    !
 ! A7    A(2,3,4)                0.0149                  0.7                    !
 ! A9    A(4,3,8)               -0.0139                  0.7                    !
 ! A10   A(3,4,5)               -0.0503                  2.4                    !
 ! A12   A(5,4,9)                0.0405                  1.9                    !
 ! A13   A(4,5,6)                0.0628                  3.0                    !
 ! A14   A(4,5,10)              -0.0431                  2.0                    !
 ! A15   A(6,5,10)              -0.0196                  0.9                    !
 ! A16   A(1,6,5)               -0.0246                  1.2                    !
 ! A18   A(5,6,31)               0.0255                  1.2                    !
 --------------------------------------------------------------------------------
                           ----------------------------
                           ! Normal Mode   144        !
 --------------------------                            --------------------------
 ! Name  Definition              Value          Relative Weight (%)             !
 --------------------------------------------------------------------------------
 ! R7    R(3,8)                 -0.334                  15.9                    !
 ! R8    R(4,5)                 -0.0568                  2.7                    !
 ! R9    R(4,9)                  0.9308                 44.4                    !
 ! R11   R(5,10)                 0.4427                 21.1                    !
 ! A7    A(2,3,4)               -0.0418                  2.0                    !
 ! A9    A(4,3,8)                0.0381                  1.8                    !
 ! A10   A(3,4,5)                0.0468                  2.2                    !
 ! A11   A(3,4,9)               -0.0346                  1.7                    !
 --------------------------------------------------------------------------------
                           ----------------------------
                           ! Normal Mode   145        !
 --------------------------                            --------------------------
 ! Name  Definition              Value          Relative Weight (%)             !
 --------------------------------------------------------------------------------
 ! R4    R(2,3)                  0.0478                  2.7                    !
 ! R6    R(3,4)                  0.0618                  3.4                    !
 ! R7    R(3,8)                 -1.0288                 57.3                    !
 ! R9    R(4,9)                 -0.3399                 18.9                    !
 ! R11   R(5,10)                -0.0615                  3.4                    !
 ! A4    A(1,2,3)                0.0259                  1.4                    !
 ! A6    A(3,2,11)              -0.0284                  1.6                    !
 ! A7    A(2,3,4)               -0.0452                  2.5                    !
 ! A8    A(2,3,8)                0.0245                  1.4                    !
 --------------------------------------------------------------------------------
                           ----------------------------
                           ! Normal Mode   146        !
 --------------------------                            --------------------------
 ! Name  Definition              Value          Relative Weight (%)             !
 --------------------------------------------------------------------------------
 ! R3    R(1,29)                -0.0368                  1.9                    !
 ! R5    R(2,11)                 0.0233                  1.2                    !
 ! R13   R(7,11)                 0.02                    1.0                    !
 ! R15   R(7,29)                -0.0417                  2.2                    !
 ! R16   R(11,51)               -0.5136                 26.5                    !
 ! R34   R(29,30)                0.9386                 48.4                    !
 ! A2    A(2,1,29)              -0.0215                  1.1                    !
 ! A3    A(6,1,29)               0.0221                  1.1                    !
 ! A6    A(3,2,11)              -0.0122                  0.6                    !
 ! A19   A(11,7,13)             -0.0131                  0.7                    !
 ! A21   A(13,7,29)              0.0223                  1.1                    !
 ! A22   A(2,11,7)              -0.0234                  1.2                    !
 ! A23   A(2,11,51)              0.03                    1.6                    !
 ! A55   A(1,29,7)               0.0431                  2.2                    !
 ! A57   A(7,29,30)             -0.0533                  2.8                    !
 --------------------------------------------------------------------------------
                           ----------------------------
                           ! Normal Mode   147        !
 --------------------------                            --------------------------
 ! Name  Definition              Value          Relative Weight (%)             !
 --------------------------------------------------------------------------------
 ! R3    R(1,29)                 0.0195                  1.0                    !
 ! R5    R(2,11)                 0.0412                  2.1                    !
 ! R13   R(7,11)                 0.0366                  1.9                    !
 ! R15   R(7,29)                 0.0254                  1.3                    !
 ! R16   R(11,51)               -0.941                  48.5                    !
 ! R34   R(29,30)               -0.5149                 26.5                    !
 ! A2    A(2,1,29)               0.0123                  0.6                    !
 ! A5    A(1,2,11)               0.0214                  1.1                    !
 ! A6    A(3,2,11)              -0.0219                  1.1                    !
 ! A19   A(11,7,13)             -0.0217                  1.1                    !
 ! A20   A(11,7,29)              0.0338                  1.7                    !
 ! A22   A(2,11,7)              -0.0435                  2.2                    !
 ! A23   A(2,11,51)              0.0534                  2.7                    !
 ! A55   A(1,29,7)              -0.024                   1.2                    !
 ! A57   A(7,29,30)              0.029                   1.5                    !
 --------------------------------------------------------------------------------
 -------------------------------------------------------------------
 Center     Atomic                   Forces (Hartrees/Bohr)
 Number     Number              X              Y              Z
 -------------------------------------------------------------------
      1        6           0.000003332    0.000001986   -0.000016376
      2        6           0.000003750    0.000004569   -0.000024165
      3        6           0.000006317    0.000004603   -0.000034499
      4        6           0.000008147    0.000004659   -0.000036313
      5        6           0.000008545    0.000000876   -0.000028160
      6        6           0.000005139    0.000000504   -0.000018132
      7        6          -0.000000267    0.000004097   -0.000009720
      8        1           0.000006559    0.000007164   -0.000040421
      9        1           0.000010553    0.000003482   -0.000043853
     10        1           0.000009559   -0.000000170   -0.000030130
     11        7           0.000000820    0.000006031   -0.000019648
     12        6          -0.000004032    0.000006872   -0.000005331
     13        6          -0.000003225    0.000005863   -0.000002256
     14        6          -0.000005030    0.000002784    0.000007802
     15        6          -0.000007871    0.000004822    0.000015246
     16        6          -0.000008710    0.000005532    0.000011623
     17        6          -0.000007558    0.000007415    0.000001242
     18        1          -0.000005696    0.000002252    0.000010630
     19        1          -0.000010914    0.000006648    0.000017249
     20        6          -0.000011078    0.000002666    0.000025654
     21        1          -0.000006462   -0.000002999    0.000028462
     22        1          -0.000014818    0.000007497    0.000027689
     23        1          -0.000012358    0.000003657    0.000030673
     24        6          -0.000006832    0.000009254   -0.000001848
     25        1          -0.000010290    0.000014926   -0.000007516
     26        1          -0.000002228    0.000004772   -0.000006187
     27        1          -0.000009827    0.000010084    0.000004277
     28        8          -0.000002473    0.000008168   -0.000015384
     29        7           0.000000673    0.000002444   -0.000007503
     30        1          -0.000000383    0.000000588   -0.000000926
     31        6           0.000005207   -0.000002959   -0.000009949
     32        1           0.000006698   -0.000003517   -0.000011849
     33        7           0.000002092   -0.000001476   -0.000000599
     34        6           0.000001493   -0.000005016    0.000007441
     35        6           0.000009180   -0.000012937    0.000008871
     36        6          -0.000002208    0.000000603    0.000006352
     37        1          -0.000000588   -0.000004729    0.000014520
     38        6           0.000008537   -0.000016726    0.000016878
     39        1           0.000011866   -0.000014865    0.000001204
     40        1           0.000012017   -0.000018049    0.000008344
     41        6          -0.000003615   -0.000002481    0.000015102
     42        1          -0.000000009    0.000000317   -0.000000476
     43        1          -0.000007672    0.000006834    0.000006101
     44        6           0.000004513   -0.000011226    0.000016795
     45        1           0.000013837   -0.000022938    0.000017547
     46        1           0.000006113   -0.000016276    0.000024293
     47        1          -0.000005907    0.000002037    0.000015101
     48        1          -0.000005870   -0.000001440    0.000022339
     49        1           0.000003532   -0.000012650    0.000022842
     50        1           0.000006441   -0.000011175    0.000009661
     51        1           0.000001004    0.000007624   -0.000022693
 -------------------------------------------------------------------
 Cartesian Forces:  Max     0.000043853 RMS     0.000012583
 FormGI is forming the generalized inverse of G from B-inverse, IUseBI=4.
 Leave Link  716 at Fri Dec 14 13:07:41 2018, MaxMem=  1342177280 cpu:              12.0 elap:               0.8
 (Enter /gpfs/apps/hpc/Apps/Restricted/Gaussian/Rev_A.03/g16/l9999.exe)

 ----------------------------------------------------------------------

 Electric dipole moment (input orientation):
 (Debye = 10**-18 statcoulomb cm , SI units = C m)
                  (au)            (Debye)         (10**-30 SI)
   Tot        0.155324D+01      0.394795D+01      0.131690D+02
   x         -0.437734D+00     -0.111261D+01     -0.371127D+01
   y          0.127197D+01      0.323304D+01      0.107843D+02
   z          0.776555D+00      0.197381D+01      0.658391D+01

 Dipole polarizability, Alpha (input orientation).
 (esu units = cm**3 , SI units = C**2 m**2 J**-1)
 Alpha(0;0):
               (au)            (10**-24 esu)      (10**-40 SI)
   iso        0.407701D+03      0.604151D+02      0.672208D+02
   aniso      0.363707D+03      0.538959D+02      0.599672D+02
   xx         0.460137D+03      0.681853D+02      0.758664D+02
   yx         0.623798D+01      0.924373D+00      0.102850D+01
   yy         0.585557D+03      0.867706D+02      0.965454D+02
   zx         0.114033D+02      0.168980D+01      0.188015D+01
   zy        -0.147266D+02     -0.218225D+01     -0.242808D+01
   zz         0.177409D+03      0.262892D+02      0.292507D+02

 ----------------------------------------------------------------------

 Dipole orientation:
     6          0.08804226          2.25685197          4.84451109
     6         -2.36687069          2.10018792          5.83897269
     6         -3.02931563          3.36959919          8.05711270
     6         -1.13035012          4.77588457          9.21244054
     6          1.32872524          4.93348101          8.20470170
     6          2.01003087          3.68132239          5.98472365
     6         -2.17949057         -0.20544929          2.29332074
     1         -4.91827734          3.25970696          8.82995818
     1         -1.55566873          5.78567946         10.94081844
     1          2.73981984          6.05770369          9.17412925
     7         -3.69469501          0.56060981          4.19345587
     6         -5.58673960         -2.63320415          0.06744191
     6         -2.93754515         -1.82219809          0.23317304
     6         -1.21500571         -2.59405013         -1.56872836
     6         -1.94268504         -4.16960335         -3.59725361
     6         -4.48640570         -4.94713038         -3.79461537
     6         -6.29853878         -4.24086597         -2.06203952
     1          0.74439374         -2.00864145         -1.44706615
     1         -5.01855314         -6.15379374         -5.36372090
     6         -0.01111529         -5.00678156         -5.48391030
     1          0.91211009         -3.37684106         -6.35984190
     1          1.47530913         -6.09921693         -4.54664534
     1         -0.85382519         -6.16784441         -6.96086884
     6         -8.99123566         -5.06348863         -2.24870098
     1         -9.57928518         -6.02013399         -0.51420522
     1        -10.24173232         -3.43182531         -2.46979007
     1         -9.26303556         -6.33391746         -3.84609464
     8         -7.20410908         -1.98883504          1.67963954
     7          0.12612359          0.81617299          2.67687561
     1          1.74376051          0.68058950          1.63760153
     6          4.53575052          3.82366994          4.87174083
     1          5.90310380          5.00987164          5.87013629
     7          5.05922755          2.60826486          2.84495692
     6          7.62930482          2.81767013          1.81048157
     6          8.19314621          5.50355599          0.85415313
     6          9.67220142          1.95566914          3.68882485
     1          7.69081396          1.54105372          0.18135458
     6         10.82400555          5.62968757         -0.35190651
     1          8.09409112          6.80789587          2.46106375
     1          6.73629562          6.08020401         -0.49446678
     6         12.29836672          2.07038288          2.47314225
     1          9.63474299          3.19871359          5.34577790
     1          9.23947051          0.04652094          4.35235348
     6         12.87461576          4.73289371          1.48648496
     1         11.21852339          7.55441708         -0.99591644
     1         10.84752682          4.42237940         -2.03719721
     1         13.72979675          1.47704677          3.84199619
     1         12.38041797          0.72506002          0.89778452
     1         14.72676043          4.77375729          0.56877175
     1         12.96885241          6.04362863          3.09067508
     1         -5.53920111          0.00476315          4.22179206

 Electric dipole moment (dipole orientation):
 (Debye = 10**-18 statcoulomb cm , SI units = C m)
                  (au)            (Debye)         (10**-30 SI)
   Tot        0.155324D+01      0.394795D+01      0.131690D+02
   x          0.000000D+00      0.000000D+00      0.000000D+00
   y          0.000000D+00      0.000000D+00      0.000000D+00
   z          0.155324D+01      0.394795D+01      0.131690D+02

 Dipole polarizability, Alpha (dipole orientation).
 (esu units = cm**3 , SI units = C**2 m**2 J**-1)
 Alpha(0;0):
               (au)            (10**-24 esu)      (10**-40 SI)
   iso        0.407701D+03      0.604151D+02      0.672208D+02
   aniso      0.363707D+03      0.538959D+02      0.599672D+02
   xx         0.447279D+03      0.662800D+02      0.737464D+02
   yx         0.705449D+02      0.104537D+02      0.116313D+02
   yy         0.320399D+03      0.474782D+02      0.528266D+02
   zx        -0.195034D+02     -0.289010D+01     -0.321567D+01
   zy         0.181671D+03      0.269209D+02      0.299536D+02
   zz         0.455425D+03      0.674871D+02      0.750895D+02

 ----------------------------------------------------------------------

 This type of calculation cannot be archived.


 NOTHING RESEMBLES A NEW PHENOMENON AS MUCH AS A MISTAKE.

                               -- ENRICO FERMI (?)
 Job cpu time:       0 days  0 hours  0 minutes 29.5 seconds.
 Elapsed time:       0 days  0 hours  0 minutes  2.1 seconds.
 File lengths (MBytes):  RWF=     72 Int=      0 D2E=      0 Chk=     52 Scr=      8
 Normal termination of Gaussian 16 at Fri Dec 14 13:07:41 2018.
