 Entering Gaussian System, Link 0=g16
 Initial command:
 /gpfs/apps/hpc/Apps/Restricted/Gaussian/Rev_A.03/g16/l1.exe "/gpfs/scratch60/fas/hammes_schiffer/jg2487/c45n03/Gau-423607.inp" -scrdir="/gpfs/scratch60/fas/hammes_schiffer/jg2487/c45n03/"
 Entering Link 1 = /gpfs/apps/hpc/Apps/Restricted/Gaussian/Rev_A.03/g16/l1.exe PID=    423608.
  
 Copyright (c) 1988,1990,1992,1993,1995,1998,2003,2009,2016,
            Gaussian, Inc.  All Rights Reserved.
  
 This is part of the Gaussian(R) 16 program.  It is based on
 the Gaussian(R) 09 system (copyright 2009, Gaussian, Inc.),
 the Gaussian(R) 03 system (copyright 2003, Gaussian, Inc.),
 the Gaussian(R) 98 system (copyright 1998, Gaussian, Inc.),
 the Gaussian(R) 94 system (copyright 1995, Gaussian, Inc.),
 the Gaussian 92(TM) system (copyright 1992, Gaussian, Inc.),
 the Gaussian 90(TM) system (copyright 1990, Gaussian, Inc.),
 the Gaussian 88(TM) system (copyright 1988, Gaussian, Inc.),
 the Gaussian 86(TM) system (copyright 1986, Carnegie Mellon
 University), and the Gaussian 82(TM) system (copyright 1983,
 Carnegie Mellon University). Gaussian is a federally registered
 trademark of Gaussian, Inc.
  
 This software contains proprietary and confidential information,
 including trade secrets, belonging to Gaussian, Inc.
  
 This software is provided under written license and may be
 used, copied, transmitted, or stored only in accord with that
 written license.
  
 The following legend is applicable only to US Government
 contracts under FAR:
  
                    RESTRICTED RIGHTS LEGEND
  
 Use, reproduction and disclosure by the US Government is
 subject to restrictions as set forth in subparagraphs (a)
 and (c) of the Commercial Computer Software - Restricted
 Rights clause in FAR 52.227-19.
  
 Gaussian, Inc.
 340 Quinnipiac St., Bldg. 40, Wallingford CT 06492
  
  
 ---------------------------------------------------------------
 Warning -- This program may not be used in any manner that
 competes with the business of Gaussian, Inc. or will provide
 assistance to any competitor of Gaussian, Inc.  The licensee
 of this program is prohibited from giving any competitor of
 Gaussian, Inc. access to this program.  By using this program,
 the user acknowledges that Gaussian, Inc. is engaged in the
 business of creating and licensing software in the field of
 computational chemistry and represents and warrants to the
 licensee that it is not a competitor of Gaussian, Inc. and that
 it will not use this program in any manner prohibited above.
 ---------------------------------------------------------------
  

 Cite this work as:
 Gaussian 16, Revision A.03,
 M. J. Frisch, G. W. Trucks, H. B. Schlegel, G. E. Scuseria, 
 M. A. Robb, J. R. Cheeseman, G. Scalmani, V. Barone, 
 G. A. Petersson, H. Nakatsuji, X. Li, M. Caricato, A. V. Marenich, 
 J. Bloino, B. G. Janesko, R. Gomperts, B. Mennucci, H. P. Hratchian, 
 J. V. Ortiz, A. F. Izmaylov, J. L. Sonnenberg, D. Williams-Young, 
 F. Ding, F. Lipparini, F. Egidi, J. Goings, B. Peng, A. Petrone, 
 T. Henderson, D. Ranasinghe, V. G. Zakrzewski, J. Gao, N. Rega, 
 G. Zheng, W. Liang, M. Hada, M. Ehara, K. Toyota, R. Fukuda, 
 J. Hasegawa, M. Ishida, T. Nakajima, Y. Honda, O. Kitao, H. Nakai, 
 T. Vreven, K. Throssell, J. A. Montgomery, Jr., J. E. Peralta, 
 F. Ogliaro, M. J. Bearpark, J. J. Heyd, E. N. Brothers, K. N. Kudin, 
 V. N. Staroverov, T. A. Keith, R. Kobayashi, J. Normand, 
 K. Raghavachari, A. P. Rendell, J. C. Burant, S. S. Iyengar, 
 J. Tomasi, M. Cossi, J. M. Millam, M. Klene, C. Adamo, R. Cammi, 
 J. W. Ochterski, R. L. Martin, K. Morokuma, O. Farkas, 
 J. B. Foresman, and D. J. Fox, Gaussian, Inc., Wallingford CT, 2016.
 
 ******************************************
 Gaussian 16:  ES64L-G16RevA.03 25-Dec-2016
                20-Dec-2018 
 ******************************************
 %chk=cyclohexyl-triBIP-neutral.chk
 %mem=10GB
 %nprocshared=16
 Will use up to   16 processors via shared memory.
 ----------------------------------------------------------------------
 #p opt=tight freq=internalmodes b3lyp/6-31g(d,p) scrf=(cpcm,solvent=di
 chloromethane,read) nosymm empiricaldispersion=gd3bj int=grid=ultrafin
 e
 ----------------------------------------------------------------------
 1/7=10,18=20,19=15,26=6,38=1,40=2/1,3;
 2/9=110,12=2,15=1,17=6,18=5,40=1/2;
 3/5=1,6=6,7=101,11=2,25=1,30=1,70=2103,71=1,72=9,74=-5,75=-5,124=41/1,2,3;
 4//1;
 5/5=2,38=5,53=9/2;
 6/7=2,8=2,9=2,10=2,28=1/1;
 7/30=1/1,2,3,16;
 1/7=10,18=20,19=15,26=6/3(2);
 2/9=110,15=1/2;
 99//99;
 2/9=110,15=1/2;
 3/5=1,6=6,7=101,11=2,25=1,30=1,70=2105,71=1,72=9,74=-5,75=-5,124=41/1,2,3;
 4/5=5,16=3,69=1/1;
 5/5=2,38=5,53=9/2;
 7/30=1/1,2,3,16;
 1/7=10,18=20,19=15,26=6/3(-5);
 2/9=110,15=1/2;
 6/7=2,8=2,9=2,10=2,19=2,28=1/1;
 99/9=1/99;
 Leave Link    1 at Thu Dec 20 18:43:17 2018, MaxMem=  1342177280 cpu:               7.4 elap:               0.5
 (Enter /gpfs/apps/hpc/Apps/Restricted/Gaussian/Rev_A.03/g16/l101.exe)
 -------------------------------------------
 cyclohexylimine triBIP neutral optimization
 -------------------------------------------
 Symbolic Z-matrix:
 Charge =  0 Multiplicity = 1
 C                     1.66843   0.39516   0.9128 
 C                     0.57132   1.23958   0.61999 
 C                     0.77408   2.61691   0.47751 
 C                     2.07147   3.10291   0.63338 
 C                     3.15069   2.25479   0.92895 
 C                     2.97767   0.87214   1.07776 
 C                    -0.20471  -0.77622   0.75715 
 H                    -0.05283   3.2792    0.25237 
 H                     2.25771   4.16482   0.52377 
 H                     4.14187   2.68034   1.03367 
 C                    -2.48283  -1.70798   0.53068 
 C                    -3.42315  -2.76378   0.53265 
 C                    -3.00332  -4.07455   0.77747 
 C                    -1.64527  -4.28577   1.01375 
 C                    -0.71901  -3.23181   1.00891 
 C                    -1.11486  -1.9084    0.7684 
 C                    -4.5155   -0.93183   0.09451 
 H                    -3.71238  -4.8936    0.78254 
 H                    -1.28894  -5.29029   1.20793 
 H                     0.32501  -3.45033   1.19745 
 N                    -0.58454   0.47986   0.53033 
 C                    -6.90675  -0.54294  -0.38797 
 C                    -5.60008  -0.02344  -0.23071 
 C                    -5.38145   1.35668  -0.39646 
 C                    -6.4193    2.22105  -0.71914 
 C                    -7.7075    1.67654  -0.86614 
 C                    -7.9719    0.32033  -0.71025 
 H                    -4.37773   1.75062  -0.27355 
 H                    -8.5341    2.33714  -1.11193 
 C                    -6.17597   3.69332  -0.93558 
 C                    -9.3542   -0.24811  -0.87156 
 O                    -7.1891   -1.85511  -0.23979 
 H                    -6.33453  -2.3244   -0.01804 
 N                    -3.20188  -0.5687    0.25394 
 N                    -4.6788   -2.24662   0.26017 
 H                    -2.76857   0.34566   0.19084 
 N                     1.14605  -0.872     0.9907 
 H                     1.71961  -1.68769   1.17146 
 C                     4.05354  -0.05189   1.39405 
 N                     3.91262  -1.37582   1.43849 
 N                     5.33932   0.33915   1.68259 
 C                     7.41478  -0.96953   2.28676 
 C                     7.83195  -2.29414   2.46441 
 C                     6.9505   -3.37685   2.30013 
 C                     5.61353  -3.18568   1.95383 
 C                     5.16519  -1.87129   1.76957 
 C                     6.06877  -0.7959    1.93116 
 H                     8.86372  -2.48229   2.74165 
 H                     7.32194  -4.38362   2.45043 
 H                     4.93659  -4.02347   1.83719 
 H                     5.7418    1.26587   1.76349 
 C                     8.31639   0.16383   2.4824 
 H                     9.34713  -0.09505   2.73901 
 N                     7.90712   1.37246   2.36871 
 C                     8.83054   2.48807   2.57719 
 C                     10.28114   2.14184   2.93146 
 C                     8.77712   3.40013   1.34011 
 H                     8.40905   3.063     3.41481 
 C                     11.11225   3.41208   3.14522 
 H                     10.71861   1.55274   2.116 
 H                     10.31235   1.51652   3.82913 
 C                     9.61112   4.66863   1.54573 
 H                     9.16181   2.83733   0.48053 
 H                     7.73396   3.64837   1.12229 
 C                     11.05865   4.33322   1.92175 
 H                     12.14782   3.14258   3.3751 
 H                     10.72617   3.95211   4.01891 
 H                     9.5853    5.28442   0.64152 
 H                     9.16158   5.26584   2.34883 
 H                     11.62119   5.25187   2.11598 
 H                     11.54462   3.83287   1.07473 
 C                    -9.40685  -1.26743  -2.02473 
 H                    -9.32252  -2.25808  -1.62924 
 H                    -10.33643  -1.1692   -2.54543 
 H                    -8.59817  -1.08325  -2.70077 
 C                    -6.02768   4.01914  -2.4334 
 H                    -6.99424   4.03637  -2.89205 
 H                    -5.56241   4.9761   -2.54588 
 H                    -5.42336   3.27133  -2.90295 
 C                    -9.79723  -0.99899   0.3979 
 H                    -10.85425  -0.89197   0.52498 
 H                    -9.55269  -2.03628   0.30237 
 H                    -9.29256  -0.59042   1.24836 
 C                    -10.37132   0.87152  -1.16051 
 H                    -10.35464   1.58337  -0.36182 
 H                    -10.11446   1.35868  -2.07789 
 H                    -11.35155   0.45043  -1.24256 
 C                    -7.3465    4.53805  -0.39902 
 H                    -7.04688   5.5633   -0.33582 
 H                    -8.18228   4.4509   -1.06143 
 H                    -7.62362   4.18688   0.57297 
 C                    -4.88492   4.14887  -0.23041 
 H                    -4.88583   3.79439   0.77917 
 H                    -4.03675   3.75102  -0.74735 
 H                    -4.83515   5.2177   -0.23309 
 
 ITRead=  0  0  0  0  0  0  0  0  0  0  0  0  0  0  0  0  0  0  0  0
 ITRead=  0  0  0  0  0  0  0  0  0  0  0  0  0  0  0  0  0  0  0  0
 ITRead=  0  0  0  0  0  0  0  0  0  0  0  0  0  0  0  0  0  0  0  0
 ITRead=  0  0  0  0  0  0  0  0  0  0  0  0  0  0  0  0  0  0  0  0
 ITRead=  0  0  0  0  0  0  0  0  0  0  0  0  0  0  0
 MicOpt= -1 -1 -1 -1 -1 -1 -1 -1 -1 -1 -1 -1 -1 -1 -1 -1 -1 -1 -1 -1
 MicOpt= -1 -1 -1 -1 -1 -1 -1 -1 -1 -1 -1 -1 -1 -1 -1 -1 -1 -1 -1 -1
 MicOpt= -1 -1 -1 -1 -1 -1 -1 -1 -1 -1 -1 -1 -1 -1 -1 -1 -1 -1 -1 -1
 MicOpt= -1 -1 -1 -1 -1 -1 -1 -1 -1 -1 -1 -1 -1 -1 -1 -1 -1 -1 -1 -1
 MicOpt= -1 -1 -1 -1 -1 -1 -1 -1 -1 -1 -1 -1 -1 -1 -1
 NAtoms=     95 NQM=       95 NQMF=       0 NMMI=      0 NMMIF=      0
                NMic=       0 NMicF=      0.
                    Isotopes and Nuclear Properties:
 (Nuclear quadrupole moments (NQMom) in fm**2, nuclear magnetic moments (NMagM)
  in nuclear magnetons)

  Atom         1           2           3           4           5           6           7           8           9          10
 IAtWgt=          12          12          12          12          12          12          12           1           1           1
 AtmWgt=  12.0000000  12.0000000  12.0000000  12.0000000  12.0000000  12.0000000  12.0000000   1.0078250   1.0078250   1.0078250
 NucSpn=           0           0           0           0           0           0           0           1           1           1
 AtZEff=  -0.0000000  -0.0000000  -0.0000000  -0.0000000  -0.0000000  -0.0000000  -0.0000000  -0.0000000  -0.0000000  -0.0000000
 NQMom=    0.0000000   0.0000000   0.0000000   0.0000000   0.0000000   0.0000000   0.0000000   0.0000000   0.0000000   0.0000000
 NMagM=    0.0000000   0.0000000   0.0000000   0.0000000   0.0000000   0.0000000   0.0000000   2.7928460   2.7928460   2.7928460
 AtZNuc=   6.0000000   6.0000000   6.0000000   6.0000000   6.0000000   6.0000000   6.0000000   1.0000000   1.0000000   1.0000000

  Atom        11          12          13          14          15          16          17          18          19          20
 IAtWgt=          12          12          12          12          12          12          12           1           1           1
 AtmWgt=  12.0000000  12.0000000  12.0000000  12.0000000  12.0000000  12.0000000  12.0000000   1.0078250   1.0078250   1.0078250
 NucSpn=           0           0           0           0           0           0           0           1           1           1
 AtZEff=  -0.0000000  -0.0000000  -0.0000000  -0.0000000  -0.0000000  -0.0000000  -0.0000000  -0.0000000  -0.0000000  -0.0000000
 NQMom=    0.0000000   0.0000000   0.0000000   0.0000000   0.0000000   0.0000000   0.0000000   0.0000000   0.0000000   0.0000000
 NMagM=    0.0000000   0.0000000   0.0000000   0.0000000   0.0000000   0.0000000   0.0000000   2.7928460   2.7928460   2.7928460
 AtZNuc=   6.0000000   6.0000000   6.0000000   6.0000000   6.0000000   6.0000000   6.0000000   1.0000000   1.0000000   1.0000000

  Atom        21          22          23          24          25          26          27          28          29          30
 IAtWgt=          14          12          12          12          12          12          12           1           1          12
 AtmWgt=  14.0030740  12.0000000  12.0000000  12.0000000  12.0000000  12.0000000  12.0000000   1.0078250   1.0078250  12.0000000
 NucSpn=           2           0           0           0           0           0           0           1           1           0
 AtZEff=  -0.0000000  -0.0000000  -0.0000000  -0.0000000  -0.0000000  -0.0000000  -0.0000000  -0.0000000  -0.0000000  -0.0000000
 NQMom=    2.0440000   0.0000000   0.0000000   0.0000000   0.0000000   0.0000000   0.0000000   0.0000000   0.0000000   0.0000000
 NMagM=    0.4037610   0.0000000   0.0000000   0.0000000   0.0000000   0.0000000   0.0000000   2.7928460   2.7928460   0.0000000
 AtZNuc=   7.0000000   6.0000000   6.0000000   6.0000000   6.0000000   6.0000000   6.0000000   1.0000000   1.0000000   6.0000000

  Atom        31          32          33          34          35          36          37          38          39          40
 IAtWgt=          12          16           1          14          14           1          14           1          12          14
 AtmWgt=  12.0000000  15.9949146   1.0078250  14.0030740  14.0030740   1.0078250  14.0030740   1.0078250  12.0000000  14.0030740
 NucSpn=           0           0           1           2           2           1           2           1           0           2
 AtZEff=  -0.0000000  -0.0000000  -0.0000000  -0.0000000  -0.0000000  -0.0000000  -0.0000000  -0.0000000  -0.0000000  -0.0000000
 NQMom=    0.0000000   0.0000000   0.0000000   2.0440000   2.0440000   0.0000000   2.0440000   0.0000000   0.0000000   2.0440000
 NMagM=    0.0000000   0.0000000   2.7928460   0.4037610   0.4037610   2.7928460   0.4037610   2.7928460   0.0000000   0.4037610
 AtZNuc=   6.0000000   8.0000000   1.0000000   7.0000000   7.0000000   1.0000000   7.0000000   1.0000000   6.0000000   7.0000000

  Atom        41          42          43          44          45          46          47          48          49          50
 IAtWgt=          14          12          12          12          12          12          12           1           1           1
 AtmWgt=  14.0030740  12.0000000  12.0000000  12.0000000  12.0000000  12.0000000  12.0000000   1.0078250   1.0078250   1.0078250
 NucSpn=           2           0           0           0           0           0           0           1           1           1
 AtZEff=  -0.0000000  -0.0000000  -0.0000000  -0.0000000  -0.0000000  -0.0000000  -0.0000000  -0.0000000  -0.0000000  -0.0000000
 NQMom=    2.0440000   0.0000000   0.0000000   0.0000000   0.0000000   0.0000000   0.0000000   0.0000000   0.0000000   0.0000000
 NMagM=    0.4037610   0.0000000   0.0000000   0.0000000   0.0000000   0.0000000   0.0000000   2.7928460   2.7928460   2.7928460
 AtZNuc=   7.0000000   6.0000000   6.0000000   6.0000000   6.0000000   6.0000000   6.0000000   1.0000000   1.0000000   1.0000000

  Atom        51          52          53          54          55          56          57          58          59          60
 IAtWgt=           1          12           1          14          12          12          12           1          12           1
 AtmWgt=   1.0078250  12.0000000   1.0078250  14.0030740  12.0000000  12.0000000  12.0000000   1.0078250  12.0000000   1.0078250
 NucSpn=           1           0           1           2           0           0           0           1           0           1
 AtZEff=  -0.0000000  -0.0000000  -0.0000000  -0.0000000  -0.0000000  -0.0000000  -0.0000000  -0.0000000  -0.0000000  -0.0000000
 NQMom=    0.0000000   0.0000000   0.0000000   2.0440000   0.0000000   0.0000000   0.0000000   0.0000000   0.0000000   0.0000000
 NMagM=    2.7928460   0.0000000   2.7928460   0.4037610   0.0000000   0.0000000   0.0000000   2.7928460   0.0000000   2.7928460
 AtZNuc=   1.0000000   6.0000000   1.0000000   7.0000000   6.0000000   6.0000000   6.0000000   1.0000000   6.0000000   1.0000000

  Atom        61          62          63          64          65          66          67          68          69          70
 IAtWgt=           1          12           1           1          12           1           1           1           1           1
 AtmWgt=   1.0078250  12.0000000   1.0078250   1.0078250  12.0000000   1.0078250   1.0078250   1.0078250   1.0078250   1.0078250
 NucSpn=           1           0           1           1           0           1           1           1           1           1
 AtZEff=  -0.0000000  -0.0000000  -0.0000000  -0.0000000  -0.0000000  -0.0000000  -0.0000000  -0.0000000  -0.0000000  -0.0000000
 NQMom=    0.0000000   0.0000000   0.0000000   0.0000000   0.0000000   0.0000000   0.0000000   0.0000000   0.0000000   0.0000000
 NMagM=    2.7928460   0.0000000   2.7928460   2.7928460   0.0000000   2.7928460   2.7928460   2.7928460   2.7928460   2.7928460
 AtZNuc=   1.0000000   6.0000000   1.0000000   1.0000000   6.0000000   1.0000000   1.0000000   1.0000000   1.0000000   1.0000000

  Atom        71          72          73          74          75          76          77          78          79          80
 IAtWgt=           1          12           1           1           1          12           1           1           1          12
 AtmWgt=   1.0078250  12.0000000   1.0078250   1.0078250   1.0078250  12.0000000   1.0078250   1.0078250   1.0078250  12.0000000
 NucSpn=           1           0           1           1           1           0           1           1           1           0
 AtZEff=  -0.0000000  -0.0000000  -0.0000000  -0.0000000  -0.0000000  -0.0000000  -0.0000000  -0.0000000  -0.0000000  -0.0000000
 NQMom=    0.0000000   0.0000000   0.0000000   0.0000000   0.0000000   0.0000000   0.0000000   0.0000000   0.0000000   0.0000000
 NMagM=    2.7928460   0.0000000   2.7928460   2.7928460   2.7928460   0.0000000   2.7928460   2.7928460   2.7928460   0.0000000
 AtZNuc=   1.0000000   6.0000000   1.0000000   1.0000000   1.0000000   6.0000000   1.0000000   1.0000000   1.0000000   6.0000000

  Atom        81          82          83          84          85          86          87          88          89          90
 IAtWgt=           1           1           1          12           1           1           1          12           1           1
 AtmWgt=   1.0078250   1.0078250   1.0078250  12.0000000   1.0078250   1.0078250   1.0078250  12.0000000   1.0078250   1.0078250
 NucSpn=           1           1           1           0           1           1           1           0           1           1
 AtZEff=  -0.0000000  -0.0000000  -0.0000000  -0.0000000  -0.0000000  -0.0000000  -0.0000000  -0.0000000  -0.0000000  -0.0000000
 NQMom=    0.0000000   0.0000000   0.0000000   0.0000000   0.0000000   0.0000000   0.0000000   0.0000000   0.0000000   0.0000000
 NMagM=    2.7928460   2.7928460   2.7928460   0.0000000   2.7928460   2.7928460   2.7928460   0.0000000   2.7928460   2.7928460
 AtZNuc=   1.0000000   1.0000000   1.0000000   6.0000000   1.0000000   1.0000000   1.0000000   6.0000000   1.0000000   1.0000000

  Atom        91          92          93          94          95
 IAtWgt=           1          12           1           1           1
 AtmWgt=   1.0078250  12.0000000   1.0078250   1.0078250   1.0078250
 NucSpn=           1           0           1           1           1
 AtZEff=  -0.0000000  -0.0000000  -0.0000000  -0.0000000  -0.0000000
 NQMom=    0.0000000   0.0000000   0.0000000   0.0000000   0.0000000
 NMagM=    2.7928460   0.0000000   2.7928460   2.7928460   2.7928460
 AtZNuc=   1.0000000   6.0000000   1.0000000   1.0000000   1.0000000
 Leave Link  101 at Thu Dec 20 18:43:17 2018, MaxMem=  1342177280 cpu:               4.0 elap:               0.3
 (Enter /gpfs/apps/hpc/Apps/Restricted/Gaussian/Rev_A.03/g16/l103.exe)

 GradGradGradGradGradGradGradGradGradGradGradGradGradGradGradGradGradGrad
 Berny optimization.
 Initialization pass.
                           ----------------------------
                           !    Initial Parameters    !
                           ! (Angstroms and Degrees)  !
 --------------------------                            --------------------------
 ! Name  Definition              Value          Derivative Info.                !
 --------------------------------------------------------------------------------
 ! R1    R(1,2)                  1.4151         estimate D2E/DX2                !
 ! R2    R(1,6)                  1.4031         estimate D2E/DX2                !
 ! R3    R(1,37)                 1.3728         estimate D2E/DX2                !
 ! R4    R(2,3)                  1.3994         estimate D2E/DX2                !
 ! R5    R(2,21)                 1.3861         estimate D2E/DX2                !
 ! R6    R(3,4)                  1.3942         estimate D2E/DX2                !
 ! R7    R(3,8)                  1.0831         estimate D2E/DX2                !
 ! R8    R(4,5)                  1.4041         estimate D2E/DX2                !
 ! R9    R(4,9)                  1.0837         estimate D2E/DX2                !
 ! R10   R(5,6)                  1.4014         estimate D2E/DX2                !
 ! R11   R(5,10)                 1.0837         estimate D2E/DX2                !
 ! R12   R(6,39)                 1.453          estimate D2E/DX2                !
 ! R13   R(7,16)                 1.4527         estimate D2E/DX2                !
 ! R14   R(7,21)                 1.3317         estimate D2E/DX2                !
 ! R15   R(7,37)                 1.3741         estimate D2E/DX2                !
 ! R16   R(11,12)                1.4138         estimate D2E/DX2                !
 ! R17   R(11,16)                1.4029         estimate D2E/DX2                !
 ! R18   R(11,34)                1.3753         estimate D2E/DX2                !
 ! R19   R(12,13)                1.398          estimate D2E/DX2                !
 ! R20   R(12,35)                1.385          estimate D2E/DX2                !
 ! R21   R(13,14)                1.3945         estimate D2E/DX2                !
 ! R22   R(13,18)                1.0833         estimate D2E/DX2                !
 ! R23   R(14,15)                1.4031         estimate D2E/DX2                !
 ! R24   R(14,19)                1.0834         estimate D2E/DX2                !
 ! R25   R(15,16)                1.4021         estimate D2E/DX2                !
 ! R26   R(15,20)                1.0832         estimate D2E/DX2                !
 ! R27   R(17,23)                1.4516         estimate D2E/DX2                !
 ! R28   R(17,34)                1.3722         estimate D2E/DX2                !
 ! R29   R(17,35)                1.3352         estimate D2E/DX2                !
 ! R30   R(22,23)                1.4149         estimate D2E/DX2                !
 ! R31   R(22,27)                1.4084         estimate D2E/DX2                !
 ! R32   R(22,32)                1.3504         estimate D2E/DX2                !
 ! R33   R(23,24)                1.4071         estimate D2E/DX2                !
 ! R34   R(24,25)                1.3887         estimate D2E/DX2                !
 ! R35   R(24,28)                1.0852         estimate D2E/DX2                !
 ! R36   R(25,26)                1.4063         estimate D2E/DX2                !
 ! R37   R(25,30)                1.5079         estimate D2E/DX2                !
 ! R38   R(26,27)                1.3905         estimate D2E/DX2                !
 ! R39   R(26,29)                1.0863         estimate D2E/DX2                !
 ! R40   R(27,31)                1.5033         estimate D2E/DX2                !
 ! R41   R(30,76)                1.54           estimate D2E/DX2                !
 ! R42   R(30,88)                1.54           estimate D2E/DX2                !
 ! R43   R(30,92)                1.54           estimate D2E/DX2                !
 ! R44   R(31,72)                1.54           estimate D2E/DX2                !
 ! R45   R(31,80)                1.54           estimate D2E/DX2                !
 ! R46   R(31,84)                1.54           estimate D2E/DX2                !
 ! R47   R(32,33)                0.9998         estimate D2E/DX2                !
 ! R48   R(34,36)                1.0138         estimate D2E/DX2                !
 ! R49   R(37,38)                1.0134         estimate D2E/DX2                !
 ! R50   R(39,40)                1.3322         estimate D2E/DX2                !
 ! R51   R(39,41)                1.3745         estimate D2E/DX2                !
 ! R52   R(40,46)                1.3871         estimate D2E/DX2                !
 ! R53   R(41,47)                1.3719         estimate D2E/DX2                !
 ! R54   R(41,51)                1.0136         estimate D2E/DX2                !
 ! R55   R(42,43)                1.4001         estimate D2E/DX2                !
 ! R56   R(42,47)                1.403          estimate D2E/DX2                !
 ! R57   R(42,52)                1.4614         estimate D2E/DX2                !
 ! R58   R(43,44)                1.4058         estimate D2E/DX2                !
 ! R59   R(43,48)                1.0848         estimate D2E/DX2                !
 ! R60   R(44,45)                1.3943         estimate D2E/DX2                !
 ! R61   R(44,49)                1.0836         estimate D2E/DX2                !
 ! R62   R(45,46)                1.4009         estimate D2E/DX2                !
 ! R63   R(45,50)                1.0834         estimate D2E/DX2                !
 ! R64   R(46,47)                1.4139         estimate D2E/DX2                !
 ! R65   R(52,53)                1.0933         estimate D2E/DX2                !
 ! R66   R(52,54)                1.2811         estimate D2E/DX2                !
 ! R67   R(54,55)                1.4631         estimate D2E/DX2                !
 ! R68   R(55,56)                1.5329         estimate D2E/DX2                !
 ! R69   R(55,57)                1.5379         estimate D2E/DX2                !
 ! R70   R(55,58)                1.0999         estimate D2E/DX2                !
 ! R71   R(56,59)                1.533          estimate D2E/DX2                !
 ! R72   R(56,60)                1.097          estimate D2E/DX2                !
 ! R73   R(56,61)                1.0944         estimate D2E/DX2                !
 ! R74   R(57,62)                1.532          estimate D2E/DX2                !
 ! R75   R(57,63)                1.0971         estimate D2E/DX2                !
 ! R76   R(57,64)                1.0942         estimate D2E/DX2                !
 ! R77   R(59,65)                1.5324         estimate D2E/DX2                !
 ! R78   R(59,66)                1.0945         estimate D2E/DX2                !
 ! R79   R(59,67)                1.0973         estimate D2E/DX2                !
 ! R80   R(62,65)                1.5327         estimate D2E/DX2                !
 ! R81   R(62,68)                1.0943         estimate D2E/DX2                !
 ! R82   R(62,69)                1.0971         estimate D2E/DX2                !
 ! R83   R(65,70)                1.0946         estimate D2E/DX2                !
 ! R84   R(65,71)                1.0973         estimate D2E/DX2                !
 ! R85   R(72,73)                1.07           estimate D2E/DX2                !
 ! R86   R(72,74)                1.07           estimate D2E/DX2                !
 ! R87   R(72,75)                1.07           estimate D2E/DX2                !
 ! R88   R(76,77)                1.07           estimate D2E/DX2                !
 ! R89   R(76,78)                1.07           estimate D2E/DX2                !
 ! R90   R(76,79)                1.07           estimate D2E/DX2                !
 ! R91   R(80,81)                1.07           estimate D2E/DX2                !
 ! R92   R(80,82)                1.07           estimate D2E/DX2                !
 ! R93   R(80,83)                1.07           estimate D2E/DX2                !
 ! R94   R(84,85)                1.07           estimate D2E/DX2                !
 ! R95   R(84,86)                1.07           estimate D2E/DX2                !
 ! R96   R(84,87)                1.07           estimate D2E/DX2                !
 ! R97   R(88,89)                1.07           estimate D2E/DX2                !
 ! R98   R(88,90)                1.07           estimate D2E/DX2                !
 ! R99   R(88,91)                1.07           estimate D2E/DX2                !
 ! R100  R(92,93)                1.07           estimate D2E/DX2                !
 ! R101  R(92,94)                1.07           estimate D2E/DX2                !
 ! R102  R(92,95)                1.07           estimate D2E/DX2                !
 ! A1    A(2,1,6)              123.0173         estimate D2E/DX2                !
 ! A2    A(2,1,37)             105.5172         estimate D2E/DX2                !
 ! A3    A(6,1,37)             131.4638         estimate D2E/DX2                !
 ! A4    A(1,2,3)              119.7383         estimate D2E/DX2                !
 ! A5    A(1,2,21)             109.4414         estimate D2E/DX2                !
 ! A6    A(3,2,21)             130.8194         estimate D2E/DX2                !
 ! A7    A(2,3,4)              117.8089         estimate D2E/DX2                !
 ! A8    A(2,3,8)              120.8217         estimate D2E/DX2                !
 ! A9    A(4,3,8)              121.3694         estimate D2E/DX2                !
 ! A10   A(3,4,5)              121.8882         estimate D2E/DX2                !
 ! A11   A(3,4,9)              119.3548         estimate D2E/DX2                !
 ! A12   A(5,4,9)              118.7571         estimate D2E/DX2                !
 ! A13   A(4,5,6)              121.5625         estimate D2E/DX2                !
 ! A14   A(4,5,10)             119.0881         estimate D2E/DX2                !
 ! A15   A(6,5,10)             119.3462         estimate D2E/DX2                !
 ! A16   A(1,6,5)              115.9838         estimate D2E/DX2                !
 ! A17   A(1,6,39)             120.0189         estimate D2E/DX2                !
 ! A18   A(5,6,39)             123.9955         estimate D2E/DX2                !
 ! A19   A(16,7,21)            123.898          estimate D2E/DX2                !
 ! A20   A(16,7,37)            124.0713         estimate D2E/DX2                !
 ! A21   A(21,7,37)            112.0282         estimate D2E/DX2                !
 ! A22   A(12,11,16)           122.7939         estimate D2E/DX2                !
 ! A23   A(12,11,34)           105.7327         estimate D2E/DX2                !
 ! A24   A(16,11,34)           131.4722         estimate D2E/DX2                !
 ! A25   A(11,12,13)           120.0459         estimate D2E/DX2                !
 ! A26   A(11,12,35)           108.8959         estimate D2E/DX2                !
 ! A27   A(13,12,35)           131.0566         estimate D2E/DX2                !
 ! A28   A(12,13,14)           117.6549         estimate D2E/DX2                !
 ! A29   A(12,13,18)           120.8734         estimate D2E/DX2                !
 ! A30   A(14,13,18)           121.4718         estimate D2E/DX2                !
 ! A31   A(13,14,15)           121.9046         estimate D2E/DX2                !
 ! A32   A(13,14,19)           119.4127         estimate D2E/DX2                !
 ! A33   A(15,14,19)           118.6827         estimate D2E/DX2                !
 ! A34   A(14,15,16)           121.5465         estimate D2E/DX2                !
 ! A35   A(14,15,20)           118.9558         estimate D2E/DX2                !
 ! A36   A(16,15,20)           119.4976         estimate D2E/DX2                !
 ! A37   A(7,16,11)            119.8867         estimate D2E/DX2                !
 ! A38   A(7,16,15)            124.0593         estimate D2E/DX2                !
 ! A39   A(11,16,15)           116.0538         estimate D2E/DX2                !
 ! A40   A(23,17,34)           125.1476         estimate D2E/DX2                !
 ! A41   A(23,17,35)           123.5466         estimate D2E/DX2                !
 ! A42   A(34,17,35)           111.3006         estimate D2E/DX2                !
 ! A43   A(2,21,7)             105.5519         estimate D2E/DX2                !
 ! A44   A(23,22,27)           119.9204         estimate D2E/DX2                !
 ! A45   A(23,22,32)           122.5254         estimate D2E/DX2                !
 ! A46   A(27,22,32)           117.5542         estimate D2E/DX2                !
 ! A47   A(17,23,22)           119.0205         estimate D2E/DX2                !
 ! A48   A(17,23,24)           121.6052         estimate D2E/DX2                !
 ! A49   A(22,23,24)           119.374          estimate D2E/DX2                !
 ! A50   A(23,24,25)           121.4498         estimate D2E/DX2                !
 ! A51   A(23,24,28)           119.1036         estimate D2E/DX2                !
 ! A52   A(25,24,28)           119.4459         estimate D2E/DX2                !
 ! A53   A(24,25,26)           117.8984         estimate D2E/DX2                !
 ! A54   A(24,25,30)           121.3662         estimate D2E/DX2                !
 ! A55   A(26,25,30)           120.7228         estimate D2E/DX2                !
 ! A56   A(25,26,27)           122.6914         estimate D2E/DX2                !
 ! A57   A(25,26,29)           119.0277         estimate D2E/DX2                !
 ! A58   A(27,26,29)           118.2809         estimate D2E/DX2                !
 ! A59   A(22,27,26)           118.6641         estimate D2E/DX2                !
 ! A60   A(22,27,31)           119.2211         estimate D2E/DX2                !
 ! A61   A(26,27,31)           122.1146         estimate D2E/DX2                !
 ! A62   A(25,30,76)           111.2061         estimate D2E/DX2                !
 ! A63   A(25,30,88)           111.2792         estimate D2E/DX2                !
 ! A64   A(25,30,92)           111.001          estimate D2E/DX2                !
 ! A65   A(76,30,88)           107.2179         estimate D2E/DX2                !
 ! A66   A(76,30,92)           107.5808         estimate D2E/DX2                !
 ! A67   A(88,30,92)           108.3859         estimate D2E/DX2                !
 ! A68   A(27,31,72)           111.2275         estimate D2E/DX2                !
 ! A69   A(27,31,80)           111.1274         estimate D2E/DX2                !
 ! A70   A(27,31,84)           110.642          estimate D2E/DX2                !
 ! A71   A(72,31,80)           106.5409         estimate D2E/DX2                !
 ! A72   A(72,31,84)           108.5505         estimate D2E/DX2                !
 ! A73   A(80,31,84)           108.6114         estimate D2E/DX2                !
 ! A74   A(22,32,33)           107.561          estimate D2E/DX2                !
 ! A75   A(11,34,17)           107.7384         estimate D2E/DX2                !
 ! A76   A(11,34,36)           122.4233         estimate D2E/DX2                !
 ! A77   A(17,34,36)           129.838          estimate D2E/DX2                !
 ! A78   A(12,35,17)           106.3318         estimate D2E/DX2                !
 ! A79   A(1,37,7)             107.461          estimate D2E/DX2                !
 ! A80   A(1,37,38)            122.5275         estimate D2E/DX2                !
 ! A81   A(7,37,38)            129.9982         estimate D2E/DX2                !
 ! A82   A(6,39,40)            124.1206         estimate D2E/DX2                !
 ! A83   A(6,39,41)            123.8755         estimate D2E/DX2                !
 ! A84   A(40,39,41)           112.0039         estimate D2E/DX2                !
 ! A85   A(39,40,46)           105.5119         estimate D2E/DX2                !
 ! A86   A(39,41,47)           107.4596         estimate D2E/DX2                !
 ! A87   A(39,41,51)           130.4135         estimate D2E/DX2                !
 ! A88   A(47,41,51)           122.062          estimate D2E/DX2                !
 ! A89   A(43,42,47)           115.793          estimate D2E/DX2                !
 ! A90   A(43,42,52)           122.2029         estimate D2E/DX2                !
 ! A91   A(47,42,52)           121.9952         estimate D2E/DX2                !
 ! A92   A(42,43,44)           121.8042         estimate D2E/DX2                !
 ! A93   A(42,43,48)           118.6802         estimate D2E/DX2                !
 ! A94   A(44,43,48)           119.5148         estimate D2E/DX2                !
 ! A95   A(43,44,45)           121.6466         estimate D2E/DX2                !
 ! A96   A(43,44,49)           118.9763         estimate D2E/DX2                !
 ! A97   A(45,44,49)           119.3767         estimate D2E/DX2                !
 ! A98   A(44,45,46)           117.9172         estimate D2E/DX2                !
 ! A99   A(44,45,50)           121.3231         estimate D2E/DX2                !
 ! A100  A(46,45,50)           120.758          estimate D2E/DX2                !
 ! A101  A(40,46,45)           130.9594         estimate D2E/DX2                !
 ! A102  A(40,46,47)           109.4324         estimate D2E/DX2                !
 ! A103  A(45,46,47)           119.6078         estimate D2E/DX2                !
 ! A104  A(41,47,42)           131.1795         estimate D2E/DX2                !
 ! A105  A(41,47,46)           105.5906         estimate D2E/DX2                !
 ! A106  A(42,47,46)           123.2277         estimate D2E/DX2                !
 ! A107  A(42,52,53)           115.4318         estimate D2E/DX2                !
 ! A108  A(42,52,54)           121.5128         estimate D2E/DX2                !
 ! A109  A(53,52,54)           123.0526         estimate D2E/DX2                !
 ! A110  A(52,54,55)           120.3368         estimate D2E/DX2                !
 ! A111  A(54,55,56)           117.2559         estimate D2E/DX2                !
 ! A112  A(54,55,57)           108.4004         estimate D2E/DX2                !
 ! A113  A(54,55,58)           105.3798         estimate D2E/DX2                !
 ! A114  A(56,55,57)           110.6551         estimate D2E/DX2                !
 ! A115  A(56,55,58)           107.7405         estimate D2E/DX2                !
 ! A116  A(57,55,58)           106.8145         estimate D2E/DX2                !
 ! A117  A(55,56,59)           110.9855         estimate D2E/DX2                !
 ! A118  A(55,56,60)           109.0797         estimate D2E/DX2                !
 ! A119  A(55,56,61)           110.2188         estimate D2E/DX2                !
 ! A120  A(59,56,60)           109.4165         estimate D2E/DX2                !
 ! A121  A(59,56,61)           110.0971         estimate D2E/DX2                !
 ! A122  A(60,56,61)           106.9482         estimate D2E/DX2                !
 ! A123  A(55,57,62)           111.3577         estimate D2E/DX2                !
 ! A124  A(55,57,63)           108.2915         estimate D2E/DX2                !
 ! A125  A(55,57,64)           109.1352         estimate D2E/DX2                !
 ! A126  A(62,57,63)           109.8187         estimate D2E/DX2                !
 ! A127  A(62,57,64)           110.9694         estimate D2E/DX2                !
 ! A128  A(63,57,64)           107.1392         estimate D2E/DX2                !
 ! A129  A(56,59,65)           111.5798         estimate D2E/DX2                !
 ! A130  A(56,59,66)           109.7692         estimate D2E/DX2                !
 ! A131  A(56,59,67)           109.1523         estimate D2E/DX2                !
 ! A132  A(65,59,66)           110.4143         estimate D2E/DX2                !
 ! A133  A(65,59,67)           109.1211         estimate D2E/DX2                !
 ! A134  A(66,59,67)           106.6701         estimate D2E/DX2                !
 ! A135  A(57,62,65)           111.461          estimate D2E/DX2                !
 ! A136  A(57,62,68)           110.0109         estimate D2E/DX2                !
 ! A137  A(57,62,69)           109.0206         estimate D2E/DX2                !
 ! A138  A(65,62,68)           110.3739         estimate D2E/DX2                !
 ! A139  A(65,62,69)           109.0569         estimate D2E/DX2                !
 ! A140  A(68,62,69)           106.79           estimate D2E/DX2                !
 ! A141  A(59,65,62)           111.1277         estimate D2E/DX2                !
 ! A142  A(59,65,70)           110.1722         estimate D2E/DX2                !
 ! A143  A(59,65,71)           109.0701         estimate D2E/DX2                !
 ! A144  A(62,65,70)           110.1967         estimate D2E/DX2                !
 ! A145  A(62,65,71)           109.1896         estimate D2E/DX2                !
 ! A146  A(70,65,71)           106.9815         estimate D2E/DX2                !
 ! A147  A(31,72,73)           109.4712         estimate D2E/DX2                !
 ! A148  A(31,72,74)           109.4712         estimate D2E/DX2                !
 ! A149  A(31,72,75)           109.4712         estimate D2E/DX2                !
 ! A150  A(73,72,74)           109.4713         estimate D2E/DX2                !
 ! A151  A(73,72,75)           109.4712         estimate D2E/DX2                !
 ! A152  A(74,72,75)           109.4712         estimate D2E/DX2                !
 ! A153  A(30,76,77)           109.4712         estimate D2E/DX2                !
 ! A154  A(30,76,78)           109.4712         estimate D2E/DX2                !
 ! A155  A(30,76,79)           109.4712         estimate D2E/DX2                !
 ! A156  A(77,76,78)           109.4713         estimate D2E/DX2                !
 ! A157  A(77,76,79)           109.4712         estimate D2E/DX2                !
 ! A158  A(78,76,79)           109.4712         estimate D2E/DX2                !
 ! A159  A(31,80,81)           109.4712         estimate D2E/DX2                !
 ! A160  A(31,80,82)           109.4712         estimate D2E/DX2                !
 ! A161  A(31,80,83)           109.4712         estimate D2E/DX2                !
 ! A162  A(81,80,82)           109.4713         estimate D2E/DX2                !
 ! A163  A(81,80,83)           109.4712         estimate D2E/DX2                !
 ! A164  A(82,80,83)           109.4712         estimate D2E/DX2                !
 ! A165  A(31,84,85)           109.4712         estimate D2E/DX2                !
 ! A166  A(31,84,86)           109.4712         estimate D2E/DX2                !
 ! A167  A(31,84,87)           109.4712         estimate D2E/DX2                !
 ! A168  A(85,84,86)           109.4713         estimate D2E/DX2                !
 ! A169  A(85,84,87)           109.4712         estimate D2E/DX2                !
 ! A170  A(86,84,87)           109.4712         estimate D2E/DX2                !
 ! A171  A(30,88,89)           109.4712         estimate D2E/DX2                !
 ! A172  A(30,88,90)           109.4712         estimate D2E/DX2                !
 ! A173  A(30,88,91)           109.4712         estimate D2E/DX2                !
 ! A174  A(89,88,90)           109.4713         estimate D2E/DX2                !
 ! A175  A(89,88,91)           109.4712         estimate D2E/DX2                !
 ! A176  A(90,88,91)           109.4712         estimate D2E/DX2                !
 ! A177  A(30,92,93)           109.4712         estimate D2E/DX2                !
 ! A178  A(30,92,94)           109.4712         estimate D2E/DX2                !
 ! A179  A(30,92,95)           109.4712         estimate D2E/DX2                !
 ! A180  A(93,92,94)           109.4713         estimate D2E/DX2                !
 ! A181  A(93,92,95)           109.4712         estimate D2E/DX2                !
 ! A182  A(94,92,95)           109.4712         estimate D2E/DX2                !
 ! D1    D(6,1,2,3)              0.2796         estimate D2E/DX2                !
 ! D2    D(6,1,2,21)          -179.4041         estimate D2E/DX2                !
 ! D3    D(37,1,2,3)           179.8601         estimate D2E/DX2                !
 ! D4    D(37,1,2,21)            0.1765         estimate D2E/DX2                !
 ! D5    D(2,1,6,5)             -0.2951         estimate D2E/DX2                !
 ! D6    D(2,1,6,39)           179.2325         estimate D2E/DX2                !
 ! D7    D(37,1,6,5)          -179.7557         estimate D2E/DX2                !
 ! D8    D(37,1,6,39)           -0.2282         estimate D2E/DX2                !
 ! D9    D(2,1,37,7)            -0.1747         estimate D2E/DX2                !
 ! D10   D(2,1,37,38)          178.6197         estimate D2E/DX2                !
 ! D11   D(6,1,37,7)           179.3559         estimate D2E/DX2                !
 ! D12   D(6,1,37,38)           -1.8496         estimate D2E/DX2                !
 ! D13   D(1,2,3,4)              0.0026         estimate D2E/DX2                !
 ! D14   D(1,2,3,8)            179.9321         estimate D2E/DX2                !
 ! D15   D(21,2,3,4)           179.6084         estimate D2E/DX2                !
 ! D16   D(21,2,3,8)            -0.4621         estimate D2E/DX2                !
 ! D17   D(1,2,21,7)            -0.1063         estimate D2E/DX2                !
 ! D18   D(3,2,21,7)          -179.7433         estimate D2E/DX2                !
 ! D19   D(2,3,4,5)             -0.2512         estimate D2E/DX2                !
 ! D20   D(2,3,4,9)            179.7155         estimate D2E/DX2                !
 ! D21   D(8,3,4,5)            179.8197         estimate D2E/DX2                !
 ! D22   D(8,3,4,9)             -0.2136         estimate D2E/DX2                !
 ! D23   D(3,4,5,6)              0.2336         estimate D2E/DX2                !
 ! D24   D(3,4,5,10)           179.5752         estimate D2E/DX2                !
 ! D25   D(9,4,5,6)           -179.7333         estimate D2E/DX2                !
 ! D26   D(9,4,5,10)            -0.3917         estimate D2E/DX2                !
 ! D27   D(4,5,6,1)              0.0413         estimate D2E/DX2                !
 ! D28   D(4,5,6,39)          -179.4653         estimate D2E/DX2                !
 ! D29   D(10,5,6,1)          -179.2986         estimate D2E/DX2                !
 ! D30   D(10,5,6,39)            1.1948         estimate D2E/DX2                !
 ! D31   D(1,6,39,40)            5.7187         estimate D2E/DX2                !
 ! D32   D(1,6,39,41)         -174.3112         estimate D2E/DX2                !
 ! D33   D(5,6,39,40)         -174.7935         estimate D2E/DX2                !
 ! D34   D(5,6,39,41)            5.1766         estimate D2E/DX2                !
 ! D35   D(21,7,16,11)          -0.0051         estimate D2E/DX2                !
 ! D36   D(21,7,16,15)        -179.8934         estimate D2E/DX2                !
 ! D37   D(37,7,16,11)         179.3842         estimate D2E/DX2                !
 ! D38   D(37,7,16,15)          -0.5041         estimate D2E/DX2                !
 ! D39   D(16,7,21,2)          179.4481         estimate D2E/DX2                !
 ! D40   D(37,7,21,2)           -0.0062         estimate D2E/DX2                !
 ! D41   D(16,7,37,1)         -179.3347         estimate D2E/DX2                !
 ! D42   D(16,7,37,38)           1.9922         estimate D2E/DX2                !
 ! D43   D(21,7,37,1)            0.1185         estimate D2E/DX2                !
 ! D44   D(21,7,37,38)        -178.5546         estimate D2E/DX2                !
 ! D45   D(16,11,12,13)         -0.0568         estimate D2E/DX2                !
 ! D46   D(16,11,12,35)       -179.6529         estimate D2E/DX2                !
 ! D47   D(34,11,12,13)        179.5818         estimate D2E/DX2                !
 ! D48   D(34,11,12,35)         -0.0143         estimate D2E/DX2                !
 ! D49   D(12,11,16,7)        -179.736          estimate D2E/DX2                !
 ! D50   D(12,11,16,15)          0.161          estimate D2E/DX2                !
 ! D51   D(34,11,16,7)           0.7283         estimate D2E/DX2                !
 ! D52   D(34,11,16,15)       -179.3747         estimate D2E/DX2                !
 ! D53   D(12,11,34,17)         -0.1395         estimate D2E/DX2                !
 ! D54   D(12,11,34,36)       -179.9322         estimate D2E/DX2                !
 ! D55   D(16,11,34,17)        179.4551         estimate D2E/DX2                !
 ! D56   D(16,11,34,36)         -0.3377         estimate D2E/DX2                !
 ! D57   D(11,12,13,14)         -0.0105         estimate D2E/DX2                !
 ! D58   D(11,12,13,18)        179.9742         estimate D2E/DX2                !
 ! D59   D(35,12,13,14)        179.4828         estimate D2E/DX2                !
 ! D60   D(35,12,13,18)         -0.5325         estimate D2E/DX2                !
 ! D61   D(11,12,35,17)          0.1656         estimate D2E/DX2                !
 ! D62   D(13,12,35,17)       -179.3708         estimate D2E/DX2                !
 ! D63   D(12,13,14,15)         -0.0354         estimate D2E/DX2                !
 ! D64   D(12,13,14,19)        179.924          estimate D2E/DX2                !
 ! D65   D(18,13,14,15)        179.9801         estimate D2E/DX2                !
 ! D66   D(18,13,14,19)         -0.0605         estimate D2E/DX2                !
 ! D67   D(13,14,15,16)          0.1501         estimate D2E/DX2                !
 ! D68   D(13,14,15,20)       -179.9481         estimate D2E/DX2                !
 ! D69   D(19,14,15,16)       -179.8096         estimate D2E/DX2                !
 ! D70   D(19,14,15,20)          0.0922         estimate D2E/DX2                !
 ! D71   D(14,15,16,7)         179.6873         estimate D2E/DX2                !
 ! D72   D(14,15,16,11)         -0.2049         estimate D2E/DX2                !
 ! D73   D(20,15,16,7)          -0.214          estimate D2E/DX2                !
 ! D74   D(20,15,16,11)        179.8938         estimate D2E/DX2                !
 ! D75   D(34,17,23,22)        178.9151         estimate D2E/DX2                !
 ! D76   D(34,17,23,24)         -0.8939         estimate D2E/DX2                !
 ! D77   D(35,17,23,22)         -0.1832         estimate D2E/DX2                !
 ! D78   D(35,17,23,24)       -179.9922         estimate D2E/DX2                !
 ! D79   D(23,17,34,11)       -178.9374         estimate D2E/DX2                !
 ! D80   D(23,17,34,36)          0.8347         estimate D2E/DX2                !
 ! D81   D(35,17,34,11)          0.256          estimate D2E/DX2                !
 ! D82   D(35,17,34,36)       -179.9719         estimate D2E/DX2                !
 ! D83   D(23,17,35,12)        178.9491         estimate D2E/DX2                !
 ! D84   D(34,17,35,12)         -0.2596         estimate D2E/DX2                !
 ! D85   D(27,22,23,17)       -179.6765         estimate D2E/DX2                !
 ! D86   D(27,22,23,24)          0.1368         estimate D2E/DX2                !
 ! D87   D(32,22,23,17)          0.3808         estimate D2E/DX2                !
 ! D88   D(32,22,23,24)       -179.8059         estimate D2E/DX2                !
 ! D89   D(23,22,27,26)         -0.0457         estimate D2E/DX2                !
 ! D90   D(23,22,27,31)       -179.9064         estimate D2E/DX2                !
 ! D91   D(32,22,27,26)        179.8998         estimate D2E/DX2                !
 ! D92   D(32,22,27,31)          0.0391         estimate D2E/DX2                !
 ! D93   D(23,22,32,33)         -0.229          estimate D2E/DX2                !
 ! D94   D(27,22,32,33)        179.827          estimate D2E/DX2                !
 ! D95   D(17,23,24,25)        179.4251         estimate D2E/DX2                !
 ! D96   D(17,23,24,28)         -0.2713         estimate D2E/DX2                !
 ! D97   D(22,23,24,25)         -0.3832         estimate D2E/DX2                !
 ! D98   D(22,23,24,28)        179.9203         estimate D2E/DX2                !
 ! D99   D(23,24,25,26)          0.5181         estimate D2E/DX2                !
 ! D100  D(23,24,25,30)       -178.2029         estimate D2E/DX2                !
 ! D101  D(28,24,25,26)       -179.7864         estimate D2E/DX2                !
 ! D102  D(28,24,25,30)          1.4925         estimate D2E/DX2                !
 ! D103  D(24,25,26,27)         -0.429          estimate D2E/DX2                !
 ! D104  D(24,25,26,29)        179.5978         estimate D2E/DX2                !
 ! D105  D(30,25,26,27)        178.3007         estimate D2E/DX2                !
 ! D106  D(30,25,26,29)         -1.6725         estimate D2E/DX2                !
 ! D107  D(24,25,30,76)         97.0319         estimate D2E/DX2                !
 ! D108  D(24,25,30,88)       -143.5059         estimate D2E/DX2                !
 ! D109  D(24,25,30,92)        -22.703          estimate D2E/DX2                !
 ! D110  D(26,25,30,76)        -81.6532         estimate D2E/DX2                !
 ! D111  D(26,25,30,88)         37.8089         estimate D2E/DX2                !
 ! D112  D(26,25,30,92)        158.6119         estimate D2E/DX2                !
 ! D113  D(25,26,27,22)          0.1964         estimate D2E/DX2                !
 ! D114  D(25,26,27,31)       -179.9471         estimate D2E/DX2                !
 ! D115  D(29,26,27,22)       -179.8302         estimate D2E/DX2                !
 ! D116  D(29,26,27,31)          0.0263         estimate D2E/DX2                !
 ! D117  D(22,27,31,72)        -61.734          estimate D2E/DX2                !
 ! D118  D(22,27,31,80)         56.7901         estimate D2E/DX2                !
 ! D119  D(22,27,31,84)        177.533          estimate D2E/DX2                !
 ! D120  D(26,27,31,72)        118.4102         estimate D2E/DX2                !
 ! D121  D(26,27,31,80)       -123.0657         estimate D2E/DX2                !
 ! D122  D(26,27,31,84)         -2.3227         estimate D2E/DX2                !
 ! D123  D(25,30,76,77)         77.5767         estimate D2E/DX2                !
 ! D124  D(25,30,76,78)       -162.4233         estimate D2E/DX2                !
 ! D125  D(25,30,76,79)        -42.4233         estimate D2E/DX2                !
 ! D126  D(88,30,76,77)        -44.2785         estimate D2E/DX2                !
 ! D127  D(88,30,76,78)         75.7215         estimate D2E/DX2                !
 ! D128  D(88,30,76,79)       -164.2785         estimate D2E/DX2                !
 ! D129  D(92,30,76,77)       -160.6752         estimate D2E/DX2                !
 ! D130  D(92,30,76,78)        -40.6752         estimate D2E/DX2                !
 ! D131  D(92,30,76,79)         79.3248         estimate D2E/DX2                !
 ! D132  D(25,30,88,89)        165.697          estimate D2E/DX2                !
 ! D133  D(25,30,88,90)        -74.303          estimate D2E/DX2                !
 ! D134  D(25,30,88,91)         45.697          estimate D2E/DX2                !
 ! D135  D(76,30,88,89)        -72.4936         estimate D2E/DX2                !
 ! D136  D(76,30,88,90)         47.5064         estimate D2E/DX2                !
 ! D137  D(76,30,88,91)        167.5064         estimate D2E/DX2                !
 ! D138  D(92,30,88,89)         43.3703         estimate D2E/DX2                !
 ! D139  D(92,30,88,90)        163.3703         estimate D2E/DX2                !
 ! D140  D(92,30,88,91)        -76.6297         estimate D2E/DX2                !
 ! D141  D(25,30,92,93)        -48.9093         estimate D2E/DX2                !
 ! D142  D(25,30,92,94)         71.0907         estimate D2E/DX2                !
 ! D143  D(25,30,92,95)       -168.9093         estimate D2E/DX2                !
 ! D144  D(76,30,92,93)       -170.785          estimate D2E/DX2                !
 ! D145  D(76,30,92,94)        -50.785          estimate D2E/DX2                !
 ! D146  D(76,30,92,95)         69.215          estimate D2E/DX2                !
 ! D147  D(88,30,92,93)         73.5868         estimate D2E/DX2                !
 ! D148  D(88,30,92,94)       -166.4131         estimate D2E/DX2                !
 ! D149  D(88,30,92,95)        -46.4131         estimate D2E/DX2                !
 ! D150  D(27,31,72,73)         97.668          estimate D2E/DX2                !
 ! D151  D(27,31,72,74)       -142.332          estimate D2E/DX2                !
 ! D152  D(27,31,72,75)        -22.332          estimate D2E/DX2                !
 ! D153  D(80,31,72,73)        -23.5792         estimate D2E/DX2                !
 ! D154  D(80,31,72,74)         96.4208         estimate D2E/DX2                !
 ! D155  D(80,31,72,75)       -143.5792         estimate D2E/DX2                !
 ! D156  D(84,31,72,73)       -140.3764         estimate D2E/DX2                !
 ! D157  D(84,31,72,74)        -20.3764         estimate D2E/DX2                !
 ! D158  D(84,31,72,75)         99.6236         estimate D2E/DX2                !
 ! D159  D(27,31,80,81)        147.0108         estimate D2E/DX2                !
 ! D160  D(27,31,80,82)        -92.9892         estimate D2E/DX2                !
 ! D161  D(27,31,80,83)         27.0108         estimate D2E/DX2                !
 ! D162  D(72,31,80,81)        -91.6781         estimate D2E/DX2                !
 ! D163  D(72,31,80,82)         28.3219         estimate D2E/DX2                !
 ! D164  D(72,31,80,83)        148.3219         estimate D2E/DX2                !
 ! D165  D(84,31,80,81)         25.0785         estimate D2E/DX2                !
 ! D166  D(84,31,80,82)        145.0786         estimate D2E/DX2                !
 ! D167  D(84,31,80,83)        -94.9214         estimate D2E/DX2                !
 ! D168  D(27,31,84,85)        -58.3088         estimate D2E/DX2                !
 ! D169  D(27,31,84,86)         61.6912         estimate D2E/DX2                !
 ! D170  D(27,31,84,87)       -178.3088         estimate D2E/DX2                !
 ! D171  D(72,31,84,85)        179.3791         estimate D2E/DX2                !
 ! D172  D(72,31,84,86)        -60.6209         estimate D2E/DX2                !
 ! D173  D(72,31,84,87)         59.3791         estimate D2E/DX2                !
 ! D174  D(80,31,84,85)         63.919          estimate D2E/DX2                !
 ! D175  D(80,31,84,86)       -176.081          estimate D2E/DX2                !
 ! D176  D(80,31,84,87)        -56.081          estimate D2E/DX2                !
 ! D177  D(6,39,40,46)         179.8887         estimate D2E/DX2                !
 ! D178  D(41,39,40,46)         -0.0845         estimate D2E/DX2                !
 ! D179  D(6,39,41,47)         179.8432         estimate D2E/DX2                !
 ! D180  D(6,39,41,51)           2.7892         estimate D2E/DX2                !
 ! D181  D(40,39,41,47)         -0.1835         estimate D2E/DX2                !
 ! D182  D(40,39,41,51)       -177.2375         estimate D2E/DX2                !
 ! D183  D(39,40,46,45)       -179.9176         estimate D2E/DX2                !
 ! D184  D(39,40,46,47)          0.3162         estimate D2E/DX2                !
 ! D185  D(39,41,47,42)       -179.1014         estimate D2E/DX2                !
 ! D186  D(39,41,47,46)          0.3633         estimate D2E/DX2                !
 ! D187  D(51,41,47,42)         -1.748          estimate D2E/DX2                !
 ! D188  D(51,41,47,46)        177.7167         estimate D2E/DX2                !
 ! D189  D(47,42,43,44)         -0.2364         estimate D2E/DX2                !
 ! D190  D(47,42,43,48)       -179.8986         estimate D2E/DX2                !
 ! D191  D(52,42,43,44)        178.6984         estimate D2E/DX2                !
 ! D192  D(52,42,43,48)         -0.9638         estimate D2E/DX2                !
 ! D193  D(43,42,47,41)       -179.9666         estimate D2E/DX2                !
 ! D194  D(43,42,47,46)          0.6498         estimate D2E/DX2                !
 ! D195  D(52,42,47,41)          1.0961         estimate D2E/DX2                !
 ! D196  D(52,42,47,46)       -178.2874         estimate D2E/DX2                !
 ! D197  D(43,42,52,53)          2.2525         estimate D2E/DX2                !
 ! D198  D(43,42,52,54)       -177.1542         estimate D2E/DX2                !
 ! D199  D(47,42,52,53)       -178.8784         estimate D2E/DX2                !
 ! D200  D(47,42,52,54)          1.715          estimate D2E/DX2                !
 ! D201  D(42,43,44,45)         -0.1204         estimate D2E/DX2                !
 ! D202  D(42,43,44,49)       -179.9115         estimate D2E/DX2                !
 ! D203  D(48,43,44,45)        179.539          estimate D2E/DX2                !
 ! D204  D(48,43,44,49)         -0.2521         estimate D2E/DX2                !
 ! D205  D(43,44,45,46)          0.0849         estimate D2E/DX2                !
 ! D206  D(43,44,45,50)       -179.4493         estimate D2E/DX2                !
 ! D207  D(49,44,45,46)        179.8752         estimate D2E/DX2                !
 ! D208  D(49,44,45,50)          0.341          estimate D2E/DX2                !
 ! D209  D(44,45,46,40)       -179.4388         estimate D2E/DX2                !
 ! D210  D(44,45,46,47)          0.3076         estimate D2E/DX2                !
 ! D211  D(50,45,46,40)          0.0982         estimate D2E/DX2                !
 ! D212  D(50,45,46,47)        179.8446         estimate D2E/DX2                !
 ! D213  D(40,46,47,41)         -0.426          estimate D2E/DX2                !
 ! D214  D(40,46,47,42)        179.0924         estimate D2E/DX2                !
 ! D215  D(45,46,47,41)        179.7771         estimate D2E/DX2                !
 ! D216  D(45,46,47,42)         -0.7045         estimate D2E/DX2                !
 ! D217  D(42,52,54,55)        179.6706         estimate D2E/DX2                !
 ! D218  D(53,52,54,55)          0.3099         estimate D2E/DX2                !
 ! D219  D(52,54,55,56)         -0.0217         estimate D2E/DX2                !
 ! D220  D(52,54,55,57)        126.1037         estimate D2E/DX2                !
 ! D221  D(52,54,55,58)       -119.8366         estimate D2E/DX2                !
 ! D222  D(54,55,56,59)       -178.8517         estimate D2E/DX2                !
 ! D223  D(54,55,56,60)         60.5233         estimate D2E/DX2                !
 ! D224  D(54,55,56,61)        -56.6121         estimate D2E/DX2                !
 ! D225  D(57,55,56,59)         56.1413         estimate D2E/DX2                !
 ! D226  D(57,55,56,60)        -64.4837         estimate D2E/DX2                !
 ! D227  D(57,55,56,61)        178.3809         estimate D2E/DX2                !
 ! D228  D(58,55,56,59)        -60.2937         estimate D2E/DX2                !
 ! D229  D(58,55,56,60)        179.0813         estimate D2E/DX2                !
 ! D230  D(58,55,56,61)         61.9459         estimate D2E/DX2                !
 ! D231  D(54,55,57,62)        174.1444         estimate D2E/DX2                !
 ! D232  D(54,55,57,63)        -65.0131         estimate D2E/DX2                !
 ! D233  D(54,55,57,64)         51.2965         estimate D2E/DX2                !
 ! D234  D(56,55,57,62)        -55.9741         estimate D2E/DX2                !
 ! D235  D(56,55,57,63)         64.8684         estimate D2E/DX2                !
 ! D236  D(56,55,57,64)       -178.822          estimate D2E/DX2                !
 ! D237  D(58,55,57,62)         61.0331         estimate D2E/DX2                !
 ! D238  D(58,55,57,63)       -178.1244         estimate D2E/DX2                !
 ! D239  D(58,55,57,64)        -61.8149         estimate D2E/DX2                !
 ! D240  D(55,56,59,65)        -56.0303         estimate D2E/DX2                !
 ! D241  D(55,56,59,66)       -178.7648         estimate D2E/DX2                !
 ! D242  D(55,56,59,67)         64.651          estimate D2E/DX2                !
 ! D243  D(60,56,59,65)         64.3952         estimate D2E/DX2                !
 ! D244  D(60,56,59,66)        -58.3392         estimate D2E/DX2                !
 ! D245  D(60,56,59,67)       -174.9235         estimate D2E/DX2                !
 ! D246  D(61,56,59,65)       -178.3406         estimate D2E/DX2                !
 ! D247  D(61,56,59,66)         58.925          estimate D2E/DX2                !
 ! D248  D(61,56,59,67)        -57.6593         estimate D2E/DX2                !
 ! D249  D(55,57,62,65)         55.3203         estimate D2E/DX2                !
 ! D250  D(55,57,62,68)        178.0915         estimate D2E/DX2                !
 ! D251  D(55,57,62,69)        -65.1183         estimate D2E/DX2                !
 ! D252  D(63,57,62,65)        -64.6228         estimate D2E/DX2                !
 ! D253  D(63,57,62,68)         58.1484         estimate D2E/DX2                !
 ! D254  D(63,57,62,69)        174.9386         estimate D2E/DX2                !
 ! D255  D(64,57,62,65)        177.11           estimate D2E/DX2                !
 ! D256  D(64,57,62,68)        -60.1188         estimate D2E/DX2                !
 ! D257  D(64,57,62,69)         56.6714         estimate D2E/DX2                !
 ! D258  D(56,59,65,62)         55.0034         estimate D2E/DX2                !
 ! D259  D(56,59,65,70)        177.4337         estimate D2E/DX2                !
 ! D260  D(56,59,65,71)        -65.4229         estimate D2E/DX2                !
 ! D261  D(66,59,65,62)        177.3681         estimate D2E/DX2                !
 ! D262  D(66,59,65,70)        -60.2015         estimate D2E/DX2                !
 ! D263  D(66,59,65,71)         56.9418         estimate D2E/DX2                !
 ! D264  D(67,59,65,62)        -65.6961         estimate D2E/DX2                !
 ! D265  D(67,59,65,70)         56.7342         estimate D2E/DX2                !
 ! D266  D(67,59,65,71)        173.8775         estimate D2E/DX2                !
 ! D267  D(57,62,65,59)        -54.5578         estimate D2E/DX2                !
 ! D268  D(57,62,65,70)       -176.9739         estimate D2E/DX2                !
 ! D269  D(57,62,65,71)         65.7979         estimate D2E/DX2                !
 ! D270  D(68,62,65,59)       -177.1208         estimate D2E/DX2                !
 ! D271  D(68,62,65,70)         60.463          estimate D2E/DX2                !
 ! D272  D(68,62,65,71)        -56.7651         estimate D2E/DX2                !
 ! D273  D(69,62,65,59)         65.8595         estimate D2E/DX2                !
 ! D274  D(69,62,65,70)        -56.5567         estimate D2E/DX2                !
 ! D275  D(69,62,65,71)       -173.7848         estimate D2E/DX2                !
 --------------------------------------------------------------------------------
 Trust Radius=3.00D-01 FncErr=5.00D-06 GrdErr=5.00D-06 EigMax=2.50D+02 EigMin=1.00D-04
 Number of steps in this run=    569 maximum allowed number of steps=    570.
 GradGradGradGradGradGradGradGradGradGradGradGradGradGradGradGradGradGrad

 Leave Link  103 at Thu Dec 20 18:43:17 2018, MaxMem=  1342177280 cpu:               0.5 elap:               0.1
 (Enter /gpfs/apps/hpc/Apps/Restricted/Gaussian/Rev_A.03/g16/l202.exe)
 Symmetry turned off by external request.
 Stoichiometry    C42H45N7O
 Framework group  C1[X(C42H45N7O)]
 Deg. of freedom   279
 Full point group                 C1      NOp   1
                          Input orientation:                          
 ---------------------------------------------------------------------
 Center     Atomic      Atomic             Coordinates (Angstroms)
 Number     Number       Type             X           Y           Z
 ---------------------------------------------------------------------
      1          6           0        1.668431    0.395162    0.912804
      2          6           0        0.571321    1.239577    0.619988
      3          6           0        0.774077    2.616911    0.477506
      4          6           0        2.071466    3.102905    0.633382
      5          6           0        3.150694    2.254794    0.928949
      6          6           0        2.977671    0.872139    1.077755
      7          6           0       -0.204706   -0.776220    0.757147
      8          1           0       -0.052826    3.279200    0.252368
      9          1           0        2.257714    4.164816    0.523769
     10          1           0        4.141874    2.680341    1.033665
     11          6           0       -2.482827   -1.707977    0.530677
     12          6           0       -3.423146   -2.763777    0.532646
     13          6           0       -3.003315   -4.074546    0.777473
     14          6           0       -1.645268   -4.285766    1.013748
     15          6           0       -0.719010   -3.231812    1.008910
     16          6           0       -1.114865   -1.908399    0.768401
     17          6           0       -4.515498   -0.931830    0.094513
     18          1           0       -3.712377   -4.893601    0.782544
     19          1           0       -1.288942   -5.290286    1.207926
     20          1           0        0.325006   -3.450330    1.197451
     21          7           0       -0.584541    0.479856    0.530333
     22          6           0       -6.906754   -0.542940   -0.387970
     23          6           0       -5.600083   -0.023436   -0.230714
     24          6           0       -5.381455    1.356684   -0.396456
     25          6           0       -6.419296    2.221048   -0.719140
     26          6           0       -7.707503    1.676538   -0.866139
     27          6           0       -7.971898    0.320333   -0.710248
     28          1           0       -4.377731    1.750624   -0.273545
     29          1           0       -8.534102    2.337137   -1.111926
     30          6           0       -6.175969    3.693322   -0.935579
     31          6           0       -9.354196   -0.248112   -0.871558
     32          8           0       -7.189099   -1.855111   -0.239789
     33          1           0       -6.334531   -2.324404   -0.018035
     34          7           0       -3.201881   -0.568703    0.253936
     35          7           0       -4.678802   -2.246624    0.260168
     36          1           0       -2.768570    0.345659    0.190840
     37          7           0        1.146050   -0.872004    0.990696
     38          1           0        1.719612   -1.687690    1.171462
     39          6           0        4.053538   -0.051885    1.394051
     40          7           0        3.912624   -1.375816    1.438489
     41          7           0        5.339318    0.339145    1.682586
     42          6           0        7.414779   -0.969531    2.286755
     43          6           0        7.831952   -2.294138    2.464406
     44          6           0        6.950499   -3.376848    2.300130
     45          6           0        5.613529   -3.185675    1.953831
     46          6           0        5.165190   -1.871286    1.769572
     47          6           0        6.068770   -0.795897    1.931160
     48          1           0        8.863722   -2.482288    2.741647
     49          1           0        7.321938   -4.383623    2.450431
     50          1           0        4.936593   -4.023469    1.837189
     51          1           0        5.741803    1.265872    1.763487
     52          6           0        8.316386    0.163831    2.482395
     53          1           0        9.347130   -0.095046    2.739010
     54          7           0        7.907119    1.372460    2.368706
     55          6           0        8.830539    2.488074    2.577191
     56          6           0       10.281141    2.141839    2.931464
     57          6           0        8.777125    3.400129    1.340111
     58          1           0        8.409047    3.063005    3.414805
     59          6           0       11.112250    3.412082    3.145222
     60          1           0       10.718608    1.552736    2.116003
     61          1           0       10.312347    1.516519    3.829130
     62          6           0        9.611121    4.668627    1.545734
     63          1           0        9.161806    2.837334    0.480528
     64          1           0        7.733962    3.648374    1.122287
     65          6           0       11.058647    4.333217    1.921752
     66          1           0       12.147818    3.142583    3.375104
     67          1           0       10.726173    3.952112    4.018905
     68          1           0        9.585300    5.284416    0.641521
     69          1           0        9.161577    5.265841    2.348834
     70          1           0       11.621193    5.251868    2.115981
     71          1           0       11.544623    3.832870    1.074734
     72          6           0       -9.406846   -1.267433   -2.024733
     73          1           0       -9.322517   -2.258075   -1.629237
     74          1           0      -10.336431   -1.169204   -2.545427
     75          1           0       -8.598171   -1.083250   -2.700767
     76          6           0       -6.027681    4.019139   -2.433395
     77          1           0       -6.994242    4.036369   -2.892051
     78          1           0       -5.562410    4.976097   -2.545878
     79          1           0       -5.423362    3.271329   -2.902948
     80          6           0       -9.797226   -0.998985    0.397896
     81          1           0      -10.854248   -0.891966    0.524984
     82          1           0       -9.552687   -2.036278    0.302366
     83          1           0       -9.292562   -0.590423    1.248361
     84          6           0      -10.371318    0.871518   -1.160506
     85          1           0      -10.354642    1.583366   -0.361824
     86          1           0      -10.114465    1.358679   -2.077894
     87          1           0      -11.351550    0.450433   -1.242564
     88          6           0       -7.346497    4.538054   -0.399023
     89          1           0       -7.046881    5.563303   -0.335816
     90          1           0       -8.182276    4.450901   -1.061426
     91          1           0       -7.623622    4.186881    0.572975
     92          6           0       -4.884916    4.148865   -0.230410
     93          1           0       -4.885827    3.794388    0.779166
     94          1           0       -4.036746    3.751018   -0.747349
     95          1           0       -4.835145    5.217704   -0.233093
 ---------------------------------------------------------------------
 Rotational constants (GHZ):           0.1247659           0.0176197           0.0155797
 Leave Link  202 at Thu Dec 20 18:43:17 2018, MaxMem=  1342177280 cpu:               0.2 elap:               0.0
 (Enter /gpfs/apps/hpc/Apps/Restricted/Gaussian/Rev_A.03/g16/l301.exe)
 Standard basis: 6-31G(d,p) (6D, 7F)
 Ernie: Thresh=  0.10000D-02 Tol=  0.10000D-05 Strict=F.
   975 basis functions,  1715 primitive gaussians,   975 cartesian basis functions
   177 alpha electrons      177 beta electrons
       nuclear repulsion energy      5761.7318654813 Hartrees.
 IExCor=  402 DFT=T Ex+Corr=B3LYP ExCW=0 ScaHFX=  0.200000
 ScaDFX=  0.800000  0.720000  1.000000  0.810000 ScalE2=  1.000000  1.000000
 IRadAn=      5 IRanWt=     -1 IRanGd=            0 ICorTp=0 IEmpDi=141
 NAtoms=   95 NActive=   95 NUniq=   95 SFac= 1.00D+00 NAtFMM=   60 NAOKFM=T Big=T
 Integral buffers will be    131072 words long.
 Raffenetti 2 integral format.
 Two-electron integral symmetry is turned off.
 R6Disp:  Grimme-D3(BJ) Dispersion energy=       -0.2217768494 Hartrees.
 Nuclear repulsion after empirical dispersion term =     5761.5100886318 Hartrees.
 Using the following non-standard input for PCM:
 radii=bondi
 dis
 rep
 cav
 --- end of non-standard input.
 ------------------------------------------------------------------------------
 Polarizable Continuum Model (PCM)
 =================================
 Model                : C-PCM.
 Atomic radii         : Bondi.
 Polarization charges : Total charges.
 Charge compensation  : None.
 Solution method      : On-the-fly selection.
 Cavity type          : Scaled VdW (van der Waals Surface) (Alpha=1.100).
 Cavity algorithm     : GePol (No added spheres)
                        Default sphere list used, NSphG=   95.
                        Lebedev-Laikov grids with approx.  5.0 points / Ang**2.
                        Smoothing algorithm: York/Karplus (Gamma=1.0000).
                        Polarization charges: spherical gaussians, with
                                              point-specific exponents (IZeta= 3).
                        Self-potential: point-specific (ISelfS= 7).
                        Self-field    : sphere-specific E.n sum rule (ISelfD= 2).
 1st derivatives      : Analytical E(r).r(x)/FMM algorithm (CHGder, D1EAlg=3).
                        Cavity 1st derivative terms included.
 Solvent              : Dichloromethane, Eps=   8.930000 Eps(inf)=   2.028346
 ------------------------------------------------------------------------------
 GePol: Number of generator spheres                  =      95
 GePol: Total number of spheres                      =      95
 GePol: Number of exposed spheres                    =      95 (100.00%)
 GePol: Number of points                             =    6141
 GePol: Average weight of points                     =       0.12
 GePol: Minimum weight of points                     =   0.26D-11
 GePol: Maximum weight of points                     =    0.21770
 GePol: Number of points with low weight             =     411
 GePol: Fraction of low-weight points (<1% of avg)   =       6.69%
 GePol: Cavity surface area                          =    726.375 Ang**2
 GePol: Cavity volume                                =    718.912 Ang**3
 PCM non-electrostatic energy =         0.0302683589 Hartrees.
 Nuclear repulsion after PCM non-electrostatic terms =     5761.5403569907 Hartrees.
 Leave Link  301 at Thu Dec 20 18:43:17 2018, MaxMem=  1342177280 cpu:               4.6 elap:               0.3
 (Enter /gpfs/apps/hpc/Apps/Restricted/Gaussian/Rev_A.03/g16/l302.exe)
 NPDir=0 NMtPBC=     1 NCelOv=     1 NCel=       1 NClECP=     1 NCelD=      1
         NCelK=      1 NCelE2=     1 NClLst=     1 CellRange=     0.0.
 One-electron integrals computed using PRISM.
 NBasis=   975 RedAO= T EigKep=  2.72D-04  NBF=   975
 NBsUse=   975 1.00D-06 EigRej= -1.00D+00 NBFU=   975
 Precomputing XC quadrature grid using
 IXCGrd= 4 IRadAn=           5 IRanWt=          -1 IRanGd=           0 AccXCQ= 0.00D+00.
 Generated NRdTot=       0 NPtTot=           0 NUsed=           0 NTot=          32
 NSgBfM=   840   837   839   839   840 MxSgAt=    95 MxSgA2=    95.
 Leave Link  302 at Thu Dec 20 18:43:20 2018, MaxMem=  1342177280 cpu:              35.8 elap:               2.3
 (Enter /gpfs/apps/hpc/Apps/Restricted/Gaussian/Rev_A.03/g16/l303.exe)
 DipDrv:  MaxL=1.
 Leave Link  303 at Thu Dec 20 18:43:20 2018, MaxMem=  1342177280 cpu:               1.4 elap:               0.1
 (Enter /gpfs/apps/hpc/Apps/Restricted/Gaussian/Rev_A.03/g16/l401.exe)
 ExpMin= 1.61D-01 ExpMax= 5.48D+03 ExpMxC= 8.25D+02 IAcc=3 IRadAn=         5 AccDes= 0.00D+00
 Harris functional with IExCor=  402 and IRadAn=       5 diagonalized for initial guess.
[...]
   D271       1.05330  -0.00000  -0.00046   0.00332   0.00286   1.05617
   D272      -0.99425   0.00007  -0.00037   0.00442   0.00405  -0.99020
   D273       1.14563  -0.00003  -0.00067   0.00464   0.00397   1.14961
   D274      -0.99118  -0.00005  -0.00042   0.00349   0.00307  -0.98812
   D275      -3.03874   0.00002  -0.00032   0.00458   0.00425  -3.03449
         Item               Value     Threshold  Converged?
 Maximum Force            0.003575     0.000015     NO 
 RMS     Force            0.000405     0.000010     NO 
 Maximum Displacement     0.305735     0.000060     NO 
 RMS     Displacement     0.060603     0.000040     NO 
 Predicted change in Energy=-2.555731D-04
 Lowest energy point so far.  Saving SCF results.
 GradGradGradGradGradGradGradGradGradGradGradGradGradGradGradGradGradGrad

 Leave Link  103 at Thu Dec 20 19:13:37 2018, MaxMem=  1342177280 cpu:               5.8 elap:               0.4
 (Enter /gpfs/apps/hpc/Apps/Restricted/Gaussian/Rev_A.03/g16/l202.exe)
 Symmetry turned off by external request.
 Stoichiometry    C42H45N7O
 Framework group  C1[X(C42H45N7O)]
 Deg. of freedom   279
 Full point group                 C1      NOp   1
                          Input orientation:                          
 ---------------------------------------------------------------------
 Center     Atomic      Atomic             Coordinates (Angstroms)
 Number     Number       Type             X           Y           Z
 ---------------------------------------------------------------------
      1          6           0        1.683073    0.328922    0.834425
      2          6           0        0.581159    1.166395    0.539167
      3          6           0        0.774143    2.543925    0.387530
      4          6           0        2.068384    3.039009    0.539282
      5          6           0        3.152459    2.198935    0.839838
      6          6           0        2.989066    0.815910    0.997066
      7          6           0       -0.186808   -0.850668    0.698658
      8          1           0       -0.058938    3.198157    0.160635
      9          1           0        2.248328    4.101363    0.423968
     10          1           0        4.139857    2.632753    0.944898
     11          6           0       -2.467599   -1.775716    0.504254
     12          6           0       -3.412794   -2.826419    0.514130
     13          6           0       -2.994795   -4.139760    0.747950
     14          6           0       -1.634482   -4.357146    0.966884
     15          6           0       -0.703542   -3.307222    0.955584
     16          6           0       -1.097459   -1.982028    0.723050
     17          6           0       -4.501115   -0.984682    0.096891
     18          1           0       -3.705975   -4.956966    0.756389
     19          1           0       -1.280345   -5.364292    1.151185
     20          1           0        0.342081   -3.529434    1.131077
     21          7           0       -0.571440    0.401950    0.461432
     22          6           0       -6.894942   -0.562002   -0.376888
     23          6           0       -5.578614   -0.062502   -0.218341
     24          6           0       -5.322173    1.311548   -0.377032
     25          6           0       -6.336597    2.199198   -0.698467
     26          6           0       -7.630918    1.669920   -0.860791
     27          6           0       -7.950229    0.322763   -0.710381
     28          1           0       -4.309229    1.669536   -0.247520
     29          1           0       -8.424970    2.356365   -1.119887
     30          6           0       -6.107795    3.701325   -0.891062
     31          6           0       -9.388222   -0.187442   -0.890042
     32          8           0       -7.161366   -1.876960   -0.217753
     33          1           0       -6.301797   -2.343724    0.000707
     34          7           0       -3.183149   -0.631314    0.242396
     35          7           0       -4.668667   -2.299868    0.258315
     36          1           0       -2.738212    0.277240    0.172985
     37          7           0        1.165649   -0.939933    0.925828
     38          1           0        1.741537   -1.753029    1.110829
     39          6           0        4.070540   -0.094802    1.333640
     40          7           0        3.947842   -1.420551    1.382774
     41          7           0        5.342275    0.317030    1.652870
     42          6           0        7.416083   -0.951941    2.334379
     43          6           0        7.851064   -2.268166    2.530005
     44          6           0        6.995779   -3.367092    2.334581
     45          6           0        5.665737   -3.200566    1.950411
     46          6           0        5.199052   -1.894885    1.750569
     47          6           0        6.079815   -0.804493    1.933677
     48          1           0        8.876040   -2.438137    2.841962
     49          1           0        7.380881   -4.367069    2.496234
     50          1           0        5.008335   -4.050693    1.813363
     51          1           0        5.734827    1.248441    1.732365
     52          6           0        8.285583    0.203148    2.548703
     53          1           0        9.301839   -0.024307    2.880893
     54          7           0        7.860610    1.397478    2.363493
     55          6           0        8.746673    2.542752    2.567096
     56          6           0       10.140978    2.265442    3.139532
     57          6           0        8.854691    3.309045    1.237224
     58          1           0        8.218750    3.198863    3.273788
     59          6           0       10.919998    3.573011    3.323734
     60          1           0       10.692283    1.609761    2.454098
     61          1           0       10.058897    1.735206    4.093986
     62          6           0        9.647236    4.609120    1.403731
     63          1           0        9.353832    2.659153    0.508032
     64          1           0        7.849718    3.509689    0.854126
     65          6           0       11.031928    4.347701    2.006451
     66          1           0       11.914107    3.359018    3.728311
     67          1           0       10.405946    4.196648    4.065706
     68          1           0        9.739291    5.115609    0.437973
     69          1           0        9.090224    5.284829    2.064732
     70          1           0       11.560496    5.292673    2.166388
     71          1           0       11.630174    3.762724    1.296586
     72          6           0       -9.444508   -1.216338   -2.040289
     73          1           0       -8.794789   -2.068379   -1.844982
     74          1           0      -10.469803   -1.578539   -2.162564
     75          1           0       -9.135678   -0.751605   -2.981064
     76          6           0       -6.469869    4.086233   -2.341040
     77          1           0       -7.513099    3.849117   -2.564703
     78          1           0       -6.325213    5.159775   -2.495059
     79          1           0       -5.837926    3.548577   -3.052715
     80          6           0       -9.882968   -0.833017    0.422819
     81          1           0      -10.908099   -1.192917    0.294490
     82          1           0       -9.253922   -1.672413    0.715490
     83          1           0       -9.879695   -0.097679    1.232515
     84          6           0      -10.358778    0.952005   -1.240651
     85          1           0      -10.397092    1.708893   -0.452346
     86          1           0      -10.083067    1.445200   -2.176514
     87          1           0      -11.364519    0.541467   -1.359966
     88          6           0       -7.008330    4.490692    0.080676
     89          1           0       -6.861783    5.565463   -0.060877
     90          1           0       -8.066395    4.272343   -0.082459
     91          1           0       -6.766756    4.246154    1.118487
     92          6           0       -4.648990    4.101298   -0.627578
     93          1           0       -4.346869    3.863031    0.395832
     94          1           0       -3.962634    3.596706   -1.312763
     95          1           0       -4.533680    5.178526   -0.770823
 ---------------------------------------------------------------------
 Rotational constants (GHZ):           0.1231801           0.0176818           0.0156253
 Leave Link  202 at Thu Dec 20 19:13:37 2018, MaxMem=  1342177280 cpu:               0.1 elap:               0.0
 (Enter /gpfs/apps/hpc/Apps/Restricted/Gaussian/Rev_A.03/g16/l301.exe)
 Standard basis: 6-31G(d,p) (6D, 7F)
 Ernie: Thresh=  0.10000D-02 Tol=  0.10000D-05 Strict=F.
   975 basis functions,  1715 primitive gaussians,   975 cartesian basis functions
   177 alpha electrons      177 beta electrons
       nuclear repulsion energy      5755.4136783254 Hartrees.
 IExCor=  402 DFT=T Ex+Corr=B3LYP ExCW=0 ScaHFX=  0.200000
 ScaDFX=  0.800000  0.720000  1.000000  0.810000 ScalE2=  1.000000  1.000000
 IRadAn=      5 IRanWt=     -1 IRanGd=            0 ICorTp=0 IEmpDi=141
 NAtoms=   95 NActive=   95 NUniq=   95 SFac= 1.00D+00 NAtFMM=   60 NAOKFM=T Big=T
 Integral buffers will be    131072 words long.
 Raffenetti 2 integral format.
 Two-electron integral symmetry is turned off.
 R6Disp:  Grimme-D3(BJ) Dispersion energy=       -0.2208420597 Hartrees.
 Nuclear repulsion after empirical dispersion term =     5755.1928362657 Hartrees.
 ------------------------------------------------------------------------------
 Polarizable Continuum Model (PCM)
 =================================
 Model                : C-PCM.
 Atomic radii         : Bondi.
 Polarization charges : Total charges.
 Charge compensation  : None.
 Solution method      : On-the-fly selection.
 Cavity type          : Scaled VdW (van der Waals Surface) (Alpha=1.100).
 Cavity algorithm     : GePol (No added spheres)
                        Default sphere list used, NSphG=   95.
                        Lebedev-Laikov grids with approx.  5.0 points / Ang**2.
                        Smoothing algorithm: York/Karplus (Gamma=1.0000).
                        Polarization charges: spherical gaussians, with
                                              point-specific exponents (IZeta= 3).
                        Self-potential: point-specific (ISelfS= 7).
                        Self-field    : sphere-specific E.n sum rule (ISelfD= 2).
 1st derivatives      : Analytical E(r).r(x)/FMM algorithm (CHGder, D1EAlg=3).
                        Cavity 1st derivative terms included.
 Solvent              : Dichloromethane, Eps=   8.930000 Eps(inf)=   2.028346
 ------------------------------------------------------------------------------
 GePol: Number of generator spheres                  =      95
 GePol: Total number of spheres                      =      95
 GePol: Number of exposed spheres                    =      95 (100.00%)
 GePol: Number of points                             =    6204
 GePol: Average weight of points                     =       0.12
 GePol: Minimum weight of points                     =   0.42D-11
 GePol: Maximum weight of points                     =    0.21770
 GePol: Number of points with low weight             =     393
 GePol: Fraction of low-weight points (<1% of avg)   =       6.33%
 GePol: Cavity surface area                          =    732.086 Ang**2
 GePol: Cavity volume                                =    721.283 Ang**3
 PCM non-electrostatic energy =         0.0314342651 Hartrees.
 Nuclear repulsion after PCM non-electrostatic terms =     5755.2242705308 Hartrees.
 Leave Link  301 at Thu Dec 20 19:13:37 2018, MaxMem=  1342177280 cpu:               4.5 elap:               0.3
 (Enter /gpfs/apps/hpc/Apps/Restricted/Gaussian/Rev_A.03/g16/l302.exe)
 NPDir=0 NMtPBC=     1 NCelOv=     1 NCel=       1 NClECP=     1 NCelD=      1
         NCelK=      1 NCelE2=     1 NClLst=     1 CellRange=     0.0.
 One-electron integrals computed using PRISM.
 NBasis=   975 RedAO= T EigKep=  2.72D-04  NBF=   975
 NBsUse=   975 1.00D-06 EigRej= -1.00D+00 NBFU=   975
 Precomputing XC quadrature grid using
 IXCGrd= 4 IRadAn=           5 IRanWt=          -1 IRanGd=           0 AccXCQ= 0.00D+00.
 Generated NRdTot=       0 NPtTot=           0 NUsed=           0 NTot=          32
 NSgBfM=   849   841   848   849   849 MxSgAt=    95 MxSgA2=    95.
 Leave Link  302 at Thu Dec 20 19:13:39 2018, MaxMem=  1342177280 cpu:              34.4 elap:               2.2
 (Enter /gpfs/apps/hpc/Apps/Restricted/Gaussian/Rev_A.03/g16/l303.exe)
 DipDrv:  MaxL=1.
 Leave Link  303 at Thu Dec 20 19:13:40 2018, MaxMem=  1342177280 cpu:               1.7 elap:               0.1
 (Enter /gpfs/apps/hpc/Apps/Restricted/Gaussian/Rev_A.03/g16/l401.exe)
 Initial guess from the checkpoint file:  "cyclohexyl-triBIP-neutral.chk"
 B after Tr=    -0.001248   -0.001157   -0.008139
         Rot=    1.000000   -0.000126   -0.000603    0.000048 Ang=  -0.07 deg.
 Guess basis will be translated and rotated to current coordinates.
 JPrj=2 DoOrth=T DoCkMO=T.
 Generating alternative initial guess.
 ExpMin= 1.61D-01 ExpMax= 5.48D+03 ExpMxC= 8.25D+02 IAcc=2 IRadAn=         4 AccDes= 0.00D+00
 Harris functional with IExCor=  402 and IRadAn=       4 diagonalized for initial guess.
 HarFok:  IExCor=  402 AccDes= 0.00D+00 IRadAn=         4 IDoV= 1 UseB2=F ITyADJ=14
 ICtDFT=  3500011 ScaDFX=  1.000000  1.000000  1.000000  1.000000
 FoFCou: FMM=F IPFlag=           0 FMFlag=      100000 FMFlg1=        2001
         NFxFlg=           0 DoJE=T BraDBF=F KetDBF=T FulRan=T
         wScrn=  0.000000 ICntrl=       500 IOpCl=  0 I1Cent=   200000004 NGrid=           0
         NMat0=    1 NMatS0=      1 NMatT0=    0 NMatD0=    1 NMtDS0=    0 NMtDT0=    0
 Symmetry not used in FoFCou.
 Harris En= -2086.42570363733    
 Leave Link  401 at Thu Dec 20 19:13:44 2018, MaxMem=  1342177280 cpu:              76.4 elap:               4.8
 (Enter /gpfs/apps/hpc/Apps/Restricted/Gaussian/Rev_A.03/g16/l502.exe)
 Two-electron integral symmetry not used.
 Closed shell SCF:
 Using DIIS extrapolation, IDIIS=  1040.
 NGot=  1342177280 LenX=  1340252438 LenY=  1339300838
 Requested convergence on RMS density matrix=1.00D-08 within 128 cycles.
 Requested convergence on MAX density matrix=1.00D-06.
 Requested convergence on             energy=1.00D-06.
 No special actions if energy rises.
 Fock matrices will be formed incrementally for  20 cycles.

 Cycle   1  Pass 1  IDiag  1:
 FoFJK:  IHMeth= 1 ICntrl=       0 DoSepK=F KAlg= 0 I1Cent=           0 FoldK=F
 IRaf= 540000000 NMat=       1 IRICut=       1 DoRegI=T DoRafI=F ISym2E= 0 IDoP0=0 IntGTp=1.
 FoFCou: FMM=T IPFlag=           0 FMFlag=      100000 FMFlg1=        2001
         NFxFlg=           0 DoJE=F BraDBF=F KetDBF=F FulRan=T
         wScrn=  0.000000 ICntrl=         0 IOpCl=  0 I1Cent=           0 NGrid=           0
         NMat0=    1 NMatS0=      1 NMatT0=    0 NMatD0=    1 NMtDS0=    0 NMtDT0=    0
 Symmetry not used in FoFCou.
 FMM levels:  10  Number of levels for PrismC:   9
 Inv3:  Mode=1 IEnd=   115468848.
 Iteration    1 A*A^-1 deviation from unit magnitude is 1.80D-14 for   2972.
 Iteration    1 A*A^-1 deviation from orthogonality  is 8.06D-15 for   2946    665.
 Iteration    1 A^-1*A deviation from unit magnitude is 1.80D-14 for   2972.
 Iteration    1 A^-1*A deviation from orthogonality  is 2.59D-15 for   5581   3417.
 E= -2086.46716592033    
 DIIS: error= 1.79D-03 at cycle   1 NSaved=   1.
 NSaved= 1 IEnMin= 1 EnMin= -2086.46716592033     IErMin= 1 ErrMin= 1.79D-03
 ErrMax= 1.79D-03  0.00D+00 EMaxC= 1.00D-01 BMatC= 4.50D-03 BMatP= 4.50D-03
 IDIUse=3 WtCom= 9.82D-01 WtEn= 1.79D-02
 Coeff-Com:  0.100D+01
 Coeff-En:   0.100D+01
 Coeff:      0.100D+01
 Gap=     1.599 Goal=   None    Shift=    0.000
 GapD=    1.599 DampG=2.000 DampE=1.000 DampFc=2.0000 IDamp=-1.
 RMSDP=1.08D-04 MaxDP=8.71D-03              OVMax= 1.16D-02

 Cycle   2  Pass 1  IDiag  1:
 RMSU=  1.08D-04    CP:  1.00D+00
 E= -2086.47614531241     Delta-E=       -0.008979392075 Rises=F Damp=F
 DIIS: error= 1.89D-04 at cycle   2 NSaved=   2.
 NSaved= 2 IEnMin= 2 EnMin= -2086.47614531241     IErMin= 2 ErrMin= 1.89D-04
 ErrMax= 1.89D-04  0.00D+00 EMaxC= 1.00D-01 BMatC= 4.61D-05 BMatP= 4.50D-03
 IDIUse=3 WtCom= 9.98D-01 WtEn= 1.89D-03
 Coeff-Com: -0.822D-01 0.108D+01
 Coeff-En:   0.000D+00 0.100D+01
 Coeff:     -0.820D-01 0.108D+01
 Gap=     0.137 Goal=   None    Shift=    0.000
 RMSDP=1.62D-05 MaxDP=1.03D-03 DE=-8.98D-03 OVMax= 1.59D-03

 Cycle   3  Pass 1  IDiag  1:
 RMSU=  1.17D-05    CP:  1.00D+00  1.10D+00
 E= -2086.47624153460     Delta-E=       -0.000096222192 Rises=F Damp=F
 DIIS: error= 9.10D-05 at cycle   3 NSaved=   3.
 NSaved= 3 IEnMin= 3 EnMin= -2086.47624153460     IErMin= 3 ErrMin= 9.10D-05
 ErrMax= 9.10D-05  0.00D+00 EMaxC= 1.00D-01 BMatC= 1.26D-05 BMatP= 4.61D-05
 IDIUse=1 WtCom= 1.00D+00 WtEn= 0.00D+00
 Coeff-Com: -0.378D-01 0.462D+00 0.576D+00
 Coeff:     -0.378D-01 0.462D+00 0.576D+00
 Gap=     0.137 Goal=   None    Shift=    0.000
 RMSDP=5.64D-06 MaxDP=9.02D-04 DE=-9.62D-05 OVMax= 7.84D-04

 Cycle   4  Pass 1  IDiag  1:
 RMSU=  5.01D-06    CP:  1.00D+00  1.11D+00  7.86D-01
 E= -2086.47625002568     Delta-E=       -0.000008491078 Rises=F Damp=F
 DIIS: error= 5.34D-05 at cycle   4 NSaved=   4.
 NSaved= 4 IEnMin= 4 EnMin= -2086.47625002568     IErMin= 4 ErrMin= 5.34D-05
 ErrMax= 5.34D-05  0.00D+00 EMaxC= 1.00D-01 BMatC= 3.67D-06 BMatP= 1.26D-05
 IDIUse=1 WtCom= 1.00D+00 WtEn= 0.00D+00
 Coeff-Com: -0.811D-02 0.869D-01 0.349D+00 0.572D+00
 Coeff:     -0.811D-02 0.869D-01 0.349D+00 0.572D+00
 Gap=     0.137 Goal=   None    Shift=    0.000
 RMSDP=2.45D-06 MaxDP=4.21D-04 DE=-8.49D-06 OVMax= 4.25D-04

 Cycle   5  Pass 1  IDiag  1:
 RMSU=  1.27D-06    CP:  1.00D+00  1.11D+00  8.87D-01  6.57D-01
 E= -2086.47625303464     Delta-E=       -0.000003008960 Rises=F Damp=F
 DIIS: error= 1.37D-05 at cycle   5 NSaved=   5.
 NSaved= 5 IEnMin= 5 EnMin= -2086.47625303464     IErMin= 5 ErrMin= 1.37D-05
 ErrMax= 1.37D-05  0.00D+00 EMaxC= 1.00D-01 BMatC= 3.39D-07 BMatP= 3.67D-06
 IDIUse=1 WtCom= 1.00D+00 WtEn= 0.00D+00
 Coeff-Com: -0.755D-03 0.136D-02 0.137D+00 0.316D+00 0.547D+00
 Coeff:     -0.755D-03 0.136D-02 0.137D+00 0.316D+00 0.547D+00
 Gap=     0.137 Goal=   None    Shift=    0.000
 RMSDP=7.03D-07 MaxDP=9.85D-05 DE=-3.01D-06 OVMax= 1.28D-04

 Cycle   6  Pass 1  IDiag  1:
 RMSU=  3.97D-07    CP:  1.00D+00  1.11D+00  8.90D-01  7.14D-01  6.07D-01
 E= -2086.47625332750     Delta-E=       -0.000000292861 Rises=F Damp=F
 DIIS: error= 4.44D-06 at cycle   6 NSaved=   6.
 NSaved= 6 IEnMin= 6 EnMin= -2086.47625332750     IErMin= 6 ErrMin= 4.44D-06
 ErrMax= 4.44D-06  0.00D+00 EMaxC= 1.00D-01 BMatC= 2.96D-08 BMatP= 3.39D-07
 IDIUse=1 WtCom= 1.00D+00 WtEn= 0.00D+00
 Coeff-Com:  0.771D-03-0.122D-01 0.199D-01 0.785D-01 0.276D+00 0.637D+00
 Coeff:      0.771D-03-0.122D-01 0.199D-01 0.785D-01 0.276D+00 0.637D+00
 Gap=     0.137 Goal=   None    Shift=    0.000
 RMSDP=2.09D-07 MaxDP=3.14D-05 DE=-2.93D-07 OVMax= 4.25D-05

 Cycle   7  Pass 1  IDiag  1:
 RMSU=  1.19D-07    CP:  1.00D+00  1.11D+00  8.94D-01  7.18D-01  6.67D-01
                    CP:  6.32D-01
 E= -2086.47625335384     Delta-E=       -0.000000026342 Rises=F Damp=F
 DIIS: error= 1.45D-06 at cycle   7 NSaved=   7.
 NSaved= 7 IEnMin= 7 EnMin= -2086.47625335384     IErMin= 7 ErrMin= 1.45D-06
 ErrMax= 1.45D-06  0.00D+00 EMaxC= 1.00D-01 BMatC= 2.70D-09 BMatP= 2.96D-08
 IDIUse=1 WtCom= 1.00D+00 WtEn= 0.00D+00
 Coeff-Com:  0.463D-03-0.693D-02 0.582D-02 0.315D-01 0.133D+00 0.360D+00
 Coeff-Com:  0.476D+00
 Coeff:      0.463D-03-0.693D-02 0.582D-02 0.315D-01 0.133D+00 0.360D+00
 Coeff:      0.476D+00
 Gap=     0.137 Goal=   None    Shift=    0.000
 RMSDP=6.90D-08 MaxDP=9.07D-06 DE=-2.63D-08 OVMax= 1.11D-05

 Cycle   8  Pass 1  IDiag  1:
 RMSU=  4.76D-08    CP:  1.00D+00  1.11D+00  8.95D-01  7.17D-01  6.68D-01
                    CP:  6.83D-01  6.25D-01
