 Entering Gaussian System, Link 0=g16
 Initial command:
 /gpfs/apps/hpc/Apps/Restricted/Gaussian/Rev_A.03/g16/l1.exe "/gpfs/scratch60/fas/hammes_schiffer/jg2487/c03n04/Gau-25513.inp" -scrdir="/gpfs/scratch60/fas/hammes_schiffer/jg2487/c03n04/"
 Entering Link 1 = /gpfs/apps/hpc/Apps/Restricted/Gaussian/Rev_A.03/g16/l1.exe PID=     25514.
  
 Copyright (c) 1988,1990,1992,1993,1995,1998,2003,2009,2016,
            Gaussian, Inc.  All Rights Reserved.
  
 This is part of the Gaussian(R) 16 program.  It is based on
 the Gaussian(R) 09 system (copyright 2009, Gaussian, Inc.),
 the Gaussian(R) 03 system (copyright 2003, Gaussian, Inc.),
 the Gaussian(R) 98 system (copyright 1998, Gaussian, Inc.),
 the Gaussian(R) 94 system (copyright 1995, Gaussian, Inc.),
 the Gaussian 92(TM) system (copyright 1992, Gaussian, Inc.),
 the Gaussian 90(TM) system (copyright 1990, Gaussian, Inc.),
 the Gaussian 88(TM) system (copyright 1988, Gaussian, Inc.),
 the Gaussian 86(TM) system (copyright 1986, Carnegie Mellon
 University), and the Gaussian 82(TM) system (copyright 1983,
 Carnegie Mellon University). Gaussian is a federally registered
 trademark of Gaussian, Inc.
  
 This software contains proprietary and confidential information,
 including trade secrets, belonging to Gaussian, Inc.
  
 This software is provided under written license and may be
 used, copied, transmitted, or stored only in accord with that
 written license.
  
 The following legend is applicable only to US Government
 contracts under FAR:
  
                    RESTRICTED RIGHTS LEGEND
  
 Use, reproduction and disclosure by the US Government is
 subject to restrictions as set forth in subparagraphs (a)
 and (c) of the Commercial Computer Software - Restricted
 Rights clause in FAR 52.227-19.
  
 Gaussian, Inc.
 340 Quinnipiac St., Bldg. 40, Wallingford CT 06492
  
  
 ---------------------------------------------------------------
 Warning -- This program may not be used in any manner that
 competes with the business of Gaussian, Inc. or will provide
 assistance to any competitor of Gaussian, Inc.  The licensee
 of this program is prohibited from giving any competitor of
 Gaussian, Inc. access to this program.  By using this program,
 the user acknowledges that Gaussian, Inc. is engaged in the
 business of creating and licensing software in the field of
 computational chemistry and represents and warrants to the
 licensee that it is not a competitor of Gaussian, Inc. and that
 it will not use this program in any manner prohibited above.
 ---------------------------------------------------------------
  

 Cite this work as:
 Gaussian 16, Revision A.03,
 M. J. Frisch, G. W. Trucks, H. B. Schlegel, G. E. Scuseria, 
 M. A. Robb, J. R. Cheeseman, G. Scalmani, V. Barone, 
 G. A. Petersson, H. Nakatsuji, X. Li, M. Caricato, A. V. Marenich, 
 J. Bloino, B. G. Janesko, R. Gomperts, B. Mennucci, H. P. Hratchian, 
 J. V. Ortiz, A. F. Izmaylov, J. L. Sonnenberg, D. Williams-Young, 
 F. Ding, F. Lipparini, F. Egidi, J. Goings, B. Peng, A. Petrone, 
 T. Henderson, D. Ranasinghe, V. G. Zakrzewski, J. Gao, N. Rega, 
 G. Zheng, W. Liang, M. Hada, M. Ehara, K. Toyota, R. Fukuda, 
 J. Hasegawa, M. Ishida, T. Nakajima, Y. Honda, O. Kitao, H. Nakai, 
 T. Vreven, K. Throssell, J. A. Montgomery, Jr., J. E. Peralta, 
 F. Ogliaro, M. J. Bearpark, J. J. Heyd, E. N. Brothers, K. N. Kudin, 
 V. N. Staroverov, T. A. Keith, R. Kobayashi, J. Normand, 
 K. Raghavachari, A. P. Rendell, J. C. Burant, S. S. Iyengar, 
 J. Tomasi, M. Cossi, J. M. Millam, M. Klene, C. Adamo, R. Cammi, 
 J. W. Ochterski, R. L. Martin, K. Morokuma, O. Farkas, 
 J. B. Foresman, and D. J. Fox, Gaussian, Inc., Wallingford CT, 2016.
 
 ******************************************
 Gaussian 16:  ES64L-G16RevA.03 25-Dec-2016
                14-Dec-2018 
 ******************************************
 %chk=cyclohexyl-triBIP-neutral.chk
 %mem=10GB
 %nprocshared=16
 Will use up to   16 processors via shared memory.
 ----------------------------------------------------------------------
 #p opt=tight freq=internalmodes b3lyp/6-31g(d,p) scrf=(cpcm,solvent=di
 chloromethane,read) nosymm empiricaldispersion=gd3bj int=grid=ultrafin
 e
 ----------------------------------------------------------------------
 1/7=10,18=20,19=15,26=6,38=1,40=2/1,3;
 2/9=110,12=2,15=1,17=6,18=5,40=1/2;
 3/5=1,6=6,7=101,11=2,25=1,30=1,70=2103,71=1,72=9,74=-5,75=-5,124=41/1,2,3;
 4//1;
 5/5=2,38=5,53=9/2;
 6/7=2,8=2,9=2,10=2,28=1/1;
 7/30=1/1,2,3,16;
 1/7=10,18=20,19=15,26=6/3(2);
 2/9=110,15=1/2;
 99//99;
 2/9=110,15=1/2;
 3/5=1,6=6,7=101,11=2,25=1,30=1,70=2105,71=1,72=9,74=-5,75=-5,124=41/1,2,3;
 4/5=5,16=3,69=1/1;
 5/5=2,38=5,53=9/2;
 7/30=1/1,2,3,16;
 1/7=10,18=20,19=15,26=6/3(-5);
 2/9=110,15=1/2;
 6/7=2,8=2,9=2,10=2,19=2,28=1/1;
 99/9=1/99;
 Leave Link    1 at Fri Dec 14 12:00:19 2018, MaxMem=  1342177280 cpu:               8.2 elap:               0.6
 (Enter /gpfs/apps/hpc/Apps/Restricted/Gaussian/Rev_A.03/g16/l101.exe)
 -------------------------------------------
 cyclohexylimine triBIP neutral optimization
 -------------------------------------------
 Symbolic Z-matrix:
 Charge =  0 Multiplicity = 1
 C                     1.66843   0.39516   0.9128 
 C                     0.57132   1.23958   0.61999 
 C                     0.77408   2.61691   0.47751 
 C                     2.07147   3.10291   0.63338 
 C                     3.15069   2.25479   0.92895 
 C                     2.97767   0.87214   1.07776 
 C                    -0.20471  -0.77622   0.75715 
 H                    -0.05283   3.2792    0.25237 
 H                     2.25771   4.16482   0.52377 
 H                     4.14187   2.68034   1.03367 
 C                    -2.48283  -1.70798   0.53068 
 C                    -3.42315  -2.76378   0.53265 
 C                    -3.00332  -4.07455   0.77747 
 C                    -1.64527  -4.28577   1.01375 
 C                    -0.71901  -3.23181   1.00891 
 C                    -1.11486  -1.9084    0.7684 
 C                    -4.5155   -0.93183   0.09451 
 H                    -3.71238  -4.8936    0.78254 
 H                    -1.28894  -5.29029   1.20793 
 H                     0.32501  -3.45033   1.19745 
 N                    -0.58454   0.47986   0.53033 
 C                    -6.90675  -0.54294  -0.38797 
 C                    -5.60008  -0.02344  -0.23071 
 C                    -5.38145   1.35668  -0.39646 
 C                    -6.4193    2.22105  -0.71914 
 C                    -7.7075    1.67654  -0.86614 
 C                    -7.9719    0.32033  -0.71025 
 H                    -4.37773   1.75062  -0.27355 
 H                    -8.5341    2.33714  -1.11193 
 C                    -6.17597   3.69332  -0.93558 
 H                    -5.26048   4.01635  -0.43554 
 H                    -6.07048   3.92509  -2.00105 
 H                    -7.00663   4.29278  -0.55481 
 C                    -9.3542   -0.24811  -0.87156 
 H                    -9.39162  -0.97265  -1.69124 
 H                    -9.66894  -0.78156   0.03031 
 H                    -10.07457   0.54487  -1.07621 
 O                    -7.1891   -1.85511  -0.23979 
 H                    -6.33453  -2.3244   -0.01804 
 N                    -3.20188  -0.5687    0.25394 
 N                    -4.6788   -2.24662   0.26017 
 H                    -2.76857   0.34566   0.19084 
 N                     1.14605  -0.872     0.9907 
 H                     1.71961  -1.68769   1.17146 
 C                     4.05354  -0.05189   1.39405 
 N                     3.91262  -1.37582   1.43849 
 N                     5.33932   0.33915   1.68259 
 C                     7.41478  -0.96953   2.28676 
 C                     7.83195  -2.29414   2.46441 
 C                     6.9505   -3.37685   2.30013 
 C                     5.61353  -3.18568   1.95383 
 C                     5.16519  -1.87129   1.76957 
 C                     6.06877  -0.7959    1.93116 
 H                     8.86372  -2.48229   2.74165 
 H                     7.32194  -4.38362   2.45043 
 H                     4.93659  -4.02347   1.83719 
 H                     5.7418    1.26587   1.76349 
 C                     8.31639   0.16383   2.4824 
 H                     9.34713  -0.09505   2.73901 
 N                     7.90712   1.37246   2.36871 
 C                     8.83054   2.48807   2.57719 
 C                     10.28114   2.14184   2.93146 
 C                     8.77712   3.40013   1.34011 
 H                     8.40905   3.063     3.41481 
 C                     11.11225   3.41208   3.14522 
 H                     10.71861   1.55274   2.116 
 H                     10.31235   1.51652   3.82913 
 C                     9.61112   4.66863   1.54573 
 H                     9.16181   2.83733   0.48053 
 H                     7.73396   3.64837   1.12229 
 C                     11.05865   4.33322   1.92175 
 H                     12.14782   3.14258   3.3751 
 H                     10.72617   3.95211   4.01891 
 H                     9.5853    5.28442   0.64152 
 H                     9.16158   5.26584   2.34883 
 H                     11.62119   5.25187   2.11598 
 H                     11.54462   3.83287   1.07473 
 
 ITRead=  0  0  0  0  0  0  0  0  0  0  0  0  0  0  0  0  0  0  0  0
 ITRead=  0  0  0  0  0  0  0  0  0  0  0  0  0  0  0  0  0  0  0  0
 ITRead=  0  0  0  0  0  0  0  0  0  0  0  0  0  0  0  0  0  0  0  0
 ITRead=  0  0  0  0  0  0  0  0  0  0  0  0  0  0  0  0  0
 MicOpt= -1 -1 -1 -1 -1 -1 -1 -1 -1 -1 -1 -1 -1 -1 -1 -1 -1 -1 -1 -1
 MicOpt= -1 -1 -1 -1 -1 -1 -1 -1 -1 -1 -1 -1 -1 -1 -1 -1 -1 -1 -1 -1
 MicOpt= -1 -1 -1 -1 -1 -1 -1 -1 -1 -1 -1 -1 -1 -1 -1 -1 -1 -1 -1 -1
 MicOpt= -1 -1 -1 -1 -1 -1 -1 -1 -1 -1 -1 -1 -1 -1 -1 -1 -1
 NAtoms=     77 NQM=       77 NQMF=       0 NMMI=      0 NMMIF=      0
                NMic=       0 NMicF=      0.
                    Isotopes and Nuclear Properties:
 (Nuclear quadrupole moments (NQMom) in fm**2, nuclear magnetic moments (NMagM)
  in nuclear magnetons)

  Atom         1           2           3           4           5           6           7           8           9          10
 IAtWgt=          12          12          12          12          12          12          12           1           1           1
 AtmWgt=  12.0000000  12.0000000  12.0000000  12.0000000  12.0000000  12.0000000  12.0000000   1.0078250   1.0078250   1.0078250
 NucSpn=           0           0           0           0           0           0           0           1           1           1
 AtZEff=  -0.0000000  -0.0000000  -0.0000000  -0.0000000  -0.0000000  -0.0000000  -0.0000000  -0.0000000  -0.0000000  -0.0000000
 NQMom=    0.0000000   0.0000000   0.0000000   0.0000000   0.0000000   0.0000000   0.0000000   0.0000000   0.0000000   0.0000000
 NMagM=    0.0000000   0.0000000   0.0000000   0.0000000   0.0000000   0.0000000   0.0000000   2.7928460   2.7928460   2.7928460
 AtZNuc=   6.0000000   6.0000000   6.0000000   6.0000000   6.0000000   6.0000000   6.0000000   1.0000000   1.0000000   1.0000000

  Atom        11          12          13          14          15          16          17          18          19          20
 IAtWgt=          12          12          12          12          12          12          12           1           1           1
 AtmWgt=  12.0000000  12.0000000  12.0000000  12.0000000  12.0000000  12.0000000  12.0000000   1.0078250   1.0078250   1.0078250
 NucSpn=           0           0           0           0           0           0           0           1           1           1
 AtZEff=  -0.0000000  -0.0000000  -0.0000000  -0.0000000  -0.0000000  -0.0000000  -0.0000000  -0.0000000  -0.0000000  -0.0000000
 NQMom=    0.0000000   0.0000000   0.0000000   0.0000000   0.0000000   0.0000000   0.0000000   0.0000000   0.0000000   0.0000000
 NMagM=    0.0000000   0.0000000   0.0000000   0.0000000   0.0000000   0.0000000   0.0000000   2.7928460   2.7928460   2.7928460
 AtZNuc=   6.0000000   6.0000000   6.0000000   6.0000000   6.0000000   6.0000000   6.0000000   1.0000000   1.0000000   1.0000000

  Atom        21          22          23          24          25          26          27          28          29          30
 IAtWgt=          14          12          12          12          12          12          12           1           1          12
 AtmWgt=  14.0030740  12.0000000  12.0000000  12.0000000  12.0000000  12.0000000  12.0000000   1.0078250   1.0078250  12.0000000
 NucSpn=           2           0           0           0           0           0           0           1           1           0
 AtZEff=  -0.0000000  -0.0000000  -0.0000000  -0.0000000  -0.0000000  -0.0000000  -0.0000000  -0.0000000  -0.0000000  -0.0000000
 NQMom=    2.0440000   0.0000000   0.0000000   0.0000000   0.0000000   0.0000000   0.0000000   0.0000000   0.0000000   0.0000000
 NMagM=    0.4037610   0.0000000   0.0000000   0.0000000   0.0000000   0.0000000   0.0000000   2.7928460   2.7928460   0.0000000
 AtZNuc=   7.0000000   6.0000000   6.0000000   6.0000000   6.0000000   6.0000000   6.0000000   1.0000000   1.0000000   6.0000000

  Atom        31          32          33          34          35          36          37          38          39          40
 IAtWgt=           1           1           1          12           1           1           1          16           1          14
 AtmWgt=   1.0078250   1.0078250   1.0078250  12.0000000   1.0078250   1.0078250   1.0078250  15.9949146   1.0078250  14.0030740
 NucSpn=           1           1           1           0           1           1           1           0           1           2
 AtZEff=  -0.0000000  -0.0000000  -0.0000000  -0.0000000  -0.0000000  -0.0000000  -0.0000000  -0.0000000  -0.0000000  -0.0000000
 NQMom=    0.0000000   0.0000000   0.0000000   0.0000000   0.0000000   0.0000000   0.0000000   0.0000000   0.0000000   2.0440000
 NMagM=    2.7928460   2.7928460   2.7928460   0.0000000   2.7928460   2.7928460   2.7928460   0.0000000   2.7928460   0.4037610
 AtZNuc=   1.0000000   1.0000000   1.0000000   6.0000000   1.0000000   1.0000000   1.0000000   8.0000000   1.0000000   7.0000000

  Atom        41          42          43          44          45          46          47          48          49          50
 IAtWgt=          14           1          14           1          12          14          14          12          12          12
 AtmWgt=  14.0030740   1.0078250  14.0030740   1.0078250  12.0000000  14.0030740  14.0030740  12.0000000  12.0000000  12.0000000
 NucSpn=           2           1           2           1           0           2           2           0           0           0
 AtZEff=  -0.0000000  -0.0000000  -0.0000000  -0.0000000  -0.0000000  -0.0000000  -0.0000000  -0.0000000  -0.0000000  -0.0000000
 NQMom=    2.0440000   0.0000000   2.0440000   0.0000000   0.0000000   2.0440000   2.0440000   0.0000000   0.0000000   0.0000000
 NMagM=    0.4037610   2.7928460   0.4037610   2.7928460   0.0000000   0.4037610   0.4037610   0.0000000   0.0000000   0.0000000
 AtZNuc=   7.0000000   1.0000000   7.0000000   1.0000000   6.0000000   7.0000000   7.0000000   6.0000000   6.0000000   6.0000000

  Atom        51          52          53          54          55          56          57          58          59          60
 IAtWgt=          12          12          12           1           1           1           1          12           1          14
 AtmWgt=  12.0000000  12.0000000  12.0000000   1.0078250   1.0078250   1.0078250   1.0078250  12.0000000   1.0078250  14.0030740
 NucSpn=           0           0           0           1           1           1           1           0           1           2
 AtZEff=  -0.0000000  -0.0000000  -0.0000000  -0.0000000  -0.0000000  -0.0000000  -0.0000000  -0.0000000  -0.0000000  -0.0000000
 NQMom=    0.0000000   0.0000000   0.0000000   0.0000000   0.0000000   0.0000000   0.0000000   0.0000000   0.0000000   2.0440000
 NMagM=    0.0000000   0.0000000   0.0000000   2.7928460   2.7928460   2.7928460   2.7928460   0.0000000   2.7928460   0.4037610
 AtZNuc=   6.0000000   6.0000000   6.0000000   1.0000000   1.0000000   1.0000000   1.0000000   6.0000000   1.0000000   7.0000000

  Atom        61          62          63          64          65          66          67          68          69          70
 IAtWgt=          12          12          12           1          12           1           1          12           1           1
 AtmWgt=  12.0000000  12.0000000  12.0000000   1.0078250  12.0000000   1.0078250   1.0078250  12.0000000   1.0078250   1.0078250
 NucSpn=           0           0           0           1           0           1           1           0           1           1
 AtZEff=  -0.0000000  -0.0000000  -0.0000000  -0.0000000  -0.0000000  -0.0000000  -0.0000000  -0.0000000  -0.0000000  -0.0000000
 NQMom=    0.0000000   0.0000000   0.0000000   0.0000000   0.0000000   0.0000000   0.0000000   0.0000000   0.0000000   0.0000000
 NMagM=    0.0000000   0.0000000   0.0000000   2.7928460   0.0000000   2.7928460   2.7928460   0.0000000   2.7928460   2.7928460
 AtZNuc=   6.0000000   6.0000000   6.0000000   1.0000000   6.0000000   1.0000000   1.0000000   6.0000000   1.0000000   1.0000000

  Atom        71          72          73          74          75          76          77
 IAtWgt=          12           1           1           1           1           1           1
 AtmWgt=  12.0000000   1.0078250   1.0078250   1.0078250   1.0078250   1.0078250   1.0078250
 NucSpn=           0           1           1           1           1           1           1
 AtZEff=  -0.0000000  -0.0000000  -0.0000000  -0.0000000  -0.0000000  -0.0000000  -0.0000000
 NQMom=    0.0000000   0.0000000   0.0000000   0.0000000   0.0000000   0.0000000   0.0000000
 NMagM=    0.0000000   2.7928460   2.7928460   2.7928460   2.7928460   2.7928460   2.7928460
 AtZNuc=   6.0000000   1.0000000   1.0000000   1.0000000   1.0000000   1.0000000   1.0000000
 Leave Link  101 at Fri Dec 14 12:00:19 2018, MaxMem=  1342177280 cpu:               6.2 elap:               0.4
 (Enter /gpfs/apps/hpc/Apps/Restricted/Gaussian/Rev_A.03/g16/l103.exe)

 GradGradGradGradGradGradGradGradGradGradGradGradGradGradGradGradGradGrad
 Berny optimization.
 Initialization pass.
                           ----------------------------
                           !    Initial Parameters    !
                           ! (Angstroms and Degrees)  !
 --------------------------                            --------------------------
 ! Name  Definition              Value          Derivative Info.                !
 --------------------------------------------------------------------------------
 ! R1    R(1,2)                  1.4151         estimate D2E/DX2                !
 ! R2    R(1,6)                  1.4031         estimate D2E/DX2                !
 ! R3    R(1,43)                 1.3728         estimate D2E/DX2                !
 ! R4    R(2,3)                  1.3994         estimate D2E/DX2                !
 ! R5    R(2,21)                 1.3861         estimate D2E/DX2                !
 ! R6    R(3,4)                  1.3942         estimate D2E/DX2                !
 ! R7    R(3,8)                  1.0831         estimate D2E/DX2                !
 ! R8    R(4,5)                  1.4041         estimate D2E/DX2                !
 ! R9    R(4,9)                  1.0837         estimate D2E/DX2                !
 ! R10   R(5,6)                  1.4014         estimate D2E/DX2                !
 ! R11   R(5,10)                 1.0837         estimate D2E/DX2                !
 ! R12   R(6,45)                 1.453          estimate D2E/DX2                !
 ! R13   R(7,16)                 1.4527         estimate D2E/DX2                !
 ! R14   R(7,21)                 1.3317         estimate D2E/DX2                !
 ! R15   R(7,43)                 1.3741         estimate D2E/DX2                !
 ! R16   R(11,12)                1.4138         estimate D2E/DX2                !
 ! R17   R(11,16)                1.4029         estimate D2E/DX2                !
 ! R18   R(11,40)                1.3753         estimate D2E/DX2                !
 ! R19   R(12,13)                1.398          estimate D2E/DX2                !
 ! R20   R(12,41)                1.385          estimate D2E/DX2                !
 ! R21   R(13,14)                1.3945         estimate D2E/DX2                !
 ! R22   R(13,18)                1.0833         estimate D2E/DX2                !
 ! R23   R(14,15)                1.4031         estimate D2E/DX2                !
 ! R24   R(14,19)                1.0834         estimate D2E/DX2                !
 ! R25   R(15,16)                1.4021         estimate D2E/DX2                !
 ! R26   R(15,20)                1.0832         estimate D2E/DX2                !
 ! R27   R(17,23)                1.4516         estimate D2E/DX2                !
 ! R28   R(17,40)                1.3722         estimate D2E/DX2                !
 ! R29   R(17,41)                1.3352         estimate D2E/DX2                !
 ! R30   R(22,23)                1.4149         estimate D2E/DX2                !
 ! R31   R(22,27)                1.4084         estimate D2E/DX2                !
 ! R32   R(22,38)                1.3504         estimate D2E/DX2                !
 ! R33   R(23,24)                1.4071         estimate D2E/DX2                !
 ! R34   R(24,25)                1.3887         estimate D2E/DX2                !
 ! R35   R(24,28)                1.0852         estimate D2E/DX2                !
 ! R36   R(25,26)                1.4063         estimate D2E/DX2                !
 ! R37   R(25,30)                1.5079         estimate D2E/DX2                !
 ! R38   R(26,27)                1.3905         estimate D2E/DX2                !
 ! R39   R(26,29)                1.0863         estimate D2E/DX2                !
 ! R40   R(27,34)                1.5033         estimate D2E/DX2                !
 ! R41   R(30,31)                1.092          estimate D2E/DX2                !
 ! R42   R(30,32)                1.0955         estimate D2E/DX2                !
 ! R43   R(30,33)                1.0929         estimate D2E/DX2                !
 ! R44   R(34,35)                1.0946         estimate D2E/DX2                !
 ! R45   R(34,36)                1.0941         estimate D2E/DX2                !
 ! R46   R(34,37)                1.0907         estimate D2E/DX2                !
 ! R47   R(38,39)                0.9998         estimate D2E/DX2                !
 ! R48   R(40,42)                1.0138         estimate D2E/DX2                !
 ! R49   R(43,44)                1.0134         estimate D2E/DX2                !
 ! R50   R(45,46)                1.3322         estimate D2E/DX2                !
 ! R51   R(45,47)                1.3745         estimate D2E/DX2                !
 ! R52   R(46,52)                1.3871         estimate D2E/DX2                !
 ! R53   R(47,53)                1.3719         estimate D2E/DX2                !
 ! R54   R(47,57)                1.0136         estimate D2E/DX2                !
 ! R55   R(48,49)                1.4001         estimate D2E/DX2                !
 ! R56   R(48,53)                1.403          estimate D2E/DX2                !
 ! R57   R(48,58)                1.4614         estimate D2E/DX2                !
 ! R58   R(49,50)                1.4058         estimate D2E/DX2                !
 ! R59   R(49,54)                1.0848         estimate D2E/DX2                !
 ! R60   R(50,51)                1.3943         estimate D2E/DX2                !
 ! R61   R(50,55)                1.0836         estimate D2E/DX2                !
 ! R62   R(51,52)                1.4009         estimate D2E/DX2                !
 ! R63   R(51,56)                1.0834         estimate D2E/DX2                !
 ! R64   R(52,53)                1.4139         estimate D2E/DX2                !
 ! R65   R(58,59)                1.0933         estimate D2E/DX2                !
 ! R66   R(58,60)                1.2811         estimate D2E/DX2                !
 ! R67   R(60,61)                1.4631         estimate D2E/DX2                !
 ! R68   R(61,62)                1.5329         estimate D2E/DX2                !
 ! R69   R(61,63)                1.5379         estimate D2E/DX2                !
 ! R70   R(61,64)                1.0999         estimate D2E/DX2                !
 ! R71   R(62,65)                1.533          estimate D2E/DX2                !
 ! R72   R(62,66)                1.097          estimate D2E/DX2                !
 ! R73   R(62,67)                1.0944         estimate D2E/DX2                !
 ! R74   R(63,68)                1.532          estimate D2E/DX2                !
 ! R75   R(63,69)                1.0971         estimate D2E/DX2                !
 ! R76   R(63,70)                1.0942         estimate D2E/DX2                !
 ! R77   R(65,71)                1.5324         estimate D2E/DX2                !
 ! R78   R(65,72)                1.0945         estimate D2E/DX2                !
 ! R79   R(65,73)                1.0973         estimate D2E/DX2                !
 ! R80   R(68,71)                1.5327         estimate D2E/DX2                !
 ! R81   R(68,74)                1.0943         estimate D2E/DX2                !
 ! R82   R(68,75)                1.0971         estimate D2E/DX2                !
 ! R83   R(71,76)                1.0946         estimate D2E/DX2                !
 ! R84   R(71,77)                1.0973         estimate D2E/DX2                !
 ! A1    A(2,1,6)              123.0173         estimate D2E/DX2                !
 ! A2    A(2,1,43)             105.5172         estimate D2E/DX2                !
 ! A3    A(6,1,43)             131.4638         estimate D2E/DX2                !
 ! A4    A(1,2,3)              119.7383         estimate D2E/DX2                !
 ! A5    A(1,2,21)             109.4414         estimate D2E/DX2                !
 ! A6    A(3,2,21)             130.8194         estimate D2E/DX2                !
 ! A7    A(2,3,4)              117.8089         estimate D2E/DX2                !
 ! A8    A(2,3,8)              120.8217         estimate D2E/DX2                !
 ! A9    A(4,3,8)              121.3694         estimate D2E/DX2                !
 ! A10   A(3,4,5)              121.8882         estimate D2E/DX2                !
 ! A11   A(3,4,9)              119.3548         estimate D2E/DX2                !
 ! A12   A(5,4,9)              118.7571         estimate D2E/DX2                !
 ! A13   A(4,5,6)              121.5625         estimate D2E/DX2                !
 ! A14   A(4,5,10)             119.0881         estimate D2E/DX2                !
 ! A15   A(6,5,10)             119.3462         estimate D2E/DX2                !
 ! A16   A(1,6,5)              115.9838         estimate D2E/DX2                !
 ! A17   A(1,6,45)             120.0189         estimate D2E/DX2                !
 ! A18   A(5,6,45)             123.9955         estimate D2E/DX2                !
 ! A19   A(16,7,21)            123.898          estimate D2E/DX2                !
 ! A20   A(16,7,43)            124.0713         estimate D2E/DX2                !
 ! A21   A(21,7,43)            112.0282         estimate D2E/DX2                !
 ! A22   A(12,11,16)           122.7939         estimate D2E/DX2                !
 ! A23   A(12,11,40)           105.7327         estimate D2E/DX2                !
 ! A24   A(16,11,40)           131.4722         estimate D2E/DX2                !
 ! A25   A(11,12,13)           120.0459         estimate D2E/DX2                !
 ! A26   A(11,12,41)           108.8959         estimate D2E/DX2                !
 ! A27   A(13,12,41)           131.0566         estimate D2E/DX2                !
 ! A28   A(12,13,14)           117.6549         estimate D2E/DX2                !
 ! A29   A(12,13,18)           120.8734         estimate D2E/DX2                !
 ! A30   A(14,13,18)           121.4718         estimate D2E/DX2                !
 ! A31   A(13,14,15)           121.9046         estimate D2E/DX2                !
 ! A32   A(13,14,19)           119.4127         estimate D2E/DX2                !
 ! A33   A(15,14,19)           118.6827         estimate D2E/DX2                !
 ! A34   A(14,15,16)           121.5465         estimate D2E/DX2                !
 ! A35   A(14,15,20)           118.9558         estimate D2E/DX2                !
 ! A36   A(16,15,20)           119.4976         estimate D2E/DX2                !
 ! A37   A(7,16,11)            119.8867         estimate D2E/DX2                !
 ! A38   A(7,16,15)            124.0593         estimate D2E/DX2                !
 ! A39   A(11,16,15)           116.0538         estimate D2E/DX2                !
 ! A40   A(23,17,40)           125.1476         estimate D2E/DX2                !
 ! A41   A(23,17,41)           123.5466         estimate D2E/DX2                !
 ! A42   A(40,17,41)           111.3006         estimate D2E/DX2                !
 ! A43   A(2,21,7)             105.5519         estimate D2E/DX2                !
 ! A44   A(23,22,27)           119.9204         estimate D2E/DX2                !
 ! A45   A(23,22,38)           122.5254         estimate D2E/DX2                !
 ! A46   A(27,22,38)           117.5542         estimate D2E/DX2                !
 ! A47   A(17,23,22)           119.0205         estimate D2E/DX2                !
 ! A48   A(17,23,24)           121.6052         estimate D2E/DX2                !
 ! A49   A(22,23,24)           119.374          estimate D2E/DX2                !
 ! A50   A(23,24,25)           121.4498         estimate D2E/DX2                !
 ! A51   A(23,24,28)           119.1036         estimate D2E/DX2                !
 ! A52   A(25,24,28)           119.4459         estimate D2E/DX2                !
 ! A53   A(24,25,26)           117.8984         estimate D2E/DX2                !
 ! A54   A(24,25,30)           121.3662         estimate D2E/DX2                !
 ! A55   A(26,25,30)           120.7228         estimate D2E/DX2                !
 ! A56   A(25,26,27)           122.6914         estimate D2E/DX2                !
 ! A57   A(25,26,29)           119.0277         estimate D2E/DX2                !
 ! A58   A(27,26,29)           118.2809         estimate D2E/DX2                !
 ! A59   A(22,27,26)           118.6641         estimate D2E/DX2                !
 ! A60   A(22,27,34)           119.2211         estimate D2E/DX2                !
 ! A61   A(26,27,34)           122.1146         estimate D2E/DX2                !
 ! A62   A(25,30,31)           111.001          estimate D2E/DX2                !
 ! A63   A(25,30,32)           111.2061         estimate D2E/DX2                !
 ! A64   A(25,30,33)           111.2792         estimate D2E/DX2                !
 ! A65   A(31,30,32)           107.5808         estimate D2E/DX2                !
 ! A66   A(31,30,33)           108.3859         estimate D2E/DX2                !
 ! A67   A(32,30,33)           107.2179         estimate D2E/DX2                !
 ! A68   A(27,34,35)           111.2275         estimate D2E/DX2                !
 ! A69   A(27,34,36)           111.1274         estimate D2E/DX2                !
 ! A70   A(27,34,37)           110.642          estimate D2E/DX2                !
 ! A71   A(35,34,36)           106.5409         estimate D2E/DX2                !
 ! A72   A(35,34,37)           108.5505         estimate D2E/DX2                !
 ! A73   A(36,34,37)           108.6114         estimate D2E/DX2                !
 ! A74   A(22,38,39)           107.561          estimate D2E/DX2                !
 ! A75   A(11,40,17)           107.7384         estimate D2E/DX2                !
 ! A76   A(11,40,42)           122.4233         estimate D2E/DX2                !
 ! A77   A(17,40,42)           129.838          estimate D2E/DX2                !
 ! A78   A(12,41,17)           106.3318         estimate D2E/DX2                !
 ! A79   A(1,43,7)             107.461          estimate D2E/DX2                !
 ! A80   A(1,43,44)            122.5275         estimate D2E/DX2                !
 ! A81   A(7,43,44)            129.9982         estimate D2E/DX2                !
 ! A82   A(6,45,46)            124.1206         estimate D2E/DX2                !
 ! A83   A(6,45,47)            123.8755         estimate D2E/DX2                !
 ! A84   A(46,45,47)           112.0039         estimate D2E/DX2                !
 ! A85   A(45,46,52)           105.5119         estimate D2E/DX2                !
 ! A86   A(45,47,53)           107.4596         estimate D2E/DX2                !
 ! A87   A(45,47,57)           130.4135         estimate D2E/DX2                !
 ! A88   A(53,47,57)           122.062          estimate D2E/DX2                !
 ! A89   A(49,48,53)           115.793          estimate D2E/DX2                !
 ! A90   A(49,48,58)           122.2029         estimate D2E/DX2                !
 ! A91   A(53,48,58)           121.9952         estimate D2E/DX2                !
 ! A92   A(48,49,50)           121.8042         estimate D2E/DX2                !
 ! A93   A(48,49,54)           118.6802         estimate D2E/DX2                !
 ! A94   A(50,49,54)           119.5148         estimate D2E/DX2                !
 ! A95   A(49,50,51)           121.6466         estimate D2E/DX2                !
 ! A96   A(49,50,55)           118.9763         estimate D2E/DX2                !
 ! A97   A(51,50,55)           119.3767         estimate D2E/DX2                !
 ! A98   A(50,51,52)           117.9172         estimate D2E/DX2                !
 ! A99   A(50,51,56)           121.3231         estimate D2E/DX2                !
 ! A100  A(52,51,56)           120.758          estimate D2E/DX2                !
 ! A101  A(46,52,51)           130.9594         estimate D2E/DX2                !
 ! A102  A(46,52,53)           109.4324         estimate D2E/DX2                !
 ! A103  A(51,52,53)           119.6078         estimate D2E/DX2                !
 ! A104  A(47,53,48)           131.1795         estimate D2E/DX2                !
 ! A105  A(47,53,52)           105.5906         estimate D2E/DX2                !
 ! A106  A(48,53,52)           123.2277         estimate D2E/DX2                !
 ! A107  A(48,58,59)           115.4318         estimate D2E/DX2                !
 ! A108  A(48,58,60)           121.5128         estimate D2E/DX2                !
 ! A109  A(59,58,60)           123.0526         estimate D2E/DX2                !
 ! A110  A(58,60,61)           120.3368         estimate D2E/DX2                !
 ! A111  A(60,61,62)           117.2559         estimate D2E/DX2                !
 ! A112  A(60,61,63)           108.4004         estimate D2E/DX2                !
 ! A113  A(60,61,64)           105.3798         estimate D2E/DX2                !
 ! A114  A(62,61,63)           110.6551         estimate D2E/DX2                !
 ! A115  A(62,61,64)           107.7405         estimate D2E/DX2                !
 ! A116  A(63,61,64)           106.8145         estimate D2E/DX2                !
 ! A117  A(61,62,65)           110.9855         estimate D2E/DX2                !
 ! A118  A(61,62,66)           109.0797         estimate D2E/DX2                !
 ! A119  A(61,62,67)           110.2188         estimate D2E/DX2                !
 ! A120  A(65,62,66)           109.4165         estimate D2E/DX2                !
 ! A121  A(65,62,67)           110.0971         estimate D2E/DX2                !
 ! A122  A(66,62,67)           106.9482         estimate D2E/DX2                !
 ! A123  A(61,63,68)           111.3577         estimate D2E/DX2                !
 ! A124  A(61,63,69)           108.2915         estimate D2E/DX2                !
 ! A125  A(61,63,70)           109.1352         estimate D2E/DX2                !
 ! A126  A(68,63,69)           109.8187         estimate D2E/DX2                !
 ! A127  A(68,63,70)           110.9694         estimate D2E/DX2                !
 ! A128  A(69,63,70)           107.1392         estimate D2E/DX2                !
 ! A129  A(62,65,71)           111.5798         estimate D2E/DX2                !
 ! A130  A(62,65,72)           109.7692         estimate D2E/DX2                !
 ! A131  A(62,65,73)           109.1523         estimate D2E/DX2                !
 ! A132  A(71,65,72)           110.4143         estimate D2E/DX2                !
 ! A133  A(71,65,73)           109.1211         estimate D2E/DX2                !
 ! A134  A(72,65,73)           106.6701         estimate D2E/DX2                !
 ! A135  A(63,68,71)           111.461          estimate D2E/DX2                !
 ! A136  A(63,68,74)           110.0109         estimate D2E/DX2                !
 ! A137  A(63,68,75)           109.0206         estimate D2E/DX2                !
 ! A138  A(71,68,74)           110.3739         estimate D2E/DX2                !
 ! A139  A(71,68,75)           109.0569         estimate D2E/DX2                !
 ! A140  A(74,68,75)           106.79           estimate D2E/DX2                !
 ! A141  A(65,71,68)           111.1277         estimate D2E/DX2                !
 ! A142  A(65,71,76)           110.1722         estimate D2E/DX2                !
 ! A143  A(65,71,77)           109.0701         estimate D2E/DX2                !
 ! A144  A(68,71,76)           110.1967         estimate D2E/DX2                !
 ! A145  A(68,71,77)           109.1896         estimate D2E/DX2                !
 ! A146  A(76,71,77)           106.9815         estimate D2E/DX2                !
 ! D1    D(6,1,2,3)              0.2796         estimate D2E/DX2                !
 ! D2    D(6,1,2,21)          -179.4041         estimate D2E/DX2                !
 ! D3    D(43,1,2,3)           179.8601         estimate D2E/DX2                !
 ! D4    D(43,1,2,21)            0.1765         estimate D2E/DX2                !
 ! D5    D(2,1,6,5)             -0.2951         estimate D2E/DX2                !
 ! D6    D(2,1,6,45)           179.2325         estimate D2E/DX2                !
 ! D7    D(43,1,6,5)          -179.7557         estimate D2E/DX2                !
 ! D8    D(43,1,6,45)           -0.2282         estimate D2E/DX2                !
 ! D9    D(2,1,43,7)            -0.1747         estimate D2E/DX2                !
 ! D10   D(2,1,43,44)          178.6197         estimate D2E/DX2                !
 ! D11   D(6,1,43,7)           179.3559         estimate D2E/DX2                !
 ! D12   D(6,1,43,44)           -1.8496         estimate D2E/DX2                !
 ! D13   D(1,2,3,4)              0.0026         estimate D2E/DX2                !
 ! D14   D(1,2,3,8)            179.9321         estimate D2E/DX2                !
 ! D15   D(21,2,3,4)           179.6084         estimate D2E/DX2                !
 ! D16   D(21,2,3,8)            -0.4621         estimate D2E/DX2                !
 ! D17   D(1,2,21,7)            -0.1063         estimate D2E/DX2                !
 ! D18   D(3,2,21,7)          -179.7433         estimate D2E/DX2                !
 ! D19   D(2,3,4,5)             -0.2512         estimate D2E/DX2                !
 ! D20   D(2,3,4,9)            179.7155         estimate D2E/DX2                !
 ! D21   D(8,3,4,5)            179.8197         estimate D2E/DX2                !
 ! D22   D(8,3,4,9)             -0.2136         estimate D2E/DX2                !
 ! D23   D(3,4,5,6)              0.2336         estimate D2E/DX2                !
 ! D24   D(3,4,5,10)           179.5752         estimate D2E/DX2                !
 ! D25   D(9,4,5,6)           -179.7333         estimate D2E/DX2                !
 ! D26   D(9,4,5,10)            -0.3917         estimate D2E/DX2                !
 ! D27   D(4,5,6,1)              0.0413         estimate D2E/DX2                !
 ! D28   D(4,5,6,45)          -179.4653         estimate D2E/DX2                !
 ! D29   D(10,5,6,1)          -179.2986         estimate D2E/DX2                !
 ! D30   D(10,5,6,45)            1.1948         estimate D2E/DX2                !
 ! D31   D(1,6,45,46)            5.7187         estimate D2E/DX2                !
 ! D32   D(1,6,45,47)         -174.3112         estimate D2E/DX2                !
 ! D33   D(5,6,45,46)         -174.7935         estimate D2E/DX2                !
 ! D34   D(5,6,45,47)            5.1766         estimate D2E/DX2                !
 ! D35   D(21,7,16,11)          -0.0051         estimate D2E/DX2                !
 ! D36   D(21,7,16,15)        -179.8934         estimate D2E/DX2                !
 ! D37   D(43,7,16,11)         179.3842         estimate D2E/DX2                !
 ! D38   D(43,7,16,15)          -0.5041         estimate D2E/DX2                !
 ! D39   D(16,7,21,2)          179.4481         estimate D2E/DX2                !
 ! D40   D(43,7,21,2)           -0.0062         estimate D2E/DX2                !
 ! D41   D(16,7,43,1)         -179.3347         estimate D2E/DX2                !
 ! D42   D(16,7,43,44)           1.9922         estimate D2E/DX2                !
 ! D43   D(21,7,43,1)            0.1185         estimate D2E/DX2                !
 ! D44   D(21,7,43,44)        -178.5546         estimate D2E/DX2                !
 ! D45   D(16,11,12,13)         -0.0568         estimate D2E/DX2                !
 ! D46   D(16,11,12,41)       -179.6529         estimate D2E/DX2                !
 ! D47   D(40,11,12,13)        179.5818         estimate D2E/DX2                !
 ! D48   D(40,11,12,41)         -0.0143         estimate D2E/DX2                !
 ! D49   D(12,11,16,7)        -179.736          estimate D2E/DX2                !
 ! D50   D(12,11,16,15)          0.161          estimate D2E/DX2                !
 ! D51   D(40,11,16,7)           0.7283         estimate D2E/DX2                !
 ! D52   D(40,11,16,15)       -179.3747         estimate D2E/DX2                !
 ! D53   D(12,11,40,17)         -0.1395         estimate D2E/DX2                !
 ! D54   D(12,11,40,42)       -179.9322         estimate D2E/DX2                !
 ! D55   D(16,11,40,17)        179.4551         estimate D2E/DX2                !
 ! D56   D(16,11,40,42)         -0.3377         estimate D2E/DX2                !
 ! D57   D(11,12,13,14)         -0.0105         estimate D2E/DX2                !
 ! D58   D(11,12,13,18)        179.9742         estimate D2E/DX2                !
 ! D59   D(41,12,13,14)        179.4828         estimate D2E/DX2                !
 ! D60   D(41,12,13,18)         -0.5325         estimate D2E/DX2                !
 ! D61   D(11,12,41,17)          0.1656         estimate D2E/DX2                !
 ! D62   D(13,12,41,17)       -179.3708         estimate D2E/DX2                !
 ! D63   D(12,13,14,15)         -0.0354         estimate D2E/DX2                !
 ! D64   D(12,13,14,19)        179.924          estimate D2E/DX2                !
 ! D65   D(18,13,14,15)        179.9801         estimate D2E/DX2                !
 ! D66   D(18,13,14,19)         -0.0605         estimate D2E/DX2                !
 ! D67   D(13,14,15,16)          0.1501         estimate D2E/DX2                !
 ! D68   D(13,14,15,20)       -179.9481         estimate D2E/DX2                !
 ! D69   D(19,14,15,16)       -179.8096         estimate D2E/DX2                !
 ! D70   D(19,14,15,20)          0.0922         estimate D2E/DX2                !
 ! D71   D(14,15,16,7)         179.6873         estimate D2E/DX2                !
 ! D72   D(14,15,16,11)         -0.2049         estimate D2E/DX2                !
 ! D73   D(20,15,16,7)          -0.214          estimate D2E/DX2                !
 ! D74   D(20,15,16,11)        179.8938         estimate D2E/DX2                !
 ! D75   D(40,17,23,22)        178.9151         estimate D2E/DX2                !
 ! D76   D(40,17,23,24)         -0.8939         estimate D2E/DX2                !
 ! D77   D(41,17,23,22)         -0.1832         estimate D2E/DX2                !
 ! D78   D(41,17,23,24)       -179.9922         estimate D2E/DX2                !
 ! D79   D(23,17,40,11)       -178.9374         estimate D2E/DX2                !
 ! D80   D(23,17,40,42)          0.8347         estimate D2E/DX2                !
 ! D81   D(41,17,40,11)          0.256          estimate D2E/DX2                !
 ! D82   D(41,17,40,42)       -179.9719         estimate D2E/DX2                !
 ! D83   D(23,17,41,12)        178.9491         estimate D2E/DX2                !
 ! D84   D(40,17,41,12)         -0.2596         estimate D2E/DX2                !
 ! D85   D(27,22,23,17)       -179.6765         estimate D2E/DX2                !
 ! D86   D(27,22,23,24)          0.1368         estimate D2E/DX2                !
 ! D87   D(38,22,23,17)          0.3808         estimate D2E/DX2                !
 ! D88   D(38,22,23,24)       -179.8059         estimate D2E/DX2                !
 ! D89   D(23,22,27,26)         -0.0457         estimate D2E/DX2                !
 ! D90   D(23,22,27,34)       -179.9064         estimate D2E/DX2                !
 ! D91   D(38,22,27,26)        179.8998         estimate D2E/DX2                !
 ! D92   D(38,22,27,34)          0.0391         estimate D2E/DX2                !
 ! D93   D(23,22,38,39)         -0.229          estimate D2E/DX2                !
 ! D94   D(27,22,38,39)        179.827          estimate D2E/DX2                !
 ! D95   D(17,23,24,25)        179.4251         estimate D2E/DX2                !
 ! D96   D(17,23,24,28)         -0.2713         estimate D2E/DX2                !
 ! D97   D(22,23,24,25)         -0.3832         estimate D2E/DX2                !
 ! D98   D(22,23,24,28)        179.9203         estimate D2E/DX2                !
 ! D99   D(23,24,25,26)          0.5181         estimate D2E/DX2                !
 ! D100  D(23,24,25,30)       -178.2029         estimate D2E/DX2                !
 ! D101  D(28,24,25,26)       -179.7864         estimate D2E/DX2                !
 ! D102  D(28,24,25,30)          1.4925         estimate D2E/DX2                !
 ! D103  D(24,25,26,27)         -0.429          estimate D2E/DX2                !
 ! D104  D(24,25,26,29)        179.5978         estimate D2E/DX2                !
 ! D105  D(30,25,26,27)        178.3007         estimate D2E/DX2                !
 ! D106  D(30,25,26,29)         -1.6725         estimate D2E/DX2                !
 ! D107  D(24,25,30,31)        -22.703          estimate D2E/DX2                !
 ! D108  D(24,25,30,32)         97.0319         estimate D2E/DX2                !
 ! D109  D(24,25,30,33)       -143.5059         estimate D2E/DX2                !
 ! D110  D(26,25,30,31)        158.6119         estimate D2E/DX2                !
 ! D111  D(26,25,30,32)        -81.6532         estimate D2E/DX2                !
 ! D112  D(26,25,30,33)         37.8089         estimate D2E/DX2                !
 ! D113  D(25,26,27,22)          0.1964         estimate D2E/DX2                !
 ! D114  D(25,26,27,34)       -179.9471         estimate D2E/DX2                !
 ! D115  D(29,26,27,22)       -179.8302         estimate D2E/DX2                !
 ! D116  D(29,26,27,34)          0.0263         estimate D2E/DX2                !
 ! D117  D(22,27,34,35)        -61.734          estimate D2E/DX2                !
 ! D118  D(22,27,34,36)         56.7901         estimate D2E/DX2                !
 ! D119  D(22,27,34,37)        177.533          estimate D2E/DX2                !
 ! D120  D(26,27,34,35)        118.4102         estimate D2E/DX2                !
 ! D121  D(26,27,34,36)       -123.0657         estimate D2E/DX2                !
 ! D122  D(26,27,34,37)         -2.3227         estimate D2E/DX2                !
 ! D123  D(6,45,46,52)         179.8887         estimate D2E/DX2                !
 ! D124  D(47,45,46,52)         -0.0845         estimate D2E/DX2                !
 ! D125  D(6,45,47,53)         179.8432         estimate D2E/DX2                !
 ! D126  D(6,45,47,57)           2.7892         estimate D2E/DX2                !
 ! D127  D(46,45,47,53)         -0.1835         estimate D2E/DX2                !
 ! D128  D(46,45,47,57)       -177.2375         estimate D2E/DX2                !
 ! D129  D(45,46,52,51)       -179.9176         estimate D2E/DX2                !
 ! D130  D(45,46,52,53)          0.3162         estimate D2E/DX2                !
 ! D131  D(45,47,53,48)       -179.1014         estimate D2E/DX2                !
 ! D132  D(45,47,53,52)          0.3633         estimate D2E/DX2                !
 ! D133  D(57,47,53,48)         -1.748          estimate D2E/DX2                !
 ! D134  D(57,47,53,52)        177.7167         estimate D2E/DX2                !
 ! D135  D(53,48,49,50)         -0.2364         estimate D2E/DX2                !
 ! D136  D(53,48,49,54)       -179.8986         estimate D2E/DX2                !
 ! D137  D(58,48,49,50)        178.6984         estimate D2E/DX2                !
 ! D138  D(58,48,49,54)         -0.9638         estimate D2E/DX2                !
 ! D139  D(49,48,53,47)       -179.9666         estimate D2E/DX2                !
 ! D140  D(49,48,53,52)          0.6498         estimate D2E/DX2                !
 ! D141  D(58,48,53,47)          1.0961         estimate D2E/DX2                !
 ! D142  D(58,48,53,52)       -178.2874         estimate D2E/DX2                !
 ! D143  D(49,48,58,59)          2.2525         estimate D2E/DX2                !
 ! D144  D(49,48,58,60)       -177.1542         estimate D2E/DX2                !
 ! D145  D(53,48,58,59)       -178.8784         estimate D2E/DX2                !
 ! D146  D(53,48,58,60)          1.715          estimate D2E/DX2                !
 ! D147  D(48,49,50,51)         -0.1204         estimate D2E/DX2                !
 ! D148  D(48,49,50,55)       -179.9115         estimate D2E/DX2                !
 ! D149  D(54,49,50,51)        179.539          estimate D2E/DX2                !
 ! D150  D(54,49,50,55)         -0.2521         estimate D2E/DX2                !
 ! D151  D(49,50,51,52)          0.0849         estimate D2E/DX2                !
 ! D152  D(49,50,51,56)       -179.4493         estimate D2E/DX2                !
 ! D153  D(55,50,51,52)        179.8752         estimate D2E/DX2                !
 ! D154  D(55,50,51,56)          0.341          estimate D2E/DX2                !
 ! D155  D(50,51,52,46)       -179.4388         estimate D2E/DX2                !
 ! D156  D(50,51,52,53)          0.3076         estimate D2E/DX2                !
 ! D157  D(56,51,52,46)          0.0982         estimate D2E/DX2                !
 ! D158  D(56,51,52,53)        179.8446         estimate D2E/DX2                !
 ! D159  D(46,52,53,47)         -0.426          estimate D2E/DX2                !
 ! D160  D(46,52,53,48)        179.0924         estimate D2E/DX2                !
 ! D161  D(51,52,53,47)        179.7771         estimate D2E/DX2                !
 ! D162  D(51,52,53,48)         -0.7045         estimate D2E/DX2                !
 ! D163  D(48,58,60,61)        179.6706         estimate D2E/DX2                !
 ! D164  D(59,58,60,61)          0.3099         estimate D2E/DX2                !
 ! D165  D(58,60,61,62)         -0.0217         estimate D2E/DX2                !
 ! D166  D(58,60,61,63)        126.1037         estimate D2E/DX2                !
 ! D167  D(58,60,61,64)       -119.8366         estimate D2E/DX2                !
 ! D168  D(60,61,62,65)       -178.8517         estimate D2E/DX2                !
 ! D169  D(60,61,62,66)         60.5233         estimate D2E/DX2                !
 ! D170  D(60,61,62,67)        -56.6121         estimate D2E/DX2                !
 ! D171  D(63,61,62,65)         56.1413         estimate D2E/DX2                !
 ! D172  D(63,61,62,66)        -64.4837         estimate D2E/DX2                !
 ! D173  D(63,61,62,67)        178.3809         estimate D2E/DX2                !
 ! D174  D(64,61,62,65)        -60.2937         estimate D2E/DX2                !
 ! D175  D(64,61,62,66)        179.0813         estimate D2E/DX2                !
 ! D176  D(64,61,62,67)         61.9459         estimate D2E/DX2                !
 ! D177  D(60,61,63,68)        174.1444         estimate D2E/DX2                !
 ! D178  D(60,61,63,69)        -65.0131         estimate D2E/DX2                !
 ! D179  D(60,61,63,70)         51.2965         estimate D2E/DX2                !
 ! D180  D(62,61,63,68)        -55.9741         estimate D2E/DX2                !
 ! D181  D(62,61,63,69)         64.8684         estimate D2E/DX2                !
 ! D182  D(62,61,63,70)       -178.822          estimate D2E/DX2                !
 ! D183  D(64,61,63,68)         61.0331         estimate D2E/DX2                !
 ! D184  D(64,61,63,69)       -178.1244         estimate D2E/DX2                !
 ! D185  D(64,61,63,70)        -61.8149         estimate D2E/DX2                !
 ! D186  D(61,62,65,71)        -56.0303         estimate D2E/DX2                !
 ! D187  D(61,62,65,72)       -178.7648         estimate D2E/DX2                !
 ! D188  D(61,62,65,73)         64.651          estimate D2E/DX2                !
 ! D189  D(66,62,65,71)         64.3952         estimate D2E/DX2                !
 ! D190  D(66,62,65,72)        -58.3392         estimate D2E/DX2                !
 ! D191  D(66,62,65,73)       -174.9235         estimate D2E/DX2                !
 ! D192  D(67,62,65,71)       -178.3406         estimate D2E/DX2                !
 ! D193  D(67,62,65,72)         58.925          estimate D2E/DX2                !
 ! D194  D(67,62,65,73)        -57.6593         estimate D2E/DX2                !
 ! D195  D(61,63,68,71)         55.3203         estimate D2E/DX2                !
 ! D196  D(61,63,68,74)        178.0915         estimate D2E/DX2                !
 ! D197  D(61,63,68,75)        -65.1183         estimate D2E/DX2                !
 ! D198  D(69,63,68,71)        -64.6228         estimate D2E/DX2                !
 ! D199  D(69,63,68,74)         58.1484         estimate D2E/DX2                !
 ! D200  D(69,63,68,75)        174.9386         estimate D2E/DX2                !
 ! D201  D(70,63,68,71)        177.11           estimate D2E/DX2                !
 ! D202  D(70,63,68,74)        -60.1188         estimate D2E/DX2                !
 ! D203  D(70,63,68,75)         56.6714         estimate D2E/DX2                !
 ! D204  D(62,65,71,68)         55.0034         estimate D2E/DX2                !
 ! D205  D(62,65,71,76)        177.4337         estimate D2E/DX2                !
 ! D206  D(62,65,71,77)        -65.4229         estimate D2E/DX2                !
 ! D207  D(72,65,71,68)        177.3681         estimate D2E/DX2                !
 ! D208  D(72,65,71,76)        -60.2015         estimate D2E/DX2                !
 ! D209  D(72,65,71,77)         56.9418         estimate D2E/DX2                !
 ! D210  D(73,65,71,68)        -65.6961         estimate D2E/DX2                !
 ! D211  D(73,65,71,76)         56.7342         estimate D2E/DX2                !
 ! D212  D(73,65,71,77)        173.8775         estimate D2E/DX2                !
 ! D213  D(63,68,71,65)        -54.5578         estimate D2E/DX2                !
 ! D214  D(63,68,71,76)       -176.9739         estimate D2E/DX2                !
 ! D215  D(63,68,71,77)         65.7979         estimate D2E/DX2                !
 ! D216  D(74,68,71,65)       -177.1208         estimate D2E/DX2                !
 ! D217  D(74,68,71,76)         60.463          estimate D2E/DX2                !
 ! D218  D(74,68,71,77)        -56.7651         estimate D2E/DX2                !
 ! D219  D(75,68,71,65)         65.8595         estimate D2E/DX2                !
 ! D220  D(75,68,71,76)        -56.5567         estimate D2E/DX2                !
 ! D221  D(75,68,71,77)       -173.7848         estimate D2E/DX2                !
 --------------------------------------------------------------------------------
 Trust Radius=3.00D-01 FncErr=5.00D-06 GrdErr=5.00D-06 EigMax=2.50D+02 EigMin=1.00D-04
 Number of steps in this run=    461 maximum allowed number of steps=    462.
 GradGradGradGradGradGradGradGradGradGradGradGradGradGradGradGradGradGrad

 Leave Link  103 at Fri Dec 14 12:00:19 2018, MaxMem=  1342177280 cpu:               0.7 elap:               0.1
 (Enter /gpfs/apps/hpc/Apps/Restricted/Gaussian/Rev_A.03/g16/l202.exe)
 Symmetry turned off by external request.
 Stoichiometry    C36H33N7O
 Framework group  C1[X(C36H33N7O)]
 Deg. of freedom   225
 Full point group                 C1      NOp   1
                          Input orientation:                          
 ---------------------------------------------------------------------
 Center     Atomic      Atomic             Coordinates (Angstroms)
 Number     Number       Type             X           Y           Z
 ---------------------------------------------------------------------
      1          6           0        1.668431    0.395162    0.912804
      2          6           0        0.571321    1.239577    0.619988
      3          6           0        0.774077    2.616911    0.477506
      4          6           0        2.071466    3.102905    0.633382
      5          6           0        3.150694    2.254794    0.928949
      6          6           0        2.977671    0.872139    1.077755
      7          6           0       -0.204706   -0.776220    0.757147
      8          1           0       -0.052826    3.279200    0.252368
      9          1           0        2.257714    4.164816    0.523769
     10          1           0        4.141874    2.680341    1.033665
     11          6           0       -2.482827   -1.707977    0.530677
     12          6           0       -3.423146   -2.763777    0.532646
     13          6           0       -3.003315   -4.074546    0.777473
     14          6           0       -1.645268   -4.285766    1.013748
     15          6           0       -0.719010   -3.231812    1.008910
     16          6           0       -1.114865   -1.908399    0.768401
     17          6           0       -4.515498   -0.931830    0.094513
     18          1           0       -3.712377   -4.893601    0.782544
     19          1           0       -1.288942   -5.290286    1.207926
     20          1           0        0.325006   -3.450330    1.197451
     21          7           0       -0.584541    0.479856    0.530333
     22          6           0       -6.906754   -0.542940   -0.387970
     23          6           0       -5.600083   -0.023436   -0.230714
     24          6           0       -5.381455    1.356684   -0.396456
     25          6           0       -6.419296    2.221048   -0.719140
     26          6           0       -7.707503    1.676538   -0.866139
     27          6           0       -7.971898    0.320333   -0.710248
     28          1           0       -4.377731    1.750624   -0.273545
     29          1           0       -8.534102    2.337137   -1.111926
     30          6           0       -6.175969    3.693322   -0.935579
     31          1           0       -5.260480    4.016349   -0.435542
     32          1           0       -6.070485    3.925091   -2.001047
     33          1           0       -7.006630    4.292783   -0.554814
     34          6           0       -9.354196   -0.248112   -0.871558
     35          1           0       -9.391620   -0.972653   -1.691243
     36          1           0       -9.668940   -0.781559    0.030307
     37          1           0      -10.074574    0.544867   -1.076206
     38          8           0       -7.189099   -1.855111   -0.239789
     39          1           0       -6.334531   -2.324404   -0.018035
     40          7           0       -3.201881   -0.568703    0.253936
     41          7           0       -4.678802   -2.246624    0.260168
     42          1           0       -2.768570    0.345659    0.190840
     43          7           0        1.146050   -0.872004    0.990696
     44          1           0        1.719612   -1.687690    1.171462
     45          6           0        4.053538   -0.051885    1.394051
     46          7           0        3.912624   -1.375816    1.438489
     47          7           0        5.339318    0.339145    1.682586
     48          6           0        7.414779   -0.969531    2.286755
     49          6           0        7.831952   -2.294138    2.464406
     50          6           0        6.950499   -3.376848    2.300130
     51          6           0        5.613529   -3.185675    1.953831
     52          6           0        5.165190   -1.871286    1.769572
     53          6           0        6.068770   -0.795897    1.931160
     54          1           0        8.863722   -2.482288    2.741647
     55          1           0        7.321938   -4.383623    2.450431
     56          1           0        4.936593   -4.023469    1.837189
     57          1           0        5.741803    1.265872    1.763487
     58          6           0        8.316386    0.163831    2.482395
     59          1           0        9.347130   -0.095046    2.739010
     60          7           0        7.907119    1.372460    2.368706
     61          6           0        8.830539    2.488074    2.577191
     62          6           0       10.281141    2.141839    2.931464
     63          6           0        8.777125    3.400129    1.340111
     64          1           0        8.409047    3.063005    3.414805
     65          6           0       11.112250    3.412082    3.145222
     66          1           0       10.718608    1.552736    2.116003
     67          1           0       10.312347    1.516519    3.829130
     68          6           0        9.611121    4.668627    1.545734
     69          1           0        9.161806    2.837334    0.480528
     70          1           0        7.733962    3.648374    1.122287
     71          6           0       11.058647    4.333217    1.921752
     72          1           0       12.147818    3.142583    3.375104
     73          1           0       10.726173    3.952112    4.018905
     74          1           0        9.585300    5.284416    0.641521
     75          1           0        9.161577    5.265841    2.348834
     76          1           0       11.621193    5.251868    2.115981
     77          1           0       11.544623    3.832870    1.074734
 ---------------------------------------------------------------------
 Rotational constants (GHZ):           0.1703460           0.0230377           0.0203641
 Leave Link  202 at Fri Dec 14 12:00:19 2018, MaxMem=  1342177280 cpu:               1.4 elap:               0.1
 (Enter /gpfs/apps/hpc/Apps/Restricted/Gaussian/Rev_A.03/g16/l301.exe)
 Standard basis: 6-31G(d,p) (6D, 7F)
 Ernie: Thresh=  0.10000D-02 Tol=  0.10000D-05 Strict=F.
   825 basis functions,  1463 primitive gaussians,   825 cartesian basis functions
   153 alpha electrons      153 beta electrons
       nuclear repulsion energy      4583.6950892215 Hartrees.
 IExCor=  402 DFT=T Ex+Corr=B3LYP ExCW=0 ScaHFX=  0.200000
 ScaDFX=  0.800000  0.720000  1.000000  0.810000 ScalE2=  1.000000  1.000000
 IRadAn=      5 IRanWt=     -1 IRanGd=            0 ICorTp=0 IEmpDi=141
 NAtoms=   77 NActive=   77 NUniq=   77 SFac= 1.00D+00 NAtFMM=   60 NAOKFM=T Big=T
 Integral buffers will be    131072 words long.
 Raffenetti 2 integral format.
 Two-electron integral symmetry is turned off.
 R6Disp:  Grimme-D3(BJ) Dispersion energy=       -0.1787228384 Hartrees.
 Nuclear repulsion after empirical dispersion term =     4583.5163663831 Hartrees.
 Using the following non-standard input for PCM:
 radii=bondi
 dis
 rep
 cav
 --- end of non-standard input.
 ------------------------------------------------------------------------------
 Polarizable Continuum Model (PCM)
 =================================
 Model                : C-PCM.
 Atomic radii         : Bondi.
 Polarization charges : Total charges.
 Charge compensation  : None.
 Solution method      : On-the-fly selection.
 Cavity type          : Scaled VdW (van der Waals Surface) (Alpha=1.100).
 Cavity algorithm     : GePol (No added spheres)
                        Default sphere list used, NSphG=   77.
                        Lebedev-Laikov grids with approx.  5.0 points / Ang**2.
                        Smoothing algorithm: York/Karplus (Gamma=1.0000).
                        Polarization charges: spherical gaussians, with
                                              point-specific exponents (IZeta= 3).
                        Self-potential: point-specific (ISelfS= 7).
                        Self-field    : sphere-specific E.n sum rule (ISelfD= 2).
 1st derivatives      : Analytical E(r).r(x)/FMM algorithm (CHGder, D1EAlg=3).
                        Cavity 1st derivative terms included.
 Solvent              : Dichloromethane, Eps=   8.930000 Eps(inf)=   2.028346
 ------------------------------------------------------------------------------
 GePol: Number of generator spheres                  =      77
 GePol: Total number of spheres                      =      77
 GePol: Number of exposed spheres                    =      77 (100.00%)
 GePol: Number of points                             =    5339
 GePol: Average weight of points                     =       0.12
 GePol: Minimum weight of points                     =   0.26D-11
 GePol: Maximum weight of points                     =    0.21770
 GePol: Number of points with low weight             =     336
 GePol: Fraction of low-weight points (<1% of avg)   =       6.29%
 GePol: Cavity surface area                          =    625.032 Ang**2
 GePol: Cavity volume                                =    608.653 Ang**3
 PCM non-electrostatic energy =         0.0211084676 Hartrees.
 Nuclear repulsion after PCM non-electrostatic terms =     4583.5374748507 Hartrees.
 Leave Link  301 at Fri Dec 14 12:00:20 2018, MaxMem=  1342177280 cpu:               7.4 elap:               0.5
 (Enter /gpfs/apps/hpc/Apps/Restricted/Gaussian/Rev_A.03/g16/l302.exe)
 NPDir=0 NMtPBC=     1 NCelOv=     1 NCel=       1 NClECP=     1 NCelD=      1
         NCelK=      1 NCelE2=     1 NClLst=     1 CellRange=     0.0.
 One-electron integrals computed using PRISM.
 NBasis=   825 RedAO= T EigKep=  2.72D-04  NBF=   825
 NBsUse=   825 1.00D-06 EigRej= -1.00D+00 NBFU=   825
 Precomputing XC quadrature grid using
 IXCGrd= 4 IRadAn=           5 IRanWt=          -1 IRanGd=           0 AccXCQ= 0.00D+00.
 Generated NRdTot=       0 NPtTot=           0 NUsed=           0 NTot=          32
 NSgBfM=   714   712   713   714   714 MxSgAt=    77 MxSgA2=    77.
 Leave Link  302 at Fri Dec 14 12:00:24 2018, MaxMem=  1342177280 cpu:              52.6 elap:               3.5
 (Enter /gpfs/apps/hpc/Apps/Restricted/Gaussian/Rev_A.03/g16/l303.exe)
 DipDrv:  MaxL=1.
 Leave Link  303 at Fri Dec 14 12:00:24 2018, MaxMem=  1342177280 cpu:               2.6 elap:               0.2
 (Enter /gpfs/apps/hpc/Apps/Restricted/Gaussian/Rev_A.03/g16/l401.exe)
 ExpMin= 1.61D-01 ExpMax= 5.48D+03 ExpMxC= 8.25D+02 IAcc=3 IRadAn=         5 AccDes= 0.00D+00
 Harris functional with IExCor=  402 and IRadAn=       5 diagonalized for initial guess.
 HarFok:  IExCor=  402 AccDes= 0.00D+00 IRadAn=         5 IDoV= 1 UseB2=F ITyADJ=14
 ICtDFT=  3500011 ScaDFX=  1.000000  1.000000  1.000000  1.000000
 FoFCou: FMM=F IPFlag=           0 FMFlag=      100000 FMFlg1=        2001
         NFxFlg=           0 DoJE=T BraDBF=F KetDBF=T FulRan=T
         wScrn=  0.000000 ICntrl=       500 IOpCl=  0 I1Cent=   200000004 NGrid=           0
         NMat0=    1 NMatS0=      1 NMatT0=    0 NMatD0=    1 NMtDS0=    0 NMtDT0=    0
 Symmetry not used in FoFCou.
 Harris En= -1850.44940809344    
 JPrj=0 DoOrth=F DoCkMO=F.
 Leave Link  401 at Fri Dec 14 12:00:30 2018, MaxMem=  1342177280 cpu:             102.4 elap:               6.5
 (Enter /gpfs/apps/hpc/Apps/Restricted/Gaussian/Rev_A.03/g16/l502.exe)
 Two-electron integral symmetry not used.
 Closed shell SCF:
 Using DIIS extrapolation, IDIIS=  1040.
 NGot=  1342177280 LenX=  1340796146 LenY=  1340114696
 Requested convergence on RMS density matrix=1.00D-08 within 128 cycles.
 Requested convergence on MAX density matrix=1.00D-06.
 Requested convergence on             energy=1.00D-06.
 No special actions if energy rises.
 Fock matrices will be formed incrementally for  20 cycles.

 Cycle   1  Pass 1  IDiag  1:
 FoFJK:  IHMeth= 1 ICntrl=       0 DoSepK=F KAlg= 0 I1Cent=           0 FoldK=F
 IRaf= 580000000 NMat=       1 IRICut=       1 DoRegI=T DoRafI=F ISym2E= 0 IDoP0=0 IntGTp=1.
 FoFCou: FMM=T IPFlag=           0 FMFlag=      100000 FMFlg1=        2001
         NFxFlg=           0 DoJE=F BraDBF=F KetDBF=F FulRan=T
         wScrn=  0.000000 ICntrl=         0 IOpCl=  0 I1Cent=           0 NGrid=           0
         NMat0=    1 NMatS0=      1 NMatT0=    0 NMatD0=    1 NMtDS0=    0 NMtDT0=    0
 Symmetry not used in FoFCou.
 FMM levels:  10  Number of levels for PrismC:   9
 Inv3:  Mode=1 IEnd=    85514763.
 Iteration    1 A*A^-1 deviation from unit magnitude is 1.81D-14 for   1873.
 Iteration    1 A*A^-1 deviation from orthogonality  is 1.04D-14 for   1873    290.
 Iteration    1 A^-1*A deviation from unit magnitude is 1.77D-14 for   5320.
 Iteration    1 A^-1*A deviation from orthogonality  is 2.39D-15 for   4457   3937.
 E= -1849.65802897208    
 DIIS: error= 2.56D-02 at cycle   1 NSaved=   1.
 NSaved= 1 IEnMin= 1 EnMin= -1849.65802897208     IErMin= 1 ErrMin= 2.56D-02
 ErrMax= 2.56D-02  0.00D+00 EMaxC= 1.00D-01 BMatC= 8.66D-01 BMatP= 8.66D-01
 IDIUse=3 WtCom= 7.44D-01 WtEn= 2.56D-01
 Coeff-Com:  0.100D+01
 Coeff-En:   0.100D+01
 Coeff:      0.100D+01
 Gap=     0.158 Goal=   None    Shift=    0.000
 GapD=    0.158 DampG=1.000 DampE=0.500 DampFc=0.5000 IDamp=-1.
 Damping current iteration by 5.00D-01
 RMSDP=2.83D-03 MaxDP=1.61D-01              OVMax= 2.02D-01

 Cycle   2  Pass 1  IDiag  1:
 RMSU=  1.36D-03    CP:  9.67D-01
 E= -1850.06160513833     Delta-E=       -0.403576166248 Rises=F Damp=T
 DIIS: error= 8.63D-03 at cycle   2 NSaved=   2.
 NSaved= 2 IEnMin= 2 EnMin= -1850.06160513833     IErMin= 2 ErrMin= 8.63D-03
 ErrMax= 8.63D-03  0.00D+00 EMaxC= 1.00D-01 BMatC= 6.73D-02 BMatP= 8.66D-01
 IDIUse=3 WtCom= 9.14D-01 WtEn= 8.63D-02
 Coeff-Com:  0.404D-01 0.960D+00
 Coeff-En:   0.746D-01 0.925D+00
 Coeff:      0.434D-01 0.957D+00
 Gap=     0.146 Goal=   None    Shift=    0.000
 RMSDP=8.42D-04 MaxDP=5.29D-02 DE=-4.04D-01 OVMax= 1.74D-01

 Cycle   3  Pass 1  IDiag  1:
 RMSU=  8.14D-04    CP:  9.49D-01  1.02D+00
 E= -1850.50284076790     Delta-E=       -0.441235629567 Rises=F Damp=F
 DIIS: error= 4.76D-03 at cycle   3 NSaved=   3.
 NSaved= 3 IEnMin= 3 EnMin= -1850.50284076790     IErMin= 3 ErrMin= 4.76D-03
 ErrMax= 4.76D-03  0.00D+00 EMaxC= 1.00D-01 BMatC= 5.26D-02 BMatP= 6.73D-02
 IDIUse=3 WtCom= 9.52D-01 WtEn= 4.76D-02
 Coeff-Com: -0.405D-01 0.478D+00 0.562D+00
 Coeff-En:   0.000D+00 0.000D+00 0.100D+01
 Coeff:     -0.386D-01 0.455D+00 0.583D+00
 Gap=     0.139 Goal=   None    Shift=    0.000
 RMSDP=4.16D-04 MaxDP=3.01D-02 DE=-4.41D-01 OVMax= 6.87D-02

 Cycle   4  Pass 1  IDiag  1:
 RMSU=  2.92D-04    CP:  9.51D-01  1.10D+00  6.62D-01
 E= -1850.54765025640     Delta-E=       -0.044809488503 Rises=F Damp=F
 DIIS: error= 2.12D-03 at cycle   4 NSaved=   4.
 NSaved= 4 IEnMin= 4 EnMin= -1850.54765025640     IErMin= 4 ErrMin= 2.12D-03
 ErrMax= 2.12D-03  0.00D+00 EMaxC= 1.00D-01 BMatC= 9.82D-03 BMatP= 5.26D-02
 IDIUse=3 WtCom= 9.79D-01 WtEn= 2.12D-02
 Coeff-Com: -0.210D-01 0.113D+00 0.330D+00 0.578D+00
 Coeff-En:   0.000D+00 0.000D+00 0.157D+00 0.843D+00
 Coeff:     -0.206D-01 0.111D+00 0.326D+00 0.584D+00
 Gap=     0.137 Goal=   None    Shift=    0.000
 RMSDP=1.55D-04 MaxDP=1.12D-02 DE=-4.48D-02 OVMax= 2.30D-02

 Cycle   5  Pass 1  IDiag  1:
 RMSU=  8.44D-05    CP:  9.51D-01  1.07D+00  7.41D-01  6.29D-01
 E= -1850.55673590822     Delta-E=       -0.009085651821 Rises=F Damp=F
 DIIS: error= 5.92D-04 at cycle   5 NSaved=   5.
 NSaved= 5 IEnMin= 5 EnMin= -1850.55673590822     IErMin= 5 ErrMin= 5.92D-04
 ErrMax= 5.92D-04  0.00D+00 EMaxC= 1.00D-01 BMatC= 8.85D-04 BMatP= 9.82D-03
 IDIUse=3 WtCom= 9.94D-01 WtEn= 5.92D-03
 Coeff-Com: -0.828D-02 0.244D-01 0.139D+00 0.330D+00 0.515D+00
 Coeff-En:   0.000D+00 0.000D+00 0.000D+00 0.000D+00 0.100D+01
 Coeff:     -0.823D-02 0.242D-01 0.138D+00 0.328D+00 0.518D+00
 Gap=     0.137 Goal=   None    Shift=    0.000
 RMSDP=4.90D-05 MaxDP=4.77D-03 DE=-9.09D-03 OVMax= 5.35D-03

 Cycle   6  Pass 1  IDiag  1:
 RMSU=  2.49D-05    CP:  9.50D-01  1.08D+00  7.47D-01  6.62D-01  5.29D-01
 E= -1850.55753246987     Delta-E=       -0.000796561646 Rises=F Damp=F
 DIIS: error= 1.45D-04 at cycle   6 NSaved=   6.
 NSaved= 6 IEnMin= 6 EnMin= -1850.55753246987     IErMin= 6 ErrMin= 1.45D-04
 ErrMax= 1.45D-04  0.00D+00 EMaxC= 1.00D-01 BMatC= 5.62D-05 BMatP= 8.85D-04
 IDIUse=3 WtCom= 9.99D-01 WtEn= 1.45D-03
 Coeff-Com: -0.299D-02 0.555D-02 0.500D-01 0.133D+00 0.278D+00 0.537D+00
 Coeff-En:   0.000D+00 0.000D+00 0.000D+00 0.000D+00 0.000D+00 0.100D+01
 Coeff:     -0.299D-02 0.554D-02 0.500D-01 0.132D+00 0.278D+00 0.537D+00
 Gap=     0.138 Goal=   None    Shift=    0.000
 RMSDP=1.21D-05 MaxDP=9.89D-04 DE=-7.97D-04 OVMax= 1.79D-03

 Cycle   7  Pass 1  IDiag  1:
 RMSU=  7.01D-06    CP:  9.50D-01  1.08D+00  7.46D-01  6.66D-01  5.93D-01
                    CP:  6.75D-01
 E= -1850.55758180615     Delta-E=       -0.000049336285 Rises=F Damp=F
 DIIS: error= 4.54D-05 at cycle   7 NSaved=   7.
 NSaved= 7 IEnMin= 7 EnMin= -1850.55758180615     IErMin= 7 ErrMin= 4.54D-05
 ErrMax= 4.54D-05  0.00D+00 EMaxC= 1.00D-01 BMatC= 5.71D-06 BMatP= 5.62D-05
 IDIUse=1 WtCom= 1.00D+00 WtEn= 0.00D+00
 Coeff-Com: -0.963D-03 0.937D-03 0.157D-01 0.448D-01 0.111D+00 0.304D+00
 Coeff-Com:  0.524D+00
 Coeff:     -0.963D-03 0.937D-03 0.157D-01 0.448D-01 0.111D+00 0.304D+00
 Coeff:      0.524D+00
 Gap=     0.138 Goal=   None    Shift=    0.000
 RMSDP=3.39D-06 MaxDP=2.88D-04 DE=-4.93D-05 OVMax= 4.93D-04

 Cycle   8  Pass 1  IDiag  1:
 RMSU=  1.67D-06    CP:  9.50D-01  1.08D+00  7.47D-01  6.67D-01  5.91D-01
                    CP:  7.11D-01  6.10D-01
 E= -1850.55758724601     Delta-E=       -0.000005439855 Rises=F Damp=F
 DIIS: error= 9.70D-06 at cycle   8 NSaved=   8.
 NSaved= 8 IEnMin= 8 EnMin= -1850.55758724601     IErMin= 8 ErrMin= 9.70D-06
 ErrMax= 9.70D-06  0.00D+00 EMaxC= 1.00D-01 BMatC= 1.76D-07 BMatP= 5.71D-06
 IDIUse=1 WtCom= 1.00D+00 WtEn= 0.00D+00
 Coeff-Com: -0.177D-03 0.114D-05 0.269D-02 0.814D-02 0.244D-01 0.811D-01
 Coeff-Com:  0.208D+00 0.676D+00
 Coeff:     -0.177D-03 0.114D-05 0.269D-02 0.814D-02 0.244D-01 0.811D-01
 Coeff:      0.208D+00 0.676D+00
 Gap=     0.138 Goal=   None    Shift=    0.000
 RMSDP=7.68D-07 MaxDP=8.90D-05 DE=-5.44D-06 OVMax= 1.55D-04

 Cycle   9  Pass 1  IDiag  1:
 RMSU=  6.20D-07    CP:  9.50D-01  1.08D+00  7.47D-01  6.67D-01  5.91D-01
                    CP:  7.13D-01  6.48D-01  7.94D-01
 E= -1850.55758737029     Delta-E=       -0.000000124282 Rises=F Damp=F
 DIIS: error= 5.96D-06 at cycle   9 NSaved=   9.
 NSaved= 9 IEnMin= 9 EnMin= -1850.55758737029     IErMin= 9 ErrMin= 5.96D-06
 ErrMax= 5.96D-06  0.00D+00 EMaxC= 1.00D-01 BMatC= 5.76D-08 BMatP= 1.76D-07
 IDIUse=1 WtCom= 1.00D+00 WtEn= 0.00D+00
 Coeff-Com:  0.117D-04-0.121D-03-0.309D-03-0.704D-03 0.933D-03 0.109D-01
 Coeff-Com:  0.592D-01 0.406D+00 0.524D+00
 Coeff:      0.117D-04-0.121D-03-0.309D-03-0.704D-03 0.933D-03 0.109D-01
 Coeff:      0.592D-01 0.406D+00 0.524D+00
 Gap=     0.138 Goal=   None    Shift=    0.000
 RMSDP=3.39D-07 MaxDP=5.67D-05 DE=-1.24D-07 OVMax= 5.95D-05

 Cycle  10  Pass 1  IDiag  1:
 RMSU=  2.06D-07    CP:  9.50D-01  1.08D+00  7.47D-01  6.67D-01  5.92D-01
                    CP:  7.14D-01  6.51D-01  8.62D-01  6.29D-01
 E= -1850.55758742346     Delta-E=       -0.000000053169 Rises=F Damp=F
 DIIS: error= 1.71D-06 at cycle  10 NSaved=  10.
 NSaved=10 IEnMin=10 EnMin= -1850.55758742346     IErMin=10 ErrMin= 1.71D-06
 ErrMax= 1.71D-06  0.00D+00 EMaxC= 1.00D-01 BMatC= 4.78D-09 BMatP= 5.76D-08
 IDIUse=1 WtCom= 1.00D+00 WtEn= 0.00D+00
 Coeff-Com:  0.223D-04-0.708D-04-0.403D-03-0.113D-02-0.156D-02-0.612D-03
 Coeff-Com:  0.159D-01 0.172D+00 0.295D+00 0.520D+00
 Coeff:      0.223D-04-0.708D-04-0.403D-03-0.113D-02-0.156D-02-0.612D-03
 Coeff:      0.159D-01 0.172D+00 0.295D+00 0.520D+00
 Gap=     0.138 Goal=   None    Shift=    0.000
 RMSDP=1.14D-07 MaxDP=1.71D-05 DE=-5.32D-08 OVMax= 1.77D-05

 Cycle  11  Pass 1  IDiag  1:
 RMSU=  7.44D-08    CP:  9.50D-01  1.08D+00  7.47D-01  6.67D-01  5.92D-01
                    CP:  7.15D-01  6.53D-01  8.78D-01  6.87D-01  6.63D-01
 E= -1850.55758742738     Delta-E=       -0.000000003924 Rises=F Damp=F
 DIIS: error= 4.01D-07 at cycle  11 NSaved=  11.
 NSaved=11 IEnMin=11 EnMin= -1850.55758742738     IErMin=11 ErrMin= 4.01D-07
 ErrMax= 4.01D-07  0.00D+00 EMaxC= 1.00D-01 BMatC= 4.58D-10 BMatP= 4.78D-09
 IDIUse=1 WtCom= 1.00D+00 WtEn= 0.00D+00
 Coeff-Com:  0.890D-05-0.156D-04-0.145D-03-0.461D-03-0.887D-03-0.174D-02
 Coeff-Com: -0.276D-03 0.284D-01 0.749D-01 0.268D+00 0.632D+00
 Coeff:      0.890D-05-0.156D-04-0.145D-03-0.461D-03-0.887D-03-0.174D-02
 Coeff:     -0.276D-03 0.284D-01 0.749D-01 0.268D+00 0.632D+00
 Gap=     0.138 Goal=   None    Shift=    0.000
 RMSDP=3.42D-08 MaxDP=5.12D-06 DE=-3.92D-09 OVMax= 7.93D-06

 Cycle  12  Pass 1  IDiag  1:
 RMSU=  2.14D-08    CP:  9.50D-01  1.08D+00  7.47D-01  6.67D-01  5.92D-01
                    CP:  7.15D-01  6.54D-01  8.81D-01  6.96D-01  7.43D-01
                    CP:  7.42D-01
 E= -1850.55758742790     Delta-E=       -0.000000000519 Rises=F Damp=F
 DIIS: error= 1.99D-07 at cycle  12 NSaved=  12.
 NSaved=12 IEnMin=12 EnMin= -1850.55758742790     IErMin=12 ErrMin= 1.99D-07
 ErrMax= 1.99D-07  0.00D+00 EMaxC= 1.00D-01 BMatC= 4.96D-11 BMatP= 4.58D-10
 IDIUse=1 WtCom= 1.00D+00 WtEn= 0.00D+00
 Coeff-Com:  0.289D-05-0.233D-05-0.407D-04-0.147D-03-0.330D-03-0.848D-03
 Coeff-Com: -0.147D-02-0.415D-03 0.132D-01 0.885D-01 0.325D+00 0.576D+00
 Coeff:      0.289D-05-0.233D-05-0.407D-04-0.147D-03-0.330D-03-0.848D-03
 Coeff:     -0.147D-02-0.415D-03 0.132D-01 0.885D-01 0.325D+00 0.576D+00
 Gap=     0.138 Goal=   None    Shift=    0.000
 RMSDP=1.16D-08 MaxDP=1.01D-06 DE=-5.19D-10 OVMax= 2.88D-06

 Cycle  13  Pass 1  IDiag  1:
 RMSU=  8.44D-09    CP:  9.50D-01  1.08D+00  7.47D-01  6.67D-01  5.92D-01
                    CP:  7.15D-01  6.54D-01  8.82D-01  6.98D-01  7.52D-01
                    CP:  8.05D-01  7.47D-01
 E= -1850.55758742784     Delta-E=        0.000000000062 Rises=F Damp=F
 DIIS: error= 4.95D-08 at cycle  13 NSaved=  13.
 NSaved=13 IEnMin=12 EnMin= -1850.55758742790     IErMin=13 ErrMin= 4.95D-08
 ErrMax= 4.95D-08  0.00D+00 EMaxC= 1.00D-01 BMatC= 5.33D-12 BMatP= 4.96D-11
 IDIUse=1 WtCom= 1.00D+00 WtEn= 0.00D+00
 Coeff-Com: -0.672D-07 0.141D-05 0.585D-05 0.723D-05-0.932D-05-0.124D-03
 Coeff-Com: -0.700D-03-0.569D-02-0.677D-02-0.399D-02 0.563D-01 0.277D+00
 Coeff-Com:  0.684D+00
 Coeff:     -0.672D-07 0.141D-05 0.585D-05 0.723D-05-0.932D-05-0.124D-03
 Coeff:     -0.700D-03-0.569D-02-0.677D-02-0.399D-02 0.563D-01 0.277D+00
 Coeff:      0.684D+00
 Gap=     0.138 Goal=   None    Shift=    0.000
 RMSDP=4.43D-09 MaxDP=2.93D-07 DE= 6.18D-11 OVMax= 1.12D-06

 Error on total polarization charges =  0.05163
 SCF Done:  E(RB3LYP) =  -1850.55758743     A.U. after   13 cycles
            NFock= 13  Conv=0.44D-08     -V/T= 2.0095
 KE= 1.833087462598D+03 PE=-1.346129232740D+04 EE= 5.194109802527D+03
 Leave Link  502 at Fri Dec 14 12:04:13 2018, MaxMem=  1342177280 cpu:            3431.2 elap:             222.9
 (Enter /gpfs/apps/hpc/Apps/Restricted/Gaussian/Rev_A.03/g16/l601.exe)
 Copying SCF densities to generalized density rwf, IOpCl= 0 IROHF=0.

 **********************************************************************

            Population analysis using the SCF density.

 **********************************************************************

 Alpha  occ. eigenvalues --  -19.15904 -14.38687 -14.38650 -14.38516 -14.33308
 Alpha  occ. eigenvalues --  -14.33015 -14.32800 -14.32762 -10.27052 -10.26889
 Alpha  occ. eigenvalues --  -10.26779 -10.24812 -10.23303 -10.23195 -10.23133
 Alpha  occ. eigenvalues --  -10.22785 -10.22033 -10.21783 -10.21603 -10.21457
[...]
 00014,0.00002499,0.00000408,0.00000350,-0.00001113,-0.00000530,-0.0000
 0051,-0.00003686,0.00000868,-0.00000660,-0.00000101,-0.00003942,-0.000
 03531,-0.00001330,0.00002338,-0.00000710,-0.00002378,-0.00000557,0.000
 00111,0.00000655,-0.00001911,0.00000211,0.00000625,0.00000748,0.000002
 46,0.00001323,-0.00002895,0.00000670,0.00000196,0.00000207,-0.00000249
 ,-0.00000053,-0.00000329,0.00000012,-0.00000069,-0.00000113,-0.0000011
 4,0.00002482,-0.00000177,-0.00000148,0.00003970,0.00007117,-0.00006482
 ,0.00000591,-0.00000304,-0.00000449,-0.00009333,0.00008202,0.00037011,
 -0.00005037,0.00072603,0.00041225,-0.00007666,0.00008256,0.00008816,0.
 00155081,-0.00291365,-0.00472759,-0.00005065,-0.00025220,0.00058172,-0
 .00029099,0.00025228,0.00096058,0.00001745,-0.00000261,-0.00016282,0.0
 0004336,-0.00006505,0.00000053,0.07702201,-0.09944816,-0.18767126,-0.0
 0094545,-0.00106394,0.00101683,-0.00022674,0.00007246,0.00009632,-0.00
 364193,0.00492085,0.00565484,0.00008118,-0.00013128,0.00021620,0.00028
 008,-0.00049288,0.00015616,0.01073870,-0.01440107,-0.01944934,-0.08350
 523,0.11169024,0.20127403,-0.00000004,0.00001073,-0.00000123,0.0000041
 5,-0.00000219,0.00000084,0.00000141,0.00000703,-0.00000065,-0.00000901
 ,-0.00000281,-0.00000086,0.00000564,-0.00000407,0.00000202,-0.00000224
 ,0.00000389,-0.00000103,0.00000916,-0.00000027,0.00000127,-0.00000105,
 0.00000022,-0.00000027,0.00000064,0.00000035,-0.00000014,0.00000202,-0
 .00000101,-0.00000123,0.00000037,-0.00000387,0.00000060,0.00000149,0.0
 0000102,0.00000009,0.00000084,-0.00000218,0.00000047,-0.00000284,-0.00
 000035,-0.00000035,-0.00000037,0.00000215,-0.00000033,0.00000033,-0.00
 000090,0.00000025,0.00000424,0.00000028,0.00000073,-0.00000017,-0.0000
 0019,-0.00000003,0.00000011,-0.00000021,0.00000001,-0.00000002,0.00000
 052,-0.00000012,-0.00000572,-0.00000012,-0.00000068,0.00000035,0.00000
 141,-0.00000020,-0.00000102,0.00000085,-0.00000036,0.00000021,-0.00000
 096,0.00000022,-0.00000127,-0.00000013,-0.00000013,0.00000038,0.000000
 81,0.,0.00000055,-0.00000033,0.00000022,0.,-0.00000019,-0.00000002,-0.
 00000018,0.00000013,-0.00000008,0.00000009,-0.00000005,0.,0.00000003,-
 0.00000005,-0.00000007,0.00000014,0.00000008,-0.00000007,-0.00000018,0
 .00000014,0.00000008,0.00000015,0.,0.,-0.00000008,-0.00000012,-0.00000
 004,-0.00000010,-0.00000010,0.00000004,-0.00000016,0.00000011,-0.00000
 003,-0.00000146,-0.00000059,-0.00000018,0.00000186,-0.00000016,0.00000
 034,-0.00000442,0.00000070,-0.00000076,-0.00000226,-0.00000020,-0.0000
 0037,0.00000223,0.00000029,0.00000024,-0.00001135,-0.00000488,-0.00000
 112,0.00000582,0.00000091,0.00000070,0.00004433,0.00001706,0.00000811,
 -0.00001668,-0.00001820,-0.00000208,-0.00005687,0.00000847,-0.00001146
 ,0.00000021,-0.00005988,-0.00001137,-0.00002893,0.00003508,-0.00001188
 ,-0.00003483,-0.00001091,-0.00000433,0.00000854,-0.00003161,0.00000326
 ,0.00000824,0.00000927,0.00000246,0.00001783,-0.00004473,0.00000736,0.
 00000391,0.00000319,-0.00000046,-0.00000101,-0.00000697,0.00000021,-0.
 00000174,-0.00000220,-0.00000082,0.00004079,0.00001470,0.00000038,0.00
 004118,0.00004160,-0.00002138,-0.00000227,-0.00003060,-0.00002383,0.00
 010470,-0.00025580,0.00030050,0.00026406,0.00072388,-0.00055054,0.0007
 1395,0.00042707,-0.00026351,-0.00539906,0.00386550,-0.00124759,-0.0000
 4120,-0.00002003,0.00007564,0.00033382,0.00176326,0.00088128,-0.000106
 36,-0.00024158,-0.00014625,0.00022072,0.00004297,-0.00017617,-0.016347
 98,-0.02736449,-0.00595742,0.00020050,-0.00002891,-0.00018048,-0.00127
 518,-0.00176927,-0.00019167,-0.11520370,-0.11059763,-0.02432222,0.0003
 2278,-0.00014591,0.00059277,0.00000140,-0.00006743,0.00001477,0.001301
 01,0.00017555,-0.00010830,0.00131597,-0.00006172,0.00069172,0.12580479
 ,-0.00000024,0.00001015,-0.00000125,0.00000306,-0.00000220,0.00000077,
 0.00000095,0.00000636,-0.00000066,-0.00000726,-0.00000121,-0.00000093,
 -0.00000004,-0.00000525,0.00000019,-0.00000011,0.00000157,-0.00000047,
 0.00000931,-0.00000071,0.00000149,-0.00000076,0.00000029,-0.00000020,0
 .00000015,0.00000095,-0.00000007,0.00000013,-0.00000239,0.00000081,0.0
 0000033,-0.00000336,0.00000054,0.00000143,0.00000086,0.00000014,0.0000
 0085,-0.00000176,0.00000041,-0.00000251,-0.00000022,-0.00000034,-0.000
 00013,0.00000193,-0.00000032,0.00000017,-0.00000095,0.00000025,0.00000
 379,-0.00000002,0.00000078,-0.00000015,-0.00000019,-0.00000001,0.00000
 015,-0.00000015,0.00000003,-0.00000010,0.00000042,-0.00000006,-0.00000
 489,0.00000123,-0.00000090,0.00000029,0.00000114,-0.00000016,-0.000000
 91,0.00000089,-0.00000038,0.00000020,-0.00000097,0.00000019,-0.0000012
 1,-0.00000012,-0.00000012,0.00000037,0.00000085,-0.00000003,0.00000049
 ,-0.00000034,0.00000023,-0.00000003,-0.00000020,0.,-0.00000018,0.00000
 013,-0.00000008,0.00000003,-0.00000010,0.,0.00000007,-0.00000001,0.,0.
 00000013,0.00000012,-0.00000014,-0.00000016,0.00000014,0.00000009,0.00
 000016,0.00000002,0.,-0.00000007,-0.00000014,-0.00000005,-0.00000009,-
 0.00000009,0.00000005,-0.00000016,0.00000012,-0.00000002,-0.00000135,-
 0.00000041,-0.00000026,0.00000179,-0.00000017,0.00000038,-0.00000388,0
 .00000071,-0.00000075,-0.00000215,0.00000010,-0.00000048,0.00000185,0.
 00000016,0.00000031,-0.00001050,-0.00000367,-0.00000142,0.00000602,0.0
 0000042,0.00000110,0.00003560,0.00000741,0.00000805,-0.00002091,-0.000
 01379,-0.00000397,-0.00005632,0.00000118,-0.00001515,-0.00003526,-0.00
 001082,-0.00000838,-0.00001863,0.00003000,-0.00000638,-0.00002508,-0.0
 0000896,-0.00000665,0.00000691,-0.00002231,0.00000286,0.00000456,0.000
 01170,-0.00000013,0.00000959,-0.00004668,0.00000589,0.00000198,0.00000
 584,0.00000074,-0.00000091,-0.00000564,-0.00000003,-0.00000198,-0.0000
 0208,-0.00000009,0.00004319,0.00000128,0.00001318,0.00007724,0.0000744
 3,-0.00000731,-0.00001872,0.00007486,0.00001145,-0.00027684,-0.0000807
 7,-0.00012899,0.00089673,-0.00005087,0.00009125,0.00093576,-0.00066251
 ,0.00467620,0.00145043,0.00050975,0.00045863,-0.00008329,0.00002753,-0
 .00000954,-0.00959182,-0.01649801,-0.00494430,0.00022783,0.00032098,-0
 .00002920,-0.00108809,-0.00120560,-0.00005476,0.00560650,0.00792946,0.
 00170073,0.00006120,0.00007786,0.00008040,0.00029836,0.00023390,0.0000
 9121,-0.11198796,-0.23365405,-0.04167135,0.00036885,0.00035301,-0.0003
 3720,-0.00006922,0.00112260,0.00001885,-0.00068389,0.00024224,-0.00018
 305,-0.00055359,0.00054236,0.00018082,0.12123484,0.25277945,-0.0000002
 7,-0.00000255,0.00000028,0.00000029,0.00000053,0.,0.00000053,-0.000001
 25,0.00000023,0.00000038,-0.00000043,0.00000012,0.00000293,0.00000133,
 0.00000062,-0.00000050,0.00000149,-0.00000003,-0.00000128,0.00000079,-
 0.00000027,-0.00000005,-0.00000003,0.00000002,0.00000053,-0.00000069,0
 .00000019,-0.00000022,0.00000111,-0.00000080,-0.00000005,-0.00000018,0
 .00000001,0.00000011,0.00000007,-0.00000002,0.00000005,-0.00000018,0.0
 0000002,-0.00000020,0.,-0.00000002,-0.00000012,0.00000018,-0.00000002,
 0.00000019,0.,-0.00000001,0.00000053,0.00000019,0.,-0.00000003,-0.0000
 0003,0.,0.,-0.00000007,0.,0.,0.00000005,-0.00000003,0.00000015,-0.0000
 0152,0.00000019,0.00000003,0.00000032,-0.00000005,-0.00000013,0.000000
 10,0.,0.00000009,-0.00000012,0.00000001,-0.00000016,0.00000003,-0.0000
 0004,0.00000008,0.00000005,0.,0.00000010,-0.00000008,0.00000001,-0.000
 00003,0.,0.,-0.00000002,0.00000002,0.,0.00000005,0.00000002,0.00000005
 ,-0.00000003,-0.00000002,-0.00000003,0.00000003,-0.00000001,-0.0000000
 1,-0.00000002,0.,0.00000002,0.00000003,0.,0.00000002,-0.00000002,-0.00
 000003,-0.00000003,-0.00000002,-0.00000001,0.,-0.00000002,0.00000002,0
 .,-0.00000020,-0.00000025,0.,0.00000019,0.00000002,0.00000003,-0.00000
 035,-0.00000013,-0.00000003,-0.00000022,-0.00000020,0.00000006,0.00000
 021,0.00000013,0.00000001,0.00000156,0.00000034,0.00000027,-0.00000152
 ,0.00000014,-0.00000041,-0.00000725,0.00000166,-0.00000242,0.00001020,
 0.00000324,0.00000258,0.00002473,-0.00000053,0.00000821,0.00004211,-0.
 00002621,-0.00000295,0.00000592,-0.00001141,0.00000353,0.00000676,0.00
 000459,0.00000337,-0.00000215,0.00000663,-0.00000110,0.00000038,-0.000
 00735,0.00000215,-0.00000085,0.00003021,-0.00000372,-0.00000084,-0.000
 00326,-0.00000160,0.00000076,0.00000223,0.,0.00000076,0.00000078,-0.00
 000030,-0.00002086,0.00000509,-0.00000900,-0.00006062,0.00000943,0.000
 00895,0.00003404,-0.00008350,-0.00001020,0.00027723,0.00002026,0.00023
 877,-0.00080790,0.00004838,-0.00040300,-0.00076089,0.00236265,-0.00458
 375,-0.00190330,0.00124736,0.00030770,0.00007976,-0.00004303,-0.000001
 60,0.01483441,0.02387456,0.00517841,-0.00010651,0.00014392,0.00017441,
 0.00090170,0.00147382,0.00011097,-0.00308463,-0.00718614,-0.00240509,0
 .00021262,0.00040576,0.00012176,-0.00055295,-0.00056795,0.00023489,-0.
 02517078,-0.04268264,-0.05677786,-0.00018199,-0.00073657,0.00100316,0.
 00012217,-0.00081029,0.00118363,0.00030573,-0.00010083,-0.00015626,0.0
 0018405,0.00051633,0.00050070,0.02864216,0.04270297,0.05975007,-0.0000
 0017,0.00000114,0.00000002,0.00000074,-0.00000001,0.00000027,0.0000006
 6,0.00000009,-0.00000011,-0.00000059,0.00000076,-0.00000076,0.00000113
 ,-0.00000062,-0.00000065,-0.00000048,0.00000060,-0.00000027,-0.0000002
 9,0.00000062,0.00000010,0.00000008,0.00000011,0.00000018,0.00000035,-0
 .00000048,0.00000068,-0.00000013,0.00000104,0.00000094,0.00000006,-0.0
 0000021,0.00000008,-0.00000004,0.00000005,0.00000003,-0.00000003,-0.00
 000024,-0.00000003,-0.00000014,0.00000002,-0.00000012,-0.00000019,0.00
 000004,-0.00000017,0.00000006,0.00000003,0.00000001,0.00000033,0.00000
 043,0.00000008,-0.00000005,0.,0.00000004,-0.00000002,-0.00000011,0.000
 00009,0.00000005,0.00000011,0.00000013,-0.00000028,-0.00000131,-0.0000
 0033,0.00000001,0.00000036,0.,-0.00000008,-0.00000003,0.,0.00000012,0.
 ,-0.00000007,-0.00000005,0.00000009,-0.00000007,0.00000005,0.,-0.00000
 003,0.00000010,-0.00000010,0.00000002,-0.00000006,0.00000003,0.0000000
 6,0.00000001,0.00000002,0.00000003,0.00000011,0.,0.00000011,-0.0000000
 9,0.,-0.00000002,0.,0.,-0.00000003,0.00000003,-0.00000002,0.,0.0000000
 2,-0.00000001,0.00000003,-0.00000004,-0.00000004,-0.00000004,-0.000000
 02,0.00000001,0.,0.,0.,0.00000001,-0.00000005,-0.00000043,-0.00000007,
 -0.00000003,0.00000012,0.00000009,-0.00000032,-0.00000021,-0.00000022,
 -0.00000002,-0.00000044,-0.00000007,0.00000021,0.00000027,0.00000026,-
 0.00000047,-0.00000140,-0.00000036,-0.00000021,0.00000050,0.00000049,0
 .00000337,0.00000464,0.00000132,-0.00000072,-0.00000357,-0.00000095,-0
 .00000683,0.00000377,-0.00000477,0.00000939,-0.00001842,-0.00001275,-0
 .00000776,0.00000417,-0.00000392,-0.00000503,-0.00000255,-0.00000050,0
 .00000094,-0.00000608,0.,0.00000161,0.00000098,0.00000108,0.00000508,-
 0.00000956,0.00000331,0.00000128,-0.00000007,0.00000092,-0.00000043,-0
 .00000157,0.00000040,-0.00000028,-0.00000030,0.00000014,0.00000311,0.0
 0000243,0.00000470,-0.00003640,0.00001581,-0.00000746,0.00000875,-0.00
 000282,0.00001251,0.00002966,-0.00009835,0.00008092,-0.00006413,0.0000
 1032,-0.00023762,-0.00004996,0.00018532,0.00039727,0.00155223,0.000861
 13,0.00101176,0.00006260,0.00004653,-0.00009959,0.00046527,-0.00082309
 ,-0.00199051,-0.00005402,-0.00009410,0.00000112,-0.00002946,-0.0001100
 6,-0.00006667,-0.01591927,0.01581590,0.02461257,-0.00013555,-0.0006515
 6,-0.00031430,0.00028196,-0.00001097,-0.00039050,-0.09603905,0.0497356
 7,0.08461851,0.00051045,-0.00054564,-0.00007573,0.00112028,0.00049664,
 -0.00042666,0.00132888,-0.00031357,-0.00000944,-0.00615179,0.00134410,
 -0.00157728,0.00776879,-0.00674190,-0.01302657,0.10534680,0.00000027,-
 0.00000329,0.00000031,-0.00000147,0.00000065,-0.00000038,-0.00000076,-
 0.00000203,0.00000030,0.00000284,0.00000023,0.00000078,-0.00000166,0.0
 0000163,0.00000002,0.00000048,-0.00000127,0.00000038,-0.00000264,-0.00
 000027,-0.00000052,0.00000017,-0.00000011,-0.00000009,-0.00000032,0.00
 000006,-0.00000043,0.,0.00000001,-0.00000044,-0.00000003,0.00000128,-0
 .00000022,-0.00000034,-0.00000041,-0.00000002,-0.00000027,0.00000084,-
 0.00000011,0.00000099,0.00000018,0.00000019,0.00000013,-0.00000069,0.0
 0000021,-0.00000020,0.00000027,-0.00000006,-0.00000154,-0.00000030,-0.
 00000027,0.00000007,0.00000004,-0.00000004,-0.00000002,0.00000007,-0.0
 0000007,-0.00000002,-0.00000022,-0.00000006,0.00000174,0.00000058,0.00
 000052,-0.00000017,-0.00000070,0.00000004,0.00000040,-0.00000024,0.000
 00009,-0.00000012,0.00000025,0.00000002,0.00000043,0.,0.00000010,-0.00
 000018,-0.00000032,0.00000004,-0.00000029,0.00000016,-0.00000006,0.000
 00005,0.00000004,-0.00000006,0.00000006,-0.00000006,-0.00000001,-0.000
 00012,0.00000002,-0.00000009,0.00000009,0.00000002,0.00000005,-0.00000
 004,-0.00000002,0.00000004,0.00000002,-0.00000003,-0.00000003,0.,0.000
 00004,-0.00000003,0.00000005,0.00000005,0.00000003,0.00000004,0.000000
 01,0.,0.00000005,-0.00000003,0.,0.00000049,0.00000055,0.00000009,-0.00
 000054,-0.00000006,-0.00000016,0.00000159,0.,0.00000042,0.00000065,0.0
 0000032,0.00000016,-0.00000080,-0.00000032,-0.00000028,0.00000335,0.00
 000189,0.00000049,-0.00000158,-0.00000044,-0.00000048,-0.00001212,-0.0
 0000549,-0.00000278,0.00000490,0.00000570,0.00000119,0.00001498,-0.000
 00169,0.00000416,0.00000526,0.00001277,0.00000563,0.00000736,-0.000009
 91,0.00000368,0.00000965,0.00000289,0.00000126,-0.00000230,0.00000850,
 -0.00000076,-0.00000211,-0.00000293,-0.00000001,-0.00000431,0.00001441
 ,-0.00000263,-0.00000136,-0.00000132,-0.00000007,0.00000028,0.00000212
 ,-0.00000027,0.00000066,0.00000066,0.00000008,-0.00000955,-0.00000371,
 -0.00000215,-0.00000860,-0.00001116,-0.00000429,0.00000478,0.00000012,
 0.00000628,0.00000086,0.00007982,-0.00008632,-0.00002905,-0.00008782,0
 .00015677,-0.00001695,0.00144291,0.00037127,-0.00081871,0.00041930,0.0
 0035789,0.00006194,-0.00011205,-0.00007893,-0.00917588,0.00846631,0.01
 663602,0.00036865,-0.00018395,-0.00034951,0.00024898,0.00018207,-0.000
 13268,0.00404619,-0.00490895,-0.00594521,0.00004876,0.00038943,0.00002
 123,0.00002253,0.00005072,0.00015969,0.05052251,-0.10310126,-0.0904490
 4,-0.00007094,0.00078781,-0.00081876,-0.00030148,-0.00164867,0.0037644
 8,-0.00026162,0.00003625,0.00001320,0.00205014,0.00074946,0.00075168,0
 .01238971,-0.01208767,-0.02059930,-0.05909401,0.10951693,0.00000003,-0
 .00000314,0.00000021,-0.00000104,0.00000047,-0.00000037,-0.00000049,-0
 .00000156,0.00000036,0.00000187,0.00000021,0.00000080,-0.00000081,0.00
 000151,0.00000054,0.00000052,-0.00000058,0.00000026,-0.00000182,-0.000
 00030,-0.00000049,0.00000011,-0.00000010,-0.00000017,-0.00000010,-0.00
 000012,-0.00000042,-0.00000023,0.00000003,-0.00000086,-0.00000009,0.00
 000074,-0.00000018,-0.00000017,-0.00000021,-0.00000006,-0.00000014,0.0
 0000053,-0.00000001,0.00000057,0.00000003,0.00000021,0.00000012,-0.000
 00034,0.00000025,-0.00000006,0.00000015,-0.00000006,-0.00000093,-0.000
 00031,-0.00000026,0.00000007,0.00000002,-0.00000006,0.,0.00000009,-0.0
 0000012,-0.00000001,-0.00000019,-0.00000016,0.00000115,0.00000046,0.00
 000063,-0.00000007,-0.00000045,0.,0.00000023,-0.00000012,0.00000008,-0
 .00000012,0.00000013,0.00000007,0.00000025,-0.00000002,0.00000007,-0.0
 0000011,-0.00000020,0.00000005,-0.00000019,0.00000014,-0.00000004,0.00
 000006,0.00000002,-0.00000009,0.00000003,-0.00000004,-0.00000003,-0.00
 000010,0.00000005,-0.00000010,0.00000008,0.,0.,0.,-0.00000003,0.000000
 08,-0.00000001,0.,-0.00000002,-0.00000002,0.00000002,-0.00000003,0.000
 00005,0.00000006,0.00000004,0.00000003,0.,0.,0.00000003,-0.00000002,0.
 ,0.00000025,0.00000041,0.00000015,-0.00000027,-0.00000009,-0.00000018,
 0.00000095,0.00000009,0.00000040,0.00000035,0.00000032,0.00000023,-0.0
 0000049,-0.00000027,-0.00000037,0.00000254,0.00000167,0.00000075,-0.00
 000122,-0.00000048,-0.00000087,-0.00001323,-0.00000469,-0.00000359,0.0
 0000590,0.00000758,0.00000210,0.00002278,-0.00000022,0.00000884,0.0000
 0488,0.00001930,0.00000308,0.00001076,-0.00001107,0.00000611,0.0000093
 1,0.00000486,0.00000270,-0.00000248,0.00000961,-0.00000052,-0.00000141
 ,-0.00000388,-0.00000070,-0.00000569,0.00001551,-0.00000259,-0.0000015
 9,-0.00000117,-0.00000191,0.00000074,0.00000278,-0.00000052,0.00000065
 ,0.00000076,-0.00000021,-0.00001859,-0.00000302,-0.00000818,0.00004373
 ,-0.00006950,0.00001755,-0.00000924,-0.00001892,-0.00001330,0.00014040
 ,0.00011118,0.00002178,-0.00029929,0.00014367,0.00004815,-0.00025123,-
 0.00139538,0.00092335,0.00017319,0.00028306,0.00033844,-0.00007329,-0.
 00006391,-0.00004063,0.01145877,-0.01228640,-0.02344069,0.00022287,0.0
 0064069,0.00055857,-0.00032125,0.00016841,0.00026475,-0.00467918,0.004
 34599,0.00680616,0.00032950,0.00015944,-0.00003871,0.00015762,0.000192
 94,0.00005502,0.08520499,-0.08991895,-0.19826388,-0.00048932,-0.000228
 90,0.00116332,-0.00003622,0.00415034,-0.00407338,0.00097590,-0.0001000
 9,0.00064740,-0.00207249,0.00026901,0.00079165,0.00201336,-0.00263539,
 -0.00447482,-0.09250164,0.09621783,0.21870442\\0.00000002,-0.00000014,
 0.00000048,0.00000074,-0.00000037,-0.00000286,0.00000189,-0.00000091,-
 0.00000735,0.00000227,-0.00000159,-0.00000864,0.00000152,-0.00000148,-
 0.00000560,0.00000026,-0.00000085,-0.00000080,-0.00000122,0.00000075,0
 .00000386,0.00000257,-0.00000105,-0.00000974,0.00000324,-0.00000207,-0
 .00001221,0.00000182,-0.00000196,-0.00000679,-0.00000191,0.00000201,0.
 00000671,-0.00000257,0.00000277,0.00000986,-0.00000388,0.00000336,0.00
 001447,-0.00000415,0.00000305,0.00001550,-0.00000333,0.00000214,0.0000
 1209,-0.00000203,0.00000158,0.00000761,-0.00000084,0.00000217,0.000003
 59,-0.00000459,0.00000390,0.00001709,-0.00000502,0.00000323,0.00001901
 ,-0.00000338,0.00000183,0.00001313,0.00000020,0.00000033,-0.00000020,-
 0.00000067,0.00000262,0.00000160,-0.00000030,0.00000194,0.00000015,0.0
 0000102,0.00000156,-0.00000452,0.00000188,0.00000118,-0.00000761,0.000
 00140,0.00000181,-0.00000614,0.00000024,0.00000245,-0.00000150,0.00000
 135,0.00000095,-0.00000560,0.00000209,0.00000159,-0.00000850,0.0000031
 8,0.00000015,-0.00001257,0.00000333,0.00000109,-0.00001343,0.00000359,
 -0.00000351,-0.00001334,0.00000357,0.00000219,-0.00001477,-0.00000024,
 0.00000311,0.00000010,-0.00000064,0.00000041,0.00000252,-0.00000086,0.
 00000647,0.00000176,0.00000047,0.00000309,-0.00000279,-0.00000163,0.00
 000337,0.00000606,-0.00000224,0.00000366,0.00000770,-0.00000079,0.0000
 0166,0.00000248,-0.00000233,0.00000280,0.00000798,0.00000009,0.0000010
 9,-0.00000047,-0.00000111,0.00000044,0.00000457,-0.00000197,0.00000056
 ,0.00000747,-0.00000060,-0.00000086,0.00000250,-0.00000170,-0.00000029
 ,0.00000694,-0.00000035,-0.00000081,0.00000139,-0.00000158,-0.00000049
 ,0.00000629,-0.00000281,-0.00000044,0.00001087,-0.00000372,-0.00000005
 ,0.00001439,-0.00000332,-0.00000020,0.00001349,-0.00000230,-0.00000027
 ,0.00000889,-0.00000151,-0.00000056,0.00000542,-0.00000288,-0.00000027
 ,0.00001183,-0.00000453,0.00000006,0.00001791,-0.00000406,0.00000009,0
 .00001614,0.00000053,-0.00000091,-0.00000156,-0.00000063,-0.00000044,0
 .00000292,-0.00000094,-0.00000060,0.00000379,0.00000043,-0.00000076,-0
 .00000146,0.00000135,-0.00000084,-0.00000506,0.00000093,-0.00000091,-0
 .00000348,0.00000236,-0.00000481,-0.00000810,0.00000168,0.00000252,-0.
 00000706,0.00000195,-0.00000087,-0.00000774,0.00000059,-0.00000390,-0.
 00000137,0.00000017,0.00000220,-0.00000146,0.00000342,-0.00000486,-0.0
 0001219,0.00000215,-0.00000822,-0.00000614,0.00000262,-0.00000479,-0.0
 0000924,0.00000305,-0.00000490,-0.00001077,0.00000178,-0.00000095,-0.0
 0000650,0.00000229,0.00000253,-0.00000955,0.00000413,-0.00000801,-0.00
 001430,0.00000383,-0.00000188,-0.00001442,0.00000377,-0.00000473,-0.00
 001379,0.00000287,-0.00000817,-0.00000899\\\@


 I DON'T EXACTLY UNDERSTAND WHAT YOU ARE SAYING,
 BUT YOU ARE ABSOLUTELY RIGHT.
     M.S.GORDON, IN A NDSU FACULTY MEETING
 Job cpu time:       0 days 15 hours 13 minutes  3.4 seconds.
 Elapsed time:       0 days  0 hours 57 minutes 18.2 seconds.
 File lengths (MBytes):  RWF=   5376 Int=      0 D2E=      0 Chk=     84 Scr=      8
 Normal termination of Gaussian 16 at Fri Dec 14 13:24:55 2018.
