 Entering Gaussian System, Link 0=g16
 Input=cyclohexyl-monoBIP-E1PT_rev.com
 Output=cyclohexyl-monoBIP-E1PT_rev.log
 Initial command:
 /gpfs/apps/hpc/Apps/Restricted/Gaussian/Rev_A.03/g16/l1.exe "/gpfs/scratch60/fas/hammes_schiffer/jg2487/c01n01/Gau-13566.inp" -scrdir="/gpfs/scratch60/fas/hammes_schiffer/jg2487/c01n01/"
 Entering Link 1 = /gpfs/apps/hpc/Apps/Restricted/Gaussian/Rev_A.03/g16/l1.exe PID=     13567.
  
 Copyright (c) 1988,1990,1992,1993,1995,1998,2003,2009,2016,
            Gaussian, Inc.  All Rights Reserved.
  
 This is part of the Gaussian(R) 16 program.  It is based on
 the Gaussian(R) 09 system (copyright 2009, Gaussian, Inc.),
 the Gaussian(R) 03 system (copyright 2003, Gaussian, Inc.),
 the Gaussian(R) 98 system (copyright 1998, Gaussian, Inc.),
 the Gaussian(R) 94 system (copyright 1995, Gaussian, Inc.),
 the Gaussian 92(TM) system (copyright 1992, Gaussian, Inc.),
 the Gaussian 90(TM) system (copyright 1990, Gaussian, Inc.),
 the Gaussian 88(TM) system (copyright 1988, Gaussian, Inc.),
 the Gaussian 86(TM) system (copyright 1986, Carnegie Mellon
 University), and the Gaussian 82(TM) system (copyright 1983,
 Carnegie Mellon University). Gaussian is a federally registered
 trademark of Gaussian, Inc.
  
 This software contains proprietary and confidential information,
 including trade secrets, belonging to Gaussian, Inc.
  
 This software is provided under written license and may be
 used, copied, transmitted, or stored only in accord with that
 written license.
  
 The following legend is applicable only to US Government
 contracts under FAR:
  
                    RESTRICTED RIGHTS LEGEND
  
 Use, reproduction and disclosure by the US Government is
 subject to restrictions as set forth in subparagraphs (a)
 and (c) of the Commercial Computer Software - Restricted
 Rights clause in FAR 52.227-19.
  
 Gaussian, Inc.
 340 Quinnipiac St., Bldg. 40, Wallingford CT 06492
  
  
 ---------------------------------------------------------------
 Warning -- This program may not be used in any manner that
 competes with the business of Gaussian, Inc. or will provide
 assistance to any competitor of Gaussian, Inc.  The licensee
 of this program is prohibited from giving any competitor of
 Gaussian, Inc. access to this program.  By using this program,
 the user acknowledges that Gaussian, Inc. is engaged in the
 business of creating and licensing software in the field of
 computational chemistry and represents and warrants to the
 licensee that it is not a competitor of Gaussian, Inc. and that
 it will not use this program in any manner prohibited above.
 ---------------------------------------------------------------
  

 Cite this work as:
 Gaussian 16, Revision A.03,
 M. J. Frisch, G. W. Trucks, H. B. Schlegel, G. E. Scuseria, 
 M. A. Robb, J. R. Cheeseman, G. Scalmani, V. Barone, 
 G. A. Petersson, H. Nakatsuji, X. Li, M. Caricato, A. V. Marenich, 
 J. Bloino, B. G. Janesko, R. Gomperts, B. Mennucci, H. P. Hratchian, 
 J. V. Ortiz, A. F. Izmaylov, J. L. Sonnenberg, D. Williams-Young, 
 F. Ding, F. Lipparini, F. Egidi, J. Goings, B. Peng, A. Petrone, 
 T. Henderson, D. Ranasinghe, V. G. Zakrzewski, J. Gao, N. Rega, 
 G. Zheng, W. Liang, M. Hada, M. Ehara, K. Toyota, R. Fukuda, 
 J. Hasegawa, M. Ishida, T. Nakajima, Y. Honda, O. Kitao, H. Nakai, 
 T. Vreven, K. Throssell, J. A. Montgomery, Jr., J. E. Peralta, 
 F. Ogliaro, M. J. Bearpark, J. J. Heyd, E. N. Brothers, K. N. Kudin, 
 V. N. Staroverov, T. A. Keith, R. Kobayashi, J. Normand, 
 K. Raghavachari, A. P. Rendell, J. C. Burant, S. S. Iyengar, 
 J. Tomasi, M. Cossi, J. M. Millam, M. Klene, C. Adamo, R. Cammi, 
 J. W. Ochterski, R. L. Martin, K. Morokuma, O. Farkas, 
 J. B. Foresman, and D. J. Fox, Gaussian, Inc., Wallingford CT, 2016.
 
 ******************************************
 Gaussian 16:  ES64L-G16RevA.03 25-Dec-2016
                17-Dec-2018 
 ******************************************
 %chk=cyclohexyl-monoBIP-E1PT_rev.chk
 %mem=10GB
 %nprocshared=4
 Will use up to    4 processors via shared memory.
 ----------------------------------------------------------------
 #p freq(ReadFC,InternalModes) Geom(AllCheck) NoSymm scale=0.9649
 ----------------------------------------------------------------
 1/18=20,29=7,38=1,114=964900/1,3;
 2/9=110,12=2,15=1,40=1/2;
 7/8=21,25=11,30=1/16;
 99/5=2/99;
 Leave Link    1 at Mon Dec 17 15:41:04 2018, MaxMem=  1342177280 cpu:               1.7 elap:               0.5
 (Enter /gpfs/apps/hpc/Apps/Restricted/Gaussian/Rev_A.03/g16/l101.exe)
 Structure from the checkpoint file:  "cyclohexyl-monoBIP-E1PT_rev.chk"
 ----------------------------------------------------------------------
 cyclohexylimine monoBIP oxidized, with proton on imine and phenol opti
 mization
 ----------------------------------------------------------------------
 Charge =  1 Multiplicity = 2
 Redundant internal coordinates found in file.  (old form).
 C,0,-0.4801463127,2.6417148528,0.2426890862
 C,0,-1.911492621,2.8189349087,0.2146858089
 C,0,-2.4765258912,4.103375002,0.1374755857
 C,0,-1.6147072367,5.1925444928,0.1003975481
 C,0,-0.2126905608,5.0346652627,0.1360742256
 C,0,0.3846099957,3.7717004935,0.2051720063
 C,0,-1.4107093483,0.7274771738,0.3264728361
 H,0,-3.5509493538,4.2373319066,0.1099617255
 H,0,-2.0231094539,6.1938109803,0.045180018
 H,0,0.4194296092,5.9144381398,0.111166631
 N,0,-2.4718438704,1.5863278716,0.2698336544
 C,0,-2.9868018381,-1.1875621327,0.4165193638
 C,0,-1.6244373921,-0.6845820934,0.395640482
 C,0,-0.5634427559,-1.6015315807,0.4373422861
 C,0,-0.8031844247,-2.9635536517,0.5020594275
 C,0,-2.1552950519,-3.4328947172,0.5335681424
 C,0,-3.2388640264,-2.591361036,0.4923682745
 H,0,0.4497451935,-1.2207349317,0.4170028336
 H,0,-2.3226998502,-4.5033601668,0.5915638744
 C,0,0.3135023059,-3.9593659458,0.5341843046
 H,0,1.2868264546,-3.4705305209,0.4936930281
 H,0,0.2627244014,-4.5657227387,1.4442337913
 H,0,0.2330230049,-4.6534347716,-0.3083970165
 C,0,-4.6576188967,-3.0762504068,0.5138522023
 H,0,-5.2071531735,-2.6435293354,1.3542183256
 H,0,-5.1837385824,-2.7780198565,-0.3973807168
 H,0,-4.6890498876,-4.1625667336,0.5968166825
 O,0,-4.0164514061,-0.3797745211,0.3651315883
 N,0,-0.17930249,1.330776815,0.310932582
 C,0,1.8061251541,3.6365734496,0.2485909156
 H,0,2.4251731314,4.5271106207,0.2381360753
 N,0,2.3998089192,2.4826606123,0.3111431665
 C,0,3.8601843417,2.2828757582,0.3812413156
 C,0,4.537060746,2.671222849,-0.9406073896
 C,0,4.470690494,3.0428475699,1.5653778703
 H,0,3.9873463017,1.2103975569,0.5419451319
 C,0,6.0457050174,2.4102590765,-0.8562994347
 H,0,4.3539493131,3.7353319555,-1.1297261056
 H,0,4.0897392557,2.1086609757,-1.7639318027
 C,0,5.9786473303,2.778764333,1.6438447363
 H,0,4.2992711441,4.1166826481,1.4271411993
 H,0,3.9691024468,2.7462376135,2.4901118175
 C,0,6.678700207,3.144995122,0.3300835881
 H,0,6.5227362765,2.7088857459,-1.7937698726
 H,0,6.2134103233,1.3320593301,-0.7449307904
 H,0,6.4032508339,3.3447597508,2.4776391753
 H,0,6.1460407194,1.7171115374,1.8617552998
 H,0,7.7455042786,2.9115807508,0.3938062194
 H,0,6.5967255405,4.2271612171,0.1695476083
 H,0,1.785172544,1.6588242834,0.3181998186
 H,0,-3.6555988593,0.595787485,0.3153478762
 Recover connectivity data from disk.
 ITRead=  0  0  0  0  0  0  0  0  0  0  0  0  0  0  0  0  0  0  0  0
 ITRead=  0  0  0  0  0  0  0  0  0  0  0  0  0  0  0  0  0  0  0  0
 ITRead=  0  0  0  0  0  0  0  0  0  0  0
 MicOpt= -1 -1 -1 -1 -1 -1 -1 -1 -1 -1 -1 -1 -1 -1 -1 -1 -1 -1 -1 -1
 MicOpt= -1 -1 -1 -1 -1 -1 -1 -1 -1 -1 -1 -1 -1 -1 -1 -1 -1 -1 -1 -1
 MicOpt= -1 -1 -1 -1 -1 -1 -1 -1 -1 -1 -1
 NAtoms=     51 NQM=       51 NQMF=       0 NMMI=      0 NMMIF=      0
                NMic=       0 NMicF=      0.
                    Isotopes and Nuclear Properties:
 (Nuclear quadrupole moments (NQMom) in fm**2, nuclear magnetic moments (NMagM)
  in nuclear magnetons)

  Atom         1           2           3           4           5           6           7           8           9          10
 IAtWgt=          12          12          12          12          12          12          12           1           1           1
 AtmWgt=  12.0000000  12.0000000  12.0000000  12.0000000  12.0000000  12.0000000  12.0000000   1.0078250   1.0078250   1.0078250
 NucSpn=           0           0           0           0           0           0           0           1           1           1
 AtZEff=   3.6000000   3.6000000   3.6000000   3.6000000   3.6000000   3.6000000   3.6000000   1.0000000   1.0000000   1.0000000
 NQMom=    0.0000000   0.0000000   0.0000000   0.0000000   0.0000000   0.0000000   0.0000000   0.0000000   0.0000000   0.0000000
 NMagM=    0.0000000   0.0000000   0.0000000   0.0000000   0.0000000   0.0000000   0.0000000   2.7928460   2.7928460   2.7928460
 AtZNuc=   6.0000000   6.0000000   6.0000000   6.0000000   6.0000000   6.0000000   6.0000000   1.0000000   1.0000000   1.0000000

  Atom        11          12          13          14          15          16          17          18          19          20
 IAtWgt=          14          12          12          12          12          12          12           1           1          12
 AtmWgt=  14.0030740  12.0000000  12.0000000  12.0000000  12.0000000  12.0000000  12.0000000   1.0078250   1.0078250  12.0000000
 NucSpn=           2           0           0           0           0           0           0           1           1           0
 AtZEff=   4.5500000   3.6000000   3.6000000   3.6000000   3.6000000   3.6000000   3.6000000   1.0000000   1.0000000   3.6000000
 NQMom=    2.0440000   0.0000000   0.0000000   0.0000000   0.0000000   0.0000000   0.0000000   0.0000000   0.0000000   0.0000000
 NMagM=    0.4037610   0.0000000   0.0000000   0.0000000   0.0000000   0.0000000   0.0000000   2.7928460   2.7928460   0.0000000
 AtZNuc=   7.0000000   6.0000000   6.0000000   6.0000000   6.0000000   6.0000000   6.0000000   1.0000000   1.0000000   6.0000000

  Atom        21          22          23          24          25          26          27          28          29          30
 IAtWgt=           1           1           1          12           1           1           1          16          14          12
 AtmWgt=   1.0078250   1.0078250   1.0078250  12.0000000   1.0078250   1.0078250   1.0078250  15.9949146  14.0030740  12.0000000
 NucSpn=           1           1           1           0           1           1           1           0           2           0
 AtZEff=   1.0000000   1.0000000   1.0000000   3.6000000   1.0000000   1.0000000   1.0000000   5.6000000   4.5500000   3.6000000
 NQMom=    0.0000000   0.0000000   0.0000000   0.0000000   0.0000000   0.0000000   0.0000000   0.0000000   2.0440000   0.0000000
 NMagM=    2.7928460   2.7928460   2.7928460   0.0000000   2.7928460   2.7928460   2.7928460   0.0000000   0.4037610   0.0000000
 AtZNuc=   1.0000000   1.0000000   1.0000000   6.0000000   1.0000000   1.0000000   1.0000000   8.0000000   7.0000000   6.0000000

  Atom        31          32          33          34          35          36          37          38          39          40
 IAtWgt=           1          14          12          12          12           1          12           1           1          12
 AtmWgt=   1.0078250  14.0030740  12.0000000  12.0000000  12.0000000   1.0078250  12.0000000   1.0078250   1.0078250  12.0000000
 NucSpn=           1           2           0           0           0           1           0           1           1           0
 AtZEff=   1.0000000   4.5500000   3.6000000   3.6000000   3.6000000   1.0000000   3.6000000   1.0000000   1.0000000   3.6000000
 NQMom=    0.0000000   2.0440000   0.0000000   0.0000000   0.0000000   0.0000000   0.0000000   0.0000000   0.0000000   0.0000000
 NMagM=    2.7928460   0.4037610   0.0000000   0.0000000   0.0000000   2.7928460   0.0000000   2.7928460   2.7928460   0.0000000
 AtZNuc=   1.0000000   7.0000000   6.0000000   6.0000000   6.0000000   1.0000000   6.0000000   1.0000000   1.0000000   6.0000000

  Atom        41          42          43          44          45          46          47          48          49          50
 IAtWgt=           1           1          12           1           1           1           1           1           1           1
 AtmWgt=   1.0078250   1.0078250  12.0000000   1.0078250   1.0078250   1.0078250   1.0078250   1.0078250   1.0078250   1.0078250
 NucSpn=           1           1           0           1           1           1           1           1           1           1
 AtZEff=   1.0000000   1.0000000   3.6000000   1.0000000   1.0000000   1.0000000   1.0000000   1.0000000   1.0000000   1.0000000
 NQMom=    0.0000000   0.0000000   0.0000000   0.0000000   0.0000000   0.0000000   0.0000000   0.0000000   0.0000000   0.0000000
 NMagM=    2.7928460   2.7928460   0.0000000   2.7928460   2.7928460   2.7928460   2.7928460   2.7928460   2.7928460   2.7928460
 AtZNuc=   1.0000000   1.0000000   6.0000000   1.0000000   1.0000000   1.0000000   1.0000000   1.0000000   1.0000000   1.0000000

  Atom        51
 IAtWgt=           1
 AtmWgt=   1.0078250
 NucSpn=           1
 AtZEff=   1.0000000
 NQMom=    0.0000000
 NMagM=    2.7928460
 AtZNuc=   1.0000000
 Leave Link  101 at Mon Dec 17 15:41:04 2018, MaxMem=  1342177280 cpu:               1.1 elap:               0.3
 (Enter /gpfs/apps/hpc/Apps/Restricted/Gaussian/Rev_A.03/g16/l103.exe)

 GradGradGradGradGradGradGradGradGradGradGradGradGradGradGradGradGradGrad
 Berny optimization.
 Initialization pass.
                           ----------------------------
                           !    Initial Parameters    !
                           ! (Angstroms and Degrees)  !
 --------------------------                            --------------------------
 ! Name  Definition              Value          Derivative Info.                !
 --------------------------------------------------------------------------------
 ! R1    R(1,2)                  1.4425         estimate D2E/DX2                !
 ! R2    R(1,6)                  1.4234         estimate D2E/DX2                !
 ! R3    R(1,29)                 1.3467         estimate D2E/DX2                !
 ! R4    R(2,3)                  1.4054         estimate D2E/DX2                !
 ! R5    R(2,11)                 1.3551         estimate D2E/DX2                !
 ! R6    R(3,4)                  1.3894         estimate D2E/DX2                !
 ! R7    R(3,8)                  1.0831         estimate D2E/DX2                !
 ! R8    R(4,5)                  1.4113         estimate D2E/DX2                !
 ! R9    R(4,9)                  1.0828         estimate D2E/DX2                !
 ! R10   R(5,6)                  1.3988         estimate D2E/DX2                !
 ! R11   R(5,10)                 1.0836         estimate D2E/DX2                !
 ! R12   R(6,30)                 1.4286         estimate D2E/DX2                !
 ! R13   R(7,11)                 1.3663         estimate D2E/DX2                !
 ! R14   R(7,13)                 1.4298         estimate D2E/DX2                !
 ! R15   R(7,29)                 1.3713         estimate D2E/DX2                !
 ! R16   R(12,13)                1.4524         estimate D2E/DX2                !
 ! R17   R(12,17)                1.4283         estimate D2E/DX2                !
 ! R18   R(12,28)                1.3097         estimate D2E/DX2                !
 ! R19   R(13,14)                1.4029         estimate D2E/DX2                !
 ! R20   R(14,15)                1.3845         estimate D2E/DX2                !
 ! R21   R(14,18)                1.0826         estimate D2E/DX2                !
 ! R22   R(15,16)                1.4316         estimate D2E/DX2                !
 ! R23   R(15,20)                1.4966         estimate D2E/DX2                !
 ! R24   R(16,17)                1.3726         estimate D2E/DX2                !
 ! R25   R(16,19)                1.085          estimate D2E/DX2                !
 ! R26   R(17,24)                1.4995         estimate D2E/DX2                !
 ! R27   R(20,21)                1.0899         estimate D2E/DX2                !
 ! R28   R(20,22)                1.0947         estimate D2E/DX2                !
 ! R29   R(20,23)                1.0946         estimate D2E/DX2                !
 ! R30   R(24,25)                1.0934         estimate D2E/DX2                !
 ! R31   R(24,26)                1.0937         estimate D2E/DX2                !
 ! R32   R(24,27)                1.0899         estimate D2E/DX2                !
 ! R33   R(28,51)                1.0414         estimate D2E/DX2                !
 ! R34   R(30,31)                1.0846         estimate D2E/DX2                !
 ! R35   R(30,32)                1.2992         estimate D2E/DX2                !
 ! R36   R(32,33)                1.4756         estimate D2E/DX2                !
 ! R37   R(32,50)                1.0279         estimate D2E/DX2                !
 ! R38   R(33,34)                1.535          estimate D2E/DX2                !
 ! R39   R(33,35)                1.5338         estimate D2E/DX2                !
 ! R40   R(33,36)                1.0919         estimate D2E/DX2                !
 ! R41   R(34,37)                1.5334         estimate D2E/DX2                !
 ! R42   R(34,38)                1.0962         estimate D2E/DX2                !
 ! R43   R(34,39)                1.0929         estimate D2E/DX2                !
 ! R44   R(35,40)                1.5329         estimate D2E/DX2                !
 ! R45   R(35,41)                1.0962         estimate D2E/DX2                !
 ! R46   R(35,42)                1.093          estimate D2E/DX2                !
 ! R47   R(37,43)                1.5323         estimate D2E/DX2                !
 ! R48   R(37,44)                1.0934         estimate D2E/DX2                !
 ! R49   R(37,45)                1.0968         estimate D2E/DX2                !
 ! R50   R(40,43)                1.533          estimate D2E/DX2                !
 ! R51   R(40,46)                1.0936         estimate D2E/DX2                !
 ! R52   R(40,47)                1.0966         estimate D2E/DX2                !
 ! R53   R(43,48)                1.0939         estimate D2E/DX2                !
 ! R54   R(43,49)                1.0971         estimate D2E/DX2                !
 ! A1    A(2,1,6)              120.3161         estimate D2E/DX2                !
 ! A2    A(2,1,29)             110.0122         estimate D2E/DX2                !
 ! A3    A(6,1,29)             129.6709         estimate D2E/DX2                !
 ! A4    A(1,2,3)              120.8162         estimate D2E/DX2                !
 ! A5    A(1,2,11)             107.3231         estimate D2E/DX2                !
 ! A6    A(3,2,11)             131.8603         estimate D2E/DX2                !
 ! A7    A(2,3,4)              117.9402         estimate D2E/DX2                !
 ! A8    A(2,3,8)              120.8823         estimate D2E/DX2                !
 ! A9    A(4,3,8)              121.1774         estimate D2E/DX2                !
 ! A10   A(3,4,5)              121.8587         estimate D2E/DX2                !
 ! A11   A(3,4,9)              119.4929         estimate D2E/DX2                !
 ! A12   A(5,4,9)              118.6483         estimate D2E/DX2                !
 ! A13   A(4,5,6)              121.7656         estimate D2E/DX2                !
 ! A14   A(4,5,10)             119.2156         estimate D2E/DX2                !
 ! A15   A(6,5,10)             119.0187         estimate D2E/DX2                !
 ! A16   A(1,6,5)              117.3004         estimate D2E/DX2                !
 ! A17   A(1,6,30)             121.913          estimate D2E/DX2                !
 ! A18   A(5,6,30)             120.784          estimate D2E/DX2                !
 ! A19   A(11,7,13)            120.4438         estimate D2E/DX2                !
 ! A20   A(11,7,29)            114.8586         estimate D2E/DX2                !
 ! A21   A(13,7,29)            124.6976         estimate D2E/DX2                !
 ! A22   A(2,11,7)             104.6136         estimate D2E/DX2                !
 ! A23   A(13,12,17)           120.4431         estimate D2E/DX2                !
 ! A24   A(13,12,28)           121.5522         estimate D2E/DX2                !
 ! A25   A(17,12,28)           118.0047         estimate D2E/DX2                !
 ! A26   A(7,13,12)            118.8761         estimate D2E/DX2                !
 ! A27   A(7,13,14)            122.267          estimate D2E/DX2                !
 ! A28   A(12,13,14)           118.8561         estimate D2E/DX2                !
 ! A29   A(13,14,15)           120.8921         estimate D2E/DX2                !
 ! A30   A(13,14,18)           118.5113         estimate D2E/DX2                !
 ! A31   A(15,14,18)           120.5966         estimate D2E/DX2                !
 ! A32   A(14,15,16)           119.1505         estimate D2E/DX2                !
 ! A33   A(14,15,20)           121.763          estimate D2E/DX2                !
 ! A34   A(16,15,20)           119.086          estimate D2E/DX2                !
 ! A35   A(15,16,17)           122.9523         estimate D2E/DX2                !
 ! A36   A(15,16,19)           118.0564         estimate D2E/DX2                !
 ! A37   A(17,16,19)           118.9913         estimate D2E/DX2                !
 ! A38   A(12,17,16)           117.7019         estimate D2E/DX2                !
 ! A39   A(12,17,24)           119.05           estimate D2E/DX2                !
 ! A40   A(16,17,24)           123.2467         estimate D2E/DX2                !
 ! A41   A(15,20,21)           111.5375         estimate D2E/DX2                !
 ! A42   A(15,20,22)           110.597          estimate D2E/DX2                !
 ! A43   A(15,20,23)           110.5202         estimate D2E/DX2                !
 ! A44   A(21,20,22)           108.7066         estimate D2E/DX2                !
 ! A45   A(21,20,23)           108.7505         estimate D2E/DX2                !
 ! A46   A(22,20,23)           106.5757         estimate D2E/DX2                !
 ! A47   A(17,24,25)           111.0131         estimate D2E/DX2                !
 ! A48   A(17,24,26)           110.7963         estimate D2E/DX2                !
 ! A49   A(17,24,27)           110.5285         estimate D2E/DX2                !
 ! A50   A(25,24,26)           106.8992         estimate D2E/DX2                !
 ! A51   A(25,24,27)           108.7511         estimate D2E/DX2                !
 ! A52   A(26,24,27)           108.7437         estimate D2E/DX2                !
 ! A53   A(12,28,51)           107.8938         estimate D2E/DX2                !
 ! A54   A(1,29,7)             103.1923         estimate D2E/DX2                !
 ! A55   A(6,30,31)            119.3389         estimate D2E/DX2                !
 ! A56   A(6,30,32)            122.6958         estimate D2E/DX2                !
 ! A57   A(31,30,32)           117.9631         estimate D2E/DX2                !
 ! A58   A(30,32,33)           125.0838         estimate D2E/DX2                !
 ! A59   A(30,32,50)           116.0369         estimate D2E/DX2                !
 ! A60   A(33,32,50)           118.8776         estimate D2E/DX2                !
 ! A61   A(32,33,34)           111.1762         estimate D2E/DX2                !
 ! A62   A(32,33,35)           111.3162         estimate D2E/DX2                !
 ! A63   A(32,33,36)           104.7872         estimate D2E/DX2                !
 ! A64   A(34,33,35)           111.3433         estimate D2E/DX2                !
 ! A65   A(34,33,36)           108.898          estimate D2E/DX2                !
 ! A66   A(35,33,36)           109.0687         estimate D2E/DX2                !
 ! A67   A(33,34,37)           110.0869         estimate D2E/DX2                !
 ! A68   A(33,34,38)           108.693          estimate D2E/DX2                !
 ! A69   A(33,34,39)           109.756          estimate D2E/DX2                !
 ! A70   A(37,34,38)           109.8188         estimate D2E/DX2                !
 ! A71   A(37,34,39)           110.8863         estimate D2E/DX2                !
 ! A72   A(38,34,39)           107.538          estimate D2E/DX2                !
 ! A73   A(33,35,40)           110.2257         estimate D2E/DX2                !
 ! A74   A(33,35,41)           109.0132         estimate D2E/DX2                !
 ! A75   A(33,35,42)           109.6365         estimate D2E/DX2                !
 ! A76   A(40,35,41)           109.2112         estimate D2E/DX2                !
 ! A77   A(40,35,42)           111.1844         estimate D2E/DX2                !
 ! A78   A(41,35,42)           107.5034         estimate D2E/DX2                !
 ! A79   A(34,37,43)           111.5553         estimate D2E/DX2                !
 ! A80   A(34,37,44)           109.61           estimate D2E/DX2                !
 ! A81   A(34,37,45)           108.8636         estimate D2E/DX2                !
 ! A82   A(43,37,44)           110.6483         estimate D2E/DX2                !
 ! A83   A(43,37,45)           109.2427         estimate D2E/DX2                !
 ! A84   A(44,37,45)           106.7873         estimate D2E/DX2                !
 ! A85   A(35,40,43)           111.3578         estimate D2E/DX2                !
 ! A86   A(35,40,46)           109.3794         estimate D2E/DX2                !
 ! A87   A(35,40,47)           109.0933         estimate D2E/DX2                !
 ! A88   A(43,40,46)           110.6378         estimate D2E/DX2                !
 ! A89   A(43,40,47)           109.3815         estimate D2E/DX2                !
 ! A90   A(46,40,47)           106.8752         estimate D2E/DX2                !
 ! A91   A(37,43,40)           111.1194         estimate D2E/DX2                !
 ! A92   A(37,43,48)           110.2215         estimate D2E/DX2                !
 ! A93   A(37,43,49)           109.1967         estimate D2E/DX2                !
 ! A94   A(40,43,48)           110.1477         estimate D2E/DX2                !
 ! A95   A(40,43,49)           109.0824         estimate D2E/DX2                !
 ! A96   A(48,43,49)           106.9701         estimate D2E/DX2                !
 ! D1    D(6,1,2,3)              0.6029         estimate D2E/DX2                !
 ! D2    D(6,1,2,11)          -179.6099         estimate D2E/DX2                !
 ! D3    D(29,1,2,3)          -179.6825         estimate D2E/DX2                !
 ! D4    D(29,1,2,11)            0.1047         estimate D2E/DX2                !
 ! D5    D(2,1,6,5)             -0.2344         estimate D2E/DX2                !
 ! D6    D(2,1,6,30)           179.1784         estimate D2E/DX2                !
 ! D7    D(29,1,6,5)          -179.886          estimate D2E/DX2                !
 ! D8    D(29,1,6,30)           -0.4732         estimate D2E/DX2                !
 ! D9    D(2,1,29,7)            -0.1128         estimate D2E/DX2                !
 ! D10   D(6,1,29,7)           179.5672         estimate D2E/DX2                !
 ! D11   D(1,2,3,4)             -0.5222         estimate D2E/DX2                !
 ! D12   D(1,2,3,8)            179.6035         estimate D2E/DX2                !
 ! D13   D(11,2,3,4)           179.7506         estimate D2E/DX2                !
 ! D14   D(11,2,3,8)            -0.1238         estimate D2E/DX2                !
 ! D15   D(1,2,11,7)            -0.0459         estimate D2E/DX2                !
 ! D16   D(3,2,11,7)           179.7088         estimate D2E/DX2                !
 ! D17   D(2,3,4,5)              0.0969         estimate D2E/DX2                !
 ! D18   D(2,3,4,9)           -179.7395         estimate D2E/DX2                !
 ! D19   D(8,3,4,5)            179.9709         estimate D2E/DX2                !
 ! D20   D(8,3,4,9)              0.1345         estimate D2E/DX2                !
 ! D21   D(3,4,5,6)              0.2685         estimate D2E/DX2                !
 ! D22   D(3,4,5,10)          -179.6181         estimate D2E/DX2                !
 ! D23   D(9,4,5,6)           -179.8937         estimate D2E/DX2                !
 ! D24   D(9,4,5,10)             0.2196         estimate D2E/DX2                !
 ! D25   D(4,5,6,1)             -0.1899         estimate D2E/DX2                !
 ! D26   D(4,5,6,30)          -179.6097         estimate D2E/DX2                !
 ! D27   D(10,5,6,1)           179.697          estimate D2E/DX2                !
 ! D28   D(10,5,6,30)            0.2772         estimate D2E/DX2                !
 ! D29   D(1,6,30,31)         -178.7472         estimate D2E/DX2                !
 ! D30   D(1,6,30,32)            0.7043         estimate D2E/DX2                !
 ! D31   D(5,6,30,31)            0.6454         estimate D2E/DX2                !
 ! D32   D(5,6,30,32)         -179.9031         estimate D2E/DX2                !
 ! D33   D(13,7,11,2)          179.9713         estimate D2E/DX2                !
 ! D34   D(29,7,11,2)           -0.0257         estimate D2E/DX2                !
 ! D35   D(11,7,13,12)          -0.5387         estimate D2E/DX2                !
 ! D36   D(11,7,13,14)         179.1371         estimate D2E/DX2                !
 ! D37   D(29,7,13,12)         179.4579         estimate D2E/DX2                !
 ! D38   D(29,7,13,14)          -0.8662         estimate D2E/DX2                !
 ! D39   D(11,7,29,1)            0.0887         estimate D2E/DX2                !
 ! D40   D(13,7,29,1)         -179.9081         estimate D2E/DX2                !
 ! D41   D(17,12,13,7)        -179.6653         estimate D2E/DX2                !
 ! D42   D(17,12,13,14)          0.6476         estimate D2E/DX2                !
 ! D43   D(28,12,13,7)           0.4334         estimate D2E/DX2                !
 ! D44   D(28,12,13,14)       -179.2536         estimate D2E/DX2                !
 ! D45   D(13,12,17,16)         -0.4887         estimate D2E/DX2                !
 ! D46   D(13,12,17,24)        179.918          estimate D2E/DX2                !
 ! D47   D(28,12,17,16)        179.416          estimate D2E/DX2                !
 ! D48   D(28,12,17,24)         -0.1773         estimate D2E/DX2                !
 ! D49   D(13,12,28,51)         -0.1947         estimate D2E/DX2                !
 ! D50   D(17,12,28,51)        179.9017         estimate D2E/DX2                !
 ! D51   D(7,13,14,15)        -179.8994         estimate D2E/DX2                !
 ! D52   D(7,13,14,18)           0.0525         estimate D2E/DX2                !
 ! D53   D(12,13,14,15)         -0.2235         estimate D2E/DX2                !
 ! D54   D(12,13,14,18)        179.7284         estimate D2E/DX2                !
 ! D55   D(13,14,15,16)         -0.3327         estimate D2E/DX2                !
 ! D56   D(13,14,15,20)        179.4055         estimate D2E/DX2                !
 ! D57   D(18,14,15,16)        179.7164         estimate D2E/DX2                !
 ! D58   D(18,14,15,20)         -0.5454         estimate D2E/DX2                !
 ! D59   D(14,15,16,17)          0.5043         estimate D2E/DX2                !
 ! D60   D(14,15,16,19)       -179.5646         estimate D2E/DX2                !
 ! D61   D(20,15,16,17)       -179.241          estimate D2E/DX2                !
 ! D62   D(20,15,16,19)          0.6901         estimate D2E/DX2                !
 ! D63   D(14,15,20,21)         -0.3856         estimate D2E/DX2                !
 ! D64   D(14,15,20,22)        120.7231         estimate D2E/DX2                !
 ! D65   D(14,15,20,23)       -121.4972         estimate D2E/DX2                !
 ! D66   D(16,15,20,21)        179.3527         estimate D2E/DX2                !
 ! D67   D(16,15,20,22)        -59.5386         estimate D2E/DX2                !
 ! D68   D(16,15,20,23)         58.2411         estimate D2E/DX2                !
 ! D69   D(15,16,17,12)         -0.0841         estimate D2E/DX2                !
 ! D70   D(15,16,17,24)        179.4907         estimate D2E/DX2                !
 ! D71   D(19,16,17,12)        179.9854         estimate D2E/DX2                !
 ! D72   D(19,16,17,24)         -0.4399         estimate D2E/DX2                !
 ! D73   D(12,17,24,25)        -57.9053         estimate D2E/DX2                !
 ! D74   D(12,17,24,26)         60.714          estimate D2E/DX2                !
 ! D75   D(12,17,24,27)       -178.6721         estimate D2E/DX2                !
 ! D76   D(16,17,24,25)        122.5253         estimate D2E/DX2                !
 ! D77   D(16,17,24,26)       -118.8554         estimate D2E/DX2                !
 ! D78   D(16,17,24,27)          1.7586         estimate D2E/DX2                !
 ! D79   D(6,30,32,33)        -178.9087         estimate D2E/DX2                !
 ! D80   D(6,30,32,50)           0.6121         estimate D2E/DX2                !
 ! D81   D(31,30,32,33)          0.5499         estimate D2E/DX2                !
 ! D82   D(31,30,32,50)       -179.9292         estimate D2E/DX2                !
 ! D83   D(30,32,33,34)        -69.0935         estimate D2E/DX2                !
 ! D84   D(30,32,33,35)         55.6664         estimate D2E/DX2                !
 ! D85   D(30,32,33,36)        173.4226         estimate D2E/DX2                !
 ! D86   D(50,32,33,34)        111.3982         estimate D2E/DX2                !
 ! D87   D(50,32,33,35)       -123.8419         estimate D2E/DX2                !
 ! D88   D(50,32,33,36)         -6.0857         estimate D2E/DX2                !
 ! D89   D(32,33,34,37)       -178.1238         estimate D2E/DX2                !
 ! D90   D(32,33,34,38)         61.5557         estimate D2E/DX2                !
 ! D91   D(32,33,34,39)        -55.8013         estimate D2E/DX2                !
 ! D92   D(35,33,34,37)         57.1315         estimate D2E/DX2                !
 ! D93   D(35,33,34,38)        -63.189          estimate D2E/DX2                !
 ! D94   D(35,33,34,39)        179.454          estimate D2E/DX2                !
 ! D95   D(36,33,34,37)        -63.1674         estimate D2E/DX2                !
 ! D96   D(36,33,34,38)        176.5121         estimate D2E/DX2                !
 ! D97   D(36,33,34,39)         59.1551         estimate D2E/DX2                !
 ! D98   D(32,33,35,40)        178.0168         estimate D2E/DX2                !
 ! D99   D(32,33,35,41)        -62.1242         estimate D2E/DX2                !
 ! D100  D(32,33,35,42)         55.3087         estimate D2E/DX2                !
 ! D101  D(34,33,35,40)        -57.3171         estimate D2E/DX2                !
 ! D102  D(34,33,35,41)         62.5419         estimate D2E/DX2                !
 ! D103  D(34,33,35,42)        179.9748         estimate D2E/DX2                !
 ! D104  D(36,33,35,40)         62.8811         estimate D2E/DX2                !
 ! D105  D(36,33,35,41)       -177.2599         estimate D2E/DX2                !
 ! D106  D(36,33,35,42)        -59.8269         estimate D2E/DX2                !
 ! D107  D(33,34,37,43)        -55.9219         estimate D2E/DX2                !
 ! D108  D(33,34,37,44)       -178.8258         estimate D2E/DX2                !
 ! D109  D(33,34,37,45)         64.704          estimate D2E/DX2                !
 ! D110  D(38,34,37,43)         63.7169         estimate D2E/DX2                !
 ! D111  D(38,34,37,44)        -59.1869         estimate D2E/DX2                !
 ! D112  D(38,34,37,45)       -175.6572         estimate D2E/DX2                !
 ! D113  D(39,34,37,43)       -177.5741         estimate D2E/DX2                !
 ! D114  D(39,34,37,44)         59.522          estimate D2E/DX2                !
 ! D115  D(39,34,37,45)        -56.9483         estimate D2E/DX2                !
 ! D116  D(33,35,40,43)         56.1016         estimate D2E/DX2                !
 ! D117  D(33,35,40,46)        178.6988         estimate D2E/DX2                !
 ! D118  D(33,35,40,47)        -64.7244         estimate D2E/DX2                !
 ! D119  D(41,35,40,43)        -63.6376         estimate D2E/DX2                !
 ! D120  D(41,35,40,46)         58.9596         estimate D2E/DX2                !
 ! D121  D(41,35,40,47)        175.5364         estimate D2E/DX2                !
 ! D122  D(42,35,40,43)        177.8967         estimate D2E/DX2                !
 ! D123  D(42,35,40,46)        -59.506          estimate D2E/DX2                !
 ! D124  D(42,35,40,47)         57.0708         estimate D2E/DX2                !
 ! D125  D(34,37,43,40)         55.3012         estimate D2E/DX2                !
 ! D126  D(34,37,43,48)        177.6978         estimate D2E/DX2                !
 ! D127  D(34,37,43,49)        -65.0692         estimate D2E/DX2                !
 ! D128  D(44,37,43,40)        177.6101         estimate D2E/DX2                !
 ! D129  D(44,37,43,48)        -59.9933         estimate D2E/DX2                !
 ! D130  D(44,37,43,49)         57.2397         estimate D2E/DX2                !
 ! D131  D(45,37,43,40)        -65.1026         estimate D2E/DX2                !
 ! D132  D(45,37,43,48)         57.2941         estimate D2E/DX2                !
 ! D133  D(45,37,43,49)        174.5271         estimate D2E/DX2                !
 ! D134  D(35,40,43,37)        -55.2963         estimate D2E/DX2                !
 ! D135  D(35,40,43,48)       -177.7357         estimate D2E/DX2                !
 ! D136  D(35,40,43,49)         65.1417         estimate D2E/DX2                !
 ! D137  D(46,40,43,37)       -177.1668         estimate D2E/DX2                !
 ! D138  D(46,40,43,48)         60.3939         estimate D2E/DX2                !
 ! D139  D(46,40,43,49)        -56.7288         estimate D2E/DX2                !
 ! D140  D(47,40,43,37)         65.3606         estimate D2E/DX2                !
 ! D141  D(47,40,43,48)        -57.0788         estimate D2E/DX2                !
 ! D142  D(47,40,43,49)       -174.2014         estimate D2E/DX2                !
 --------------------------------------------------------------------------------
 Trust Radius=3.00D-01 FncErr=1.00D-07 GrdErr=1.00D-07 EigMax=2.50D+02 EigMin=1.00D-04
 Number of steps in this run=    302 maximum allowed number of steps=    306.
 GradGradGradGradGradGradGradGradGradGradGradGradGradGradGradGradGradGrad

 Leave Link  103 at Mon Dec 17 15:41:04 2018, MaxMem=  1342177280 cpu:               0.1 elap:               0.0
 (Enter /gpfs/apps/hpc/Apps/Restricted/Gaussian/Rev_A.03/g16/l202.exe)
 Symmetry turned off by external request.
 Stoichiometry    C22H25N3O(1+,2)
 Framework group  C1[X(C22H25N3O)]
 Deg. of freedom   147
 Full point group                 C1      NOp   1
                          Input orientation:                          
 ---------------------------------------------------------------------
 Center     Atomic      Atomic             Coordinates (Angstroms)
 Number     Number       Type             X           Y           Z
 ---------------------------------------------------------------------
      1          6           0       -0.480146    2.641715    0.242689
      2          6           0       -1.911493    2.818935    0.214686
      3          6           0       -2.476526    4.103375    0.137476
      4          6           0       -1.614707    5.192544    0.100398
      5          6           0       -0.212691    5.034665    0.136074
      6          6           0        0.384610    3.771700    0.205172
      7          6           0       -1.410709    0.727477    0.326473
      8          1           0       -3.550949    4.237332    0.109962
      9          1           0       -2.023109    6.193811    0.045180
     10          1           0        0.419430    5.914438    0.111167
     11          7           0       -2.471844    1.586328    0.269834
     12          6           0       -2.986802   -1.187562    0.416519
     13          6           0       -1.624437   -0.684582    0.395640
     14          6           0       -0.563443   -1.601532    0.437342
     15          6           0       -0.803184   -2.963554    0.502059
     16          6           0       -2.155295   -3.432895    0.533568
     17          6           0       -3.238864   -2.591361    0.492368
     18          1           0        0.449745   -1.220735    0.417003
     19          1           0       -2.322700   -4.503360    0.591564
     20          6           0        0.313502   -3.959366    0.534184
     21          1           0        1.286826   -3.470531    0.493693
     22          1           0        0.262724   -4.565723    1.444234
     23          1           0        0.233023   -4.653435   -0.308397
     24          6           0       -4.657619   -3.076250    0.513852
     25          1           0       -5.207153   -2.643529    1.354218
     26          1           0       -5.183739   -2.778020   -0.397381
     27          1           0       -4.689050   -4.162567    0.596817
     28          8           0       -4.016451   -0.379775    0.365132
     29          7           0       -0.179302    1.330777    0.310933
     30          6           0        1.806125    3.636573    0.248591
     31          1           0        2.425173    4.527111    0.238136
     32          7           0        2.399809    2.482661    0.311143
     33          6           0        3.860184    2.282876    0.381241
     34          6           0        4.537061    2.671223   -0.940607
     35          6           0        4.470690    3.042848    1.565378
     36          1           0        3.987346    1.210398    0.541945
     37          6           0        6.045705    2.410259   -0.856299
     38          1           0        4.353949    3.735332   -1.129726
     39          1           0        4.089739    2.108661   -1.763932
     40          6           0        5.978647    2.778764    1.643845
     41          1           0        4.299271    4.116683    1.427141
     42          1           0        3.969102    2.746238    2.490112
     43          6           0        6.678700    3.144995    0.330084
     44          1           0        6.522736    2.708886   -1.793770
     45          1           0        6.213410    1.332059   -0.744931
     46          1           0        6.403251    3.344760    2.477639
     47          1           0        6.146041    1.717112    1.861755
     48          1           0        7.745504    2.911581    0.393806
     49          1           0        6.596726    4.227161    0.169548
     50          1           0        1.785173    1.658824    0.318200
     51          1           0       -3.655599    0.595787    0.315348
 ---------------------------------------------------------------------
 Rotational constants (GHZ):           0.2865336           0.1053552           0.0795747
 Leave Link  202 at Mon Dec 17 15:41:04 2018, MaxMem=  1342177280 cpu:               0.1 elap:               0.0
 (Enter /gpfs/apps/hpc/Apps/Restricted/Gaussian/Rev_A.03/g16/l716.exe)
 Electric field and nuclear coordinate derivatives read from checkpoint file.
 Dipole        = 2.08446733D+00 2.64077913D+00 6.57020583D-01
 Polarizability= 5.18614200D+02 1.34940594D+02 1.03303945D+03
                -2.75633428D+00-3.98943063D+01 1.77034720D+02
 Full mass-weighted force constant matrix:
 Low frequencies ---  -14.1813   -4.5565   -0.0018    0.0007    0.0024   18.7886
 Low frequencies ---   33.5277   36.3158   56.5797
 Diagonal vibrational polarizability:
      105.3513582     437.0129456      60.5373178
 Harmonic frequencies (cm**-1), IR intensities (KM/Mole), Raman scattering
 activities (A**4/AMU), depolarization ratios for plane and unpolarized
 incident light, reduced masses (AMU), force constants (mDyne/A),
 and normal coordinates:
                      1                      2                      3
                      A                      A                      A
 Frequencies --     31.8006                35.9986                55.9949
 Red. masses --      4.5029                 4.5115                 4.1404
 Frc consts  --      0.0027                 0.0034                 0.0076
 IR Inten    --      0.2564                 0.6871                 1.6046
  Atom  AN      X      Y      Z        X      Y      Z        X      Y      Z
     1   6    -0.01   0.00  -0.10     0.04  -0.06  -0.01     0.01  -0.02   0.01
     2   6    -0.01   0.00  -0.03     0.04  -0.04   0.02     0.01  -0.02  -0.07
     3   6    -0.01   0.01   0.03     0.04  -0.04   0.01     0.01  -0.03  -0.07
     4   6    -0.01   0.01   0.04     0.05  -0.04  -0.01    -0.00  -0.02   0.01
     5   6    -0.01   0.01  -0.01     0.05  -0.06  -0.04    -0.00  -0.01   0.10
     6   6    -0.01   0.00  -0.07     0.04  -0.06  -0.04     0.00  -0.01   0.10
     7   6    -0.00   0.00  -0.10     0.01  -0.05   0.02     0.01  -0.02  -0.08
     8   1    -0.01   0.01   0.08     0.04  -0.03   0.03     0.01  -0.03  -0.14
     9   1    -0.01   0.01   0.09     0.06  -0.04  -0.02    -0.01  -0.02   0.00
    10   1    -0.01   0.01   0.02     0.06  -0.06  -0.06    -0.01  -0.00   0.17
    11   7    -0.01   0.00  -0.04     0.02  -0.03   0.03     0.01  -0.02  -0.12
    12   6     0.01   0.00   0.06    -0.05  -0.00   0.02    -0.01  -0.00  -0.03
    13   6     0.00   0.00  -0.09    -0.03  -0.04   0.02    -0.00  -0.02  -0.08
    14   6     0.01   0.00  -0.17    -0.06  -0.08   0.00    -0.02  -0.04  -0.08
    15   6     0.01   0.01  -0.11    -0.11  -0.08  -0.01    -0.04  -0.03  -0.03
    16   6     0.02   0.01   0.03    -0.12  -0.03  -0.01    -0.04  -0.01   0.03
    17   6     0.01   0.00   0.12    -0.10   0.00   0.01    -0.03   0.00   0.03
    18   1     0.01   0.00  -0.27    -0.05  -0.12   0.00    -0.01  -0.06  -0.11
    19   1     0.02   0.01   0.07    -0.16  -0.03  -0.02    -0.06  -0.01   0.08
    20   6     0.02   0.01  -0.17    -0.14  -0.11  -0.03    -0.05  -0.05  -0.03
    21   1     0.01   0.00  -0.28    -0.13  -0.14  -0.04    -0.05  -0.07  -0.09
    22   1     0.09   0.05  -0.14    -0.15  -0.11  -0.03    -0.03  -0.01   0.00
    23   1    -0.06  -0.04  -0.13    -0.17  -0.11  -0.03    -0.10  -0.09   0.01
    24   6     0.02   0.01   0.26    -0.11   0.05   0.02    -0.04   0.03   0.10
    25   1     0.10   0.02   0.31    -0.09   0.07   0.02     0.00   0.06   0.11
    26   1    -0.07   0.00   0.31    -0.11   0.07   0.02    -0.07   0.02   0.11
    27   1     0.02   0.01   0.27    -0.15   0.05   0.01    -0.06   0.03   0.13
    28   8    -0.00   0.00   0.15    -0.02   0.03   0.03     0.00   0.01  -0.05
    29   7    -0.00   0.00  -0.15     0.02  -0.07  -0.00     0.01  -0.02  -0.01
    30   6    -0.01   0.00  -0.05     0.04  -0.05  -0.06     0.00   0.02   0.17
    31   1    -0.01   0.00  -0.01     0.02  -0.04  -0.09    -0.02   0.03   0.24
    32   7    -0.01   0.00  -0.07     0.07  -0.03  -0.04     0.02   0.03   0.15
    33   6    -0.01  -0.00   0.00     0.08   0.03  -0.03     0.03   0.04   0.11
    34   6     0.06  -0.03   0.03     0.08   0.13  -0.00    -0.05  -0.09   0.04
    35   6    -0.06   0.01   0.02     0.02   0.01   0.01     0.09   0.15   0.01
    36   1    -0.02   0.00   0.03     0.13   0.03  -0.08     0.03   0.06   0.21
    37   6     0.05  -0.04   0.10     0.09   0.22   0.01    -0.04  -0.07  -0.03
    38   1     0.07  -0.03   0.00     0.02   0.13   0.04    -0.07  -0.11  -0.05
    39   1     0.09  -0.04   0.02     0.12   0.15  -0.04    -0.10  -0.17   0.11
    40   6    -0.07   0.01   0.09     0.04   0.10   0.02     0.10   0.15  -0.06
    41   1    -0.05   0.01  -0.00    -0.03   0.01   0.05     0.09   0.14  -0.08
    42   1    -0.10   0.03   0.00     0.02  -0.05  -0.01     0.15   0.23   0.06
    43   6     0.00  -0.03   0.12     0.03   0.22   0.04     0.02   0.03  -0.13
    44   1     0.09  -0.06   0.12     0.09   0.26   0.03    -0.10  -0.14  -0.08
    45   1     0.04  -0.04   0.13     0.15   0.22  -0.01    -0.02  -0.06   0.04
    46   1    -0.10   0.02   0.10    -0.01   0.09   0.05     0.14   0.23  -0.13
    47   1    -0.08   0.01   0.13     0.10   0.10  -0.03     0.10   0.17   0.03
    48   1    -0.00  -0.05   0.18     0.04   0.30   0.05     0.03   0.04  -0.17
    49   1     0.03  -0.03   0.10    -0.06   0.22   0.09     0.01   0.02  -0.22
    50   1    -0.01   0.00  -0.11     0.10  -0.05  -0.00     0.04   0.02   0.07
    51   1    -0.01  -0.00   0.10     0.01   0.02   0.04     0.02   0.00  -0.09
                      4                      5                      6
                      A                      A                      A
 Frequencies --     58.1079                66.1725                92.8359
 Red. masses --      3.4669                 4.4962                 3.4361
 Frc consts  --      0.0069                 0.0116                 0.0174
 IR Inten    --      1.1119                 1.8525                 4.2676
  Atom  AN      X      Y      Z        X      Y      Z        X      Y      Z
     1   6     0.00  -0.00   0.02    -0.00  -0.01  -0.06    -0.01  -0.01  -0.01
     2   6     0.00  -0.00   0.08    -0.00  -0.00   0.02    -0.00   0.03  -0.00
     3   6    -0.01  -0.01   0.06    -0.00   0.01   0.17     0.05   0.06   0.02
     4   6    -0.02  -0.01  -0.02    -0.00   0.01   0.24     0.09   0.02   0.02
     5   6    -0.01  -0.00  -0.08    -0.00   0.00   0.15     0.09  -0.03   0.00
     6   6    -0.01   0.00  -0.05    -0.00  -0.01  -0.00     0.04  -0.05  -0.01
     7   6     0.01  -0.00   0.09    -0.01  -0.01  -0.10    -0.06   0.02  -0.01
     8   1    -0.01  -0.02   0.11    -0.01   0.01   0.25     0.05   0.10   0.03
     9   1    -0.02  -0.01  -0.03    -0.01   0.01   0.37     0.13   0.04   0.03
    10   1    -0.02  -0.00  -0.14    -0.00   0.00   0.21     0.12  -0.05   0.01
    11   7     0.01  -0.00   0.13    -0.01  -0.01  -0.03    -0.04   0.05  -0.00
    12   6    -0.00   0.00   0.03    -0.01  -0.01  -0.08    -0.03  -0.00  -0.00
    13   6     0.00  -0.00   0.07    -0.01  -0.01  -0.07    -0.05   0.03  -0.01
    14   6    -0.00  -0.01   0.04    -0.01  -0.01   0.00    -0.02   0.06  -0.01
    15   6    -0.01  -0.02  -0.04    -0.01  -0.00   0.10     0.03   0.06  -0.01
    16   6    -0.02  -0.01  -0.09    -0.01   0.00   0.09     0.04   0.03  -0.01
    17   6    -0.01  -0.00  -0.06    -0.01  -0.00  -0.01     0.01  -0.01  -0.01
    18   1    -0.00  -0.02   0.06    -0.01  -0.01   0.01    -0.03   0.10  -0.02
    19   1    -0.02  -0.01  -0.16    -0.01   0.00   0.16     0.07   0.02  -0.01
    20   6    -0.02  -0.02  -0.08    -0.01   0.00   0.21     0.06   0.10  -0.01
    21   1    -0.02  -0.03  -0.01    -0.01  -0.00   0.16     0.05   0.14   0.01
    22   1    -0.05  -0.09  -0.12    -0.01   0.10   0.28     0.08   0.09  -0.01
    23   1     0.00   0.03  -0.12    -0.01  -0.09   0.29     0.10   0.11  -0.02
    24   6    -0.01   0.00  -0.11    -0.01  -0.00  -0.04     0.03  -0.06  -0.01
    25   1    -0.03  -0.03  -0.11    -0.04   0.04  -0.08     0.01  -0.08  -0.01
    26   1     0.01   0.03  -0.11     0.02  -0.04  -0.07     0.02  -0.07  -0.01
    27   1    -0.02  -0.00  -0.15    -0.02   0.00   0.00     0.07  -0.06  -0.01
    28   8     0.00   0.01   0.06    -0.01  -0.01  -0.14    -0.05  -0.02   0.01
    29   7     0.01  -0.00   0.04    -0.00  -0.01  -0.13    -0.04  -0.01  -0.01
    30   6    -0.00   0.02  -0.08    -0.00  -0.00  -0.04     0.03  -0.11  -0.01
    31   1    -0.01   0.02  -0.12    -0.01   0.00   0.02     0.06  -0.13  -0.05
    32   7     0.01   0.02  -0.04     0.01  -0.00  -0.13    -0.00  -0.13   0.03
    33   6     0.01   0.03   0.02     0.02   0.01  -0.07    -0.00  -0.13   0.04
    34   6     0.05  -0.15  -0.01     0.08  -0.04  -0.05    -0.04  -0.16   0.01
    35   6    -0.02   0.17  -0.06    -0.04   0.06  -0.07    -0.03  -0.07   0.02
    36   1    -0.00   0.05   0.15     0.01   0.02  -0.02     0.01  -0.12   0.08
    37   6     0.05  -0.15   0.06     0.07  -0.04   0.02    -0.01   0.02   0.01
    38   1     0.07  -0.17  -0.15     0.09  -0.05  -0.10    -0.15  -0.19  -0.07
    39   1     0.07  -0.24   0.04     0.12  -0.07  -0.05     0.02  -0.27   0.05
    40   6    -0.03   0.17   0.02    -0.04   0.07   0.01     0.00   0.09  -0.01
    41   1    -0.01   0.15  -0.18    -0.03   0.06  -0.12    -0.12  -0.08   0.02
    42   1    -0.04   0.27  -0.04    -0.07   0.09  -0.08     0.01  -0.10   0.03
    43   6     0.02  -0.02  -0.00     0.02   0.00   0.02    -0.10   0.19  -0.04
    44   1     0.07  -0.25   0.04     0.11  -0.07   0.03    -0.05   0.02  -0.01
    45   1     0.04  -0.14   0.18     0.07  -0.03   0.07     0.13   0.05   0.09
    46   1    -0.05   0.29  -0.04    -0.08   0.11   0.00    -0.05   0.15  -0.02
    47   1    -0.04   0.20   0.18    -0.05   0.08   0.07     0.14   0.11  -0.02
    48   1     0.02  -0.05   0.06     0.02  -0.00   0.09    -0.05   0.41  -0.07
    49   1     0.06  -0.04  -0.15     0.04  -0.00  -0.03    -0.32   0.17  -0.07
    50   1     0.01   0.02  -0.00     0.02  -0.01  -0.18    -0.02  -0.11   0.06
    51   1     0.01   0.01   0.10    -0.00  -0.01  -0.11    -0.09  -0.03   0.01
                      7                      8                      9
                      A                      A                      A
 Frequencies --    118.8623               125.3022               133.4158
 Red. masses --      4.1395                 2.2021                 1.7792
 Frc consts  --      0.0345                 0.0204                 0.0187
 IR Inten    --     32.4046                 0.9635                 1.3287
  Atom  AN      X      Y      Z        X      Y      Z        X      Y      Z
     1   6     0.04   0.03  -0.01     0.00  -0.00  -0.06     0.01   0.00  -0.07
     2   6     0.05  -0.01   0.03     0.00  -0.00  -0.02     0.01  -0.01  -0.06
     3   6     0.01  -0.03   0.06    -0.00  -0.00   0.00     0.00  -0.01  -0.02
     4   6    -0.02   0.00   0.02    -0.00  -0.00   0.00    -0.01   0.00   0.04
     5   6    -0.02   0.04  -0.04    -0.00  -0.00  -0.01    -0.01   0.01   0.05
     6   6     0.01   0.05  -0.05     0.00  -0.00  -0.03     0.00   0.01  -0.01
     7   6     0.12  -0.01   0.01     0.00  -0.00  -0.04     0.02  -0.01  -0.05
     8   1     0.00  -0.06   0.12    -0.00  -0.00   0.03    -0.00  -0.01  -0.02
     9   1    -0.06  -0.01   0.04    -0.00   0.00   0.02    -0.01   0.00   0.09
    10   1    -0.04   0.06  -0.07    -0.00   0.00   0.01    -0.01   0.01   0.11
    11   7     0.10  -0.03   0.04     0.00  -0.00  -0.01     0.02  -0.01  -0.06
    12   6     0.09   0.04  -0.03    -0.00   0.00   0.06     0.01   0.01   0.05
    13   6     0.12  -0.01  -0.01    -0.00  -0.00  -0.02     0.02  -0.00   0.02
    14   6     0.07  -0.06  -0.02    -0.00  -0.00  -0.04     0.01  -0.01   0.06
    15   6     0.00  -0.06  -0.00    -0.00  -0.00  -0.01    -0.00  -0.01   0.04
    16   6    -0.02  -0.00   0.01    -0.00  -0.00  -0.05    -0.01  -0.00  -0.01
    17   6     0.03   0.05  -0.00    -0.00  -0.00  -0.04     0.00   0.01  -0.01
    18   1     0.09  -0.12  -0.02    -0.00  -0.00  -0.07     0.01  -0.02   0.07
    19   1    -0.06   0.01   0.03    -0.00  -0.00  -0.09    -0.02  -0.00  -0.06
    20   6    -0.05  -0.12   0.01    -0.00  -0.00   0.10    -0.01  -0.02   0.01
    21   1    -0.03  -0.19  -0.13    -0.01  -0.03  -0.32     0.00   0.00   0.51
    22   1    -0.01   0.00   0.10     0.21   0.37   0.36    -0.29  -0.40  -0.26
    23   1    -0.18  -0.23   0.12    -0.22  -0.35   0.41     0.26   0.34  -0.31
    24   6    -0.00   0.14   0.02     0.00  -0.01  -0.13    -0.00   0.02  -0.07
    25   1     0.03   0.21   0.01    -0.05  -0.05  -0.14    -0.03  -0.01  -0.07
    26   1     0.01   0.16   0.01     0.05   0.02  -0.15     0.03   0.06  -0.07
    27   1    -0.08   0.15   0.04     0.00  -0.02  -0.18    -0.02   0.02  -0.11
    28   8     0.13   0.07  -0.06    -0.01   0.01   0.19     0.02   0.02   0.13
    29   7     0.09   0.03  -0.02     0.00  -0.00  -0.08     0.02   0.00  -0.08
    30   6    -0.00   0.03  -0.05     0.00   0.00   0.02    -0.00   0.01   0.03
    31   1     0.03   0.00  -0.10    -0.00   0.01   0.04    -0.00   0.01   0.09
    32   7    -0.07  -0.00   0.02     0.00   0.01   0.04    -0.01   0.00  -0.00
    33   6    -0.09  -0.06   0.03     0.00   0.01   0.03    -0.01  -0.01   0.01
    34   6    -0.11  -0.10   0.01    -0.02   0.02   0.02    -0.02  -0.01   0.00
    35   6    -0.09  -0.08   0.04     0.03   0.00   0.02    -0.01  -0.01   0.01
    36   1    -0.12  -0.07   0.04     0.00   0.01   0.03    -0.02  -0.01   0.01
    37   6    -0.10  -0.00   0.01    -0.02   0.01  -0.01    -0.01   0.00  -0.00
    38   1    -0.17  -0.11  -0.04    -0.02   0.02   0.04    -0.03  -0.01  -0.00
    39   1    -0.10  -0.16   0.04    -0.04   0.03   0.03    -0.02  -0.02   0.01
    40   6    -0.08  -0.01  -0.00     0.03  -0.01  -0.01    -0.01  -0.00  -0.00
    41   1    -0.13  -0.08   0.07     0.03   0.01   0.03    -0.01  -0.01   0.01
    42   1    -0.07  -0.12   0.03     0.04   0.00   0.03    -0.00  -0.01   0.01
    43   6    -0.15   0.08  -0.02     0.01  -0.01  -0.02    -0.02   0.01  -0.01
    44   1    -0.12  -0.00  -0.01    -0.04   0.01  -0.02    -0.02   0.01  -0.01
    45   1    -0.03   0.01   0.04    -0.03   0.00  -0.03    -0.00   0.01  -0.00
    46   1    -0.08  -0.01   0.00     0.05  -0.02  -0.01    -0.00  -0.01  -0.00
    47   1    -0.01  -0.01  -0.05     0.02  -0.01  -0.02    -0.00  -0.01  -0.02
    48   1    -0.12   0.22  -0.05     0.00  -0.02  -0.04    -0.02   0.03  -0.01
    49   1    -0.30   0.07  -0.02     0.01  -0.01  -0.01    -0.04   0.01  -0.00
    50   1    -0.12   0.03   0.07     0.01   0.00   0.00    -0.01   0.01  -0.06
    51   1     0.19   0.09  -0.04    -0.01   0.01   0.16     0.03   0.02   0.08
                     10                     11                     12
                      A                      A                      A
 Frequencies --    145.4271               182.6504               192.8913
 Red. masses --      3.8975                 1.3668                 2.5426
 Frc consts  --      0.0486                 0.0269                 0.0557
 IR Inten    --      2.4188                 0.7556                 1.3257
  Atom  AN      X      Y      Z        X      Y      Z        X      Y      Z
     1   6    -0.00  -0.01  -0.10     0.00   0.00   0.02     0.00  -0.01  -0.10
     2   6    -0.01   0.00   0.06     0.00  -0.00   0.02     0.00  -0.00  -0.10
     3   6    -0.00   0.01   0.18    -0.00  -0.00   0.00     0.01   0.01  -0.01
     4   6     0.00  -0.00   0.03    -0.00  -0.00  -0.01     0.02   0.01   0.08
     5   6     0.01  -0.02  -0.16    -0.00  -0.00  -0.01     0.02  -0.00   0.04
     6   6     0.01  -0.02  -0.17    -0.00   0.00   0.01     0.01  -0.01  -0.07
     7   6    -0.02  -0.00  -0.02     0.00  -0.00  -0.00    -0.00   0.00   0.02
     8   1    -0.00   0.02   0.37    -0.00  -0.00  -0.00     0.01   0.02   0.03
     9   1     0.01   0.00   0.09    -0.00  -0.00  -0.03     0.02   0.02   0.19
    10   1     0.01  -0.02  -0.24    -0.00  -0.00  -0.02     0.02  -0.00   0.11
    11   7    -0.02   0.01   0.11     0.00  -0.00   0.01    -0.00   0.00  -0.05
    12   6    -0.02  -0.01  -0.04     0.00  -0.00  -0.03    -0.00   0.00   0.06
    13   6    -0.02  -0.00  -0.04     0.00  -0.00  -0.03    -0.00   0.01   0.15
    14   6    -0.02   0.00  -0.03    -0.00  -0.00  -0.01     0.00   0.01   0.19
    15   6    -0.00   0.01   0.01    -0.00  -0.00  -0.03     0.00   0.00   0.05
    16   6     0.00  -0.00   0.03    -0.00  -0.01  -0.10     0.00   0.00   0.00
    17   6    -0.01  -0.01  -0.00    -0.00  -0.00  -0.06     0.00  -0.00   0.04
    18   1    -0.02   0.01  -0.03     0.00  -0.00   0.04     0.00   0.02   0.22
    19   1     0.01  -0.00   0.08    -0.00  -0.01  -0.13     0.01  -0.00  -0.09
    20   6     0.01   0.02   0.02     0.00   0.01   0.09    -0.01  -0.01  -0.14
    21   1     0.01   0.05   0.27     0.00   0.01   0.20    -0.01  -0.03  -0.44
    22   1    -0.13  -0.15  -0.10    -0.09   0.01   0.09     0.23   0.09  -0.06
    23   1     0.17   0.19  -0.13     0.10   0.00   0.09    -0.24  -0.10  -0.04
    24   6    -0.00  -0.03   0.02    -0.00   0.01   0.07     0.00  -0.01  -0.01
    25   1    -0.00   0.00   0.01     0.23  -0.36   0.42     0.08  -0.31   0.20
    26   1    -0.01  -0.07   0.01    -0.24   0.42   0.35    -0.09   0.30   0.15
    27   1     0.01  -0.02   0.07     0.00  -0.02  -0.39     0.02  -0.04  -0.37
    28   8    -0.03  -0.02  -0.07    -0.00  -0.00   0.01     0.00  -0.00  -0.08
    29   7    -0.01  -0.02  -0.14     0.00   0.00   0.01    -0.00  -0.00  -0.04
    30   6     0.01  -0.00  -0.09     0.00   0.00   0.00     0.00  -0.02  -0.03
    31   1     0.01  -0.01  -0.18     0.00   0.00  -0.01     0.01  -0.02  -0.03
    32   7     0.01   0.01   0.15    -0.00   0.00  -0.00    -0.00  -0.02   0.01
    33   6     0.02   0.04   0.12    -0.00  -0.00  -0.00    -0.00   0.01   0.02
    34   6    -0.06   0.06   0.09     0.00  -0.00  -0.00    -0.02   0.03   0.02
    35   6     0.09   0.03   0.09    -0.00  -0.00  -0.00    -0.00   0.02   0.01
    36   1     0.04   0.04   0.11    -0.00  -0.00  -0.00     0.02   0.01   0.02
    37   6    -0.07   0.01  -0.03     0.00  -0.00  -0.00    -0.03   0.00  -0.01
    38   1    -0.04   0.08   0.15     0.00  -0.00  -0.00    -0.01   0.03   0.04
    39   1    -0.15   0.11   0.10     0.00  -0.00  -0.00    -0.04   0.05   0.01
    40   6     0.09  -0.01  -0.01    -0.00  -0.00  -0.00    -0.00   0.01   0.00
    41   1     0.08   0.03   0.10    -0.00  -0.00  -0.00    -0.00   0.02   0.00
    42   1     0.14   0.04   0.12    -0.00  -0.00  -0.00     0.00   0.03   0.02
    43   6     0.04  -0.05  -0.05    -0.00   0.00   0.00     0.00  -0.02  -0.00
    44   1    -0.12   0.02  -0.05     0.00  -0.00   0.00    -0.03   0.01  -0.01
    45   1    -0.11  -0.00  -0.07     0.00  -0.00   0.00    -0.04  -0.00  -0.02
    46   1     0.16  -0.03  -0.03    -0.00   0.00   0.00     0.01   0.03  -0.01
    47   1     0.06  -0.02  -0.01    -0.00  -0.00  -0.00    -0.01   0.02   0.03
    48   1     0.02  -0.12  -0.11    -0.00   0.00   0.00    -0.01  -0.06  -0.01
    49   1     0.10  -0.04  -0.03    -0.00   0.00  -0.00     0.04  -0.02  -0.01
    50   1     0.02   0.01   0.20    -0.00   0.00   0.00     0.00  -0.02   0.02
    51   1    -0.04  -0.02  -0.01    -0.00   0.00   0.01     0.00  -0.00  -0.08
                     13                     14                     15
                      A                      A                      A
 Frequencies --    200.8446               226.1536               229.7189
 Red. masses --      3.2304                 2.1995                 3.6914
 Frc consts  --      0.0768                 0.0663                 0.1148
 IR Inten    --      5.1554                 1.0799                 0.5861
  Atom  AN      X      Y      Z        X      Y      Z        X      Y      Z
     1   6     0.03  -0.02   0.05     0.01   0.00   0.04     0.01  -0.02  -0.10
     2   6     0.04   0.01  -0.01     0.01   0.01   0.05     0.01   0.00   0.07
     3   6     0.09   0.03  -0.01     0.01   0.01   0.01     0.04   0.01  -0.03
     4   6     0.12   0.02   0.03     0.01   0.00  -0.05     0.05  -0.01  -0.14
     5   6     0.11  -0.02   0.02     0.01   0.00  -0.03     0.04  -0.02   0.01
     6   6     0.04  -0.04   0.02     0.01   0.00   0.03     0.02  -0.03   0.03
     7   6     0.01  -0.00  -0.01     0.00   0.00  -0.02     0.00  -0.00   0.03
     8   1     0.10   0.07  -0.05     0.01   0.01  -0.00     0.04   0.03  -0.02
     9   1     0.14   0.03   0.04     0.01   0.00  -0.11     0.07  -0.01  -0.25
    10   1     0.15  -0.05   0.02     0.01  -0.00  -0.06     0.06  -0.03   0.10
    11   7     0.02   0.01  -0.05     0.00   0.01   0.03     0.00   0.01   0.22
    12   6     0.01  -0.00  -0.01    -0.00  -0.00   0.01     0.00   0.00  -0.00
    13   6     0.01  -0.01  -0.03     0.00  -0.00  -0.06     0.00   0.00   0.04
    14   6     0.01  -0.01  -0.04    -0.00  -0.01  -0.11     0.00   0.00   0.04
    15   6     0.01  -0.01  -0.01    -0.00   0.00   0.06     0.00   0.00  -0.00
    16   6     0.00  -0.00  -0.01     0.00   0.01   0.22     0.00   0.00  -0.03
    17   6     0.01  -0.00  -0.01    -0.00   0.00   0.07     0.00   0.00  -0.01
    18   1     0.01  -0.01  -0.05    -0.00  -0.02  -0.25     0.00   0.01   0.07
    19   1     0.00  -0.00   0.00     0.00   0.02   0.33     0.00   0.00  -0.05
    20   6     0.01  -0.00   0.03    -0.02  -0.02  -0.06     0.01   0.01   0.00
    21   1     0.01  -0.00   0.09    -0.01  -0.03  -0.07     0.01   0.02  -0.02
    22   1    -0.05  -0.02   0.02     0.01  -0.10  -0.11     0.03   0.03   0.01
    23   1     0.06   0.01   0.01    -0.06   0.06  -0.12     0.01  -0.01   0.01
    24   6     0.01   0.00   0.00     0.01  -0.03  -0.13     0.00   0.01   0.03
    25   1    -0.01   0.07  -0.04    -0.02  -0.41   0.05     0.02   0.07   0.01
    26   1     0.02  -0.06  -0.03     0.01   0.35  -0.01    -0.01  -0.03   0.02
    27   1     0.00   0.01   0.08     0.03  -0.06  -0.59    -0.01   0.02   0.09
    28   8     0.02   0.01   0.04     0.00  -0.00   0.00     0.01   0.00  -0.06
    29   7     0.01  -0.02   0.07     0.00   0.00  -0.01     0.01  -0.02  -0.20
    30   6     0.02  -0.10  -0.06     0.00   0.00   0.03    -0.00  -0.03   0.24
    31   1     0.05  -0.12  -0.20     0.00   0.00   0.04    -0.02  -0.02   0.63
    32   7    -0.03  -0.10   0.02    -0.00   0.00  -0.01    -0.01  -0.05  -0.06
    33   6    -0.04   0.02  -0.02    -0.00   0.00  -0.01    -0.02   0.00  -0.01
    34   6    -0.10   0.14  -0.00    -0.00   0.00  -0.01    -0.03   0.02  -0.01
    35   6    -0.11   0.10  -0.04    -0.01   0.01  -0.01    -0.05   0.06  -0.03
    36   1     0.09   0.03  -0.03    -0.00   0.00  -0.00     0.03   0.01   0.02
    37   6    -0.12   0.01  -0.03    -0.00   0.00  -0.00    -0.03   0.04  -0.02
    38   1    -0.04   0.17   0.13    -0.00   0.00  -0.01    -0.06   0.01   0.01
    39   1    -0.15   0.25  -0.05     0.00  -0.00  -0.01    -0.02   0.02  -0.02
    40   6    -0.12   0.09   0.03    -0.02   0.00   0.00    -0.06   0.00   0.00
    41   1    -0.11   0.09  -0.12    -0.01   0.01  -0.02     0.02   0.06  -0.08
    42   1    -0.13   0.16  -0.03    -0.02   0.01  -0.01    -0.08   0.12  -0.03
    43   6    -0.04  -0.11   0.01    -0.01  -0.00   0.01    -0.03  -0.02   0.01
    44   1    -0.09   0.03  -0.01     0.00   0.01   0.00    -0.03   0.09  -0.01
    45   1    -0.23  -0.01  -0.11    -0.00   0.00  -0.00    -0.02   0.03  -0.08
    46   1    -0.12   0.20  -0.04    -0.02   0.00   0.00    -0.05  -0.02   0.01
    47   1    -0.16   0.12   0.19    -0.02   0.00   0.00    -0.11  -0.01   0.01
    48   1    -0.09  -0.34   0.05    -0.01  -0.01   0.01    -0.04  -0.08   0.03
    49   1     0.21  -0.10  -0.02    -0.00  -0.00   0.01     0.03  -0.01   0.04
    50   1    -0.02  -0.10   0.14    -0.00   0.00  -0.03     0.01  -0.06  -0.43
    51   1     0.02   0.01   0.01     0.00  -0.00  -0.01     0.01   0.01   0.04
                     16                     17                     18
                      A                      A                      A
 Frequencies --    241.9606               261.5213               272.3603
 Red. masses --      3.6834                 2.0408                 3.9681
 Frc consts  --      0.1271                 0.0822                 0.1734
 IR Inten    --     30.5450                 2.6542                 8.1622
  Atom  AN      X      Y      Z        X      Y      Z        X      Y      Z
     1   6    -0.03  -0.06   0.01     0.03  -0.03   0.01     0.13  -0.05  -0.00
     2   6    -0.03  -0.08   0.01     0.03  -0.02  -0.01     0.14  -0.06   0.00
     3   6    -0.08  -0.11   0.01     0.02  -0.03   0.02     0.07  -0.10   0.00
     4   6    -0.08  -0.11   0.00     0.01  -0.02   0.02    -0.00  -0.05   0.00
     5   6    -0.07  -0.10  -0.00     0.01  -0.02  -0.02    -0.00  -0.01   0.01
     6   6    -0.04  -0.08   0.01     0.02  -0.01  -0.01     0.06   0.02   0.00
     7   6     0.01  -0.04  -0.00     0.01  -0.02  -0.00     0.07  -0.04   0.00
     8   1    -0.08  -0.13   0.01     0.02  -0.04   0.04     0.06  -0.18   0.01
     9   1    -0.08  -0.11  -0.00     0.00  -0.02   0.05    -0.05  -0.07   0.00
    10   1    -0.10  -0.08  -0.01     0.01  -0.02  -0.04    -0.03   0.01   0.00
    11   7    -0.01  -0.06   0.00     0.02  -0.01  -0.03     0.11  -0.03   0.00
    12   6     0.02   0.06   0.00    -0.02   0.00   0.00    -0.09   0.01   0.00
    13   6     0.01   0.01  -0.00    -0.02  -0.00  -0.00    -0.06  -0.01   0.01
    14   6     0.02   0.04  -0.01    -0.02   0.00  -0.00    -0.08   0.00   0.00
    15   6     0.03   0.05   0.01    -0.01   0.01  -0.00    -0.05   0.02  -0.00
    16   6     0.01   0.06   0.03    -0.01   0.00   0.00    -0.05   0.01  -0.00
    17   6     0.01   0.08   0.01    -0.01   0.00   0.00    -0.07  -0.00   0.00
    18   1     0.02   0.05  -0.04    -0.02   0.01  -0.01    -0.09   0.02   0.00
    19   1    -0.00   0.06   0.04    -0.01   0.00   0.00    -0.05   0.01  -0.00
    20   6     0.12   0.15  -0.02     0.03   0.06  -0.01     0.08   0.17  -0.01
    21   1     0.05   0.28  -0.06     0.00   0.12  -0.02    -0.01   0.35  -0.04
    22   1     0.23   0.15  -0.02     0.08   0.06  -0.00     0.21   0.18   0.00
    23   1     0.18   0.15  -0.02     0.07   0.05  -0.00     0.19   0.15  -0.00
    24   6    -0.04   0.26  -0.04    -0.02   0.01  -0.00    -0.05  -0.10   0.01
    25   1     0.01   0.30  -0.03    -0.02   0.01  -0.00    -0.08  -0.14   0.01
    26   1     0.02   0.40  -0.03    -0.02   0.02  -0.00    -0.07  -0.14   0.01
    27   1    -0.22   0.26  -0.10    -0.03   0.01  -0.00     0.03  -0.10   0.01
    28   8     0.02   0.06   0.00    -0.02   0.01   0.01    -0.08   0.03  -0.01
    29   7    -0.01  -0.05   0.00     0.02  -0.03   0.04     0.11  -0.07   0.00
    30   6    -0.03  -0.10   0.00     0.01   0.01  -0.02     0.05   0.13   0.01
    31   1    -0.04  -0.10  -0.01     0.01   0.02  -0.04     0.04   0.14   0.05
    32   7    -0.00  -0.09   0.01     0.01   0.02   0.02     0.02   0.12  -0.04
    33   6     0.02  -0.04  -0.00    -0.00   0.04   0.04    -0.02   0.04  -0.03
    34   6     0.02   0.03   0.01    -0.03  -0.10  -0.02    -0.02   0.05  -0.01
    35   6     0.01  -0.02  -0.01     0.00   0.14  -0.04    -0.04  -0.06   0.05
    36   1     0.06  -0.03  -0.03     0.01   0.06   0.17    -0.07   0.03  -0.09
    37   6     0.01  -0.00  -0.00     0.01   0.11  -0.03    -0.06  -0.10   0.02
    38   1     0.04   0.04   0.08    -0.19  -0.16  -0.19     0.09   0.08   0.03
    39   1     0.01   0.09  -0.02     0.04  -0.29   0.07    -0.09   0.12  -0.02
    40   6     0.02   0.05   0.00    -0.05  -0.13  -0.01    -0.03   0.03   0.01
    41   1    -0.04  -0.03  -0.01     0.18   0.15  -0.18    -0.10  -0.06   0.17
    42   1     0.03  -0.03   0.00    -0.08   0.32  -0.03    -0.03  -0.19   0.01
    43   6     0.04  -0.02  -0.01    -0.02  -0.00   0.05    -0.09   0.01  -0.03
    44   1     0.01  -0.01  -0.00    -0.04   0.27  -0.00    -0.00  -0.23   0.01
    45   1    -0.01  -0.01  -0.01     0.14   0.11  -0.17    -0.15  -0.10   0.14
    46   1    -0.01   0.11  -0.03     0.04  -0.35   0.10    -0.04   0.09  -0.03
    47   1     0.06   0.07   0.08    -0.25  -0.20  -0.20     0.05   0.05   0.05
    48   1     0.03  -0.07   0.01    -0.02  -0.02   0.03    -0.07   0.12  -0.03
    49   1     0.10  -0.02  -0.03    -0.01   0.02   0.19    -0.20  -0.01  -0.10
    50   1     0.02  -0.10   0.02     0.01   0.02   0.04     0.00   0.13  -0.06
    51   1     0.05   0.07  -0.00    -0.01  -0.00  -0.01    -0.03  -0.00  -0.00
                     19                     20                     21
                      A                      A                      A
 Frequencies --    299.9277               305.5154               336.3706
 Red. masses --      3.5941                 4.1859                 2.6684
 Frc consts  --      0.1905                 0.2302                 0.1779
 IR Inten    --     32.0950                 0.5624               142.1736
  Atom  AN      X      Y      Z        X      Y      Z        X      Y      Z
     1   6     0.02  -0.03   0.01     0.00  -0.00  -0.12     0.00  -0.06  -0.02
     2   6     0.01  -0.04   0.01     0.00  -0.01  -0.06    -0.01  -0.02  -0.04
     3   6    -0.05  -0.09   0.03    -0.01  -0.03  -0.23     0.02  -0.01   0.00
     4   6    -0.07  -0.08  -0.00    -0.02  -0.01   0.06     0.04  -0.03   0.03
     5   6    -0.06  -0.06  -0.02    -0.02   0.01   0.22     0.04  -0.07  -0.01
     6   6    -0.01  -0.03   0.01    -0.00   0.00  -0.07     0.01  -0.07  -0.04
     7   6     0.04  -0.01  -0.02     0.01   0.01   0.17    -0.05  -0.01   0.05
     8   1    -0.06  -0.14   0.05    -0.01  -0.04  -0.43     0.02   0.01   0.05
     9   1    -0.08  -0.09  -0.01    -0.03  -0.01   0.13     0.07  -0.02   0.09
    10   1    -0.10  -0.03  -0.05    -0.03   0.03   0.48     0.06  -0.08  -0.01
    11   7     0.04  -0.03  -0.02     0.01   0.00   0.22    -0.04   0.01  -0.00
    12   6    -0.05   0.12  -0.01    -0.01   0.01   0.02     0.00   0.02  -0.00
    13   6    -0.00   0.04  -0.01    -0.00   0.00   0.04    -0.01   0.01   0.01
    14   6     0.04   0.08   0.01    -0.00  -0.00  -0.16     0.04   0.04  -0.04
    15   6     0.03   0.10  -0.00    -0.01   0.00  -0.08     0.07   0.05  -0.02
    16   6     0.03   0.17  -0.02    -0.01   0.01   0.03     0.06   0.07   0.00
    17   6    -0.00   0.12  -0.01    -0.01   0.01   0.03     0.05   0.04  -0.00
    18   1     0.03   0.13   0.03    -0.00  -0.01  -0.24     0.02   0.09  -0.06
    19   1     0.02   0.17  -0.03    -0.01   0.02   0.09     0.07   0.06   0.02
    20   6    -0.12  -0.06   0.01    -0.01   0.01   0.05    -0.04  -0.08   0.01
    21   1    -0.02  -0.25   0.03    -0.00   0.02   0.18     0.04  -0.24   0.06
    22   1    -0.25  -0.06  -0.00    -0.12   0.02   0.05    -0.17  -0.08   0.01
    23   1    -0.24  -0.04   0.00     0.12  -0.00   0.05    -0.11  -0.08   0.01
    24   6     0.10  -0.18   0.02     0.01  -0.03  -0.01     0.05   0.08  -0.01
    25   1     0.01  -0.32   0.03    -0.03  -0.09  -0.01     0.06   0.10  -0.01
    26   1     0.01  -0.34   0.02     0.02  -0.01  -0.01     0.06   0.11  -0.01
    27   1     0.38  -0.19   0.04     0.04  -0.04  -0.07    -0.00   0.08  -0.02
    28   8    -0.01   0.16  -0.01     0.00   0.02  -0.05    -0.06  -0.03  -0.00
    29   7     0.04  -0.02   0.00     0.01   0.00  -0.01    -0.03  -0.05   0.06
    30   6    -0.00  -0.05   0.02    -0.00  -0.01  -0.15     0.00   0.00   0.02
    31   1     0.01  -0.06   0.03     0.01  -0.02  -0.29    -0.04   0.03   0.13
    32   7    -0.00  -0.06   0.01    -0.00  -0.01   0.01     0.04   0.03  -0.05
    33   6     0.01  -0.04   0.00     0.00  -0.00   0.03     0.02   0.11   0.01
    34   6    -0.00  -0.01   0.00    -0.01  -0.02   0.02     0.02   0.06  -0.00
    35   6    -0.00  -0.00  -0.02     0.02   0.01   0.02     0.00   0.07   0.04
    36   1     0.03  -0.03   0.01    -0.00   0.00   0.05     0.05   0.11   0.01
    37   6     0.01   0.03  -0.01    -0.00   0.01  -0.00    -0.03  -0.11   0.03
    38   1    -0.04  -0.01   0.02    -0.03  -0.02   0.00     0.14   0.09   0.00
    39   1     0.02  -0.01  -0.01    -0.01  -0.04   0.04    -0.07   0.12   0.01
    40   6    -0.00   0.02   0.01     0.02  -0.01  -0.00    -0.02  -0.08  -0.02
    41   1    -0.01  -0.01  -0.06     0.02   0.01   0.00     0.08   0.08   0.09
    42   1    -0.00   0.03  -0.01     0.03   0.03   0.03    -0.03   0.05   0.02
    43   6     0.03  -0.02   0.01     0.02  -0.00  -0.00    -0.10   0.04  -0.03
    44   1    -0.01   0.09  -0.00    -0.03   0.04  -0.01     0.04  -0.28   0.01
    45   1     0.03   0.03  -0.07     0.02   0.02  -0.03    -0.13  -0.10   0.22
    46   1    -0.02   0.05  -0.01     0.04  -0.04   0.00     0.08  -0.24   0.04
    47   1     0.00   0.03   0.05     0.00  -0.02  -0.02    -0.10  -0.13  -0.20
    48   1     0.01  -0.08   0.02     0.01  -0.02  -0.02    -0.05   0.28  -0.05
    49   1     0.10  -0.01   0.02     0.03   0.00   0.01    -0.35   0.02  -0.05
    50   1    -0.00  -0.06  -0.01    -0.01  -0.00   0.17     0.08   0.00  -0.13
    51   1     0.06   0.16  -0.01     0.03   0.03   0.02    -0.13  -0.05  -0.00
                     22                     23                     24
                      A                      A                      A
 Frequencies --    341.5295               358.2748               373.4711
 Red. masses --      3.4311                 2.8416                 3.9905
 Frc consts  --      0.2358                 0.2149                 0.3279
 IR Inten    --     24.3025               214.5856                11.5380
  Atom  AN      X      Y      Z        X      Y      Z        X      Y      Z
     1   6    -0.01   0.02  -0.10    -0.07   0.02   0.02     0.01  -0.01   0.02
     2   6    -0.00   0.01  -0.16    -0.05   0.02   0.02     0.01  -0.00   0.03
     3   6    -0.01   0.02   0.07    -0.01   0.03   0.01     0.00  -0.00   0.04
     4   6    -0.00   0.02   0.08     0.03   0.02  -0.01    -0.00  -0.01  -0.03
     5   6    -0.00   0.01  -0.12     0.01   0.00  -0.00     0.00  -0.01  -0.01
     6   6    -0.01   0.01  -0.11    -0.04  -0.03   0.02     0.01   0.00   0.07
     7   6     0.01   0.01   0.13     0.01  -0.01  -0.03    -0.01  -0.00  -0.06
     8   1    -0.01   0.03   0.30    -0.00   0.08  -0.01     0.00  -0.01   0.06
     9   1    -0.01   0.03   0.26     0.04   0.03  -0.04     0.00  -0.01  -0.09
    10   1    -0.00   0.01  -0.15     0.04  -0.02  -0.01    -0.00  -0.01  -0.06
    11   7     0.01  -0.00  -0.05    -0.00  -0.03  -0.01    -0.01   0.00  -0.04
    12   6     0.00  -0.00   0.06     0.02   0.01   0.03    -0.00   0.01   0.24
    13   6     0.01  -0.00   0.05     0.04  -0.03   0.01    -0.01   0.01   0.09
    14   6    -0.01  -0.02  -0.13    -0.01  -0.03   0.00     0.00   0.01  -0.06
    15   6    -0.03  -0.03  -0.09    -0.05  -0.04  -0.01     0.02   0.00  -0.13
    16   6    -0.02  -0.03  -0.00    -0.06  -0.04  -0.02     0.02   0.00  -0.13
    17   6    -0.02  -0.01   0.07    -0.04  -0.01   0.03     0.01   0.02   0.26
    18   1    -0.01  -0.05  -0.19     0.01  -0.09   0.00    -0.00   0.02  -0.11
    19   1    -0.03  -0.03  -0.01    -0.07  -0.03  -0.06     0.01  -0.01  -0.42
    20   6     0.02   0.03   0.05     0.04   0.07  -0.00    -0.01  -0.02   0.06
    21   1    -0.01   0.09   0.16    -0.03   0.21  -0.00     0.02  -0.05   0.22
    22   1    -0.06   0.06   0.06     0.12   0.08   0.00    -0.19   0.05   0.09
    23   1     0.17  -0.01   0.06     0.13   0.06   0.00     0.13  -0.08   0.10
    24   6    -0.01  -0.03  -0.01    -0.02  -0.10   0.00     0.01   0.03  -0.03
    25   1    -0.08  -0.09  -0.03    -0.08  -0.16  -0.00    -0.20  -0.06  -0.13
    26   1     0.04  -0.01  -0.04    -0.02  -0.14  -0.01     0.23   0.12  -0.13
    27   1     0.01  -0.04  -0.07     0.07  -0.11  -0.01    -0.01   0.02  -0.16
    28   8     0.04   0.02  -0.04     0.16   0.14  -0.02    -0.03  -0.04  -0.12
    29   7     0.00   0.03   0.18    -0.03   0.01  -0.02    -0.00  -0.01  -0.09
    30   6    -0.01  -0.01   0.15    -0.05  -0.08  -0.01     0.01   0.02   0.01
    31   1    -0.02   0.00   0.50    -0.04  -0.09  -0.05     0.01   0.02  -0.19
    32   7    -0.02  -0.03  -0.07    -0.01  -0.06   0.01     0.01   0.03   0.13
    33   6    -0.01  -0.04   0.02     0.01   0.06  -0.00     0.01   0.00  -0.07
    34   6     0.00  -0.01   0.03     0.04   0.06   0.01    -0.00   0.00  -0.08
    35   6    -0.01  -0.02   0.00     0.02   0.07  -0.01     0.00  -0.02  -0.06
    36   1    -0.02  -0.04   0.02     0.08   0.06   0.00     0.01  -0.00  -0.11
    37   6     0.01   0.03  -0.02     0.01  -0.08   0.06     0.00  -0.00   0.02
    38   1    -0.03  -0.01   0.07     0.16   0.09   0.05     0.00  -0.00  -0.13
    39   1     0.01   0.02   0.01    -0.00   0.14  -0.02     0.05  -0.04  -0.08
    40   6     0.01   0.04  -0.01     0.01  -0.07  -0.04    -0.01  -0.00   0.03
    41   1    -0.02  -0.03   0.01     0.10   0.08  -0.04     0.00  -0.02  -0.08
    42   1     0.02  -0.02   0.02     0.01   0.12  -0.00    -0.05  -0.02  -0.09
    43   6     0.04  -0.01  -0.01    -0.03   0.06  -0.02    -0.01   0.00   0.03
    44   1    -0.03   0.09  -0.02     0.06  -0.26   0.02     0.06  -0.04   0.04
    45   1     0.04   0.03  -0.09    -0.08  -0.08   0.24    -0.02  -0.00   0.05
    46   1    -0.02   0.10  -0.03     0.07  -0.25   0.04    -0.06   0.04   0.03
[...]
 ! R8    R(4,5)                 -0.0318                  1.5                    !
 ! R9    R(4,9)                 -0.2443                 11.6                    !
 ! R10   R(5,6)                 -0.0439                  2.1                    !
 ! R11   R(5,10)                 1.0112                 47.9                    !
 ! R12   R(6,30)                 0.0142                  0.7                    !
 ! R34   R(30,31)               -0.2982                 14.1                    !
 ! R35   R(30,32)                0.0136                  0.6                    !
 ! R37   R(32,50)               -0.017                   0.8                    !
 ! A10   A(3,4,5)               -0.0398                  1.9                    !
 ! A12   A(5,4,9)                0.0357                  1.7                    !
 ! A13   A(4,5,6)                0.0595                  2.8                    !
 ! A14   A(4,5,10)              -0.0365                  1.7                    !
 ! A15   A(6,5,10)              -0.023                   1.1                    !
 ! A16   A(1,6,5)               -0.025                   1.2                    !
 ! A18   A(5,6,30)               0.019                   0.9                    !
 ! A56   A(6,30,32)             -0.0162                  0.8                    !
 --------------------------------------------------------------------------------
                           ----------------------------
                           ! Normal Mode   143        !
 --------------------------                            --------------------------
 ! Name  Definition              Value          Relative Weight (%)             !
 --------------------------------------------------------------------------------
 ! R7    R(3,8)                  0.0206                  1.0                    !
 ! R9    R(4,9)                 -0.1031                  4.9                    !
 ! R11   R(5,10)                 0.282                  13.3                    !
 ! R12   R(6,30)                -0.0431                  2.0                    !
 ! R34   R(30,31)                1.038                  49.1                    !
 ! R35   R(30,32)               -0.0457                  2.2                    !
 ! R37   R(32,50)                0.0799                  3.8                    !
 ! R45   R(35,41)                0.0191                  0.9                    !
 ! A10   A(3,4,5)               -0.0132                  0.6                    !
 ! A13   A(4,5,6)                0.0185                  0.9                    !
 ! A17   A(1,6,30)              -0.027                   1.3                    !
 ! A18   A(5,6,30)               0.0359                  1.7                    !
 ! A55   A(6,30,31)             -0.0255                  1.2                    !
 ! A56   A(6,30,32)              0.0601                  2.8                    !
 ! A57   A(31,30,32)            -0.0346                  1.6                    !
 ! A58   A(30,32,33)             0.0354                  1.7                    !
 ! A59   A(30,32,50)            -0.0318                  1.5                    !
 --------------------------------------------------------------------------------
                           ----------------------------
                           ! Normal Mode   144        !
 --------------------------                            --------------------------
 ! Name  Definition              Value          Relative Weight (%)             !
 --------------------------------------------------------------------------------
 ! R4    R(2,3)                  0.0362                  1.6                    !
 ! R7    R(3,8)                 -0.7991                 36.0                    !
 ! R8    R(4,5)                 -0.0378                  1.7                    !
 ! R9    R(4,9)                  0.6983                 31.4                    !
 ! R11   R(5,10)                 0.2055                  9.3                    !
 ! R21   R(14,18)                0.0399                  1.8                    !
 ! R34   R(30,31)                0.0287                  1.3                    !
 ! A7    A(2,3,4)               -0.0598                  2.7                    !
 ! A9    A(4,3,8)                0.0431                  1.9                    !
 ! A10   A(3,4,5)                0.052                   2.3                    !
 ! A11   A(3,4,9)               -0.043                   1.9                    !
 --------------------------------------------------------------------------------
                           ----------------------------
                           ! Normal Mode   145        !
 --------------------------                            --------------------------
 ! Name  Definition              Value          Relative Weight (%)             !
 --------------------------------------------------------------------------------
 ! R9    R(4,9)                 -0.0411                  2.6                    !
 ! R19   R(13,14)               -0.0444                  2.8                    !
 ! R20   R(14,15)               -0.0479                  3.0                    !
 ! R21   R(14,18)                1.0819                 67.8                    !
 ! R25   R(16,19)                0.0269                  1.7                    !
 ! A27   A(7,13,14)              0.0298                  1.9                    !
 ! A28   A(12,13,14)            -0.0279                  1.7                    !
 ! A29   A(13,14,15)             0.0571                  3.6                    !
 ! A30   A(13,14,18)            -0.0265                  1.7                    !
 ! A31   A(15,14,18)            -0.0306                  1.9                    !
 ! A32   A(14,15,16)            -0.0278                  1.7                    !
 ! A33   A(14,15,20)             0.0291                  1.8                    !
 --------------------------------------------------------------------------------
                           ----------------------------
                           ! Normal Mode   146        !
 --------------------------                            --------------------------
 ! Name  Definition              Value          Relative Weight (%)             !
 --------------------------------------------------------------------------------
 ! R4    R(2,3)                 -0.032                   1.5                    !
 ! R6    R(3,4)                 -0.0671                  3.2                    !
 ! R7    R(3,8)                  0.7306                 35.0                    !
 ! R8    R(4,5)                 -0.0378                  1.8                    !
 ! R9    R(4,9)                  0.7846                 37.6                    !
 ! R11   R(5,10)                 0.1689                  8.1                    !
 ! R21   R(14,18)                0.0204                  1.0                    !
 ! R34   R(30,31)                0.0172                  0.8                    !
 ! A4    A(1,2,3)               -0.019                   0.9                    !
 ! A6    A(3,2,11)               0.0207                  1.0                    !
 ! A7    A(2,3,4)                0.0181                  0.9                    !
 ! A8    A(2,3,8)               -0.0209                  1.0                    !
 ! A10   A(3,4,5)                0.019                   0.9                    !
 ! A12   A(5,4,9)               -0.0196                  0.9                    !
 ! A14   A(4,5,10)               0.0195                  0.9                    !
 --------------------------------------------------------------------------------
                           ----------------------------
                           ! Normal Mode   147        !
 --------------------------                            --------------------------
 ! Name  Definition              Value          Relative Weight (%)             !
 --------------------------------------------------------------------------------
 ! R34   R(30,31)                0.0821                  4.7                    !
 ! R35   R(30,32)                0.0323                  1.9                    !
 ! R36   R(32,33)                0.0345                  2.0                    !
 ! R37   R(32,50)               -1.0675                 61.5                    !
 ! R43   R(34,39)               -0.0142                  0.8                    !
 ! A56   A(6,30,32)             -0.0237                  1.4                    !
 ! A57   A(31,30,32)             0.0299                  1.7                    !
 ! A58   A(30,32,33)            -0.0499                  2.9                    !
 ! A60   A(33,32,50)             0.0545                  3.1                    !
 ! A62   A(32,33,35)             0.0137                  0.8                    !
 ! A63   A(32,33,36)            -0.0255                  1.5                    !
 ! D89   D(32,33,34,37)          0.0242                  1.4                    !
 ! D90   D(32,33,34,38)          0.0249                  1.4                    !
 ! D91   D(32,33,34,39)          0.0251                  1.4                    !
 ! D98   D(32,33,35,40)         -0.0219                  1.3                    !
 ! D99   D(32,33,35,41)         -0.0212                  1.2                    !
 ! D100  D(32,33,35,42)         -0.022                   1.3                    !
 --------------------------------------------------------------------------------
 -------------------------------------------------------------------
 Center     Atomic                   Forces (Hartrees/Bohr)
 Number     Number              X              Y              Z
 -------------------------------------------------------------------
      1        6           0.000002579    0.000001984   -0.000001021
      2        6           0.000002797    0.000004324   -0.000001923
      3        6           0.000004934    0.000005373   -0.000002429
      4        6           0.000006619    0.000003902   -0.000002153
      5        6           0.000006459    0.000001680   -0.000001325
      6        6           0.000004367    0.000000884   -0.000000774
      7        6          -0.000000690    0.000003566   -0.000001743
      8        1           0.000005160    0.000007037   -0.000003060
      9        1           0.000008279    0.000004592   -0.000002553
     10        1           0.000007801    0.000000723   -0.000001137
     11        7           0.000000793    0.000005405   -0.000001982
     12        6          -0.000003263    0.000006027   -0.000001512
     13        6          -0.000003167    0.000004185   -0.000000895
     14        6          -0.000004157    0.000002183   -0.000000465
     15        6          -0.000006465    0.000002839   -0.000000207
     16        6          -0.000007256    0.000004815   -0.000001043
     17        6          -0.000005912    0.000006804   -0.000001731
     18        1          -0.000003697    0.000000745    0.000000091
     19        1          -0.000008976    0.000005200   -0.000000827
     20        6          -0.000007956    0.000000892    0.000000686
     21        1          -0.000007329   -0.000000486    0.000000977
     22        1          -0.000009651    0.000001162    0.000000677
     23        1          -0.000008741    0.000000962    0.000000630
     24        6          -0.000006719    0.000008866   -0.000002368
     25        1          -0.000006466    0.000009875   -0.000002781
     26        1          -0.000005694    0.000009522   -0.000002741
     27        1          -0.000008443    0.000008943   -0.000002220
     28        8          -0.000002413    0.000008021   -0.000002588
     29        7           0.000000434    0.000001856   -0.000000494
     30        6           0.000004023   -0.000001311    0.000000065
     31        1           0.000005528   -0.000002420    0.000000271
     32        7           0.000002285   -0.000002428    0.000000616
     33        6           0.000002006   -0.000004667    0.000001455
     34        6           0.000003254   -0.000005980    0.000001733
     35        6           0.000002424   -0.000005443    0.000001647
     36        1           0.000000079   -0.000004914    0.000001698
     37        6           0.000002793   -0.000008380    0.000002656
     38        1           0.000005056   -0.000005707    0.000001443
     39        1           0.000002818   -0.000005418    0.000001609
     40        6           0.000001978   -0.000007828    0.000002552
     41        1           0.000004227   -0.000005203    0.000001347
     42        1           0.000001434   -0.000004470    0.000001424
     43        6           0.000003290   -0.000009156    0.000002886
     44        1           0.000003831   -0.000009327    0.000002855
     45        1           0.000000985   -0.000008604    0.000002959
     46        1           0.000002394   -0.000008353    0.000002679
     47        1           0.000000163   -0.000008066    0.000002825
     48        1           0.000002868   -0.000010848    0.000003514
     49        1           0.000005094   -0.000009072    0.000002634
     50        1           0.000000879   -0.000001500    0.000000408
     51        1          -0.000000635    0.000007212   -0.000002365
 -------------------------------------------------------------------
 Cartesian Forces:  Max     0.000010848 RMS     0.000004572
 FormGI is forming the generalized inverse of G from B-inverse, IUseBI=4.
 Leave Link  716 at Mon Dec 17 15:41:05 2018, MaxMem=  1342177280 cpu:               1.3 elap:               0.3
 (Enter /gpfs/apps/hpc/Apps/Restricted/Gaussian/Rev_A.03/g16/l9999.exe)

 ----------------------------------------------------------------------

 Electric dipole moment (input orientation):
 (Debye = 10**-18 statcoulomb cm , SI units = C m)
                  (au)            (Debye)         (10**-30 SI)
   Tot        0.342788D+01      0.871281D+01      0.290628D+02
   x          0.208447D+01      0.529819D+01      0.176729D+02
   y          0.264078D+01      0.671219D+01      0.223895D+02
   z          0.657021D+00      0.166998D+01      0.557045D+01

 Dipole polarizability, Alpha (input orientation).
 (esu units = cm**3 , SI units = C**2 m**2 J**-1)
 Alpha(0;0):
               (au)            (10**-24 esu)      (10**-40 SI)
   iso        0.576229D+03      0.853884D+02      0.950074D+02
   aniso      0.785144D+03      0.116346D+03      0.129453D+03
   xx         0.518614D+03      0.768507D+02      0.855079D+02
   yx         0.134941D+03      0.199961D+02      0.222487D+02
   yy         0.103304D+04      0.153081D+03      0.170325D+03
   zx        -0.275633D+01     -0.408447D+00     -0.454458D+00
   zy        -0.398943D+02     -0.591173D+01     -0.657768D+01
   zz         0.177035D+03      0.262338D+02      0.291891D+02

 ----------------------------------------------------------------------

 Dipole orientation:
     6         -2.86714940          2.50927201          3.38198902
     6         -4.83215950          3.78146418          1.98504732
     6         -6.43405083          5.53201917          3.17768785
     6         -6.07731806          5.97894091          5.74022043
     6         -4.17372014          4.73571250          7.13439458
     6         -2.53640479          2.99336818          6.00715887
     6         -2.75422505          1.26277711         -0.44376518
     1         -7.90229086          6.49730975          2.12808989
     1         -7.28997405          7.31250667          6.70856864
     1         -3.97479261          5.13692400          9.13254107
     7         -4.71018439          2.94821987         -0.43333405
     6         -3.48924876          0.48595437         -5.01021283
     6         -2.06328002         -0.01860198         -2.72000309
     6         -0.04717772         -1.73730647         -2.82058613
     6          0.57780524         -2.94541697         -5.05548431
     6         -0.87200393         -2.43204357         -7.28108900
     6         -2.86208037         -0.76883811         -7.31605602
     1          1.01384152         -2.09915371         -1.10930469
     1         -0.36160856         -3.40754028         -9.01084643
     6          2.73608408         -4.76635980         -5.21034816
     1          3.68804438         -4.96677191         -3.39489036
     1          2.07459072         -6.62867811         -5.82181638
     1          4.11503300         -4.13831829         -6.61844661
     6         -4.37567966         -0.20611083         -9.64450975
     1         -6.37905774         -0.61081440         -9.34165146
     1         -4.23582195          1.79421126        -10.14497161
     1         -3.70498063         -1.33400522        -11.23204822
     8         -5.37227324          2.09192490         -5.03603759
     7         -1.57959911          0.94289599          1.84393771
     6         -0.63319255          1.74596592          7.45966635
     1         -0.47590719          2.14605885          9.46369683
     7          0.92591818          0.11928250          6.48466259
     6          2.89715379         -1.25716154          7.89735922
     6          5.00983279          0.53274236          8.76175815
     6          1.76756412         -2.71367360         10.13417986
     1          3.67494161         -2.60291830          6.54036713
     6          7.07309895         -0.95827975         10.14600373
     1          4.19799309          1.95349069         10.03198147
     1          5.79083789          1.53001417          7.13053577
     6          3.83896384         -4.19864059         11.51097848
     1          0.90526812         -1.36645976         11.45042763
     1          0.27153155         -3.96865133          9.46092520
     6          5.98898586         -2.45870712         12.37274231
     1          8.55026324          0.33539564         10.78936230
     1          7.96467144         -2.26776002          8.80940225
     1          3.01376731         -5.19102105         13.12488589
     1          4.59540732         -5.64729776         10.23669756
     1          7.47957158         -3.56539436         13.28190836
     1          5.26270283         -1.13757358         13.79582482
     1          0.72873697         -0.21586919          4.58157452
     1         -5.56947459          2.82173432         -3.21917126

 Electric dipole moment (dipole orientation):
 (Debye = 10**-18 statcoulomb cm , SI units = C m)
                  (au)            (Debye)         (10**-30 SI)
   Tot        0.342788D+01      0.871281D+01      0.290628D+02
   x          0.000000D+00      0.000000D+00      0.000000D+00
   y          0.000000D+00      0.000000D+00      0.000000D+00
   z          0.342788D+01      0.871281D+01      0.290628D+02

 Dipole polarizability, Alpha (dipole orientation).
 (esu units = cm**3 , SI units = C**2 m**2 J**-1)
 Alpha(0;0):
               (au)            (10**-24 esu)      (10**-40 SI)
   iso        0.576229D+03      0.853884D+02      0.950074D+02
   aniso      0.785144D+03      0.116346D+03      0.129453D+03
   xx         0.381871D+03      0.565874D+02      0.629620D+02
   yx        -0.193057D+03     -0.286081D+02     -0.318308D+02
   yy         0.421442D+03      0.624512D+02      0.694864D+02
   zx        -0.541902D+02     -0.803016D+01     -0.893475D+01
   zy         0.271030D+03      0.401625D+02      0.446868D+02
   zz         0.925376D+03      0.137127D+03      0.152574D+03

 ----------------------------------------------------------------------

 This type of calculation cannot be archived.


 SCIENCE AND PEACE WILL TRIUMPH OVER IGNORANCE AND WAR

                          -- PASTEUR
 Job cpu time:       0 days  0 hours  0 minutes  4.3 seconds.
 Elapsed time:       0 days  0 hours  0 minutes  1.3 seconds.
 File lengths (MBytes):  RWF=     72 Int=      0 D2E=      0 Chk=     56 Scr=      8
 Normal termination of Gaussian 16 at Mon Dec 17 15:41:05 2018.
