 Entering Gaussian System, Link 0=g16
 Input=cyclohexyl-triBIP-E1PT.com
 Output=cyclohexyl-triBIP-E1PT.log
 Initial command:
 /gpfs/apps/hpc/Apps/Restricted/Gaussian/Rev_A.03/g16/l1.exe "/gpfs/scratch60/fas/hammes_schiffer/jg2487/c42n01/Gau-73661.inp" -scrdir="/gpfs/scratch60/fas/hammes_schiffer/jg2487/c42n01/"
 Entering Link 1 = /gpfs/apps/hpc/Apps/Restricted/Gaussian/Rev_A.03/g16/l1.exe PID=     73662.
  
 Copyright (c) 1988,1990,1992,1993,1995,1998,2003,2009,2016,
            Gaussian, Inc.  All Rights Reserved.
  
 This is part of the Gaussian(R) 16 program.  It is based on
 the Gaussian(R) 09 system (copyright 2009, Gaussian, Inc.),
 the Gaussian(R) 03 system (copyright 2003, Gaussian, Inc.),
 the Gaussian(R) 98 system (copyright 1998, Gaussian, Inc.),
 the Gaussian(R) 94 system (copyright 1995, Gaussian, Inc.),
 the Gaussian 92(TM) system (copyright 1992, Gaussian, Inc.),
 the Gaussian 90(TM) system (copyright 1990, Gaussian, Inc.),
 the Gaussian 88(TM) system (copyright 1988, Gaussian, Inc.),
 the Gaussian 86(TM) system (copyright 1986, Carnegie Mellon
 University), and the Gaussian 82(TM) system (copyright 1983,
 Carnegie Mellon University). Gaussian is a federally registered
 trademark of Gaussian, Inc.
  
 This software contains proprietary and confidential information,
 including trade secrets, belonging to Gaussian, Inc.
  
 This software is provided under written license and may be
 used, copied, transmitted, or stored only in accord with that
 written license.
  
 The following legend is applicable only to US Government
 contracts under FAR:
  
                    RESTRICTED RIGHTS LEGEND
  
 Use, reproduction and disclosure by the US Government is
 subject to restrictions as set forth in subparagraphs (a)
 and (c) of the Commercial Computer Software - Restricted
 Rights clause in FAR 52.227-19.
  
 Gaussian, Inc.
 340 Quinnipiac St., Bldg. 40, Wallingford CT 06492
  
  
 ---------------------------------------------------------------
 Warning -- This program may not be used in any manner that
 competes with the business of Gaussian, Inc. or will provide
 assistance to any competitor of Gaussian, Inc.  The licensee
 of this program is prohibited from giving any competitor of
 Gaussian, Inc. access to this program.  By using this program,
 the user acknowledges that Gaussian, Inc. is engaged in the
 business of creating and licensing software in the field of
 computational chemistry and represents and warrants to the
 licensee that it is not a competitor of Gaussian, Inc. and that
 it will not use this program in any manner prohibited above.
 ---------------------------------------------------------------
  

 Cite this work as:
 Gaussian 16, Revision A.03,
 M. J. Frisch, G. W. Trucks, H. B. Schlegel, G. E. Scuseria, 
 M. A. Robb, J. R. Cheeseman, G. Scalmani, V. Barone, 
 G. A. Petersson, H. Nakatsuji, X. Li, M. Caricato, A. V. Marenich, 
 J. Bloino, B. G. Janesko, R. Gomperts, B. Mennucci, H. P. Hratchian, 
 J. V. Ortiz, A. F. Izmaylov, J. L. Sonnenberg, D. Williams-Young, 
 F. Ding, F. Lipparini, F. Egidi, J. Goings, B. Peng, A. Petrone, 
 T. Henderson, D. Ranasinghe, V. G. Zakrzewski, J. Gao, N. Rega, 
 G. Zheng, W. Liang, M. Hada, M. Ehara, K. Toyota, R. Fukuda, 
 J. Hasegawa, M. Ishida, T. Nakajima, Y. Honda, O. Kitao, H. Nakai, 
 T. Vreven, K. Throssell, J. A. Montgomery, Jr., J. E. Peralta, 
 F. Ogliaro, M. J. Bearpark, J. J. Heyd, E. N. Brothers, K. N. Kudin, 
 V. N. Staroverov, T. A. Keith, R. Kobayashi, J. Normand, 
 K. Raghavachari, A. P. Rendell, J. C. Burant, S. S. Iyengar, 
 J. Tomasi, M. Cossi, J. M. Millam, M. Klene, C. Adamo, R. Cammi, 
 J. W. Ochterski, R. L. Martin, K. Morokuma, O. Farkas, 
 J. B. Foresman, and D. J. Fox, Gaussian, Inc., Wallingford CT, 2016.
 
 ******************************************
 Gaussian 16:  ES64L-G16RevA.03 25-Dec-2016
                21-Dec-2018 
 ******************************************
 %chk=cyclohexyl-triBIP-E1PT.chk
 %mem=10GB
 %nprocshared=16
 Will use up to   16 processors via shared memory.
 ----------------------------------------------------------------
 #p freq(ReadFC,InternalModes) Geom(AllCheck) NoSymm scale=0.9631
 ----------------------------------------------------------------
 1/18=20,29=7,38=1,114=963100/1,3;
 2/9=110,12=2,15=1,40=1/2;
 7/8=21,25=11,30=1/16;
 99/5=2/99;
 Leave Link    1 at Fri Dec 21 18:13:16 2018, MaxMem=  1342177280 cpu:               9.3 elap:               0.6
 (Enter /gpfs/apps/hpc/Apps/Restricted/Gaussian/Rev_A.03/g16/l101.exe)
 Structure from the checkpoint file:  "cyclohexyl-triBIP-E1PT.chk"
 ----------------------------------------------------------------------
 cyclohexylimine triBIP oxidized, first proton transferred, optimizatio
 n
 ----------------------------------------------------------------------
 Charge =  1 Multiplicity = 2
 Redundant internal coordinates found in file.  (old form).
 C,0,1.6148236957,0.2826263009,1.1008746674
 C,0,0.5020400393,1.1040172528,0.8042486245
 C,0,0.671437149,2.4871860037,0.6665690037
 C,0,1.9554586631,3.0001585449,0.8318283033
 C,0,3.0532646197,2.1736134106,1.1282260123
 C,0,2.9128256512,0.7882861124,1.2718864125
 C,0,-0.2232597826,-0.930650263,0.9244760353
 H,0,-0.1706018954,3.1285854228,0.4362490798
 H,0,2.1198286033,4.0659943248,0.727692339
 H,0,4.0336670107,2.6220977246,1.2392007115
 C,0,-2.4798309221,-1.8675696033,0.6250473019
 C,0,-3.4125883083,-2.9178739329,0.594330564
 C,0,-3.0313680352,-4.2363843035,0.8464180876
 C,0,-1.6848478122,-4.4458619677,1.1301470835
 C,0,-0.7479942772,-3.3957683226,1.1592932571
 C,0,-1.1209696291,-2.0726248221,0.910249072
 C,0,-4.4695987173,-0.9993713513,0.1224087899
 H,0,-3.7464614735,-5.0478363718,0.8245511816
 H,0,-1.34059198,-5.451811248,1.3343293955
 H,0,0.2863885635,-3.6232962464,1.384750555
 N,0,-0.6326602392,0.3172160853,0.7015994959
 C,0,-6.872153998,-0.5798522299,-0.4655400534
 C,0,-5.5156445907,-0.0685428047,-0.2227630136
 C,0,-5.2368394785,1.2831513294,-0.3238625012
 C,0,-6.2360847807,2.2041740294,-0.6798006795
 C,0,-7.543715934,1.7167510194,-0.9393770005
 C,0,-7.902613952,0.3912814242,-0.8539281891
 H,0,-4.2346091798,1.6386480674,-0.1279910631
 H,0,-8.2956921652,2.4392707454,-1.2218490476
 C,0,-5.964079241,3.6977904814,-0.7967480274
 C,0,-9.3172637287,-0.0895400031,-1.1610102508
 O,0,-7.121438878,-1.8053997349,-0.3456416191
 N,0,-3.1669892146,-0.7100028349,0.3312726135
 N,0,-4.6245959378,-2.3294577898,0.280456704
 H,0,-2.6799236531,0.1866110112,0.2970348126
 N,0,1.1230978088,-0.9980708371,1.1692969001
 H,0,1.7159343326,-1.8008157328,1.3527005994
 C,0,4.0099303197,-0.1133752327,1.5785647743
 N,0,3.8921422711,-1.4390005686,1.6428551044
 N,0,5.2941757105,0.3031834382,1.8281578324
 C,0,7.4126244343,-0.9583585575,2.3714409141
 C,0,7.8614570392,-2.2721802988,2.5474740607
 C,0,6.9941208835,-3.3731058702,2.428972489
 C,0,5.6424504035,-3.2123820349,2.1278782989
 C,0,5.162494583,-1.9087551151,1.9441638341
 C,0,6.0510215716,-0.8158362915,2.064199697
 H,0,8.9075458272,-2.438242735,2.7812485367
 H,0,7.3907579858,-4.3707472138,2.576424869
 H,0,4.9795256363,-4.0649305095,2.0413346308
 H,0,5.6902052286,1.2357099886,1.8739587465
 C,0,8.2972508347,0.1984987666,2.5001686587
 H,0,9.3434948216,-0.0268704823,2.72324853
 N,0,7.8529968805,1.3915999728,2.3587740629
 C,0,8.7494574686,2.5405152609,2.477266782
 C,0,10.228508202,2.2563837208,2.7635964002
 C,0,8.5991568483,3.399013752,1.2101014534
 H,0,8.3532412933,3.1343741658,3.3135874792
 C,0,11.0211175578,3.5640988505,2.8836049676
 H,0,10.6435159556,1.651736689,1.9471318283
 H,0,10.3316164593,1.6695546622,3.6821921014
 C,0,9.3937508167,4.7034599605,1.321609385
 H,0,8.9615411512,2.8157260178,0.3546970124
 H,0,7.5374334843,3.6000106716,1.0368556081
 C,0,10.8701194678,4.4302798717,1.6285182915
 H,0,12.0767356061,3.3426808843,3.0687819166
 H,0,10.6585279598,4.1244110257,3.7543001644
 H,0,9.2955579504,5.2797921943,0.3963623089
 H,0,8.9658654516,5.3161583273,2.1250515321
 H,0,11.4145238391,5.3721513833,1.7496776276
 H,0,11.322371941,3.906950322,0.7767012834
 H,0,-5.5480675927,-2.7417821828,0.1519088062
 C,0,-9.2697117974,-1.0915942645,-2.3382148283
 H,0,-8.6944957795,-1.9778278879,-2.0741885332
 H,0,-10.2879393099,-1.3963806399,-2.5949230584
 H,0,-8.8193015855,-0.6270615751,-3.2193841982
 C,0,-10.2382146298,1.0730840256,-1.5595922202
 H,0,-11.2334221294,0.6761762453,-1.7692530763
 H,0,-10.333179385,1.810989708,-0.7580974365
 H,0,-9.8847512011,1.5853830946,-2.458161869
 C,0,-9.9222434327,-0.7706507067,0.0874546256
 H,0,-9.3381560862,-1.6392918973,0.386841626
 H,0,-9.9646171995,-0.0694443612,0.9249644051
 H,0,-10.9426793333,-1.0921266236,-0.1376403932
 C,0,-6.2684245239,4.1429054206,-2.2450322102
 H,0,-7.3027236051,3.9312654335,-2.5245766546
 H,0,-6.1073417374,5.2201234915,-2.3342525231
 H,0,-5.6092201391,3.6363557803,-2.9537940018
 C,0,-6.8962694015,4.4536217693,0.1768221542
 H,0,-6.7289263214,5.5288155482,0.0747728476
 H,0,-7.9494418841,4.2552407481,-0.0322036143
 H,0,-6.6905644305,4.168712772,1.2111869452
 C,0,-4.5102660628,4.0581382176,-0.4611380231
 H,0,-4.2526880511,3.7772825787,0.5633966958
 H,0,-3.805042373,3.5746016657,-1.1420430713
 H,0,-4.3786242248,5.1378797337,-0.5567097336
 Recover connectivity data from disk.
 ITRead=  0  0  0  0  0  0  0  0  0  0  0  0  0  0  0  0  0  0  0  0
 ITRead=  0  0  0  0  0  0  0  0  0  0  0  0  0  0  0  0  0  0  0  0
 ITRead=  0  0  0  0  0  0  0  0  0  0  0  0  0  0  0  0  0  0  0  0
 ITRead=  0  0  0  0  0  0  0  0  0  0  0  0  0  0  0  0  0  0  0  0
 ITRead=  0  0  0  0  0  0  0  0  0  0  0  0  0  0  0
 MicOpt= -1 -1 -1 -1 -1 -1 -1 -1 -1 -1 -1 -1 -1 -1 -1 -1 -1 -1 -1 -1
 MicOpt= -1 -1 -1 -1 -1 -1 -1 -1 -1 -1 -1 -1 -1 -1 -1 -1 -1 -1 -1 -1
 MicOpt= -1 -1 -1 -1 -1 -1 -1 -1 -1 -1 -1 -1 -1 -1 -1 -1 -1 -1 -1 -1
 MicOpt= -1 -1 -1 -1 -1 -1 -1 -1 -1 -1 -1 -1 -1 -1 -1 -1 -1 -1 -1 -1
 MicOpt= -1 -1 -1 -1 -1 -1 -1 -1 -1 -1 -1 -1 -1 -1 -1
 NAtoms=     95 NQM=       95 NQMF=       0 NMMI=      0 NMMIF=      0
                NMic=       0 NMicF=      0.
                    Isotopes and Nuclear Properties:
 (Nuclear quadrupole moments (NQMom) in fm**2, nuclear magnetic moments (NMagM)
  in nuclear magnetons)

  Atom         1           2           3           4           5           6           7           8           9          10
 IAtWgt=          12          12          12          12          12          12          12           1           1           1
 AtmWgt=  12.0000000  12.0000000  12.0000000  12.0000000  12.0000000  12.0000000  12.0000000   1.0078250   1.0078250   1.0078250
 NucSpn=           0           0           0           0           0           0           0           1           1           1
 AtZEff=   3.6000000   3.6000000   3.6000000   3.6000000   3.6000000   3.6000000   3.6000000   1.0000000   1.0000000   1.0000000
 NQMom=    0.0000000   0.0000000   0.0000000   0.0000000   0.0000000   0.0000000   0.0000000   0.0000000   0.0000000   0.0000000
 NMagM=    0.0000000   0.0000000   0.0000000   0.0000000   0.0000000   0.0000000   0.0000000   2.7928460   2.7928460   2.7928460
 AtZNuc=   6.0000000   6.0000000   6.0000000   6.0000000   6.0000000   6.0000000   6.0000000   1.0000000   1.0000000   1.0000000

  Atom        11          12          13          14          15          16          17          18          19          20
 IAtWgt=          12          12          12          12          12          12          12           1           1           1
 AtmWgt=  12.0000000  12.0000000  12.0000000  12.0000000  12.0000000  12.0000000  12.0000000   1.0078250   1.0078250   1.0078250
 NucSpn=           0           0           0           0           0           0           0           1           1           1
 AtZEff=   3.6000000   3.6000000   3.6000000   3.6000000   3.6000000   3.6000000   3.6000000   1.0000000   1.0000000   1.0000000
 NQMom=    0.0000000   0.0000000   0.0000000   0.0000000   0.0000000   0.0000000   0.0000000   0.0000000   0.0000000   0.0000000
 NMagM=    0.0000000   0.0000000   0.0000000   0.0000000   0.0000000   0.0000000   0.0000000   2.7928460   2.7928460   2.7928460
 AtZNuc=   6.0000000   6.0000000   6.0000000   6.0000000   6.0000000   6.0000000   6.0000000   1.0000000   1.0000000   1.0000000

  Atom        21          22          23          24          25          26          27          28          29          30
 IAtWgt=          14          12          12          12          12          12          12           1           1          12
 AtmWgt=  14.0030740  12.0000000  12.0000000  12.0000000  12.0000000  12.0000000  12.0000000   1.0078250   1.0078250  12.0000000
 NucSpn=           2           0           0           0           0           0           0           1           1           0
 AtZEff=   4.5500000   3.6000000   3.6000000   3.6000000   3.6000000   3.6000000   3.6000000   1.0000000   1.0000000   3.6000000
 NQMom=    2.0440000   0.0000000   0.0000000   0.0000000   0.0000000   0.0000000   0.0000000   0.0000000   0.0000000   0.0000000
 NMagM=    0.4037610   0.0000000   0.0000000   0.0000000   0.0000000   0.0000000   0.0000000   2.7928460   2.7928460   0.0000000
 AtZNuc=   7.0000000   6.0000000   6.0000000   6.0000000   6.0000000   6.0000000   6.0000000   1.0000000   1.0000000   6.0000000

  Atom        31          32          33          34          35          36          37          38          39          40
 IAtWgt=          12          16          14          14           1          14           1          12          14          14
 AtmWgt=  12.0000000  15.9949146  14.0030740  14.0030740   1.0078250  14.0030740   1.0078250  12.0000000  14.0030740  14.0030740
 NucSpn=           0           0           2           2           1           2           1           0           2           2
 AtZEff=   3.6000000   5.6000000   4.5500000   4.5500000   1.0000000   4.5500000   1.0000000   3.6000000   4.5500000   4.5500000
 NQMom=    0.0000000   0.0000000   2.0440000   2.0440000   0.0000000   2.0440000   0.0000000   0.0000000   2.0440000   2.0440000
 NMagM=    0.0000000   0.0000000   0.4037610   0.4037610   2.7928460   0.4037610   2.7928460   0.0000000   0.4037610   0.4037610
 AtZNuc=   6.0000000   8.0000000   7.0000000   7.0000000   1.0000000   7.0000000   1.0000000   6.0000000   7.0000000   7.0000000

  Atom        41          42          43          44          45          46          47          48          49          50
 IAtWgt=          12          12          12          12          12          12           1           1           1           1
 AtmWgt=  12.0000000  12.0000000  12.0000000  12.0000000  12.0000000  12.0000000   1.0078250   1.0078250   1.0078250   1.0078250
 NucSpn=           0           0           0           0           0           0           1           1           1           1
 AtZEff=   3.6000000   3.6000000   3.6000000   3.6000000   3.6000000   3.6000000   1.0000000   1.0000000   1.0000000   1.0000000
 NQMom=    0.0000000   0.0000000   0.0000000   0.0000000   0.0000000   0.0000000   0.0000000   0.0000000   0.0000000   0.0000000
 NMagM=    0.0000000   0.0000000   0.0000000   0.0000000   0.0000000   0.0000000   2.7928460   2.7928460   2.7928460   2.7928460
 AtZNuc=   6.0000000   6.0000000   6.0000000   6.0000000   6.0000000   6.0000000   1.0000000   1.0000000   1.0000000   1.0000000

  Atom        51          52          53          54          55          56          57          58          59          60
 IAtWgt=          12           1          14          12          12          12           1          12           1           1
 AtmWgt=  12.0000000   1.0078250  14.0030740  12.0000000  12.0000000  12.0000000   1.0078250  12.0000000   1.0078250   1.0078250
 NucSpn=           0           1           2           0           0           0           1           0           1           1
 AtZEff=   3.6000000   1.0000000   4.5500000   3.6000000   3.6000000   3.6000000   1.0000000   3.6000000   1.0000000   1.0000000
 NQMom=    0.0000000   0.0000000   2.0440000   0.0000000   0.0000000   0.0000000   0.0000000   0.0000000   0.0000000   0.0000000
 NMagM=    0.0000000   2.7928460   0.4037610   0.0000000   0.0000000   0.0000000   2.7928460   0.0000000   2.7928460   2.7928460
 AtZNuc=   6.0000000   1.0000000   7.0000000   6.0000000   6.0000000   6.0000000   1.0000000   6.0000000   1.0000000   1.0000000

  Atom        61          62          63          64          65          66          67          68          69          70
 IAtWgt=          12           1           1          12           1           1           1           1           1           1
 AtmWgt=  12.0000000   1.0078250   1.0078250  12.0000000   1.0078250   1.0078250   1.0078250   1.0078250   1.0078250   1.0078250
 NucSpn=           0           1           1           0           1           1           1           1           1           1
 AtZEff=   3.6000000   1.0000000   1.0000000   3.6000000   1.0000000   1.0000000   1.0000000   1.0000000   1.0000000   1.0000000
 NQMom=    0.0000000   0.0000000   0.0000000   0.0000000   0.0000000   0.0000000   0.0000000   0.0000000   0.0000000   0.0000000
 NMagM=    0.0000000   2.7928460   2.7928460   0.0000000   2.7928460   2.7928460   2.7928460   2.7928460   2.7928460   2.7928460
 AtZNuc=   6.0000000   1.0000000   1.0000000   6.0000000   1.0000000   1.0000000   1.0000000   1.0000000   1.0000000   1.0000000

  Atom        71          72          73          74          75          76          77          78          79          80
 IAtWgt=           1          12           1           1           1          12           1           1           1          12
 AtmWgt=   1.0078250  12.0000000   1.0078250   1.0078250   1.0078250  12.0000000   1.0078250   1.0078250   1.0078250  12.0000000
 NucSpn=           1           0           1           1           1           0           1           1           1           0
 AtZEff=   1.0000000   3.6000000   1.0000000   1.0000000   1.0000000   3.6000000   1.0000000   1.0000000   1.0000000   3.6000000
 NQMom=    0.0000000   0.0000000   0.0000000   0.0000000   0.0000000   0.0000000   0.0000000   0.0000000   0.0000000   0.0000000
 NMagM=    2.7928460   0.0000000   2.7928460   2.7928460   2.7928460   0.0000000   2.7928460   2.7928460   2.7928460   0.0000000
 AtZNuc=   1.0000000   6.0000000   1.0000000   1.0000000   1.0000000   6.0000000   1.0000000   1.0000000   1.0000000   6.0000000

  Atom        81          82          83          84          85          86          87          88          89          90
 IAtWgt=           1           1           1          12           1           1           1          12           1           1
 AtmWgt=   1.0078250   1.0078250   1.0078250  12.0000000   1.0078250   1.0078250   1.0078250  12.0000000   1.0078250   1.0078250
 NucSpn=           1           1           1           0           1           1           1           0           1           1
 AtZEff=   1.0000000   1.0000000   1.0000000   3.6000000   1.0000000   1.0000000   1.0000000   3.6000000   1.0000000   1.0000000
 NQMom=    0.0000000   0.0000000   0.0000000   0.0000000   0.0000000   0.0000000   0.0000000   0.0000000   0.0000000   0.0000000
 NMagM=    2.7928460   2.7928460   2.7928460   0.0000000   2.7928460   2.7928460   2.7928460   0.0000000   2.7928460   2.7928460
 AtZNuc=   1.0000000   1.0000000   1.0000000   6.0000000   1.0000000   1.0000000   1.0000000   6.0000000   1.0000000   1.0000000

  Atom        91          92          93          94          95
 IAtWgt=           1          12           1           1           1
 AtmWgt=   1.0078250  12.0000000   1.0078250   1.0078250   1.0078250
 NucSpn=           1           0           1           1           1
 AtZEff=   1.0000000   3.6000000   1.0000000   1.0000000   1.0000000
 NQMom=    0.0000000   0.0000000   0.0000000   0.0000000   0.0000000
 NMagM=    2.7928460   0.0000000   2.7928460   2.7928460   2.7928460
 AtZNuc=   1.0000000   6.0000000   1.0000000   1.0000000   1.0000000
 Leave Link  101 at Fri Dec 21 18:13:17 2018, MaxMem=  1342177280 cpu:               4.9 elap:               0.3
 (Enter /gpfs/apps/hpc/Apps/Restricted/Gaussian/Rev_A.03/g16/l103.exe)

 GradGradGradGradGradGradGradGradGradGradGradGradGradGradGradGradGradGrad
 Berny optimization.
 Initialization pass.
                           ----------------------------
                           !    Initial Parameters    !
                           ! (Angstroms and Degrees)  !
 --------------------------                            --------------------------
 ! Name  Definition              Value          Derivative Info.                !
 --------------------------------------------------------------------------------
 ! R1    R(1,2)                  1.4146         estimate D2E/DX2                !
 ! R2    R(1,6)                  1.4035         estimate D2E/DX2                !
 ! R3    R(1,36)                 1.3736         estimate D2E/DX2                !
 ! R4    R(2,3)                  1.4003         estimate D2E/DX2                !
 ! R5    R(2,21)                 1.3846         estimate D2E/DX2                !
 ! R6    R(3,4)                  1.3925         estimate D2E/DX2                !
 ! R7    R(3,8)                  1.0833         estimate D2E/DX2                !
 ! R8    R(4,5)                  1.4058         estimate D2E/DX2                !
 ! R9    R(4,9)                  1.0835         estimate D2E/DX2                !
 ! R10   R(5,6)                  1.3998         estimate D2E/DX2                !
 ! R11   R(5,10)                 1.0838         estimate D2E/DX2                !
 ! R12   R(6,38)                 1.4528         estimate D2E/DX2                !
 ! R13   R(7,16)                 1.4526         estimate D2E/DX2                !
 ! R14   R(7,21)                 1.3321         estimate D2E/DX2                !
 ! R15   R(7,36)                 1.3701         estimate D2E/DX2                !
 ! R16   R(11,12)                1.405          estimate D2E/DX2                !
 ! R17   R(11,16)                1.4035         estimate D2E/DX2                !
 ! R18   R(11,33)                1.3778         estimate D2E/DX2                !
 ! R19   R(12,13)                1.3955         estimate D2E/DX2                !
 ! R20   R(12,34)                1.3834         estimate D2E/DX2                !
 ! R21   R(13,14)                1.3919         estimate D2E/DX2                !
 ! R22   R(13,18)                1.0818         estimate D2E/DX2                !
 ! R23   R(14,15)                1.4076         estimate D2E/DX2                !
 ! R24   R(14,19)                1.0827         estimate D2E/DX2                !
 ! R25   R(15,16)                1.3971         estimate D2E/DX2                !
 ! R26   R(15,20)                1.0828         estimate D2E/DX2                !
 ! R27   R(17,23)                1.4422         estimate D2E/DX2                !
 ! R28   R(17,33)                1.3506         estimate D2E/DX2                !
 ! R29   R(17,34)                1.3484         estimate D2E/DX2                !
 ! R30   R(22,23)                1.4699         estimate D2E/DX2                !
 ! R31   R(22,27)                1.4683         estimate D2E/DX2                !
 ! R32   R(22,32)                1.2564         estimate D2E/DX2                !
 ! R33   R(23,24)                1.3838         estimate D2E/DX2                !
 ! R34   R(24,25)                1.4048         estimate D2E/DX2                !
 ! R35   R(24,28)                1.0813         estimate D2E/DX2                !
 ! R36   R(25,26)                1.4195         estimate D2E/DX2                !
 ! R37   R(25,30)                1.5227         estimate D2E/DX2                !
 ! R38   R(26,27)                1.3759         estimate D2E/DX2                !
 ! R39   R(26,29)                1.0804         estimate D2E/DX2                !
 ! R40   R(27,31)                1.5254         estimate D2E/DX2                !
 ! R41   R(30,84)                1.5454         estimate D2E/DX2                !
 ! R42   R(30,88)                1.5453         estimate D2E/DX2                !
 ! R43   R(30,92)                1.5349         estimate D2E/DX2                !
 ! R44   R(31,72)                1.5467         estimate D2E/DX2                !
 ! R45   R(31,76)                1.5358         estimate D2E/DX2                !
 ! R46   R(31,80)                1.5455         estimate D2E/DX2                !
 ! R47   R(33,35)                1.0209         estimate D2E/DX2                !
 ! R48   R(34,71)                1.0195         estimate D2E/DX2                !
 ! R49   R(36,37)                1.0146         estimate D2E/DX2                !
 ! R50   R(38,39)                1.3324         estimate D2E/DX2                !
 ! R51   R(38,40)                1.373          estimate D2E/DX2                !
 ! R52   R(39,45)                1.3875         estimate D2E/DX2                !
 ! R53   R(40,46)                1.3714         estimate D2E/DX2                !
 ! R54   R(40,50)                1.0142         estimate D2E/DX2                !
 ! R55   R(41,42)                1.3995         estimate D2E/DX2                !
 ! R56   R(41,46)                1.4031         estimate D2E/DX2                !
 ! R57   R(41,51)                1.462          estimate D2E/DX2                !
 ! R58   R(42,43)                1.4065         estimate D2E/DX2                !
 ! R59   R(42,47)                1.0847         estimate D2E/DX2                !
 ! R60   R(43,44)                1.3941         estimate D2E/DX2                !
 ! R61   R(43,48)                1.0837         estimate D2E/DX2                !
 ! R62   R(44,45)                1.4013         estimate D2E/DX2                !
 ! R63   R(44,49)                1.0834         estimate D2E/DX2                !
 ! R64   R(45,46)                1.4136         estimate D2E/DX2                !
 ! R65   R(51,52)                1.0932         estimate D2E/DX2                !
 ! R66   R(51,53)                1.281          estimate D2E/DX2                !
 ! R67   R(53,54)                1.4621         estimate D2E/DX2                !
 ! R68   R(54,55)                1.5331         estimate D2E/DX2                !
 ! R69   R(54,56)                1.538          estimate D2E/DX2                !
 ! R70   R(54,57)                1.0996         estimate D2E/DX2                !
 ! R71   R(55,58)                1.5339         estimate D2E/DX2                !
 ! R72   R(55,59)                1.0975         estimate D2E/DX2                !
 ! R73   R(55,60)                1.0949         estimate D2E/DX2                !
 ! R74   R(56,61)                1.5315         estimate D2E/DX2                !
 ! R75   R(56,62)                1.0969         estimate D2E/DX2                !
 ! R76   R(56,63)                1.0944         estimate D2E/DX2                !
 ! R77   R(58,64)                1.5324         estimate D2E/DX2                !
 ! R78   R(58,65)                1.0944         estimate D2E/DX2                !
 ! R79   R(58,66)                1.0971         estimate D2E/DX2                !
 ! R80   R(61,64)                1.5325         estimate D2E/DX2                !
 ! R81   R(61,67)                1.0945         estimate D2E/DX2                !
 ! R82   R(61,68)                1.0973         estimate D2E/DX2                !
 ! R83   R(64,69)                1.0946         estimate D2E/DX2                !
 ! R84   R(64,70)                1.0973         estimate D2E/DX2                !
 ! R85   R(72,73)                1.089          estimate D2E/DX2                !
 ! R86   R(72,74)                1.0934         estimate D2E/DX2                !
 ! R87   R(72,75)                1.0932         estimate D2E/DX2                !
 ! R88   R(76,77)                1.0918         estimate D2E/DX2                !
 ! R89   R(76,78)                1.0936         estimate D2E/DX2                !
 ! R90   R(76,79)                1.0931         estimate D2E/DX2                !
 ! R91   R(80,81)                1.0887         estimate D2E/DX2                !
 ! R92   R(80,82)                1.0931         estimate D2E/DX2                !
 ! R93   R(80,83)                1.0933         estimate D2E/DX2                !
 ! R94   R(84,85)                1.0921         estimate D2E/DX2                !
 ! R95   R(84,86)                1.0928         estimate D2E/DX2                !
 ! R96   R(84,87)                1.0925         estimate D2E/DX2                !
 ! R97   R(88,89)                1.0929         estimate D2E/DX2                !
 ! R98   R(88,90)                1.0919         estimate D2E/DX2                !
 ! R99   R(88,91)                1.0924         estimate D2E/DX2                !
 ! R100  R(92,93)                1.0931         estimate D2E/DX2                !
 ! R101  R(92,94)                1.0931         estimate D2E/DX2                !
 ! R102  R(92,95)                1.0919         estimate D2E/DX2                !
 ! A1    A(2,1,6)              122.9488         estimate D2E/DX2                !
 ! A2    A(2,1,36)             105.6784         estimate D2E/DX2                !
 ! A3    A(6,1,36)             131.3726         estimate D2E/DX2                !
 ! A4    A(1,2,3)              119.9355         estimate D2E/DX2                !
 ! A5    A(1,2,21)             109.2847         estimate D2E/DX2                !
 ! A6    A(3,2,21)             130.7796         estimate D2E/DX2                !
 ! A7    A(2,3,4)              117.6291         estimate D2E/DX2                !
 ! A8    A(2,3,8)              120.779          estimate D2E/DX2                !
 ! A9    A(4,3,8)              121.5915         estimate D2E/DX2                !
 ! A10   A(3,4,5)              121.9043         estimate D2E/DX2                !
 ! A11   A(3,4,9)              119.3974         estimate D2E/DX2                !
 ! A12   A(5,4,9)              118.6982         estimate D2E/DX2                !
 ! A13   A(4,5,6)              121.6795         estimate D2E/DX2                !
 ! A14   A(4,5,10)             118.9931         estimate D2E/DX2                !
 ! A15   A(6,5,10)             119.3252         estimate D2E/DX2                !
 ! A16   A(1,6,5)              115.9026         estimate D2E/DX2                !
 ! A17   A(1,6,38)             120.0343         estimate D2E/DX2                !
 ! A18   A(5,6,38)             124.0631         estimate D2E/DX2                !
 ! A19   A(16,7,21)            123.0152         estimate D2E/DX2                !
 ! A20   A(16,7,36)            124.7739         estimate D2E/DX2                !
 ! A21   A(21,7,36)            112.2103         estimate D2E/DX2                !
 ! A22   A(12,11,16)           122.5455         estimate D2E/DX2                !
 ! A23   A(12,11,33)           106.9943         estimate D2E/DX2                !
 ! A24   A(16,11,33)           130.46           estimate D2E/DX2                !
 ! A25   A(11,12,13)           121.399          estimate D2E/DX2                !
 ! A26   A(11,12,34)           105.5829         estimate D2E/DX2                !
 ! A27   A(13,12,34)           133.0175         estimate D2E/DX2                !
 ! A28   A(12,13,14)           116.3137         estimate D2E/DX2                !
 ! A29   A(12,13,18)           121.6341         estimate D2E/DX2                !
 ! A30   A(14,13,18)           122.052          estimate D2E/DX2                !
 ! A31   A(13,14,15)           122.3991         estimate D2E/DX2                !
 ! A32   A(13,14,19)           119.0696         estimate D2E/DX2                !
 ! A33   A(15,14,19)           118.5312         estimate D2E/DX2                !
 ! A34   A(14,15,16)           121.6798         estimate D2E/DX2                !
 ! A35   A(14,15,20)           118.9045         estimate D2E/DX2                !
 ! A36   A(16,15,20)           119.4152         estimate D2E/DX2                !
 ! A37   A(7,16,11)            119.042          estimate D2E/DX2                !
 ! A38   A(7,16,15)            125.296          estimate D2E/DX2                !
 ! A39   A(11,16,15)           115.662          estimate D2E/DX2                !
 ! A40   A(23,17,33)           126.7472         estimate D2E/DX2                !
 ! A41   A(23,17,34)           125.5465         estimate D2E/DX2                !
 ! A42   A(33,17,34)           107.7029         estimate D2E/DX2                !
 ! A43   A(2,21,7)             105.5483         estimate D2E/DX2                !
 ! A44   A(23,22,27)           117.4716         estimate D2E/DX2                !
 ! A45   A(23,22,32)           120.4428         estimate D2E/DX2                !
 ! A46   A(27,22,32)           122.0851         estimate D2E/DX2                !
 ! A47   A(17,23,22)           118.9737         estimate D2E/DX2                !
 ! A48   A(17,23,24)           120.1192         estimate D2E/DX2                !
 ! A49   A(22,23,24)           120.9071         estimate D2E/DX2                !
 ! A50   A(23,24,25)           121.0372         estimate D2E/DX2                !
 ! A51   A(23,24,28)           119.6456         estimate D2E/DX2                !
 ! A52   A(25,24,28)           119.317          estimate D2E/DX2                !
 ! A53   A(24,25,26)           118.4552         estimate D2E/DX2                !
 ! A54   A(24,25,30)           122.3782         estimate D2E/DX2                !
 ! A55   A(26,25,30)           119.1666         estimate D2E/DX2                !
 ! A56   A(25,26,27)           124.0391         estimate D2E/DX2                !
 ! A57   A(25,26,29)           117.3451         estimate D2E/DX2                !
 ! A58   A(27,26,29)           118.6158         estimate D2E/DX2                !
 ! A59   A(22,27,26)           118.07           estimate D2E/DX2                !
 ! A60   A(22,27,31)           119.7124         estimate D2E/DX2                !
 ! A61   A(26,27,31)           122.2147         estimate D2E/DX2                !
 ! A62   A(25,30,84)           108.6221         estimate D2E/DX2                !
 ! A63   A(25,30,88)           108.8821         estimate D2E/DX2                !
 ! A64   A(25,30,92)           112.5            estimate D2E/DX2                !
 ! A65   A(84,30,88)           109.3136         estimate D2E/DX2                !
 ! A66   A(84,30,92)           108.8937         estimate D2E/DX2                !
 ! A67   A(88,30,92)           108.5885         estimate D2E/DX2                !
 ! A68   A(27,31,72)           109.2043         estimate D2E/DX2                !
 ! A69   A(27,31,76)           111.7004         estimate D2E/DX2                !
 ! A70   A(27,31,80)           109.8359         estimate D2E/DX2                !
 ! A71   A(72,31,76)           108.141          estimate D2E/DX2                !
 ! A72   A(72,31,80)           109.9592         estimate D2E/DX2                !
 ! A73   A(76,31,80)           107.9709         estimate D2E/DX2                !
 ! A74   A(11,33,17)           109.5099         estimate D2E/DX2                !
 ! A75   A(11,33,35)           120.4671         estimate D2E/DX2                !
 ! A76   A(17,33,35)           130.0228         estimate D2E/DX2                !
 ! A77   A(12,34,17)           110.21           estimate D2E/DX2                !
 ! A78   A(12,34,71)           130.5565         estimate D2E/DX2                !
 ! A79   A(17,34,71)           119.2292         estimate D2E/DX2                !
 ! A80   A(1,36,7)             107.278          estimate D2E/DX2                !
 ! A81   A(1,36,37)            122.5143         estimate D2E/DX2                !
 ! A82   A(7,36,37)            130.1951         estimate D2E/DX2                !
 ! A83   A(6,38,39)            124.1181         estimate D2E/DX2                !
 ! A84   A(6,38,40)            123.8088         estimate D2E/DX2                !
 ! A85   A(39,38,40)           112.0719         estimate D2E/DX2                !
 ! A86   A(38,39,45)           105.4486         estimate D2E/DX2                !
 ! A87   A(38,40,46)           107.4537         estimate D2E/DX2                !
 ! A88   A(38,40,50)           130.7255         estimate D2E/DX2                !
 ! A89   A(46,40,50)           121.8031         estimate D2E/DX2                !
 ! A90   A(42,41,46)           115.73           estimate D2E/DX2                !
 ! A91   A(42,41,51)           122.5282         estimate D2E/DX2                !
 ! A92   A(46,41,51)           121.7416         estimate D2E/DX2                !
 ! A93   A(41,42,43)           121.7655         estimate D2E/DX2                !
 ! A94   A(41,42,47)           118.6944         estimate D2E/DX2                !
 ! A95   A(43,42,47)           119.5401         estimate D2E/DX2                !
 ! A96   A(42,43,44)           121.7246         estimate D2E/DX2                !
 ! A97   A(42,43,48)           118.9088         estimate D2E/DX2                !
 ! A98   A(44,43,48)           119.3666         estimate D2E/DX2                !
 ! A99   A(43,44,45)           117.8827         estimate D2E/DX2                !
 ! A100  A(43,44,49)           121.3183         estimate D2E/DX2                !
 ! A101  A(45,44,49)           120.7986         estimate D2E/DX2                !
 ! A102  A(39,45,44)           131.0731         estimate D2E/DX2                !
 ! A103  A(39,45,46)           109.3995         estimate D2E/DX2                !
 ! A104  A(44,45,46)           119.5273         estimate D2E/DX2                !
 ! A105  A(40,46,41)           131.0055         estimate D2E/DX2                !
 ! A106  A(40,46,45)           105.6259         estimate D2E/DX2                !
 ! A107  A(41,46,45)           123.3681         estimate D2E/DX2                !
 ! A108  A(41,51,52)           115.716          estimate D2E/DX2                !
 ! A109  A(41,51,53)           121.1609         estimate D2E/DX2                !
 ! A110  A(52,51,53)           123.1229         estimate D2E/DX2                !
 ! A111  A(51,53,54)           120.6852         estimate D2E/DX2                !
 ! A112  A(53,54,55)           117.4538         estimate D2E/DX2                !
 ! A113  A(53,54,56)           108.1767         estimate D2E/DX2                !
 ! A114  A(53,54,57)           105.373          estimate D2E/DX2                !
 ! A115  A(55,54,56)           110.5866         estimate D2E/DX2                !
 ! A116  A(55,54,57)           107.799          estimate D2E/DX2                !
 ! A117  A(56,54,57)           106.8563         estimate D2E/DX2                !
 ! A118  A(54,55,58)           110.8017         estimate D2E/DX2                !
 ! A119  A(54,55,59)           109.1466         estimate D2E/DX2                !
 ! A120  A(54,55,60)           110.2966         estimate D2E/DX2                !
 ! A121  A(58,55,59)           109.4216         estimate D2E/DX2                !
 ! A122  A(58,55,60)           110.0377         estimate D2E/DX2                !
 ! A123  A(59,55,60)           107.053          estimate D2E/DX2                !
 ! A124  A(54,56,61)           111.393          estimate D2E/DX2                !
 ! A125  A(54,56,62)           108.2643         estimate D2E/DX2                !
 ! A126  A(54,56,63)           109.1331         estimate D2E/DX2                !
 ! A127  A(61,56,62)           109.7729         estimate D2E/DX2                !
 ! A128  A(61,56,63)           111.0051         estimate D2E/DX2                !
 ! A129  A(62,56,63)           107.1405         estimate D2E/DX2                !
 ! A130  A(55,58,64)           111.5247         estimate D2E/DX2                !
 ! A131  A(55,58,65)           109.8273         estimate D2E/DX2                !
 ! A132  A(55,58,66)           109.0714         estimate D2E/DX2                !
 ! A133  A(64,58,65)           110.3646         estimate D2E/DX2                !
 ! A134  A(64,58,66)           109.1943         estimate D2E/DX2                !
 ! A135  A(65,58,66)           106.7292         estimate D2E/DX2                !
 ! A136  A(56,61,64)           111.2596         estimate D2E/DX2                !
 ! A137  A(56,61,67)           109.9025         estimate D2E/DX2                !
 ! A138  A(56,61,68)           109.0624         estimate D2E/DX2                !
 ! A139  A(64,61,67)           110.4631         estimate D2E/DX2                !
 ! A140  A(64,61,68)           109.1822         estimate D2E/DX2                !
 ! A141  A(67,61,68)           106.8568         estimate D2E/DX2                !
 ! A142  A(58,64,61)           111.0826         estimate D2E/DX2                !
 ! A143  A(58,64,69)           110.2858         estimate D2E/DX2                !
 ! A144  A(58,64,70)           109.0029         estimate D2E/DX2                !
 ! A145  A(61,64,69)           110.3602         estimate D2E/DX2                !
 ! A146  A(61,64,70)           109.0638         estimate D2E/DX2                !
 ! A147  A(69,64,70)           106.9373         estimate D2E/DX2                !
 ! A148  A(31,72,73)           111.0353         estimate D2E/DX2                !
 ! A149  A(31,72,74)           109.3085         estimate D2E/DX2                !
 ! A150  A(31,72,75)           110.5399         estimate D2E/DX2                !
 ! A151  A(73,72,74)           108.7807         estimate D2E/DX2                !
 ! A152  A(73,72,75)           108.8804         estimate D2E/DX2                !
 ! A153  A(74,72,75)           108.2328         estimate D2E/DX2                !
 ! A154  A(31,76,77)           108.7385         estimate D2E/DX2                !
 ! A155  A(31,76,78)           111.8801         estimate D2E/DX2                !
 ! A156  A(31,76,79)           111.9768         estimate D2E/DX2                !
 ! A157  A(77,76,78)           107.8724         estimate D2E/DX2                !
 ! A158  A(77,76,79)           107.8959         estimate D2E/DX2                !
 ! A159  A(78,76,79)           108.3203         estimate D2E/DX2                !
 ! A160  A(31,80,81)           111.3306         estimate D2E/DX2                !
 ! A161  A(31,80,82)           110.5721         estimate D2E/DX2                !
 ! A162  A(31,80,83)           109.1855         estimate D2E/DX2                !
 ! A163  A(81,80,82)           108.7784         estimate D2E/DX2                !
 ! A164  A(81,80,83)           108.8291         estimate D2E/DX2                !
 ! A165  A(82,80,83)           108.0702         estimate D2E/DX2                !
 ! A166  A(30,84,85)           111.751          estimate D2E/DX2                !
 ! A167  A(30,84,86)           109.3531         estimate D2E/DX2                !
 ! A168  A(30,84,87)           110.8312         estimate D2E/DX2                !
 ! A169  A(85,84,86)           108.0421         estimate D2E/DX2                !
 ! A170  A(85,84,87)           108.3938         estimate D2E/DX2                !
 ! A171  A(86,84,87)           108.3691         estimate D2E/DX2                !
 ! A172  A(30,88,89)           109.2677         estimate D2E/DX2                !
 ! A173  A(30,88,90)           111.8617         estimate D2E/DX2                !
 ! A174  A(30,88,91)           110.8161         estimate D2E/DX2                !
 ! A175  A(89,88,90)           107.972          estimate D2E/DX2                !
 ! A176  A(89,88,91)           108.4305         estimate D2E/DX2                !
 ! A177  A(90,88,91)           108.391          estimate D2E/DX2                !
 ! A178  A(30,92,93)           111.5796         estimate D2E/DX2                !
 ! A179  A(30,92,94)           111.7789         estimate D2E/DX2                !
 ! A180  A(30,92,95)           109.0984         estimate D2E/DX2                !
 ! A181  A(93,92,94)           108.552          estimate D2E/DX2                !
 ! A182  A(93,92,95)           107.9201         estimate D2E/DX2                !
 ! A183  A(94,92,95)           107.7658         estimate D2E/DX2                !
 ! D1    D(6,1,2,3)              0.117          estimate D2E/DX2                !
 ! D2    D(6,1,2,21)          -179.7585         estimate D2E/DX2                !
 ! D3    D(36,1,2,3)           179.9897         estimate D2E/DX2                !
 ! D4    D(36,1,2,21)            0.1141         estimate D2E/DX2                !
 ! D5    D(2,1,6,5)             -0.1377         estimate D2E/DX2                !
 ! D6    D(2,1,6,38)           179.8551         estimate D2E/DX2                !
 ! D7    D(36,1,6,5)          -179.9743         estimate D2E/DX2                !
 ! D8    D(36,1,6,38)            0.0185         estimate D2E/DX2                !
 ! D9    D(2,1,36,7)            -0.0697         estimate D2E/DX2                !
 ! D10   D(2,1,36,37)          178.7596         estimate D2E/DX2                !
 ! D11   D(6,1,36,7)           179.7879         estimate D2E/DX2                !
 ! D12   D(6,1,36,37)           -1.3828         estimate D2E/DX2                !
 ! D13   D(1,2,3,4)             -0.0032         estimate D2E/DX2                !
 ! D14   D(1,2,3,8)            179.7919         estimate D2E/DX2                !
 ! D15   D(21,2,3,4)           179.8417         estimate D2E/DX2                !
 ! D16   D(21,2,3,8)            -0.3632         estimate D2E/DX2                !
 ! D17   D(1,2,21,7)            -0.1128         estimate D2E/DX2                !
 ! D18   D(3,2,21,7)          -179.9704         estimate D2E/DX2                !
 ! D19   D(2,3,4,5)             -0.0812         estimate D2E/DX2                !
 ! D20   D(2,3,4,9)            179.7604         estimate D2E/DX2                !
 ! D21   D(8,3,4,5)           -179.8745         estimate D2E/DX2                !
 ! D22   D(8,3,4,9)             -0.0329         estimate D2E/DX2                !
 ! D23   D(3,4,5,6)              0.0577         estimate D2E/DX2                !
 ! D24   D(3,4,5,10)           179.513          estimate D2E/DX2                !
 ! D25   D(9,4,5,6)           -179.7849         estimate D2E/DX2                !
 ! D26   D(9,4,5,10)            -0.3297         estimate D2E/DX2                !
 ! D27   D(4,5,6,1)              0.051          estimate D2E/DX2                !
 ! D28   D(4,5,6,38)          -179.9414         estimate D2E/DX2                !
 ! D29   D(10,5,6,1)          -179.4025         estimate D2E/DX2                !
 ! D30   D(10,5,6,38)            0.605          estimate D2E/DX2                !
 ! D31   D(1,6,38,39)            3.8766         estimate D2E/DX2                !
 ! D32   D(1,6,38,40)         -176.5534         estimate D2E/DX2                !
 ! D33   D(5,6,38,39)         -176.1312         estimate D2E/DX2                !
 ! D34   D(5,6,38,40)            3.4388         estimate D2E/DX2                !
 ! D35   D(21,7,16,11)           1.2379         estimate D2E/DX2                !
 ! D36   D(21,7,16,15)        -178.859          estimate D2E/DX2                !
 ! D37   D(36,7,16,11)        -179.0457         estimate D2E/DX2                !
 ! D38   D(36,7,16,15)           0.8573         estimate D2E/DX2                !
 ! D39   D(16,7,21,2)          179.8181         estimate D2E/DX2                !
 ! D40   D(36,7,21,2)            0.0698         estimate D2E/DX2                !
 ! D41   D(16,7,36,1)         -179.7422         estimate D2E/DX2                !
 ! D42   D(16,7,36,37)           1.5503         estimate D2E/DX2                !
 ! D43   D(21,7,36,1)            0.0009         estimate D2E/DX2                !
 ! D44   D(21,7,36,37)        -178.7067         estimate D2E/DX2                !
 ! D45   D(16,11,12,13)         -0.1249         estimate D2E/DX2                !
 ! D46   D(16,11,12,34)       -179.8619         estimate D2E/DX2                !
 ! D47   D(33,11,12,13)        179.7265         estimate D2E/DX2                !
 ! D48   D(33,11,12,34)         -0.0105         estimate D2E/DX2                !
 ! D49   D(12,11,16,7)        -179.8754         estimate D2E/DX2                !
 ! D50   D(12,11,16,15)          0.2124         estimate D2E/DX2                !
 ! D51   D(33,11,16,7)           0.3114         estimate D2E/DX2                !
 ! D52   D(33,11,16,15)       -179.6009         estimate D2E/DX2                !
 ! D53   D(12,11,33,17)         -0.0293         estimate D2E/DX2                !
 ! D54   D(12,11,33,35)       -179.9115         estimate D2E/DX2                !
 ! D55   D(16,11,33,17)        179.8061         estimate D2E/DX2                !
 ! D56   D(16,11,33,35)         -0.0761         estimate D2E/DX2                !
 ! D57   D(11,12,13,14)          0.1288         estimate D2E/DX2                !
 ! D58   D(11,12,13,18)        179.9499         estimate D2E/DX2                !
 ! D59   D(34,12,13,14)        179.7823         estimate D2E/DX2                !
 ! D60   D(34,12,13,18)         -0.3966         estimate D2E/DX2                !
 ! D61   D(11,12,34,17)          0.047          estimate D2E/DX2                !
 ! D62   D(11,12,34,71)        179.2718         estimate D2E/DX2                !
 ! D63   D(13,12,34,17)       -179.6459         estimate D2E/DX2                !
 ! D64   D(13,12,34,71)         -0.4212         estimate D2E/DX2                !
 ! D65   D(12,13,14,15)         -0.2415         estimate D2E/DX2                !
 ! D66   D(12,13,14,19)        179.8978         estimate D2E/DX2                !
 ! D67   D(18,13,14,15)        179.9382         estimate D2E/DX2                !
 ! D68   D(18,13,14,19)          0.0775         estimate D2E/DX2                !
 ! D69   D(13,14,15,16)          0.3544         estimate D2E/DX2                !
 ! D70   D(13,14,15,20)       -179.8898         estimate D2E/DX2                !
 ! D71   D(19,14,15,16)       -179.7842         estimate D2E/DX2                !
 ! D72   D(19,14,15,20)         -0.0284         estimate D2E/DX2                !
 ! D73   D(14,15,16,7)         179.7734         estimate D2E/DX2                !
 ! D74   D(14,15,16,11)         -0.3207         estimate D2E/DX2                !
 ! D75   D(20,15,16,7)           0.0188         estimate D2E/DX2                !
 ! D76   D(20,15,16,11)        179.9248         estimate D2E/DX2                !
 ! D77   D(33,17,23,22)        177.5205         estimate D2E/DX2                !
 ! D78   D(33,17,23,24)         -2.3682         estimate D2E/DX2                !
 ! D79   D(34,17,23,22)         -1.7316         estimate D2E/DX2                !
 ! D80   D(34,17,23,24)        178.3797         estimate D2E/DX2                !
 ! D81   D(23,17,33,11)       -179.3028         estimate D2E/DX2                !
 ! D82   D(23,17,33,35)          0.5647         estimate D2E/DX2                !
 ! D83   D(34,17,33,11)          0.0585         estimate D2E/DX2                !
 ! D84   D(34,17,33,35)        179.9259         estimate D2E/DX2                !
 ! D85   D(23,17,34,12)        179.3051         estimate D2E/DX2                !
 ! D86   D(23,17,34,71)         -0.02           estimate D2E/DX2                !
 ! D87   D(33,17,34,12)         -0.0658         estimate D2E/DX2                !
 ! D88   D(33,17,34,71)       -179.3909         estimate D2E/DX2                !
 ! D89   D(27,22,23,17)       -178.2134         estimate D2E/DX2                !
 ! D90   D(27,22,23,24)          1.6745         estimate D2E/DX2                !
 ! D91   D(32,22,23,17)          1.5191         estimate D2E/DX2                !
 ! D92   D(32,22,23,24)       -178.5931         estimate D2E/DX2                !
 ! D93   D(23,22,27,26)         -1.3127         estimate D2E/DX2                !
 ! D94   D(23,22,27,31)        178.082          estimate D2E/DX2                !
 ! D95   D(32,22,27,26)        178.9596         estimate D2E/DX2                !
 ! D96   D(32,22,27,31)         -1.6458         estimate D2E/DX2                !
 ! D97   D(17,23,24,25)        178.9679         estimate D2E/DX2                !
 ! D98   D(17,23,24,28)         -0.9288         estimate D2E/DX2                !
 ! D99   D(22,23,24,25)         -0.9187         estimate D2E/DX2                !
 ! D100  D(22,23,24,28)        179.1846         estimate D2E/DX2                !
 ! D101  D(23,24,25,26)         -0.2068         estimate D2E/DX2                !
 ! D102  D(23,24,25,30)        179.8506         estimate D2E/DX2                !
 ! D103  D(28,24,25,26)        179.6902         estimate D2E/DX2                !
 ! D104  D(28,24,25,30)         -0.2524         estimate D2E/DX2                !
 ! D105  D(24,25,26,27)          0.5584         estimate D2E/DX2                !
 ! D106  D(24,25,26,29)       -179.3647         estimate D2E/DX2                !
 ! D107  D(30,25,26,27)       -179.4972         estimate D2E/DX2                !
 ! D108  D(30,25,26,29)          0.5798         estimate D2E/DX2                !
 ! D109  D(24,25,30,84)        119.6047         estimate D2E/DX2                !
 ! D110  D(24,25,30,88)       -121.441          estimate D2E/DX2                !
 ! D111  D(24,25,30,92)         -1.0213         estimate D2E/DX2                !
 ! D112  D(26,25,30,84)        -60.3375         estimate D2E/DX2                !
 ! D113  D(26,25,30,88)         58.6169         estimate D2E/DX2                !
 ! D114  D(26,25,30,92)        179.0365         estimate D2E/DX2                !
 ! D115  D(25,26,27,22)          0.2399         estimate D2E/DX2                !
 ! D116  D(25,26,27,31)       -179.1386         estimate D2E/DX2                !
 ! D117  D(29,26,27,22)       -179.8379         estimate D2E/DX2                !
 ! D118  D(29,26,27,31)          0.7835         estimate D2E/DX2                !
 ! D119  D(22,27,31,72)        -59.8626         estimate D2E/DX2                !
 ! D120  D(22,27,31,76)       -179.4314         estimate D2E/DX2                !
 ! D121  D(22,27,31,80)         60.7955         estimate D2E/DX2                !
 ! D122  D(26,27,31,72)        119.5061         estimate D2E/DX2                !
 ! D123  D(26,27,31,76)         -0.0627         estimate D2E/DX2                !
 ! D124  D(26,27,31,80)       -119.8358         estimate D2E/DX2                !
 ! D125  D(25,30,84,85)         58.6485         estimate D2E/DX2                !
 ! D126  D(25,30,84,86)        178.2236         estimate D2E/DX2                !
 ! D127  D(25,30,84,87)        -62.3692         estimate D2E/DX2                !
 ! D128  D(88,30,84,85)        -60.0343         estimate D2E/DX2                !
 ! D129  D(88,30,84,86)         59.5408         estimate D2E/DX2                !
 ! D130  D(88,30,84,87)        178.948          estimate D2E/DX2                !
 ! D131  D(92,30,84,85)       -178.5214         estimate D2E/DX2                !
 ! D132  D(92,30,84,86)        -58.9463         estimate D2E/DX2                !
 ! D133  D(92,30,84,87)         60.4609         estimate D2E/DX2                !
 ! D134  D(25,30,88,89)       -178.1926         estimate D2E/DX2                !
 ! D135  D(25,30,88,90)        -58.6914         estimate D2E/DX2                !
 ! D136  D(25,30,88,91)         62.388          estimate D2E/DX2                !
 ! D137  D(84,30,88,89)        -59.6717         estimate D2E/DX2                !
 ! D138  D(84,30,88,90)         59.8294         estimate D2E/DX2                !
 ! D139  D(84,30,88,91)       -179.0912         estimate D2E/DX2                !
 ! D140  D(92,30,88,89)         59.0055         estimate D2E/DX2                !
 ! D141  D(92,30,88,90)        178.5067         estimate D2E/DX2                !
 ! D142  D(92,30,88,91)        -60.414          estimate D2E/DX2                !
 ! D143  D(25,30,92,93)        -60.5295         estimate D2E/DX2                !
 ! D144  D(25,30,92,94)         61.238          estimate D2E/DX2                !
 ! D145  D(25,30,92,95)       -179.6799         estimate D2E/DX2                !
 ! D146  D(84,30,92,93)        179.0008         estimate D2E/DX2                !
 ! D147  D(84,30,92,94)        -59.2317         estimate D2E/DX2                !
 ! D148  D(84,30,92,95)         59.8504         estimate D2E/DX2                !
 ! D149  D(88,30,92,93)         60.0592         estimate D2E/DX2                !
 ! D150  D(88,30,92,94)       -178.1734         estimate D2E/DX2                !
 ! D151  D(88,30,92,95)        -59.0913         estimate D2E/DX2                !
 ! D152  D(27,31,72,73)         62.9959         estimate D2E/DX2                !
 ! D153  D(27,31,72,74)       -176.9889         estimate D2E/DX2                !
 ! D154  D(27,31,72,75)        -57.9564         estimate D2E/DX2                !
 ! D155  D(76,31,72,73)       -175.2587         estimate D2E/DX2                !
 ! D156  D(76,31,72,74)        -55.2435         estimate D2E/DX2                !
 ! D157  D(76,31,72,75)         63.789          estimate D2E/DX2                !
 ! D158  D(80,31,72,73)        -57.5868         estimate D2E/DX2                !
 ! D159  D(80,31,72,74)         62.4284         estimate D2E/DX2                !
 ! D160  D(80,31,72,75)       -178.5391         estimate D2E/DX2                !
 ! D161  D(27,31,76,77)        179.919          estimate D2E/DX2                !
 ! D162  D(27,31,76,78)        -61.038          estimate D2E/DX2                !
 ! D163  D(27,31,76,79)         60.7876         estimate D2E/DX2                !
 ! D164  D(72,31,76,77)         59.7248         estimate D2E/DX2                !
 ! D165  D(72,31,76,78)        178.7678         estimate D2E/DX2                !
 ! D166  D(72,31,76,79)        -59.4066         estimate D2E/DX2                !
 ! D167  D(80,31,76,77)        -59.2158         estimate D2E/DX2                !
 ! D168  D(80,31,76,78)         59.8273         estimate D2E/DX2                !
 ! D169  D(80,31,76,79)       -178.3471         estimate D2E/DX2                !
 ! D170  D(27,31,80,81)        -60.9973         estimate D2E/DX2                !
 ! D171  D(27,31,80,82)         60.0458         estimate D2E/DX2                !
 ! D172  D(27,31,80,83)        178.8218         estimate D2E/DX2                !
 ! D173  D(72,31,80,81)         59.2037         estimate D2E/DX2                !
 ! D174  D(72,31,80,82)       -179.7532         estimate D2E/DX2                !
 ! D175  D(72,31,80,83)        -60.9772         estimate D2E/DX2                !
 ! D176  D(76,31,80,81)        176.981          estimate D2E/DX2                !
 ! D177  D(76,31,80,82)        -61.9759         estimate D2E/DX2                !
 ! D178  D(76,31,80,83)         56.8001         estimate D2E/DX2                !
 ! D179  D(6,38,39,45)         179.3931         estimate D2E/DX2                !
 ! D180  D(40,38,39,45)         -0.2214         estimate D2E/DX2                !
 ! D181  D(6,38,40,46)        -179.4683         estimate D2E/DX2                !
 ! D182  D(6,38,40,50)           2.0771         estimate D2E/DX2                !
 ! D183  D(39,38,40,46)          0.1475         estimate D2E/DX2                !
 ! D184  D(39,38,40,50)       -178.307          estimate D2E/DX2                !
 ! D185  D(38,39,45,44)       -179.6834         estimate D2E/DX2                !
 ! D186  D(38,39,45,46)          0.2114         estimate D2E/DX2                !
 ! D187  D(38,40,46,41)       -179.7607         estimate D2E/DX2                !
 ! D188  D(38,40,46,45)         -0.0079         estimate D2E/DX2                !
 ! D189  D(50,40,46,41)         -1.1388         estimate D2E/DX2                !
 ! D190  D(50,40,46,45)        178.614          estimate D2E/DX2                !
 ! D191  D(46,41,42,43)         -0.3218         estimate D2E/DX2                !
 ! D192  D(46,41,42,47)        179.6706         estimate D2E/DX2                !
 ! D193  D(51,41,42,43)        179.5493         estimate D2E/DX2                !
 ! D194  D(51,41,42,47)         -0.4583         estimate D2E/DX2                !
 ! D195  D(42,41,46,40)       -179.7892         estimate D2E/DX2                !
 ! D196  D(42,41,46,45)          0.4958         estimate D2E/DX2                !
 ! D197  D(51,41,46,40)          0.3386         estimate D2E/DX2                !
 ! D198  D(51,41,46,45)       -179.3764         estimate D2E/DX2                !
 ! D199  D(42,41,51,52)          1.2471         estimate D2E/DX2                !
 ! D200  D(42,41,51,53)       -178.6451         estimate D2E/DX2                !
 ! D201  D(46,41,51,52)       -178.8895         estimate D2E/DX2                !
 ! D202  D(46,41,51,53)          1.2184         estimate D2E/DX2                !
 ! D203  D(41,42,43,44)          0.101          estimate D2E/DX2                !
 ! D204  D(41,42,43,48)       -179.8914         estimate D2E/DX2                !
 ! D205  D(47,42,43,44)       -179.8913         estimate D2E/DX2                !
 ! D206  D(47,42,43,48)          0.1162         estimate D2E/DX2                !
 ! D207  D(42,43,44,45)         -0.0244         estimate D2E/DX2                !
 ! D208  D(42,43,44,49)       -179.7981         estimate D2E/DX2                !
 ! D209  D(48,43,44,45)        179.9681         estimate D2E/DX2                !
 ! D210  D(48,43,44,49)          0.1943         estimate D2E/DX2                !
 ! D211  D(43,44,45,39)       -179.9302         estimate D2E/DX2                !
 ! D212  D(43,44,45,46)          0.1839         estimate D2E/DX2                !
 ! D213  D(49,44,45,39)         -0.1552         estimate D2E/DX2                !
 ! D214  D(49,44,45,46)        179.9589         estimate D2E/DX2                !
 ! D215  D(39,45,46,40)         -0.1262         estimate D2E/DX2                !
 ! D216  D(39,45,46,41)        179.6505         estimate D2E/DX2                !
 ! D217  D(44,45,46,40)        179.7827         estimate D2E/DX2                !
 ! D218  D(44,45,46,41)         -0.4407         estimate D2E/DX2                !
 ! D219  D(41,51,53,54)       -179.4212         estimate D2E/DX2                !
 ! D220  D(52,51,53,54)          0.6949         estimate D2E/DX2                !
 ! D221  D(51,53,54,55)          0.4716         estimate D2E/DX2                !
 ! D222  D(51,53,54,56)        126.4614         estimate D2E/DX2                !
 ! D223  D(51,53,54,57)       -119.5347         estimate D2E/DX2                !
 ! D224  D(53,54,55,58)       -178.9241         estimate D2E/DX2                !
 ! D225  D(53,54,55,59)         60.5166         estimate D2E/DX2                !
 ! D226  D(53,54,55,60)        -56.8309         estimate D2E/DX2                !
 ! D227  D(56,54,55,58)         56.2796         estimate D2E/DX2                !
 ! D228  D(56,54,55,59)        -64.2797         estimate D2E/DX2                !
 ! D229  D(56,54,55,60)        178.3728         estimate D2E/DX2                !
 ! D230  D(57,54,55,58)        -60.2021         estimate D2E/DX2                !
 ! D231  D(57,54,55,59)        179.2386         estimate D2E/DX2                !
 ! D232  D(57,54,55,60)         61.8911         estimate D2E/DX2                !
 ! D233  D(53,54,56,61)        173.8571         estimate D2E/DX2                !
 ! D234  D(53,54,56,62)        -65.3531         estimate D2E/DX2                !
 ! D235  D(53,54,56,63)         50.942          estimate D2E/DX2                !
 ! D236  D(55,54,56,61)        -56.2263         estimate D2E/DX2                !
 ! D237  D(55,54,56,62)         64.5636         estimate D2E/DX2                !
 ! D238  D(55,54,56,63)       -179.1414         estimate D2E/DX2                !
 ! D239  D(57,54,56,61)         60.8383         estimate D2E/DX2                !
 ! D240  D(57,54,56,62)       -178.3718         estimate D2E/DX2                !
 ! D241  D(57,54,56,63)        -62.0768         estimate D2E/DX2                !
 ! D242  D(54,55,58,64)        -56.2537         estimate D2E/DX2                !
 ! D243  D(54,55,58,65)       -178.928          estimate D2E/DX2                !
 ! D244  D(54,55,58,66)         64.4302         estimate D2E/DX2                !
 ! D245  D(59,55,58,64)         64.1421         estimate D2E/DX2                !
 ! D246  D(59,55,58,65)        -58.5322         estimate D2E/DX2                !
 ! D247  D(59,55,58,66)       -175.174          estimate D2E/DX2                !
 ! D248  D(60,55,58,64)       -178.498          estimate D2E/DX2                !
 ! D249  D(60,55,58,65)         58.8276         estimate D2E/DX2                !
 ! D250  D(60,55,58,66)        -57.8142         estimate D2E/DX2                !
 ! D251  D(54,56,61,64)         55.5454         estimate D2E/DX2                !
 ! D252  D(54,56,61,67)        178.217          estimate D2E/DX2                !
 ! D253  D(54,56,61,68)        -64.9497         estimate D2E/DX2                !
 ! D254  D(62,56,61,64)        -64.3562         estimate D2E/DX2                !
 ! D255  D(62,56,61,67)         58.3154         estimate D2E/DX2                !
 ! D256  D(62,56,61,68)        175.1488         estimate D2E/DX2                !
 ! D257  D(63,56,61,64)        177.3818         estimate D2E/DX2                !
 ! D258  D(63,56,61,67)        -59.9466         estimate D2E/DX2                !
 ! D259  D(63,56,61,68)         56.8867         estimate D2E/DX2                !
 ! D260  D(55,58,64,61)         55.3513         estimate D2E/DX2                !
 ! D261  D(55,58,64,69)        178.0374         estimate D2E/DX2                !
 ! D262  D(55,58,64,70)        -64.8471         estimate D2E/DX2                !
 ! D263  D(65,58,64,61)        177.7173         estimate D2E/DX2                !
 ! D264  D(65,58,64,69)        -59.5966         estimate D2E/DX2                !
 ! D265  D(65,58,64,70)         57.5189         estimate D2E/DX2                !
 ! D266  D(66,58,64,61)        -65.2606         estimate D2E/DX2                !
 ! D267  D(66,58,64,69)         57.4255         estimate D2E/DX2                !
 ! D268  D(66,58,64,70)        174.5411         estimate D2E/DX2                !
 ! D269  D(56,61,64,58)        -54.8102         estimate D2E/DX2                !
 ! D270  D(56,61,64,69)       -177.4533         estimate D2E/DX2                !
 ! D271  D(56,61,64,70)         65.3521         estimate D2E/DX2                !
 ! D272  D(67,61,64,58)       -177.1584         estimate D2E/DX2                !
 ! D273  D(67,61,64,69)         60.1984         estimate D2E/DX2                !
 ! D274  D(67,61,64,70)        -56.9962         estimate D2E/DX2                !
 ! D275  D(68,61,64,58)         65.6143         estimate D2E/DX2                !
 ! D276  D(68,61,64,69)        -57.0288         estimate D2E/DX2                !
 ! D277  D(68,61,64,70)       -174.2235         estimate D2E/DX2                !
 --------------------------------------------------------------------------------
 Trust Radius=3.00D-01 FncErr=1.00D-07 GrdErr=1.00D-07 EigMax=2.50D+02 EigMin=1.00D-04
 Number of steps in this run=    570 maximum allowed number of steps=    570.
 GradGradGradGradGradGradGradGradGradGradGradGradGradGradGradGradGradGrad

 Leave Link  103 at Fri Dec 21 18:13:17 2018, MaxMem=  1342177280 cpu:               0.2 elap:               0.0
 (Enter /gpfs/apps/hpc/Apps/Restricted/Gaussian/Rev_A.03/g16/l202.exe)
 Symmetry turned off by external request.
 Stoichiometry    C42H45N7O(1+,2)
 Framework group  C1[X(C42H45N7O)]
 Deg. of freedom   279
 Full point group                 C1      NOp   1
                          Input orientation:                          
 ---------------------------------------------------------------------
 Center     Atomic      Atomic             Coordinates (Angstroms)
 Number     Number       Type             X           Y           Z
 ---------------------------------------------------------------------
      1          6           0        1.614824    0.282626    1.100875
      2          6           0        0.502040    1.104017    0.804249
      3          6           0        0.671437    2.487186    0.666569
      4          6           0        1.955459    3.000159    0.831828
      5          6           0        3.053265    2.173613    1.128226
      6          6           0        2.912826    0.788286    1.271886
      7          6           0       -0.223260   -0.930650    0.924476
      8          1           0       -0.170602    3.128585    0.436249
      9          1           0        2.119829    4.065994    0.727692
     10          1           0        4.033667    2.622098    1.239201
     11          6           0       -2.479831   -1.867570    0.625047
     12          6           0       -3.412588   -2.917874    0.594331
     13          6           0       -3.031368   -4.236384    0.846418
     14          6           0       -1.684848   -4.445862    1.130147
     15          6           0       -0.747994   -3.395768    1.159293
     16          6           0       -1.120970   -2.072625    0.910249
     17          6           0       -4.469599   -0.999371    0.122409
     18          1           0       -3.746461   -5.047836    0.824551
     19          1           0       -1.340592   -5.451811    1.334329
     20          1           0        0.286389   -3.623296    1.384751
     21          7           0       -0.632660    0.317216    0.701599
     22          6           0       -6.872154   -0.579852   -0.465540
     23          6           0       -5.515645   -0.068543   -0.222763
     24          6           0       -5.236839    1.283151   -0.323863
     25          6           0       -6.236085    2.204174   -0.679801
     26          6           0       -7.543716    1.716751   -0.939377
     27          6           0       -7.902614    0.391281   -0.853928
     28          1           0       -4.234609    1.638648   -0.127991
     29          1           0       -8.295692    2.439271   -1.221849
     30          6           0       -5.964079    3.697790   -0.796748
     31          6           0       -9.317264   -0.089540   -1.161010
     32          8           0       -7.121439   -1.805400   -0.345642
     33          7           0       -3.166989   -0.710003    0.331273
     34          7           0       -4.624596   -2.329458    0.280457
     35          1           0       -2.679924    0.186611    0.297035
     36          7           0        1.123098   -0.998071    1.169297
     37          1           0        1.715934   -1.800816    1.352701
     38          6           0        4.009930   -0.113375    1.578565
     39          7           0        3.892142   -1.439001    1.642855
     40          7           0        5.294176    0.303183    1.828158
     41          6           0        7.412624   -0.958359    2.371441
     42          6           0        7.861457   -2.272180    2.547474
     43          6           0        6.994121   -3.373106    2.428972
     44          6           0        5.642450   -3.212382    2.127878
     45          6           0        5.162495   -1.908755    1.944164
     46          6           0        6.051022   -0.815836    2.064200
     47          1           0        8.907546   -2.438243    2.781249
     48          1           0        7.390758   -4.370747    2.576425
     49          1           0        4.979526   -4.064931    2.041335
     50          1           0        5.690205    1.235710    1.873959
     51          6           0        8.297251    0.198499    2.500169
     52          1           0        9.343495   -0.026870    2.723249
     53          7           0        7.852997    1.391600    2.358774
     54          6           0        8.749457    2.540515    2.477267
     55          6           0       10.228508    2.256384    2.763596
     56          6           0        8.599157    3.399014    1.210101
     57          1           0        8.353241    3.134374    3.313587
     58          6           0       11.021118    3.564099    2.883605
     59          1           0       10.643516    1.651737    1.947132
     60          1           0       10.331616    1.669555    3.682192
     61          6           0        9.393751    4.703460    1.321609
     62          1           0        8.961541    2.815726    0.354697
     63          1           0        7.537433    3.600011    1.036856
     64          6           0       10.870119    4.430280    1.628518
     65          1           0       12.076736    3.342681    3.068782
     66          1           0       10.658528    4.124411    3.754300
     67          1           0        9.295558    5.279792    0.396362
     68          1           0        8.965865    5.316158    2.125052
     69          1           0       11.414524    5.372151    1.749678
     70          1           0       11.322372    3.906950    0.776701
     71          1           0       -5.548068   -2.741782    0.151909
     72          6           0       -9.269712   -1.091594   -2.338215
     73          1           0       -8.694496   -1.977828   -2.074189
     74          1           0      -10.287939   -1.396381   -2.594923
     75          1           0       -8.819302   -0.627062   -3.219384
     76          6           0      -10.238215    1.073084   -1.559592
     77          1           0      -11.233422    0.676176   -1.769253
     78          1           0      -10.333179    1.810990   -0.758097
     79          1           0       -9.884751    1.585383   -2.458162
     80          6           0       -9.922243   -0.770651    0.087455
     81          1           0       -9.338156   -1.639292    0.386842
     82          1           0       -9.964617   -0.069444    0.924964
     83          1           0      -10.942679   -1.092127   -0.137640
     84          6           0       -6.268425    4.142905   -2.245032
     85          1           0       -7.302724    3.931265   -2.524577
     86          1           0       -6.107342    5.220123   -2.334253
     87          1           0       -5.609220    3.636356   -2.953794
     88          6           0       -6.896269    4.453622    0.176822
     89          1           0       -6.728926    5.528816    0.074773
     90          1           0       -7.949442    4.255241   -0.032204
     91          1           0       -6.690564    4.168713    1.211187
     92          6           0       -4.510266    4.058138   -0.461138
     93          1           0       -4.252688    3.777283    0.563397
     94          1           0       -3.805042    3.574602   -1.142043
     95          1           0       -4.378624    5.137880   -0.556710
 ---------------------------------------------------------------------
 Rotational constants (GHZ):           0.1209951           0.0179686           0.0157938
 Leave Link  202 at Fri Dec 21 18:13:17 2018, MaxMem=  1342177280 cpu:               0.6 elap:               0.1
 (Enter /gpfs/apps/hpc/Apps/Restricted/Gaussian/Rev_A.03/g16/l716.exe)
 Electric field and nuclear coordinate derivatives read from checkpoint file.
 Dipole        =-4.73815410D+00 2.98507679D-01 6.53387243D-01
 Polarizability= 1.06756935D+03-4.55028836D+01 9.92375947D+02
                 1.54279882D+02-8.61284111D+01 3.72918964D+02
 Full mass-weighted force constant matrix:
 Low frequencies ---   -9.0131   -0.0038   -0.0005    0.0035    4.1706   10.7500
 Low frequencies ---   14.9704   20.6285   28.7209
 Diagonal vibrational polarizability:
      190.3868488      56.3588642     156.5295082
 Harmonic frequencies (cm**-1), IR intensities (KM/Mole), Raman scattering
 activities (A**4/AMU), depolarization ratios for plane and unpolarized
 incident light, reduced masses (AMU), force constants (mDyne/A),
 and normal coordinates:
                      1                      2                      3
                      A                      A                      A
 Frequencies --     14.4780                17.3959                23.7094
 Red. masses --      5.0454                 6.4549                 5.1993
 Frc consts  --      0.0006                 0.0012                 0.0017
 IR Inten    --      0.2461                 0.4445                 0.0587
  Atom  AN      X      Y      Z        X      Y      Z        X      Y      Z
     1   6     0.01   0.06  -0.03    -0.02   0.03   0.15     0.01  -0.01  -0.03
     2   6     0.02   0.07  -0.04    -0.03   0.03   0.17     0.01  -0.02  -0.05
     3   6     0.03   0.06  -0.04    -0.03   0.03   0.21     0.02  -0.02  -0.06
     4   6     0.03   0.06  -0.04    -0.03   0.03   0.22     0.01  -0.02  -0.05
     5   6     0.03   0.05  -0.03    -0.03   0.03   0.19     0.01  -0.01  -0.02
     6   6     0.02   0.06  -0.02    -0.02   0.02   0.15     0.01  -0.01  -0.01
     7   6     0.01   0.07  -0.03    -0.02   0.02   0.11     0.01  -0.02  -0.05
     8   1     0.03   0.07  -0.05    -0.03   0.04   0.23     0.02  -0.02  -0.08
     9   1     0.04   0.06  -0.05    -0.03   0.04   0.25     0.02  -0.02  -0.06
    10   1     0.03   0.05  -0.03    -0.03   0.02   0.20     0.01  -0.01  -0.01
    11   6     0.01   0.05  -0.02    -0.00   0.01   0.02     0.01  -0.01  -0.05
    12   6     0.03   0.04  -0.02     0.01   0.00  -0.03     0.01  -0.01  -0.07
    13   6     0.04   0.04  -0.02     0.01   0.00  -0.04     0.02  -0.02  -0.08
    14   6     0.04   0.06  -0.03     0.00   0.01   0.00     0.02  -0.02  -0.08
    15   6     0.03   0.07  -0.03    -0.01   0.02   0.05     0.01  -0.02  -0.07
    16   6     0.02   0.07  -0.03    -0.01   0.02   0.06     0.01  -0.02  -0.05
    17   6    -0.00   0.02  -0.01     0.00   0.00  -0.02     0.01  -0.01  -0.03
    18   1     0.05   0.04  -0.02     0.02  -0.00  -0.08     0.02  -0.02  -0.09
    19   1     0.06   0.06  -0.03     0.00   0.01  -0.00     0.02  -0.02  -0.09
    20   1     0.03   0.08  -0.03    -0.01   0.02   0.08     0.01  -0.02  -0.06
    21   7     0.02   0.07  -0.04    -0.02   0.03   0.14     0.02  -0.02  -0.06
    22   6    -0.02  -0.03   0.00     0.01  -0.01  -0.07     0.01   0.00  -0.03
    23   6    -0.03   0.00  -0.00     0.00  -0.00  -0.04     0.01   0.00  -0.01
    24   6    -0.06   0.01   0.00    -0.01   0.00  -0.02     0.01   0.00   0.03
    25   6    -0.08  -0.01   0.01    -0.01  -0.00  -0.02     0.00   0.01   0.06
    26   6    -0.07  -0.04   0.01    -0.00  -0.01  -0.05     0.01   0.01   0.03
    27   6    -0.04  -0.05   0.01     0.01  -0.01  -0.07     0.01   0.01  -0.01
    28   1    -0.06   0.03   0.00    -0.01   0.01   0.01     0.00   0.00   0.05
    29   1    -0.09  -0.06   0.01    -0.00  -0.01  -0.05     0.01   0.02   0.05
    30   6    -0.12  -0.01   0.02    -0.02   0.00   0.00    -0.00   0.02   0.11
    31   6    -0.03  -0.08   0.01     0.02  -0.02  -0.09     0.02   0.01  -0.03
    32   8     0.01  -0.03   0.00     0.02  -0.02  -0.09     0.01   0.00  -0.05
    33   7    -0.01   0.04  -0.02    -0.01   0.01   0.02     0.01  -0.01  -0.03
    34   7     0.02   0.02  -0.01     0.01  -0.00  -0.05     0.01  -0.01  -0.05
    35   1    -0.02   0.05  -0.02    -0.02   0.02   0.06     0.01  -0.01  -0.03
    36   7     0.01   0.07  -0.02    -0.02   0.02   0.11     0.01  -0.01  -0.03
    37   1     0.01   0.07  -0.02    -0.02   0.02   0.09     0.01  -0.01  -0.01
    38   6     0.01   0.05  -0.01    -0.02   0.01   0.10    -0.00  -0.01   0.03
    39   7    -0.02   0.05   0.01    -0.03   0.01   0.11    -0.01  -0.00   0.07
    40   7     0.01   0.03  -0.01    -0.00   0.00   0.04    -0.00  -0.01   0.04
    41   6    -0.01  -0.01   0.02     0.02  -0.01  -0.07    -0.02   0.00   0.13
    42   6    -0.04  -0.02   0.04     0.01  -0.02  -0.09    -0.03   0.01   0.18
    43   6    -0.06  -0.00   0.05    -0.00  -0.01  -0.04    -0.03   0.01   0.20
    44   6    -0.06   0.02   0.04    -0.02   0.00   0.03    -0.03   0.00   0.16
    45   6    -0.03   0.03   0.02    -0.01   0.01   0.05    -0.02  -0.00   0.11
    46   6    -0.01   0.01   0.01     0.00  -0.00  -0.00    -0.01  -0.00   0.09
    47   1    -0.05  -0.04   0.05     0.02  -0.03  -0.15    -0.04   0.01   0.20
    48   1    -0.09  -0.01   0.07    -0.00  -0.01  -0.05    -0.04   0.01   0.24
[...]
 ! R3    R(1,36)                 0.0343                  1.7                    !
 ! R15   R(7,36)                 0.0371                  1.9                    !
 ! R47   R(33,35)                0.0149                  0.7                    !
 ! R49   R(36,37)               -0.8263                 41.2                    !
 ! R51   R(38,40)                0.0309                  1.5                    !
 ! R53   R(40,46)                0.0277                  1.4                    !
 ! R54   R(40,50)               -0.6823                 34.0                    !
 ! A2    A(2,1,36)               0.0181                  0.9                    !
 ! A3    A(6,1,36)              -0.0188                  0.9                    !
 ! A20   A(16,7,36)             -0.0185                  0.9                    !
 ! A21   A(21,7,36)              0.0178                  0.9                    !
 ! A80   A(1,36,7)              -0.0366                  1.8                    !
 ! A82   A(7,36,37)              0.0372                  1.9                    !
 ! A84   A(6,38,40)             -0.0148                  0.7                    !
 ! A85   A(39,38,40)             0.0141                  0.7                    !
 ! A87   A(38,40,46)            -0.0298                  1.5                    !
 ! A88   A(38,40,50)             0.0319                  1.6                    !
 ! A105  A(40,46,41)            -0.0156                  0.8                    !
 ! A106  A(40,46,45)             0.0152                  0.8                    !
 --------------------------------------------------------------------------------
                           ----------------------------
                           ! Normal Mode   279        !
 --------------------------                            --------------------------
 ! Name  Definition              Value          Relative Weight (%)             !
 --------------------------------------------------------------------------------
 ! R3    R(1,36)                 0.028                   1.4                    !
 ! R15   R(7,36)                 0.0308                  1.5                    !
 ! R49   R(36,37)               -0.6825                 34.1                    !
 ! R51   R(38,40)               -0.0374                  1.9                    !
 ! R53   R(40,46)               -0.0336                  1.7                    !
 ! R54   R(40,50)                0.8264                 41.3                    !
 ! A2    A(2,1,36)               0.0151                  0.8                    !
 ! A3    A(6,1,36)              -0.0157                  0.8                    !
 ! A20   A(16,7,36)             -0.0153                  0.8                    !
 ! A21   A(21,7,36)              0.0146                  0.7                    !
 ! A80   A(1,36,7)              -0.0302                  1.5                    !
 ! A82   A(7,36,37)              0.0301                  1.5                    !
 ! A84   A(6,38,40)              0.0186                  0.9                    !
 ! A85   A(39,38,40)            -0.0181                  0.9                    !
 ! A87   A(38,40,46)             0.0368                  1.8                    !
 ! A88   A(38,40,50)            -0.0397                  2.0                    !
 ! A105  A(40,46,41)             0.019                   0.9                    !
 ! A106  A(40,46,45)            -0.0182                  0.9                    !
 --------------------------------------------------------------------------------
 -------------------------------------------------------------------
 Center     Atomic                   Forces (Hartrees/Bohr)
 Number     Number              X              Y              Z
 -------------------------------------------------------------------
      1        6          -0.000000329    0.000000577    0.000001471
      2        6           0.000000241    0.000000056   -0.000000953
      3        6           0.000001096   -0.000000080   -0.000005327
      4        6           0.000001109   -0.000000644   -0.000006966
      5        6           0.000000703   -0.000000060   -0.000004447
      6        6           0.000000106    0.000000357   -0.000000106
      7        6          -0.000000947    0.000001071    0.000005299
      8        1           0.000001177   -0.000000497   -0.000007296
      9        1           0.000001756   -0.000000762   -0.000010307
     10        1           0.000001011   -0.000000299   -0.000005882
     11        6          -0.000001362    0.000001331    0.000008351
     12        6          -0.000001877    0.000001455    0.000011710
     13        6          -0.000002662    0.000002473    0.000015775
     14        6          -0.000002759    0.000002317    0.000016386
     15        6          -0.000002151    0.000002022    0.000013054
     16        6          -0.000001492    0.000001400    0.000008984
     17        6          -0.000001082    0.000001108    0.000005608
     18        1          -0.000003138    0.000002494    0.000018325
     19        1          -0.000003300    0.000002952    0.000019485
     20        1          -0.000002395    0.000002176    0.000013711
     21        7          -0.000000340    0.000000413    0.000001497
     22        6          -0.000000418    0.000000424    0.000004370
     23        6          -0.000000603    0.000000216    0.000002929
     24        6           0.000000358   -0.000000338   -0.000001251
     25        6           0.000000542   -0.000000945   -0.000004166
     26        6           0.000000464   -0.000000760   -0.000002544
     27        6          -0.000000343   -0.000000358    0.000001679
     28        1           0.000000424   -0.000000129   -0.000002471
     29        1           0.000000826   -0.000001473   -0.000004780
     30        6           0.000001497   -0.000001276   -0.000008799
     31        6          -0.000000625   -0.000000632    0.000003134
     32        8          -0.000001569    0.000000549    0.000008462
     33        7          -0.000000832    0.000000526    0.000004876
     34        7          -0.000001725    0.000001201    0.000009980
     35        1          -0.000000306    0.000000490    0.000001999
     36        7          -0.000000799    0.000000992    0.000005595
     37        1          -0.000001448    0.000001356    0.000007952
     38        6          -0.000000416    0.000000921    0.000002507
     39        7          -0.000001194    0.000000951    0.000006765
     40        7          -0.000000072    0.000000900    0.000001372
     41        6          -0.000000920    0.000001662    0.000005070
     42        6          -0.000001621    0.000001541    0.000009188
     43        6          -0.000002012    0.000001830    0.000012669
     44        6          -0.000002020    0.000001575    0.000012227
     45        6          -0.000001391    0.000001397    0.000008248
     46        6          -0.000000880    0.000001267    0.000004666
     47        1          -0.000001580    0.000001900    0.000009680
     48        1          -0.000002699    0.000002137    0.000015736
     49        1          -0.000002548    0.000001681    0.000014883
     50        1           0.000000247    0.000000710   -0.000001600
     51        6          -0.000000257    0.000001285    0.000001477
     52        1          -0.000000336    0.000001517    0.000002124
     53        7           0.000000365    0.000001026   -0.000002272
     54        6           0.000001062    0.000001183   -0.000005694
     55        6           0.000000867    0.000001156   -0.000005110
     56        6           0.000001512   -0.000002745   -0.000008513
     57        1           0.000001396    0.000003806   -0.000007755
     58        6           0.000001557    0.000001031   -0.000009228
     59        1           0.000000503   -0.000001588   -0.000003140
     60        1           0.000000605    0.000003951   -0.000003138
     61        6           0.000002231   -0.000002980   -0.000012760
     62        1           0.000001074   -0.000005690   -0.000006726
     63        1           0.000001425   -0.000002792   -0.000009093
     64        6           0.000001891   -0.000002682   -0.000011756
     65        1           0.000001530    0.000001111   -0.000008468
     66        1           0.000001867    0.000004086   -0.000010765
     67        1           0.000002378   -0.000005726   -0.000014340
     68        1           0.000002408   -0.000000106   -0.000014409
     69        1           0.000002501   -0.000002629   -0.000014794
     70        1           0.000001705   -0.000005638   -0.000010244
     71        1          -0.000001924    0.000001417    0.000011254
     72        6          -0.000001204   -0.000004360    0.000006357
     73        1          -0.000001542   -0.000003753    0.000008978
     74        1          -0.000001318   -0.000004574    0.000007216
     75        1          -0.000000908   -0.000007396    0.000004773
     76        6           0.000000217   -0.000001267   -0.000000386
     77        1          -0.000000285   -0.000001586    0.000000809
     78        1           0.000000461    0.000001107   -0.000002782
     79        1           0.000000308   -0.000004399   -0.000001989
     80        6          -0.000000842    0.000003582    0.000005288
     81        1          -0.000001311    0.000004146    0.000007951
     82        1          -0.000000448    0.000006192    0.000003072
     83        1          -0.000001044    0.000003377    0.000006356
     84        6           0.000001607   -0.000005644   -0.000010333
     85        1           0.000001604   -0.000005940   -0.000009465
     86        1           0.000002250   -0.000006010   -0.000013533
     87        1           0.000001322   -0.000008207   -0.000008554
     88        6           0.000001974    0.000002340   -0.000011131
     89        1           0.000002482    0.000001773   -0.000014468
     90        1           0.000001773    0.000002054   -0.000010424
     91        1           0.000001856    0.000005339   -0.000010237
     92        6           0.000001742   -0.000001159   -0.000009985
     93        1           0.000001590    0.000002049   -0.000009112
     94        1           0.000001367   -0.000003528   -0.000008458
     95        1           0.000002287   -0.000001303   -0.000013348
 -------------------------------------------------------------------
 Cartesian Forces:  Max     0.000019485 RMS     0.000005409
 FormGI is forming the generalized inverse of G from B-inverse, IUseBI=4.
 Leave Link  716 at Fri Dec 21 18:13:17 2018, MaxMem=  1342177280 cpu:              12.0 elap:               0.8
 (Enter /gpfs/apps/hpc/Apps/Restricted/Gaussian/Rev_A.03/g16/l9999.exe)

 ----------------------------------------------------------------------

 Electric dipole moment (input orientation):
 (Debye = 10**-18 statcoulomb cm , SI units = C m)
                  (au)            (Debye)         (10**-30 SI)
   Tot        0.479230D+01      0.121808D+02      0.406308D+02
   x         -0.473815D+01     -0.120432D+02     -0.401717D+02
   y          0.298508D+00      0.758731D+00      0.253085D+01
   z          0.653387D+00      0.166074D+01      0.553965D+01

 Dipole polarizability, Alpha (input orientation).
 (esu units = cm**3 , SI units = C**2 m**2 J**-1)
 Alpha(0;0):
               (au)            (10**-24 esu)      (10**-40 SI)
   iso        0.810955D+03      0.120171D+03      0.133708D+03
   aniso      0.732006D+03      0.108472D+03      0.120691D+03
   xx         0.106757D+04      0.158197D+03      0.176018D+03
   yx        -0.455029D+02     -0.674283D+01     -0.750241D+01
   yy         0.992376D+03      0.147055D+03      0.163621D+03
   zx         0.154280D+03      0.228619D+02      0.254373D+02
   zy        -0.861284D+02     -0.127629D+02     -0.142007D+02
   zz         0.372919D+03      0.552609D+02      0.614860D+02

 ----------------------------------------------------------------------

 Dipole orientation:
     6          2.51226704          0.56806313         -2.70019198
     6          1.74829590          2.03591618         -0.60083381
     6          1.67745475          4.67435681         -0.78999229
     6          2.37786728          5.75247617         -3.08606649
     6          3.13692834          4.27340930         -5.15810621
     6          3.22637059          1.63316531         -5.02176556
     6          1.57299228         -1.88435399          0.54577578
     1          1.09043790          5.82316021          0.79941019
     1          2.33587069          7.78882866         -3.29454291
     1          3.64912654          5.20537406         -6.90848300
     6          0.32163202         -3.84469276          4.57446707
     6         -0.08966704         -5.91461691          6.18566358
     6          0.34697091         -8.38836304          5.38314978
     6          1.21124488         -8.67835938          2.91578888
     6          1.62066974         -6.60822762          1.29650978
     6          1.19236987         -4.12526986          2.08494843
     6         -1.05406515         -2.35425624          8.26479206
     1          0.03415388         -9.98721245          6.61806354
     1          1.58062682        -10.56161423          2.20678721
     1          2.29178630         -6.95732623         -0.60479950
     7          1.17625397          0.45002560          1.40015142
     6         -2.74412292         -1.74103955         12.65156544
     6         -1.87990444         -0.66775294         10.23983311
     6         -1.85672905          1.91831166          9.85197931
     6         -2.69132823          3.59240829         11.73565116
     6         -3.57157900          2.57108968         14.05454391
     6         -3.64246243          0.02805251         14.59109585
     1         -1.18967052          2.66739775          8.07174772
     1         -4.22394204          3.88802747         15.47178699
     6         -2.68502327          6.44692054         11.37312392
     6         -4.63905924         -0.98620205         17.09847692
     8         -2.71145912         -4.08872498         13.00395648
     7         -0.29017451         -1.70047345          5.91890285
     7         -0.93592891         -4.89365110          8.43854225
     1         -0.13368230          0.04200929          5.10559991
     7          2.37907719         -1.90225474         -1.91458441
     1          2.79609829         -3.37491566         -3.06946269
     6          3.99676147          0.01135210         -7.09868810
     7          3.95000715         -2.50479434         -7.01808989
     7          4.84492595          0.89799381         -9.38480101
     6          6.29026239         -1.32482197        -13.35137852
     6          6.60313879         -3.77386125        -14.29926086
     6          6.03991800         -5.92208581        -12.83887190
     6          5.13684599         -5.72238971        -10.37210125
     6          4.80035426         -3.29483342         -9.36924815
     6          5.37121816         -1.15969808        -10.86977671
     1          7.29918153         -4.00698365        -16.21306329
     1          6.31799186         -7.77765224        -13.65937984
     1          4.71275728         -7.38567895         -9.25615938
     1          5.13059598          2.68936517        -10.00316542
     6          6.88288416          0.92930447        -14.83485372
     1          7.55291239          0.58576585        -16.75868252
     7          6.62357111          3.14738557        -13.90081142
     6          7.19938202          5.38897175        -15.40996920
     6          8.09587044          4.97164883        -18.13306428
     6          4.88007080          7.13952339        -15.35457977
     1          8.71812318          6.36834922        -14.38431012
     6          8.66335007          7.50148415        -19.42910621
     1          6.61808595          3.97154167        -19.18998708
     1          9.77928246          3.76892174        -18.15811069
     6          5.43185740          9.66440630        -16.65690464
     1          3.31782171          6.17883574        -16.32070076
     1          4.29656703          7.42971098        -13.39185893
     6          6.36720892          9.26501090        -19.36839730
     1          9.26544177          7.17080846        -21.37974975
     1         10.25176076          8.41708164        -18.46136646
     1          3.73624122         10.84865133        -16.64399131
     1          6.88273472         10.67989032        -15.57832911
     1          6.83381960         11.08030693        -20.24346577
     1          4.84153731          8.42602258        -20.49444386
     1         -1.46222171         -5.74961769         10.08227971
     6         -6.92858727         -2.72990672         16.58837741
     1         -6.37413702         -4.37109442         15.47736566
     1         -7.70834309         -3.37796862         18.38879244
     1         -8.40841391         -1.70521355         15.57449083
     6         -5.50791171          1.15593419         18.85331707
     1         -6.20312049          0.33120217         20.61200016
     1         -3.95992538          2.44154344         19.32410819
     1         -7.04096019          2.26270382         18.02170289
     6         -2.53598940         -2.47783535         18.47029684
     1         -1.91132742         -4.08914541         17.35389150
     1         -0.91058287         -1.26019416         18.84778757
     1         -3.25897238         -3.16127557         20.28101852
     6         -5.42575269          7.42450049         11.62100279
     1         -6.24287997          6.95290080         13.45652605
     1         -5.43958365          9.48019659         11.42385078
     1         -6.62776898          6.62146957         10.14712528
     6         -1.03481051          7.66028861         13.45461130
     1         -1.07116483          9.71432365         13.24221908
     1         -1.72380895          7.20342554         15.34512682
     1          0.92291879          7.02304011         13.30324207
     6         -1.63712093          7.23494310          8.78574019
     1          0.31635688          6.61179790          8.53539706
     1         -2.77257977          6.47668623          7.23576740
     1         -1.67033559          9.29312393          8.64225554

 Electric dipole moment (dipole orientation):
 (Debye = 10**-18 statcoulomb cm , SI units = C m)
                  (au)            (Debye)         (10**-30 SI)
   Tot        0.479230D+01      0.121808D+02      0.406308D+02
   x          0.000000D+00      0.000000D+00      0.000000D+00
   y          0.000000D+00      0.000000D+00      0.000000D+00
   z          0.479230D+01      0.121808D+02      0.406308D+02

 Dipole polarizability, Alpha (dipole orientation).
 (esu units = cm**3 , SI units = C**2 m**2 J**-1)
 Alpha(0;0):
               (au)            (10**-24 esu)      (10**-40 SI)
   iso        0.810955D+03      0.120171D+03      0.133708D+03
   aniso      0.732006D+03      0.108472D+03      0.120691D+03
   xx         0.421022D+03      0.623891D+02      0.694172D+02
   yx        -0.454022D+02     -0.672791D+01     -0.748581D+01
   yy         0.994929D+03      0.147433D+03      0.164042D+03
   zx        -0.245665D+03     -0.364039D+02     -0.405048D+02
   zy         0.451860D+02      0.669587D+01      0.745016D+01
   zz         0.101691D+04      0.150691D+03      0.167666D+03

 ----------------------------------------------------------------------

 This type of calculation cannot be archived.


 EDUCATION WITHOUT COMMON SENSE IS A LOAD OF BOOKS ON THE BACK OF AN ASS.
 Job cpu time:       0 days  0 hours  0 minutes 27.5 seconds.
 Elapsed time:       0 days  0 hours  0 minutes  1.9 seconds.
 File lengths (MBytes):  RWF=     80 Int=      0 D2E=      0 Chk=    140 Scr=      8
 Normal termination of Gaussian 16 at Fri Dec 21 18:13:18 2018.
