 Entering Gaussian System, Link 0=g16
 Input=cyclohexyl-triBIP-E1PT.com
 Output=cyclohexyl-triBIP-E1PT.log
 Initial command:
 /gpfs/apps/hpc/Apps/Restricted/Gaussian/Rev_A.03/g16/l1.exe "/gpfs/scratch60/fas/hammes_schiffer/jg2487/c43n04/Gau-87575.inp" -scrdir="/gpfs/scratch60/fas/hammes_schiffer/jg2487/c43n04/"
 Entering Link 1 = /gpfs/apps/hpc/Apps/Restricted/Gaussian/Rev_A.03/g16/l1.exe PID=     87576.
  
 Copyright (c) 1988,1990,1992,1993,1995,1998,2003,2009,2016,
            Gaussian, Inc.  All Rights Reserved.
  
 This is part of the Gaussian(R) 16 program.  It is based on
 the Gaussian(R) 09 system (copyright 2009, Gaussian, Inc.),
 the Gaussian(R) 03 system (copyright 2003, Gaussian, Inc.),
 the Gaussian(R) 98 system (copyright 1998, Gaussian, Inc.),
 the Gaussian(R) 94 system (copyright 1995, Gaussian, Inc.),
 the Gaussian 92(TM) system (copyright 1992, Gaussian, Inc.),
 the Gaussian 90(TM) system (copyright 1990, Gaussian, Inc.),
 the Gaussian 88(TM) system (copyright 1988, Gaussian, Inc.),
 the Gaussian 86(TM) system (copyright 1986, Carnegie Mellon
 University), and the Gaussian 82(TM) system (copyright 1983,
 Carnegie Mellon University). Gaussian is a federally registered
 trademark of Gaussian, Inc.
  
 This software contains proprietary and confidential information,
 including trade secrets, belonging to Gaussian, Inc.
  
 This software is provided under written license and may be
 used, copied, transmitted, or stored only in accord with that
 written license.
  
 The following legend is applicable only to US Government
 contracts under FAR:
  
                    RESTRICTED RIGHTS LEGEND
  
 Use, reproduction and disclosure by the US Government is
 subject to restrictions as set forth in subparagraphs (a)
 and (c) of the Commercial Computer Software - Restricted
 Rights clause in FAR 52.227-19.
  
 Gaussian, Inc.
 340 Quinnipiac St., Bldg. 40, Wallingford CT 06492
  
  
 ---------------------------------------------------------------
 Warning -- This program may not be used in any manner that
 competes with the business of Gaussian, Inc. or will provide
 assistance to any competitor of Gaussian, Inc.  The licensee
 of this program is prohibited from giving any competitor of
 Gaussian, Inc. access to this program.  By using this program,
 the user acknowledges that Gaussian, Inc. is engaged in the
 business of creating and licensing software in the field of
 computational chemistry and represents and warrants to the
 licensee that it is not a competitor of Gaussian, Inc. and that
 it will not use this program in any manner prohibited above.
 ---------------------------------------------------------------
  

 Cite this work as:
 Gaussian 16, Revision A.03,
 M. J. Frisch, G. W. Trucks, H. B. Schlegel, G. E. Scuseria, 
 M. A. Robb, J. R. Cheeseman, G. Scalmani, V. Barone, 
 G. A. Petersson, H. Nakatsuji, X. Li, M. Caricato, A. V. Marenich, 
 J. Bloino, B. G. Janesko, R. Gomperts, B. Mennucci, H. P. Hratchian, 
 J. V. Ortiz, A. F. Izmaylov, J. L. Sonnenberg, D. Williams-Young, 
 F. Ding, F. Lipparini, F. Egidi, J. Goings, B. Peng, A. Petrone, 
 T. Henderson, D. Ranasinghe, V. G. Zakrzewski, J. Gao, N. Rega, 
 G. Zheng, W. Liang, M. Hada, M. Ehara, K. Toyota, R. Fukuda, 
 J. Hasegawa, M. Ishida, T. Nakajima, Y. Honda, O. Kitao, H. Nakai, 
 T. Vreven, K. Throssell, J. A. Montgomery, Jr., J. E. Peralta, 
 F. Ogliaro, M. J. Bearpark, J. J. Heyd, E. N. Brothers, K. N. Kudin, 
 V. N. Staroverov, T. A. Keith, R. Kobayashi, J. Normand, 
 K. Raghavachari, A. P. Rendell, J. C. Burant, S. S. Iyengar, 
 J. Tomasi, M. Cossi, J. M. Millam, M. Klene, C. Adamo, R. Cammi, 
 J. W. Ochterski, R. L. Martin, K. Morokuma, O. Farkas, 
 J. B. Foresman, and D. J. Fox, Gaussian, Inc., Wallingford CT, 2016.
 
 ******************************************
 Gaussian 16:  ES64L-G16RevA.03 25-Dec-2016
                16-Dec-2018 
 ******************************************
 %chk=cyclohexyl-triBIP-E1PT.chk
 %mem=10GB
 %nprocshared=16
 Will use up to   16 processors via shared memory.
 ----------------------------------------------------------------
 #p freq(ReadFC,InternalModes) Geom(AllCheck) NoSymm scale=0.9649
 ----------------------------------------------------------------
 1/18=20,29=7,38=1,114=964900/1,3;
 2/9=110,12=2,15=1,40=1/2;
 7/8=21,25=11,30=1/16;
 99/5=2/99;
 Leave Link    1 at Sun Dec 16 14:43:39 2018, MaxMem=  1342177280 cpu:               9.2 elap:               0.6
 (Enter /gpfs/apps/hpc/Apps/Restricted/Gaussian/Rev_A.03/g16/l101.exe)
 Structure from the checkpoint file:  "cyclohexyl-triBIP-E1PT.chk"
 ----------------------------------------------------------------------
 cyclohexylimine triBIP oxidized, first proton transferred, optimizatio
 n
 ----------------------------------------------------------------------
 Charge =  1 Multiplicity = 2
 Redundant internal coordinates found in file.  (old form).
 C,0,1.6520687809,0.370672277,0.928184156
 C,0,0.5448403315,1.2026205844,0.6395198974
 C,0,0.7315835862,2.5832243142,0.4961230024
 C,0,2.0236610801,3.0805227404,0.6475486785
 C,0,3.1143962317,2.2427583285,0.9387056054
 C,0,2.9577895861,0.8601112469,1.0887402205
 C,0,-0.2012176829,-0.8224958829,0.7817148603
 H,0,-0.1023684626,3.2372722115,0.2738821787
 H,0,2.1995920653,4.1439849451,0.5375058342
 H,0,4.1013030779,2.6791213081,1.0385491185
 C,0,-2.4716102486,-1.7593539698,0.5556031761
 C,0,-3.3992557326,-2.8152402758,0.5675396669
 C,0,-3.0076085329,-4.1298904859,0.8221896739
 C,0,-1.6519459085,-4.3340826773,1.0594537188
 C,0,-0.7198912897,-3.2803187828,1.0471571951
 C,0,-1.1040465654,-1.9598878739,0.798049437
 C,0,-4.4817979783,-0.9116287123,0.1016189526
 H,0,-3.7221802301,-4.9421232895,0.8340487189
 H,0,-1.2969273219,-5.3365063927,1.2624085947
 H,0,0.3219931763,-3.5033379173,1.2386823872
 N,0,-0.6009653443,0.42755801,0.5552709909
 C,0,-6.9123039252,-0.552222789,-0.3852542459
 C,0,-5.5566308264,-0.009374334,-0.2288201568
 C,0,-5.3258746066,1.3432508944,-0.3987257143
 C,0,-6.3731153235,2.2262619667,-0.732409893
 C,0,-7.6844508622,1.7173974457,-0.8878482941
 C,0,-7.9803111825,0.383147659,-0.7328197731
 H,0,-4.3249770175,1.7433193887,-0.2815055907
 H,0,-8.4800925559,2.4109386741,-1.1384324784
 C,0,-6.1008154541,3.6807982367,-0.9482396751
 H,0,-5.1884731318,3.994669397,-0.4399217249
 H,0,-5.9733224299,3.8794073533,-2.0191195705
 H,0,-6.9389820458,4.2899225426,-0.604591409
 C,0,-9.3579484487,-0.1695488866,-0.8981740594
 H,0,-9.3846815731,-0.8974511926,-1.71496114
 H,0,-9.6677140612,-0.7048154433,0.0037411539
 H,0,-10.0732485446,0.6252951442,-1.106589294
 O,0,-7.1646099252,-1.7724669651,-0.2295978464
 N,0,-3.176039974,-0.6086894387,0.2671013863
 N,0,-4.6235999726,-2.238966247,0.2845894129
 H,0,-2.7061785328,0.2945715946,0.2086962824
 N,0,1.1474401744,-0.9033610244,1.0088700186
 H,0,1.7355738158,-1.7101663386,1.1899659373
 C,0,4.0416355666,-0.0571132402,1.3984662565
 N,0,3.9064017124,-1.3819320313,1.4369330929
 N,0,5.3258383766,0.3386211968,1.6827311408
 C,0,7.4111542566,-0.9637013646,2.2658558742
 C,0,7.835567178,-2.2868872716,2.4331029645
 C,0,6.958336318,-3.3734686883,2.2678010566
 C,0,5.6186042081,-3.1872469223,1.9313447991
 C,0,5.1629832175,-1.8736413586,1.757745069
 C,0,6.0619286722,-0.7947734136,1.9200455965
 H,0,8.870147373,-2.4717619724,2.7018261119
 H,0,7.3361494658,-4.3790976473,2.4092377857
 H,0,4.9451861265,-4.0276477355,1.8134235218
 H,0,5.7256328959,1.2665493268,1.7673037042
 C,0,8.3079048354,0.1734671019,2.4626061442
 H,0,9.3419116289,-0.0811671903,2.7093969867
 N,0,7.890365481,1.3802881732,2.3610765273
 C,0,8.8098342768,2.4992092053,2.571310292
 C,0,10.2613498956,2.1569225538,2.9253575144
 C,0,8.7533351138,3.4128150976,1.3354558475
 H,0,8.386204253,3.0711922365,3.4097886029
 C,0,11.0890254085,3.4291416111,3.1403843066
 H,0,10.7010001624,1.5703195573,2.1093523571
 H,0,10.2940016412,1.5305433842,3.8222600497
 C,0,9.5843919568,4.6831155493,1.5422763191
 H,0,9.1389510216,2.851940184,0.4750583567
 H,0,7.7093965664,3.6588123291,1.1184443764
 C,0,11.0328314618,4.3510247366,1.9176386456
 H,0,12.1252644683,3.1619015534,3.3697195898
 H,0,10.7019039222,3.9674593611,4.0146453385
 H,0,9.5567939805,5.2996912114,0.6386743082
 H,0,9.1336306219,5.2784261064,2.3460847532
 H,0,11.5929478895,5.2709567633,2.1125693611
 H,0,11.5200248475,3.8526906191,1.0701680363
 H,0,-5.5499210156,-2.6578383658,0.1936299227
 Recover connectivity data from disk.
 ITRead=  0  0  0  0  0  0  0  0  0  0  0  0  0  0  0  0  0  0  0  0
 ITRead=  0  0  0  0  0  0  0  0  0  0  0  0  0  0  0  0  0  0  0  0
 ITRead=  0  0  0  0  0  0  0  0  0  0  0  0  0  0  0  0  0  0  0  0
 ITRead=  0  0  0  0  0  0  0  0  0  0  0  0  0  0  0  0  0
 MicOpt= -1 -1 -1 -1 -1 -1 -1 -1 -1 -1 -1 -1 -1 -1 -1 -1 -1 -1 -1 -1
 MicOpt= -1 -1 -1 -1 -1 -1 -1 -1 -1 -1 -1 -1 -1 -1 -1 -1 -1 -1 -1 -1
 MicOpt= -1 -1 -1 -1 -1 -1 -1 -1 -1 -1 -1 -1 -1 -1 -1 -1 -1 -1 -1 -1
 MicOpt= -1 -1 -1 -1 -1 -1 -1 -1 -1 -1 -1 -1 -1 -1 -1 -1 -1
 NAtoms=     77 NQM=       77 NQMF=       0 NMMI=      0 NMMIF=      0
                NMic=       0 NMicF=      0.
                    Isotopes and Nuclear Properties:
 (Nuclear quadrupole moments (NQMom) in fm**2, nuclear magnetic moments (NMagM)
  in nuclear magnetons)

  Atom         1           2           3           4           5           6           7           8           9          10
 IAtWgt=          12          12          12          12          12          12          12           1           1           1
 AtmWgt=  12.0000000  12.0000000  12.0000000  12.0000000  12.0000000  12.0000000  12.0000000   1.0078250   1.0078250   1.0078250
 NucSpn=           0           0           0           0           0           0           0           1           1           1
 AtZEff=   3.6000000   3.6000000   3.6000000   3.6000000   3.6000000   3.6000000   3.6000000   1.0000000   1.0000000   1.0000000
 NQMom=    0.0000000   0.0000000   0.0000000   0.0000000   0.0000000   0.0000000   0.0000000   0.0000000   0.0000000   0.0000000
 NMagM=    0.0000000   0.0000000   0.0000000   0.0000000   0.0000000   0.0000000   0.0000000   2.7928460   2.7928460   2.7928460
 AtZNuc=   6.0000000   6.0000000   6.0000000   6.0000000   6.0000000   6.0000000   6.0000000   1.0000000   1.0000000   1.0000000

  Atom        11          12          13          14          15          16          17          18          19          20
 IAtWgt=          12          12          12          12          12          12          12           1           1           1
 AtmWgt=  12.0000000  12.0000000  12.0000000  12.0000000  12.0000000  12.0000000  12.0000000   1.0078250   1.0078250   1.0078250
 NucSpn=           0           0           0           0           0           0           0           1           1           1
 AtZEff=   3.6000000   3.6000000   3.6000000   3.6000000   3.6000000   3.6000000   3.6000000   1.0000000   1.0000000   1.0000000
 NQMom=    0.0000000   0.0000000   0.0000000   0.0000000   0.0000000   0.0000000   0.0000000   0.0000000   0.0000000   0.0000000
 NMagM=    0.0000000   0.0000000   0.0000000   0.0000000   0.0000000   0.0000000   0.0000000   2.7928460   2.7928460   2.7928460
 AtZNuc=   6.0000000   6.0000000   6.0000000   6.0000000   6.0000000   6.0000000   6.0000000   1.0000000   1.0000000   1.0000000

  Atom        21          22          23          24          25          26          27          28          29          30
 IAtWgt=          14          12          12          12          12          12          12           1           1          12
 AtmWgt=  14.0030740  12.0000000  12.0000000  12.0000000  12.0000000  12.0000000  12.0000000   1.0078250   1.0078250  12.0000000
 NucSpn=           2           0           0           0           0           0           0           1           1           0
 AtZEff=   4.5500000   3.6000000   3.6000000   3.6000000   3.6000000   3.6000000   3.6000000   1.0000000   1.0000000   3.6000000
 NQMom=    2.0440000   0.0000000   0.0000000   0.0000000   0.0000000   0.0000000   0.0000000   0.0000000   0.0000000   0.0000000
 NMagM=    0.4037610   0.0000000   0.0000000   0.0000000   0.0000000   0.0000000   0.0000000   2.7928460   2.7928460   0.0000000
 AtZNuc=   7.0000000   6.0000000   6.0000000   6.0000000   6.0000000   6.0000000   6.0000000   1.0000000   1.0000000   6.0000000

  Atom        31          32          33          34          35          36          37          38          39          40
 IAtWgt=           1           1           1          12           1           1           1          16          14          14
 AtmWgt=   1.0078250   1.0078250   1.0078250  12.0000000   1.0078250   1.0078250   1.0078250  15.9949146  14.0030740  14.0030740
 NucSpn=           1           1           1           0           1           1           1           0           2           2
 AtZEff=   1.0000000   1.0000000   1.0000000   3.6000000   1.0000000   1.0000000   1.0000000   5.6000000   4.5500000   4.5500000
 NQMom=    0.0000000   0.0000000   0.0000000   0.0000000   0.0000000   0.0000000   0.0000000   0.0000000   2.0440000   2.0440000
 NMagM=    2.7928460   2.7928460   2.7928460   0.0000000   2.7928460   2.7928460   2.7928460   0.0000000   0.4037610   0.4037610
 AtZNuc=   1.0000000   1.0000000   1.0000000   6.0000000   1.0000000   1.0000000   1.0000000   8.0000000   7.0000000   7.0000000

  Atom        41          42          43          44          45          46          47          48          49          50
 IAtWgt=           1          14           1          12          14          14          12          12          12          12
 AtmWgt=   1.0078250  14.0030740   1.0078250  12.0000000  14.0030740  14.0030740  12.0000000  12.0000000  12.0000000  12.0000000
 NucSpn=           1           2           1           0           2           2           0           0           0           0
 AtZEff=   1.0000000   4.5500000   1.0000000   3.6000000   4.5500000   4.5500000   3.6000000   3.6000000   3.6000000   3.6000000
 NQMom=    0.0000000   2.0440000   0.0000000   0.0000000   2.0440000   2.0440000   0.0000000   0.0000000   0.0000000   0.0000000
 NMagM=    2.7928460   0.4037610   2.7928460   0.0000000   0.4037610   0.4037610   0.0000000   0.0000000   0.0000000   0.0000000
 AtZNuc=   1.0000000   7.0000000   1.0000000   6.0000000   7.0000000   7.0000000   6.0000000   6.0000000   6.0000000   6.0000000

  Atom        51          52          53          54          55          56          57          58          59          60
 IAtWgt=          12          12           1           1           1           1          12           1          14          12
 AtmWgt=  12.0000000  12.0000000   1.0078250   1.0078250   1.0078250   1.0078250  12.0000000   1.0078250  14.0030740  12.0000000
 NucSpn=           0           0           1           1           1           1           0           1           2           0
 AtZEff=   3.6000000   3.6000000   1.0000000   1.0000000   1.0000000   1.0000000   3.6000000   1.0000000   4.5500000   3.6000000
 NQMom=    0.0000000   0.0000000   0.0000000   0.0000000   0.0000000   0.0000000   0.0000000   0.0000000   2.0440000   0.0000000
 NMagM=    0.0000000   0.0000000   2.7928460   2.7928460   2.7928460   2.7928460   0.0000000   2.7928460   0.4037610   0.0000000
 AtZNuc=   6.0000000   6.0000000   1.0000000   1.0000000   1.0000000   1.0000000   6.0000000   1.0000000   7.0000000   6.0000000

  Atom        61          62          63          64          65          66          67          68          69          70
 IAtWgt=          12          12           1          12           1           1          12           1           1          12
 AtmWgt=  12.0000000  12.0000000   1.0078250  12.0000000   1.0078250   1.0078250  12.0000000   1.0078250   1.0078250  12.0000000
 NucSpn=           0           0           1           0           1           1           0           1           1           0
 AtZEff=   3.6000000   3.6000000   1.0000000   3.6000000   1.0000000   1.0000000   3.6000000   1.0000000   1.0000000   3.6000000
 NQMom=    0.0000000   0.0000000   0.0000000   0.0000000   0.0000000   0.0000000   0.0000000   0.0000000   0.0000000   0.0000000
 NMagM=    0.0000000   0.0000000   2.7928460   0.0000000   2.7928460   2.7928460   0.0000000   2.7928460   2.7928460   0.0000000
 AtZNuc=   6.0000000   6.0000000   1.0000000   6.0000000   1.0000000   1.0000000   6.0000000   1.0000000   1.0000000   6.0000000

  Atom        71          72          73          74          75          76          77
 IAtWgt=           1           1           1           1           1           1           1
 AtmWgt=   1.0078250   1.0078250   1.0078250   1.0078250   1.0078250   1.0078250   1.0078250
 NucSpn=           1           1           1           1           1           1           1
 AtZEff=   1.0000000   1.0000000   1.0000000   1.0000000   1.0000000   1.0000000   1.0000000
 NQMom=    0.0000000   0.0000000   0.0000000   0.0000000   0.0000000   0.0000000   0.0000000
 NMagM=    2.7928460   2.7928460   2.7928460   2.7928460   2.7928460   2.7928460   2.7928460
 AtZNuc=   1.0000000   1.0000000   1.0000000   1.0000000   1.0000000   1.0000000   1.0000000
 Leave Link  101 at Sun Dec 16 14:43:39 2018, MaxMem=  1342177280 cpu:               5.3 elap:               0.4
 (Enter /gpfs/apps/hpc/Apps/Restricted/Gaussian/Rev_A.03/g16/l103.exe)

 GradGradGradGradGradGradGradGradGradGradGradGradGradGradGradGradGradGrad
 Berny optimization.
 Initialization pass.
                           ----------------------------
                           !    Initial Parameters    !
                           ! (Angstroms and Degrees)  !
 --------------------------                            --------------------------
 ! Name  Definition              Value          Derivative Info.                !
 --------------------------------------------------------------------------------
 ! R1    R(1,2)                  1.4147         estimate D2E/DX2                !
 ! R2    R(1,6)                  1.4037         estimate D2E/DX2                !
 ! R3    R(1,42)                 1.3727         estimate D2E/DX2                !
 ! R4    R(2,3)                  1.4005         estimate D2E/DX2                !
 ! R5    R(2,21)                 1.3859         estimate D2E/DX2                !
 ! R6    R(3,4)                  1.3927         estimate D2E/DX2                !
 ! R7    R(3,8)                  1.0829         estimate D2E/DX2                !
 ! R8    R(4,5)                  1.4058         estimate D2E/DX2                !
 ! R9    R(4,9)                  1.0835         estimate D2E/DX2                !
 ! R10   R(5,6)                  1.3996         estimate D2E/DX2                !
 ! R11   R(5,10)                 1.0837         estimate D2E/DX2                !
 ! R12   R(6,44)                 1.4533         estimate D2E/DX2                !
 ! R13   R(7,16)                 1.4522         estimate D2E/DX2                !
 ! R14   R(7,21)                 1.3318         estimate D2E/DX2                !
 ! R15   R(7,42)                 1.37           estimate D2E/DX2                !
 ! R16   R(11,12)                1.4055         estimate D2E/DX2                !
 ! R17   R(11,16)                1.4033         estimate D2E/DX2                !
 ! R18   R(11,39)                1.3797         estimate D2E/DX2                !
 ! R19   R(12,13)                1.3952         estimate D2E/DX2                !
 ! R20   R(12,40)                1.3825         estimate D2E/DX2                !
 ! R21   R(13,14)                1.3913         estimate D2E/DX2                !
 ! R22   R(13,18)                1.0819         estimate D2E/DX2                !
 ! R23   R(14,15)                1.4069         estimate D2E/DX2                !
 ! R24   R(14,19)                1.0826         estimate D2E/DX2                !
 ! R25   R(15,16)                1.3976         estimate D2E/DX2                !
 ! R26   R(15,20)                1.0826         estimate D2E/DX2                !
 ! R27   R(17,23)                1.4417         estimate D2E/DX2                !
 ! R28   R(17,39)                1.3506         estimate D2E/DX2                !
 ! R29   R(17,40)                1.3474         estimate D2E/DX2                !
 ! R30   R(22,23)                1.4687         estimate D2E/DX2                !
 ! R31   R(22,27)                1.4616         estimate D2E/DX2                !
 ! R32   R(22,38)                1.2557         estimate D2E/DX2                !
 ! R33   R(23,24)                1.3826         estimate D2E/DX2                !
 ! R34   R(24,25)                1.4099         estimate D2E/DX2                !
 ! R35   R(24,28)                1.0842         estimate D2E/DX2                !
 ! R36   R(25,26)                1.4152         estimate D2E/DX2                !
 ! R37   R(25,30)                1.4955         estimate D2E/DX2                !
 ! R38   R(26,27)                1.3754         estimate D2E/DX2                !
 ! R39   R(26,29)                1.0848         estimate D2E/DX2                !
 ! R40   R(27,34)                1.4936         estimate D2E/DX2                !
 ! R41   R(30,31)                1.0905         estimate D2E/DX2                !
 ! R42   R(30,32)                1.0966         estimate D2E/DX2                !
 ! R43   R(30,33)                1.0916         estimate D2E/DX2                !
 ! R44   R(34,35)                1.0944         estimate D2E/DX2                !
 ! R45   R(34,36)                1.0936         estimate D2E/DX2                !
 ! R46   R(34,37)                1.0894         estimate D2E/DX2                !
 ! R47   R(39,41)                1.0198         estimate D2E/DX2                !
 ! R48   R(40,77)                1.0207         estimate D2E/DX2                !
 ! R49   R(42,43)                1.0147         estimate D2E/DX2                !
 ! R50   R(44,45)                1.3323         estimate D2E/DX2                !
 ! R51   R(44,46)                1.3735         estimate D2E/DX2                !
 ! R52   R(45,51)                1.387          estimate D2E/DX2                !
 ! R53   R(46,52)                1.3721         estimate D2E/DX2                !
 ! R54   R(46,56)                1.0139         estimate D2E/DX2                !
 ! R55   R(47,48)                1.3996         estimate D2E/DX2                !
 ! R56   R(47,52)                1.403          estimate D2E/DX2                !
 ! R57   R(47,57)                1.4615         estimate D2E/DX2                !
 ! R58   R(48,49)                1.4062         estimate D2E/DX2                !
 ! R59   R(48,53)                1.0848         estimate D2E/DX2                !
 ! R60   R(49,50)                1.3938         estimate D2E/DX2                !
 ! R61   R(49,54)                1.0835         estimate D2E/DX2                !
 ! R62   R(50,51)                1.4012         estimate D2E/DX2                !
 ! R63   R(50,55)                1.0834         estimate D2E/DX2                !
 ! R64   R(51,52)                1.4136         estimate D2E/DX2                !
 ! R65   R(57,58)                1.0931         estimate D2E/DX2                !
 ! R66   R(57,59)                1.281          estimate D2E/DX2                !
 ! R67   R(59,60)                1.4634         estimate D2E/DX2                !
 ! R68   R(60,61)                1.5328         estimate D2E/DX2                !
 ! R69   R(60,62)                1.5379         estimate D2E/DX2                !
 ! R70   R(60,63)                1.0999         estimate D2E/DX2                !
 ! R71   R(61,64)                1.5329         estimate D2E/DX2                !
 ! R72   R(61,65)                1.0969         estimate D2E/DX2                !
 ! R73   R(61,66)                1.0945         estimate D2E/DX2                !
 ! R74   R(62,67)                1.532          estimate D2E/DX2                !
 ! R75   R(62,68)                1.0971         estimate D2E/DX2                !
 ! R76   R(62,69)                1.0943         estimate D2E/DX2                !
 ! R77   R(64,70)                1.5324         estimate D2E/DX2                !
 ! R78   R(64,71)                1.0944         estimate D2E/DX2                !
 ! R79   R(64,72)                1.0973         estimate D2E/DX2                !
 ! R80   R(67,70)                1.5327         estimate D2E/DX2                !
 ! R81   R(67,73)                1.0943         estimate D2E/DX2                !
 ! R82   R(67,74)                1.0971         estimate D2E/DX2                !
 ! R83   R(70,75)                1.0945         estimate D2E/DX2                !
 ! R84   R(70,76)                1.0972         estimate D2E/DX2                !
 ! A1    A(2,1,6)              123.1158         estimate D2E/DX2                !
 ! A2    A(2,1,42)             105.6687         estimate D2E/DX2                !
 ! A3    A(6,1,42)             131.2138         estimate D2E/DX2                !
 ! A4    A(1,2,3)              119.7511         estimate D2E/DX2                !
 ! A5    A(1,2,21)             109.3049         estimate D2E/DX2                !
 ! A6    A(3,2,21)             130.943          estimate D2E/DX2                !
 ! A7    A(2,3,4)              117.6813         estimate D2E/DX2                !
 ! A8    A(2,3,8)              120.9117         estimate D2E/DX2                !
 ! A9    A(4,3,8)              121.4069         estimate D2E/DX2                !
 ! A10   A(3,4,5)              121.9738         estimate D2E/DX2                !
 ! A11   A(3,4,9)              119.3439         estimate D2E/DX2                !
 ! A12   A(5,4,9)              118.6822         estimate D2E/DX2                !
 ! A13   A(4,5,6)              121.6085         estimate D2E/DX2                !
 ! A14   A(4,5,10)             119.0588         estimate D2E/DX2                !
 ! A15   A(6,5,10)             119.3295         estimate D2E/DX2                !
 ! A16   A(1,6,5)              115.8685         estimate D2E/DX2                !
 ! A17   A(1,6,44)             119.8727         estimate D2E/DX2                !
 ! A18   A(5,6,44)             124.258          estimate D2E/DX2                !
 ! A19   A(16,7,21)            123.3966         estimate D2E/DX2                !
 ! A20   A(16,7,42)            124.3246         estimate D2E/DX2                !
 ! A21   A(21,7,42)            112.2755         estimate D2E/DX2                !
 ! A22   A(12,11,16)           122.3009         estimate D2E/DX2                !
 ! A23   A(12,11,39)           106.9379         estimate D2E/DX2                !
 ! A24   A(16,11,39)           130.7599         estimate D2E/DX2                !
 ! A25   A(11,12,13)           121.6108         estimate D2E/DX2                !
 ! A26   A(11,12,40)           105.6417         estimate D2E/DX2                !
 ! A27   A(13,12,40)           132.7463         estimate D2E/DX2                !
 ! A28   A(12,13,14)           116.291          estimate D2E/DX2                !
 ! A29   A(12,13,18)           121.6019         estimate D2E/DX2                !
 ! A30   A(14,13,18)           122.1071         estimate D2E/DX2                !
 ! A31   A(13,14,15)           122.2829         estimate D2E/DX2                !
 ! A32   A(13,14,19)           119.168          estimate D2E/DX2                !
 ! A33   A(15,14,19)           118.5491         estimate D2E/DX2                !
 ! A34   A(14,15,16)           121.8116         estimate D2E/DX2                !
 ! A35   A(14,15,20)           118.8001         estimate D2E/DX2                !
 ! A36   A(16,15,20)           119.3881         estimate D2E/DX2                !
 ! A37   A(7,16,11)            119.4711         estimate D2E/DX2                !
 ! A38   A(7,16,15)            124.8264         estimate D2E/DX2                !
 ! A39   A(11,16,15)           115.7019         estimate D2E/DX2                !
 ! A40   A(23,17,39)           127.4796         estimate D2E/DX2                !
 ! A41   A(23,17,40)           124.6932         estimate D2E/DX2                !
 ! A42   A(39,17,40)           107.8227         estimate D2E/DX2                !
 ! A43   A(2,21,7)             105.4519         estimate D2E/DX2                !
 ! A44   A(23,22,27)           117.5981         estimate D2E/DX2                !
 ! A45   A(23,22,38)           122.1021         estimate D2E/DX2                !
 ! A46   A(27,22,38)           120.2998         estimate D2E/DX2                !
 ! A47   A(17,23,22)           118.768          estimate D2E/DX2                !
 ! A48   A(17,23,24)           121.0627         estimate D2E/DX2                !
 ! A49   A(22,23,24)           120.1693         estimate D2E/DX2                !
 ! A50   A(23,24,25)           121.1861         estimate D2E/DX2                !
 ! A51   A(23,24,28)           120.1159         estimate D2E/DX2                !
 ! A52   A(25,24,28)           118.6971         estimate D2E/DX2                !
 ! A53   A(24,25,26)           119.28           estimate D2E/DX2                !
 ! A54   A(24,25,30)           120.5354         estimate D2E/DX2                !
 ! A55   A(26,25,30)           120.1728         estimate D2E/DX2                !
 ! A56   A(25,26,27)           122.3952         estimate D2E/DX2                !
 ! A57   A(25,26,29)           118.3662         estimate D2E/DX2                !
 ! A58   A(27,26,29)           119.2385         estimate D2E/DX2                !
 ! A59   A(22,27,26)           119.3682         estimate D2E/DX2                !
 ! A60   A(22,27,34)           117.613          estimate D2E/DX2                !
 ! A61   A(26,27,34)           123.0184         estimate D2E/DX2                !
 ! A62   A(25,30,31)           111.4074         estimate D2E/DX2                !
 ! A63   A(25,30,32)           109.7716         estimate D2E/DX2                !
 ! A64   A(25,30,33)           110.9459         estimate D2E/DX2                !
 ! A65   A(31,30,32)           107.8062         estimate D2E/DX2                !
 ! A66   A(31,30,33)           109.5736         estimate D2E/DX2                !
 ! A67   A(32,30,33)           107.1955         estimate D2E/DX2                !
 ! A68   A(27,34,35)           110.5663         estimate D2E/DX2                !
 ! A69   A(27,34,36)           110.5543         estimate D2E/DX2                !
 ! A70   A(27,34,37)           110.9045         estimate D2E/DX2                !
 ! A71   A(35,34,36)           106.443          estimate D2E/DX2                !
 ! A72   A(35,34,37)           109.0534         estimate D2E/DX2                !
 ! A73   A(36,34,37)           109.2023         estimate D2E/DX2                !
 ! A74   A(11,39,17)           109.4009         estimate D2E/DX2                !
 ! A75   A(11,39,41)           121.0257         estimate D2E/DX2                !
 ! A76   A(17,39,41)           129.5732         estimate D2E/DX2                !
 ! A77   A(12,40,17)           110.1963         estimate D2E/DX2                !
 ! A78   A(12,40,77)           130.6115         estimate D2E/DX2                !
 ! A79   A(17,40,77)           119.1891         estimate D2E/DX2                !
 ! A80   A(1,42,7)             107.2986         estimate D2E/DX2                !
 ! A81   A(1,42,43)            122.3693         estimate D2E/DX2                !
 ! A82   A(7,42,43)            130.322          estimate D2E/DX2                !
 ! A83   A(6,44,45)            123.9228         estimate D2E/DX2                !
 ! A84   A(6,44,46)            124.0258         estimate D2E/DX2                !
 ! A85   A(45,44,46)           112.0512         estimate D2E/DX2                !
 ! A86   A(44,45,51)           105.5009         estimate D2E/DX2                !
 ! A87   A(44,46,52)           107.4203         estimate D2E/DX2                !
 ! A88   A(44,46,56)           130.5116         estimate D2E/DX2                !
 ! A89   A(52,46,56)           122.0055         estimate D2E/DX2                !
 ! A90   A(48,47,52)           115.7778         estimate D2E/DX2                !
 ! A91   A(48,47,57)           122.2384         estimate D2E/DX2                !
 ! A92   A(52,47,57)           121.9744         estimate D2E/DX2                !
 ! A93   A(47,48,49)           121.822          estimate D2E/DX2                !
 ! A94   A(47,48,53)           118.6805         estimate D2E/DX2                !
 ! A95   A(49,48,53)           119.497          estimate D2E/DX2                !
 ! A96   A(48,49,50)           121.6508         estimate D2E/DX2                !
 ! A97   A(48,49,54)           118.9648         estimate D2E/DX2                !
 ! A98   A(50,49,54)           119.3841         estimate D2E/DX2                !
 ! A99   A(49,50,51)           117.8859         estimate D2E/DX2                !
 ! A100  A(49,50,55)           121.3395         estimate D2E/DX2                !
 ! A101  A(51,50,55)           120.7733         estimate D2E/DX2                !
 ! A102  A(45,51,50)           130.9668         estimate D2E/DX2                !
 ! A103  A(45,51,52)           109.3972         estimate D2E/DX2                !
 ! A104  A(50,51,52)           119.6356         estimate D2E/DX2                !
 ! A105  A(46,52,47)           131.1447         estimate D2E/DX2                !
 ! A106  A(46,52,51)           105.6287         estimate D2E/DX2                !
 ! A107  A(47,52,51)           123.2246         estimate D2E/DX2                !
 ! A108  A(47,57,58)           115.4384         estimate D2E/DX2                !
 ! A109  A(47,57,59)           121.4893         estimate D2E/DX2                !
 ! A110  A(58,57,59)           123.0692         estimate D2E/DX2                !
 ! A111  A(57,59,60)           120.273          estimate D2E/DX2                !
 ! A112  A(59,60,61)           117.2215         estimate D2E/DX2                !
 ! A113  A(59,60,62)           108.402          estimate D2E/DX2                !
 ! A114  A(59,60,63)           105.3757         estimate D2E/DX2                !
 ! A115  A(61,60,62)           110.6748         estimate D2E/DX2                !
 ! A116  A(61,60,63)           107.7457         estimate D2E/DX2                !
 ! A117  A(62,60,63)           106.8298         estimate D2E/DX2                !
 ! A118  A(60,61,64)           111.0006         estimate D2E/DX2                !
 ! A119  A(60,61,65)           109.0954         estimate D2E/DX2                !
 ! A120  A(60,61,66)           110.2029         estimate D2E/DX2                !
 ! A121  A(64,61,65)           109.3759         estimate D2E/DX2                !
 ! A122  A(64,61,66)           110.1162         estimate D2E/DX2                !
 ! A123  A(65,61,66)           106.954          estimate D2E/DX2                !
 ! A124  A(60,62,67)           111.3557         estimate D2E/DX2                !
 ! A125  A(60,62,68)           108.2767         estimate D2E/DX2                !
 ! A126  A(60,62,69)           109.145          estimate D2E/DX2                !
 ! A127  A(67,62,68)           109.8228         estimate D2E/DX2                !
 ! A128  A(67,62,69)           110.9701         estimate D2E/DX2                !
 ! A129  A(68,62,69)           107.1412         estimate D2E/DX2                !
 ! A130  A(61,64,70)           111.5656         estimate D2E/DX2                !
 ! A131  A(61,64,71)           109.7528         estimate D2E/DX2                !
 ! A132  A(61,64,72)           109.1741         estimate D2E/DX2                !
 ! A133  A(70,64,71)           110.4157         estimate D2E/DX2                !
 ! A134  A(70,64,72)           109.1287         estimate D2E/DX2                !
 ! A135  A(71,64,72)           106.6713         estimate D2E/DX2                !
 ! A136  A(62,67,70)           111.4717         estimate D2E/DX2                !
 ! A137  A(62,67,73)           110.0014         estimate D2E/DX2                !
 ! A138  A(62,67,74)           109.0229         estimate D2E/DX2                !
 ! A139  A(70,67,73)           110.3742         estimate D2E/DX2                !
 ! A140  A(70,67,74)           109.051          estimate D2E/DX2                !
 ! A141  A(73,67,74)           106.7916         estimate D2E/DX2                !
 ! A142  A(64,70,67)           111.1264         estimate D2E/DX2                !
 ! A143  A(64,70,75)           110.1673         estimate D2E/DX2                !
 ! A144  A(64,70,76)           109.0745         estimate D2E/DX2                !
 ! A145  A(67,70,75)           110.1889         estimate D2E/DX2                !
 ! A146  A(67,70,76)           109.1998         estimate D2E/DX2                !
 ! A147  A(75,70,76)           106.9812         estimate D2E/DX2                !
 ! D1    D(6,1,2,3)              0.2797         estimate D2E/DX2                !
 ! D2    D(6,1,2,21)          -179.3834         estimate D2E/DX2                !
 ! D3    D(42,1,2,3)           179.8532         estimate D2E/DX2                !
 ! D4    D(42,1,2,21)            0.1902         estimate D2E/DX2                !
 ! D5    D(2,1,6,5)             -0.328          estimate D2E/DX2                !
 ! D6    D(2,1,6,44)           179.3511         estimate D2E/DX2                !
 ! D7    D(42,1,6,5)          -179.7822         estimate D2E/DX2                !
 ! D8    D(42,1,6,44)           -0.1031         estimate D2E/DX2                !
 ! D9    D(2,1,42,7)            -0.203          estimate D2E/DX2                !
 ! D10   D(2,1,42,43)          178.751          estimate D2E/DX2                !
 ! D11   D(6,1,42,7)           179.3222         estimate D2E/DX2                !
 ! D12   D(6,1,42,43)           -1.7238         estimate D2E/DX2                !
 ! D13   D(1,2,3,4)              0.0006         estimate D2E/DX2                !
 ! D14   D(1,2,3,8)            179.918          estimate D2E/DX2                !
 ! D15   D(21,2,3,4)           179.5797         estimate D2E/DX2                !
 ! D16   D(21,2,3,8)            -0.5029         estimate D2E/DX2                !
 ! D17   D(1,2,21,7)            -0.0994         estimate D2E/DX2                !
 ! D18   D(3,2,21,7)          -179.7121         estimate D2E/DX2                !
 ! D19   D(2,3,4,5)             -0.212          estimate D2E/DX2                !
 ! D20   D(2,3,4,9)            179.7087         estimate D2E/DX2                !
 ! D21   D(8,3,4,5)            179.871          estimate D2E/DX2                !
 ! D22   D(8,3,4,9)             -0.2083         estimate D2E/DX2                !
 ! D23   D(3,4,5,6)              0.1578         estimate D2E/DX2                !
 ! D24   D(3,4,5,10)           179.4984         estimate D2E/DX2                !
 ! D25   D(9,4,5,6)           -179.7633         estimate D2E/DX2                !
 ! D26   D(9,4,5,10)            -0.4227         estimate D2E/DX2                !
 ! D27   D(4,5,6,1)              0.1108         estimate D2E/DX2                !
 ! D28   D(4,5,6,44)          -179.5524         estimate D2E/DX2                !
 ! D29   D(10,5,6,1)          -179.228          estimate D2E/DX2                !
 ! D30   D(10,5,6,44)            1.1087         estimate D2E/DX2                !
 ! D31   D(1,6,44,45)            5.8216         estimate D2E/DX2                !
 ! D32   D(1,6,44,46)         -174.339          estimate D2E/DX2                !
 ! D33   D(5,6,44,45)         -174.5278         estimate D2E/DX2                !
 ! D34   D(5,6,44,46)            5.3116         estimate D2E/DX2                !
 ! D35   D(21,7,16,11)           0.501          estimate D2E/DX2                !
 ! D36   D(21,7,16,15)        -179.235          estimate D2E/DX2                !
 ! D37   D(42,7,16,11)         179.7869         estimate D2E/DX2                !
 ! D38   D(42,7,16,15)           0.0509         estimate D2E/DX2                !
 ! D39   D(16,7,21,2)          179.3309         estimate D2E/DX2                !
 ! D40   D(42,7,21,2)           -0.0319         estimate D2E/DX2                !
 ! D41   D(16,7,42,1)         -179.2024         estimate D2E/DX2                !
 ! D42   D(16,7,42,43)           1.9564         estimate D2E/DX2                !
 ! D43   D(21,7,42,1)            0.1534         estimate D2E/DX2                !
 ! D44   D(21,7,42,43)        -178.6878         estimate D2E/DX2                !
 ! D45   D(16,11,12,13)         -0.0396         estimate D2E/DX2                !
 ! D46   D(16,11,12,40)       -179.6979         estimate D2E/DX2                !
 ! D47   D(39,11,12,13)        179.5947         estimate D2E/DX2                !
 ! D48   D(39,11,12,40)         -0.0636         estimate D2E/DX2                !
 ! D49   D(12,11,16,7)        -179.4894         estimate D2E/DX2                !
 ! D50   D(12,11,16,15)          0.2701         estimate D2E/DX2                !
 ! D51   D(39,11,16,7)           0.9725         estimate D2E/DX2                !
 ! D52   D(39,11,16,15)       -179.268          estimate D2E/DX2                !
 ! D53   D(12,11,39,17)         -0.0852         estimate D2E/DX2                !
 ! D54   D(12,11,39,41)        179.7572         estimate D2E/DX2                !
 ! D55   D(16,11,39,17)        179.5067         estimate D2E/DX2                !
 ! D56   D(16,11,39,41)         -0.6509         estimate D2E/DX2                !
 ! D57   D(11,12,13,14)         -0.1365         estimate D2E/DX2                !
 ! D58   D(11,12,13,18)        179.8279         estimate D2E/DX2                !
 ! D59   D(40,12,13,14)        179.4154         estimate D2E/DX2                !
 ! D60   D(40,12,13,18)         -0.6202         estimate D2E/DX2                !
 ! D61   D(11,12,40,17)          0.1924         estimate D2E/DX2                !
 ! D62   D(11,12,40,77)        179.5297         estimate D2E/DX2                !
 ! D63   D(13,12,40,17)       -179.4113         estimate D2E/DX2                !
 ! D64   D(13,12,40,77)         -0.074          estimate D2E/DX2                !
 ! D65   D(12,13,14,15)          0.0738         estimate D2E/DX2                !
 ! D66   D(12,13,14,19)        179.9897         estimate D2E/DX2                !
 ! D67   D(18,13,14,15)       -179.8904         estimate D2E/DX2                !
 ! D68   D(18,13,14,19)          0.0255         estimate D2E/DX2                !
 ! D69   D(13,14,15,16)          0.1698         estimate D2E/DX2                !
 ! D70   D(13,14,15,20)       -179.9686         estimate D2E/DX2                !
 ! D71   D(19,14,15,16)       -179.7465         estimate D2E/DX2                !
 ! D72   D(19,14,15,20)          0.115          estimate D2E/DX2                !
 ! D73   D(14,15,16,7)         179.413          estimate D2E/DX2                !
 ! D74   D(14,15,16,11)         -0.3319         estimate D2E/DX2                !
 ! D75   D(20,15,16,7)          -0.4477         estimate D2E/DX2                !
 ! D76   D(20,15,16,11)        179.8074         estimate D2E/DX2                !
 ! D77   D(39,17,23,22)        178.998          estimate D2E/DX2                !
 ! D78   D(39,17,23,24)         -0.9389         estimate D2E/DX2                !
 ! D79   D(40,17,23,22)         -0.1278         estimate D2E/DX2                !
 ! D80   D(40,17,23,24)        179.9352         estimate D2E/DX2                !
 ! D81   D(23,17,39,11)       -179.0403         estimate D2E/DX2                !
 ! D82   D(23,17,39,41)          1.1349         estimate D2E/DX2                !
 ! D83   D(40,17,39,11)          0.2047         estimate D2E/DX2                !
 ! D84   D(40,17,39,41)       -179.62           estimate D2E/DX2                !
 ! D85   D(23,17,40,12)        179.0229         estimate D2E/DX2                !
 ! D86   D(23,17,40,77)         -0.4008         estimate D2E/DX2                !
 ! D87   D(39,17,40,12)         -0.2484         estimate D2E/DX2                !
 ! D88   D(39,17,40,77)       -179.6721         estimate D2E/DX2                !
 ! D89   D(27,22,23,17)       -179.4313         estimate D2E/DX2                !
 ! D90   D(27,22,23,24)          0.5062         estimate D2E/DX2                !
 ! D91   D(38,22,23,17)          0.5986         estimate D2E/DX2                !
 ! D92   D(38,22,23,24)       -179.4639         estimate D2E/DX2                !
 ! D93   D(23,22,27,26)         -0.5071         estimate D2E/DX2                !
 ! D94   D(23,22,27,34)        179.7242         estimate D2E/DX2                !
 ! D95   D(38,22,27,26)        179.4635         estimate D2E/DX2                !
 ! D96   D(38,22,27,34)         -0.3052         estimate D2E/DX2                !
 ! D97   D(17,23,24,25)        179.4859         estimate D2E/DX2                !
 ! D98   D(17,23,24,28)         -0.1598         estimate D2E/DX2                !
 ! D99   D(22,23,24,25)         -0.4501         estimate D2E/DX2                !
 ! D100  D(22,23,24,28)        179.9041         estimate D2E/DX2                !
 ! D101  D(23,24,25,26)          0.3772         estimate D2E/DX2                !
 ! D102  D(23,24,25,30)       -178.3741         estimate D2E/DX2                !
 ! D103  D(28,24,25,26)       -179.9721         estimate D2E/DX2                !
 ! D104  D(28,24,25,30)          1.2765         estimate D2E/DX2                !
 ! D105  D(24,25,26,27)         -0.3875         estimate D2E/DX2                !
 ! D106  D(24,25,26,29)        179.6141         estimate D2E/DX2                !
 ! D107  D(30,25,26,27)        178.3685         estimate D2E/DX2                !
 ! D108  D(30,25,26,29)         -1.6299         estimate D2E/DX2                !
 ! D109  D(24,25,30,31)        -23.2234         estimate D2E/DX2                !
 ! D110  D(24,25,30,32)         96.1147         estimate D2E/DX2                !
 ! D111  D(24,25,30,33)       -145.5926         estimate D2E/DX2                !
 ! D112  D(26,25,30,31)        158.0365         estimate D2E/DX2                !
 ! D113  D(26,25,30,32)        -82.6255         estimate D2E/DX2                !
 ! D114  D(26,25,30,33)         35.6672         estimate D2E/DX2                !
 ! D115  D(25,26,27,22)          0.4616         estimate D2E/DX2                !
 ! D116  D(25,26,27,34)       -179.7828         estimate D2E/DX2                !
 ! D117  D(29,26,27,22)       -179.5399         estimate D2E/DX2                !
 ! D118  D(29,26,27,34)          0.2156         estimate D2E/DX2                !
 ! D119  D(22,27,34,35)        -61.7135         estimate D2E/DX2                !
 ! D120  D(22,27,34,36)         55.9044         estimate D2E/DX2                !
 ! D121  D(22,27,34,37)        177.1854         estimate D2E/DX2                !
 ! D122  D(26,27,34,35)        118.5269         estimate D2E/DX2                !
 ! D123  D(26,27,34,36)       -123.8552         estimate D2E/DX2                !
 ! D124  D(26,27,34,37)         -2.5742         estimate D2E/DX2                !
 ! D125  D(6,44,45,51)         179.6817         estimate D2E/DX2                !
 ! D126  D(46,44,45,51)         -0.1746         estimate D2E/DX2                !
 ! D127  D(6,44,46,52)        -179.9356         estimate D2E/DX2                !
 ! D128  D(6,44,46,56)           2.9594         estimate D2E/DX2                !
 ! D129  D(45,44,46,52)         -0.0794         estimate D2E/DX2                !
 ! D130  D(45,44,46,56)       -177.1844         estimate D2E/DX2                !
 ! D131  D(44,45,51,50)       -179.8488         estimate D2E/DX2                !
 ! D132  D(44,45,51,52)          0.3589         estimate D2E/DX2                !
 ! D133  D(44,46,52,47)       -179.2003         estimate D2E/DX2                !
 ! D134  D(44,46,52,51)          0.2927         estimate D2E/DX2                !
 ! D135  D(56,46,52,47)         -1.7956         estimate D2E/DX2                !
 ! D136  D(56,46,52,51)        177.6974         estimate D2E/DX2                !
 ! D137  D(52,47,48,49)         -0.2071         estimate D2E/DX2                !
 ! D138  D(52,47,48,53)       -179.9411         estimate D2E/DX2                !
 ! D139  D(57,47,48,49)        178.6956         estimate D2E/DX2                !
 ! D140  D(57,47,48,53)         -1.0385         estimate D2E/DX2                !
 ! D141  D(48,47,52,46)       -179.9614         estimate D2E/DX2                !
 ! D142  D(48,47,52,51)          0.6222         estimate D2E/DX2                !
 ! D143  D(57,47,52,46)          1.1327         estimate D2E/DX2                !
 ! D144  D(57,47,52,51)       -178.2836         estimate D2E/DX2                !
 ! D145  D(48,47,57,58)          2.3768         estimate D2E/DX2                !
 ! D146  D(48,47,57,59)       -177.0017         estimate D2E/DX2                !
 ! D147  D(52,47,57,58)       -178.7881         estimate D2E/DX2                !
 ! D148  D(52,47,57,59)          1.8334         estimate D2E/DX2                !
 ! D149  D(47,48,49,50)         -0.1461         estimate D2E/DX2                !
 ! D150  D(47,48,49,54)       -179.9599         estimate D2E/DX2                !
 ! D151  D(53,48,49,50)        179.5859         estimate D2E/DX2                !
 ! D152  D(53,48,49,54)         -0.2279         estimate D2E/DX2                !
 ! D153  D(48,49,50,51)          0.102          estimate D2E/DX2                !
 ! D154  D(48,49,50,55)       -179.4779         estimate D2E/DX2                !
 ! D155  D(54,49,50,51)        179.9151         estimate D2E/DX2                !
 ! D156  D(54,49,50,55)          0.3352         estimate D2E/DX2                !
 ! D157  D(49,50,51,45)       -179.4814         estimate D2E/DX2                !
 ! D158  D(49,50,51,52)          0.2932         estimate D2E/DX2                !
 ! D159  D(55,50,51,45)          0.101          estimate D2E/DX2                !
 ! D160  D(55,50,51,52)        179.8756         estimate D2E/DX2                !
 ! D161  D(45,51,52,46)         -0.4078         estimate D2E/DX2                !
 ! D162  D(45,51,52,47)        179.1358         estimate D2E/DX2                !
 ! D163  D(50,51,52,46)        179.7726         estimate D2E/DX2                !
 ! D164  D(50,51,52,47)         -0.6838         estimate D2E/DX2                !
 ! D165  D(47,57,59,60)        179.6361         estimate D2E/DX2                !
 ! D166  D(58,57,59,60)          0.3059         estimate D2E/DX2                !
 ! D167  D(57,59,60,61)         -0.6023         estimate D2E/DX2                !
 ! D168  D(57,59,60,62)        125.5246         estimate D2E/DX2                !
 ! D169  D(57,59,60,63)       -120.3995         estimate D2E/DX2                !
 ! D170  D(59,60,61,64)       -178.8882         estimate D2E/DX2                !
 ! D171  D(59,60,61,65)         60.5174         estimate D2E/DX2                !
 ! D172  D(59,60,61,66)        -56.6252         estimate D2E/DX2                !
 ! D173  D(62,60,61,64)         56.1132         estimate D2E/DX2                !
 ! D174  D(62,60,61,65)        -64.4812         estimate D2E/DX2                !
 ! D175  D(62,60,61,66)        178.3762         estimate D2E/DX2                !
 ! D176  D(63,60,61,64)        -60.3539         estimate D2E/DX2                !
 ! D177  D(63,60,61,65)        179.0518         estimate D2E/DX2                !
 ! D178  D(63,60,61,66)         61.9091         estimate D2E/DX2                !
 ! D179  D(59,60,62,67)        174.2293         estimate D2E/DX2                !
 ! D180  D(59,60,62,68)        -64.934          estimate D2E/DX2                !
 ! D181  D(59,60,62,69)         51.3751         estimate D2E/DX2                !
 ! D182  D(61,60,62,67)        -55.9182         estimate D2E/DX2                !
 ! D183  D(61,60,62,68)         64.9186         estimate D2E/DX2                !
 ! D184  D(61,60,62,69)       -178.7723         estimate D2E/DX2                !
 ! D185  D(63,60,62,67)         61.1145         estimate D2E/DX2                !
 ! D186  D(63,60,62,68)       -178.0488         estimate D2E/DX2                !
 ! D187  D(63,60,62,69)        -61.7397         estimate D2E/DX2                !
 ! D188  D(60,61,64,70)        -56.0311         estimate D2E/DX2                !
 ! D189  D(60,61,64,71)       -178.746          estimate D2E/DX2                !
 ! D190  D(60,61,64,72)         64.6651         estimate D2E/DX2                !
 ! D191  D(65,61,64,70)         64.3972         estimate D2E/DX2                !
 ! D192  D(65,61,64,71)        -58.3178         estimate D2E/DX2                !
 ! D193  D(65,61,64,72)       -174.9067         estimate D2E/DX2                !
 ! D194  D(66,61,64,70)       -178.3445         estimate D2E/DX2                !
 ! D195  D(66,61,64,71)         58.9406         estimate D2E/DX2                !
 ! D196  D(66,61,64,72)        -57.6483         estimate D2E/DX2                !
 ! D197  D(60,62,67,70)         55.2892         estimate D2E/DX2                !
 ! D198  D(60,62,67,73)        178.0616         estimate D2E/DX2                !
 ! D199  D(60,62,67,74)        -65.1503         estimate D2E/DX2                !
 ! D200  D(68,62,67,70)        -64.6368         estimate D2E/DX2                !
 ! D201  D(68,62,67,73)         58.1356         estimate D2E/DX2                !
 ! D202  D(68,62,67,74)        174.9236         estimate D2E/DX2                !
 ! D203  D(69,62,67,70)        177.0904         estimate D2E/DX2                !
 ! D204  D(69,62,67,73)        -60.1372         estimate D2E/DX2                !
 ! D205  D(69,62,67,74)         56.6509         estimate D2E/DX2                !
 ! D206  D(61,64,70,67)         55.0247         estimate D2E/DX2                !
 ! D207  D(61,64,70,75)        177.441          estimate D2E/DX2                !
 ! D208  D(61,64,70,76)        -65.4163         estimate D2E/DX2                !
 ! D209  D(71,64,70,67)        177.3596         estimate D2E/DX2                !
 ! D210  D(71,64,70,75)        -60.2241         estimate D2E/DX2                !
 ! D211  D(71,64,70,76)         56.9185         estimate D2E/DX2                !
 ! D212  D(72,64,70,67)        -65.698          estimate D2E/DX2                !
 ! D213  D(72,64,70,75)         56.7183         estimate D2E/DX2                !
 ! D214  D(72,64,70,76)        173.861          estimate D2E/DX2                !
 ! D215  D(62,67,70,64)        -54.5753         estimate D2E/DX2                !
 ! D216  D(62,67,70,75)       -176.979          estimate D2E/DX2                !
 ! D217  D(62,67,70,76)         65.7917         estimate D2E/DX2                !
 ! D218  D(73,67,70,64)       -177.1339         estimate D2E/DX2                !
 ! D219  D(73,67,70,75)         60.4623         estimate D2E/DX2                !
 ! D220  D(73,67,70,76)        -56.767          estimate D2E/DX2                !
 ! D221  D(74,67,70,64)         65.8478         estimate D2E/DX2                !
 ! D222  D(74,67,70,75)        -56.556          estimate D2E/DX2                !
 ! D223  D(74,67,70,76)       -173.7853         estimate D2E/DX2                !
 --------------------------------------------------------------------------------
 Trust Radius=3.00D-01 FncErr=1.00D-07 GrdErr=1.00D-07 EigMax=2.50D+02 EigMin=1.00D-04
 Number of steps in this run=    462 maximum allowed number of steps=    462.
 GradGradGradGradGradGradGradGradGradGradGradGradGradGradGradGradGradGrad

 Leave Link  103 at Sun Dec 16 14:43:39 2018, MaxMem=  1342177280 cpu:               0.5 elap:               0.1
 (Enter /gpfs/apps/hpc/Apps/Restricted/Gaussian/Rev_A.03/g16/l202.exe)
 Symmetry turned off by external request.
 Stoichiometry    C36H33N7O(1+,2)
 Framework group  C1[X(C36H33N7O)]
 Deg. of freedom   225
 Full point group                 C1      NOp   1
                          Input orientation:                          
 ---------------------------------------------------------------------
 Center     Atomic      Atomic             Coordinates (Angstroms)
 Number     Number       Type             X           Y           Z
 ---------------------------------------------------------------------
      1          6           0        1.652069    0.370672    0.928184
      2          6           0        0.544840    1.202621    0.639520
      3          6           0        0.731584    2.583224    0.496123
      4          6           0        2.023661    3.080523    0.647549
      5          6           0        3.114396    2.242758    0.938706
      6          6           0        2.957790    0.860111    1.088740
      7          6           0       -0.201218   -0.822496    0.781715
      8          1           0       -0.102368    3.237272    0.273882
      9          1           0        2.199592    4.143985    0.537506
     10          1           0        4.101303    2.679121    1.038549
     11          6           0       -2.471610   -1.759354    0.555603
     12          6           0       -3.399256   -2.815240    0.567540
     13          6           0       -3.007609   -4.129890    0.822190
     14          6           0       -1.651946   -4.334083    1.059454
     15          6           0       -0.719891   -3.280319    1.047157
     16          6           0       -1.104047   -1.959888    0.798049
     17          6           0       -4.481798   -0.911629    0.101619
     18          1           0       -3.722180   -4.942123    0.834049
     19          1           0       -1.296927   -5.336506    1.262409
     20          1           0        0.321993   -3.503338    1.238682
     21          7           0       -0.600965    0.427558    0.555271
     22          6           0       -6.912304   -0.552223   -0.385254
     23          6           0       -5.556631   -0.009374   -0.228820
     24          6           0       -5.325875    1.343251   -0.398726
     25          6           0       -6.373115    2.226262   -0.732410
     26          6           0       -7.684451    1.717397   -0.887848
     27          6           0       -7.980311    0.383148   -0.732820
     28          1           0       -4.324977    1.743319   -0.281506
     29          1           0       -8.480093    2.410939   -1.138432
     30          6           0       -6.100815    3.680798   -0.948240
     31          1           0       -5.188473    3.994669   -0.439922
     32          1           0       -5.973322    3.879407   -2.019120
     33          1           0       -6.938982    4.289923   -0.604591
     34          6           0       -9.357948   -0.169549   -0.898174
     35          1           0       -9.384682   -0.897451   -1.714961
     36          1           0       -9.667714   -0.704815    0.003741
     37          1           0      -10.073249    0.625295   -1.106589
     38          8           0       -7.164610   -1.772467   -0.229598
     39          7           0       -3.176040   -0.608689    0.267101
     40          7           0       -4.623600   -2.238966    0.284589
     41          1           0       -2.706179    0.294572    0.208696
     42          7           0        1.147440   -0.903361    1.008870
     43          1           0        1.735574   -1.710166    1.189966
     44          6           0        4.041636   -0.057113    1.398466
     45          7           0        3.906402   -1.381932    1.436933
     46          7           0        5.325838    0.338621    1.682731
     47          6           0        7.411154   -0.963701    2.265856
     48          6           0        7.835567   -2.286887    2.433103
     49          6           0        6.958336   -3.373469    2.267801
     50          6           0        5.618604   -3.187247    1.931345
     51          6           0        5.162983   -1.873641    1.757745
     52          6           0        6.061929   -0.794773    1.920046
     53          1           0        8.870147   -2.471762    2.701826
     54          1           0        7.336149   -4.379098    2.409238
     55          1           0        4.945186   -4.027648    1.813424
     56          1           0        5.725633    1.266549    1.767304
     57          6           0        8.307905    0.173467    2.462606
     58          1           0        9.341912   -0.081167    2.709397
     59          7           0        7.890365    1.380288    2.361077
     60          6           0        8.809834    2.499209    2.571310
     61          6           0       10.261350    2.156923    2.925358
     62          6           0        8.753335    3.412815    1.335456
     63          1           0        8.386204    3.071192    3.409789
     64          6           0       11.089025    3.429142    3.140384
     65          1           0       10.701000    1.570320    2.109352
     66          1           0       10.294002    1.530543    3.822260
     67          6           0        9.584392    4.683116    1.542276
     68          1           0        9.138951    2.851940    0.475058
     69          1           0        7.709397    3.658812    1.118444
     70          6           0       11.032831    4.351025    1.917639
     71          1           0       12.125264    3.161902    3.369720
     72          1           0       10.701904    3.967459    4.014645
     73          1           0        9.556794    5.299691    0.638674
     74          1           0        9.133631    5.278426    2.346085
     75          1           0       11.592948    5.270957    2.112569
     76          1           0       11.520025    3.852691    1.070168
     77          1           0       -5.549921   -2.657838    0.193630
 ---------------------------------------------------------------------
 Rotational constants (GHZ):           0.1688011           0.0231782           0.0204516
 Leave Link  202 at Sun Dec 16 14:43:39 2018, MaxMem=  1342177280 cpu:               0.1 elap:               0.0
 (Enter /gpfs/apps/hpc/Apps/Restricted/Gaussian/Rev_A.03/g16/l716.exe)
 Electric field and nuclear coordinate derivatives read from checkpoint file.
 Dipole        =-4.81960065D+00 2.92529469D-01 6.04234642D-01
 Polarizability= 9.66886531D+02-4.42564172D+01 8.89289952D+02
                 1.41684777D+02-8.67058866D+01 2.82229669D+02
 Full mass-weighted force constant matrix:
 Low frequencies ---   -7.7131   -0.0033    0.0010    0.0032    5.2155   11.3141
 Low frequencies ---   18.6969   23.5967   31.9721
 Diagonal vibrational polarizability:
      180.8273914      54.1825037     194.9280671
 Harmonic frequencies (cm**-1), IR intensities (KM/Mole), Raman scattering
 activities (A**4/AMU), depolarization ratios for plane and unpolarized
 incident light, reduced masses (AMU), force constants (mDyne/A),
 and normal coordinates:
                      1                      2                      3
                      A                      A                      A
 Frequencies --     15.2683                23.4865                28.0301
 Red. masses --      6.9805                 5.5028                 5.6966
 Frc consts  --      0.0010                 0.0018                 0.0026
 IR Inten    --      0.6654                 0.5344                 0.0779
  Atom  AN      X      Y      Z        X      Y      Z        X      Y      Z
     1   6    -0.03   0.03   0.16     0.00   0.07  -0.04     0.01  -0.01   0.00
     2   6    -0.04   0.03   0.18     0.00   0.07  -0.05     0.01  -0.01  -0.00
     3   6    -0.04   0.04   0.21     0.00   0.07  -0.06     0.01  -0.01   0.02
     4   6    -0.05   0.04   0.22     0.01   0.07  -0.05     0.01  -0.01   0.05
     5   6    -0.04   0.04   0.20     0.00   0.07  -0.04     0.01  -0.01   0.05
     6   6    -0.04   0.03   0.16     0.00   0.07  -0.03     0.01  -0.01   0.03
     7   6    -0.03   0.02   0.11     0.00   0.07  -0.04     0.02  -0.01  -0.05
     8   1    -0.05   0.04   0.23     0.01   0.07  -0.06     0.01  -0.01   0.02
     9   1    -0.05   0.04   0.25     0.01   0.07  -0.05     0.01  -0.01   0.06
    10   1    -0.04   0.04   0.20     0.00   0.07  -0.03     0.00  -0.01   0.08
    11   6    -0.01   0.00   0.00     0.01   0.04  -0.02     0.02  -0.01  -0.08
    12   6     0.00  -0.00  -0.04     0.03   0.02  -0.02     0.02  -0.01  -0.11
    13   6     0.00  -0.00  -0.04     0.06   0.02  -0.03     0.03  -0.02  -0.17
    14   6    -0.01   0.01   0.01     0.07   0.05  -0.04     0.03  -0.03  -0.18
    15   6    -0.01   0.01   0.06     0.04   0.07  -0.05     0.02  -0.03  -0.14
    16   6    -0.02   0.01   0.06     0.02   0.06  -0.04     0.02  -0.02  -0.09
    17   6    -0.00  -0.01  -0.06    -0.01  -0.01  -0.00     0.01   0.00  -0.03
    18   1     0.01  -0.01  -0.07     0.08   0.01  -0.03     0.03  -0.03  -0.19
    19   1    -0.00   0.01   0.02     0.09   0.05  -0.05     0.03  -0.03  -0.22
    20   1    -0.02   0.02   0.10     0.05   0.08  -0.06     0.02  -0.03  -0.14
    21   7    -0.03   0.03   0.15     0.00   0.07  -0.05     0.02  -0.01  -0.03
    22   6     0.01  -0.03  -0.10    -0.03  -0.07   0.02     0.01   0.02   0.00
    23   6    -0.00  -0.01  -0.07    -0.04  -0.03   0.01     0.01   0.01   0.01
    24   6    -0.01  -0.01  -0.05    -0.08  -0.03   0.02     0.01   0.02   0.06
    25   6    -0.02  -0.02  -0.06    -0.11  -0.05   0.03     0.00   0.03   0.10
    26   6    -0.01  -0.03  -0.08    -0.09  -0.09   0.04     0.00   0.03   0.09
    27   6     0.00  -0.03  -0.09    -0.06  -0.10   0.03     0.00   0.03   0.05
    28   1    -0.02  -0.00  -0.03    -0.09  -0.00   0.02     0.01   0.01   0.07
    29   1    -0.02  -0.03  -0.08    -0.12  -0.11   0.04     0.00   0.04   0.12
    30   6    -0.03  -0.01  -0.04    -0.15  -0.05   0.03     0.00   0.03   0.14
    31   1    -0.04  -0.01  -0.03    -0.16  -0.02   0.04     0.01   0.02   0.14
    32   1    -0.02  -0.00  -0.04    -0.14  -0.05   0.03     0.01   0.06   0.14
    33   1    -0.04  -0.02  -0.05    -0.17  -0.07   0.02     0.01   0.03   0.15
    34   6     0.01  -0.04  -0.11    -0.04  -0.14   0.04     0.00   0.03   0.04
    35   1     0.02  -0.04  -0.11    -0.03  -0.14   0.05     0.00   0.04   0.03
    36   1     0.00  -0.05  -0.11    -0.03  -0.13   0.04     0.00   0.02   0.04
    37   1     0.00  -0.05  -0.12    -0.06  -0.15   0.03     0.00   0.04   0.05
    38   8     0.02  -0.03  -0.12     0.01  -0.08   0.01     0.01   0.01  -0.04
    39   7    -0.01   0.00  -0.01    -0.02   0.02  -0.01     0.01  -0.00  -0.03
    40   7     0.01  -0.01  -0.08     0.02  -0.01  -0.00     0.02  -0.01  -0.08
    41   1    -0.02   0.01   0.03    -0.04   0.03  -0.02     0.01   0.00  -0.01
    42   7    -0.03   0.02   0.12     0.00   0.07  -0.04     0.01  -0.02  -0.03
    43   1    -0.02   0.02   0.09     0.01   0.08  -0.03     0.01  -0.02  -0.03
    44   6    -0.03   0.03   0.12    -0.01   0.06  -0.02     0.00  -0.01   0.05
    45   7    -0.03   0.03   0.11    -0.04   0.07   0.01    -0.01  -0.01   0.08
    46   7    -0.01   0.02   0.05    -0.00   0.04  -0.02    -0.00  -0.01   0.06
    47   6     0.02   0.00  -0.08    -0.03   0.00   0.02    -0.01  -0.00   0.12
    48   6     0.02  -0.00  -0.11    -0.07  -0.01   0.05    -0.02  -0.00   0.16
    49   6     0.00   0.00  -0.06    -0.09   0.01   0.07    -0.03  -0.00   0.19
    50   6    -0.02   0.01   0.01    -0.09   0.04   0.06    -0.02  -0.01   0.16
    51   6    -0.02   0.02   0.04    -0.05   0.05   0.03    -0.01  -0.01   0.12
    52   6    -0.00   0.01   0.00    -0.03   0.03   0.01    -0.01  -0.01   0.10
    53   1     0.03  -0.01  -0.17    -0.08  -0.03   0.07    -0.03   0.00   0.18
    54   1     0.00   0.00  -0.08    -0.12   0.01   0.10    -0.03   0.00   0.22
    55   1    -0.03   0.02   0.05    -0.11   0.06   0.07    -0.02  -0.01   0.18
    56   1    -0.00   0.01   0.04     0.01   0.04  -0.04     0.01  -0.01   0.03
    57   6     0.03  -0.01  -0.11     0.00  -0.02   0.02    -0.01   0.00   0.08
    58   1     0.04  -0.02  -0.16    -0.01  -0.06   0.04    -0.02   0.01   0.10
    59   7     0.04  -0.00  -0.08     0.04  -0.01  -0.01    -0.01  -0.00   0.01
    60   6     0.06  -0.01  -0.09     0.08  -0.04   0.00    -0.01   0.01  -0.05
    61   6     0.05  -0.03  -0.09     0.07  -0.09   0.01    -0.00   0.03  -0.07
    62   6     0.06  -0.01  -0.09     0.12  -0.03   0.01    -0.05  -0.03  -0.08
    63   1     0.07  -0.01  -0.09     0.09  -0.03   0.00     0.00   0.03  -0.06
    64   6     0.06  -0.04  -0.09     0.10  -0.12   0.04    -0.01   0.05  -0.13
    65   1     0.05  -0.03  -0.10     0.06  -0.10   0.01    -0.02   0.01  -0.07
    66   1     0.05  -0.04  -0.10     0.04  -0.10   0.00     0.03   0.06  -0.05
    67   6     0.07  -0.02  -0.08     0.16  -0.06   0.03    -0.06  -0.01  -0.13
    68   1     0.06  -0.01  -0.09     0.12  -0.03   0.01    -0.06  -0.05  -0.07
    69   1     0.06  -0.01  -0.09     0.13  -0.00  -0.00    -0.06  -0.05  -0.06
    70   6     0.07  -0.03  -0.08     0.14  -0.10   0.05    -0.05   0.01  -0.16
    71   1     0.06  -0.04  -0.09     0.09  -0.15   0.04    -0.00   0.07  -0.15
    72   1     0.07  -0.04  -0.09     0.11  -0.12   0.04     0.00   0.07  -0.14
    73   1     0.07  -0.02  -0.08     0.18  -0.04   0.04    -0.09  -0.04  -0.15
    74   1     0.07  -0.02  -0.08     0.16  -0.06   0.04    -0.05   0.01  -0.14
    75   1     0.07  -0.03  -0.08     0.16  -0.12   0.07    -0.05   0.02  -0.20
    76   1     0.07  -0.03  -0.09     0.14  -0.10   0.05    -0.07  -0.01  -0.16
    77   1     0.01  -0.02  -0.11     0.03  -0.03  -0.00     0.02  -0.00  -0.09
                      4                      5                      6
                      A                      A                      A
 Frequencies --     42.3565                48.4052                54.3316
 Red. masses --      5.5964                 4.8396                 6.1929
 Frc consts  --      0.0059                 0.0067                 0.0108
 IR Inten    --      0.4173                 2.4084                 8.2010
  Atom  AN      X      Y      Z        X      Y      Z        X      Y      Z
     1   6    -0.06  -0.05  -0.01    -0.00  -0.01  -0.01    -0.03   0.07  -0.02
     2   6    -0.07  -0.07  -0.03    -0.00  -0.01  -0.02    -0.05   0.04   0.01
     3   6    -0.10  -0.07  -0.04     0.00  -0.01  -0.07    -0.09   0.05   0.03
     4   6    -0.11  -0.04  -0.03     0.01  -0.02  -0.11    -0.09   0.08   0.03
     5   6    -0.10  -0.01  -0.01     0.01  -0.01  -0.10    -0.07   0.10  -0.00
     6   6    -0.07  -0.01  -0.00     0.00  -0.01  -0.05    -0.04   0.10  -0.03
     7   6    -0.03  -0.08  -0.02    -0.01  -0.00   0.05     0.01   0.02   0.00
     8   1    -0.11  -0.09  -0.06     0.01  -0.02  -0.08    -0.10   0.04   0.06
     9   1    -0.14  -0.03  -0.04     0.01  -0.02  -0.15    -0.12   0.08   0.04
    10   1    -0.11   0.01  -0.00     0.01  -0.02  -0.13    -0.07   0.12  -0.00
    11   6    -0.03  -0.08  -0.02    -0.01   0.00   0.06     0.05  -0.04   0.03
    12   6    -0.04  -0.06  -0.02    -0.01  -0.00   0.04     0.06  -0.05   0.04
    13   6    -0.05  -0.07  -0.03    -0.01   0.00   0.05     0.09  -0.05   0.03
    14   6    -0.05  -0.08  -0.03    -0.02   0.00   0.08     0.10  -0.02   0.01
    15   6    -0.04  -0.09  -0.03    -0.02   0.00   0.09     0.09  -0.01   0.01
    16   6    -0.03  -0.09  -0.03    -0.01   0.00   0.07     0.06  -0.02   0.02
    17   6    -0.02  -0.04  -0.01    -0.00  -0.00   0.02     0.05  -0.06   0.04
    18   1    -0.06  -0.06  -0.03    -0.01  -0.00   0.03     0.11  -0.06   0.03
    19   1    -0.07  -0.09  -0.04    -0.02   0.00   0.09     0.12  -0.02   0.00
    20   1    -0.04  -0.10  -0.03    -0.02   0.00   0.09     0.09   0.01  -0.01
    21   7    -0.05  -0.09  -0.04    -0.01  -0.00   0.02    -0.03   0.01   0.03
    22   6    -0.01   0.03   0.02     0.03  -0.01  -0.11     0.07  -0.01   0.01
    23   6     0.01  -0.01   0.01     0.01   0.00   0.01     0.08  -0.04   0.03
    24   6     0.05  -0.02   0.01    -0.01   0.02   0.14     0.12  -0.04   0.03
    25   6     0.08   0.02   0.02    -0.01   0.03   0.14     0.15  -0.02   0.01
    26   6     0.06   0.06   0.03     0.01   0.01   0.02     0.14   0.01  -0.02
    27   6     0.02   0.07   0.03     0.03  -0.01  -0.11     0.10   0.02  -0.01
    28   1     0.06  -0.05   0.00    -0.03   0.03   0.25     0.12  -0.07   0.05
    29   1     0.08   0.09   0.04     0.01   0.02   0.03     0.16   0.03  -0.04
    30   6     0.12   0.01   0.03    -0.02   0.05   0.28     0.19  -0.03   0.01
    31   1     0.15  -0.03   0.01    -0.04   0.02   0.32     0.20  -0.06   0.01
    32   1     0.11   0.01   0.03    -0.01   0.14   0.30     0.18  -0.02   0.02
    33   1     0.15   0.03   0.05    -0.04   0.01   0.31     0.21  -0.00   0.03
    34   6    -0.00   0.11   0.03     0.05  -0.02  -0.22     0.09   0.05  -0.04
    35   1    -0.03   0.12   0.02     0.12   0.01  -0.24     0.09   0.06  -0.05
    36   1    -0.01   0.11   0.03    -0.00  -0.05  -0.26     0.07   0.05  -0.05
    37   1     0.02   0.13   0.05     0.05  -0.02  -0.24     0.11   0.07  -0.04
    38   8    -0.05   0.04   0.02     0.04  -0.03  -0.22     0.05  -0.00   0.02
    39   7    -0.01  -0.07  -0.01    -0.01   0.00   0.05     0.05  -0.05   0.04
    40   7    -0.04  -0.04  -0.01    -0.00  -0.00   0.01     0.06  -0.06   0.04
    41   1     0.01  -0.08  -0.01    -0.01   0.00   0.05     0.06  -0.05   0.04
    42   7    -0.03  -0.06  -0.01    -0.01   0.00   0.04     0.01   0.06  -0.03
    43   1    -0.03  -0.05   0.01    -0.01   0.00   0.05     0.05   0.08  -0.04
    44   6    -0.05   0.02   0.01     0.00  -0.00  -0.03    -0.05   0.09  -0.04
    45   7    -0.02   0.02   0.05    -0.01  -0.00   0.01    -0.07   0.09  -0.08
    46   7    -0.05   0.05  -0.01     0.01  -0.00  -0.05    -0.04   0.05  -0.01
    47   6    -0.01   0.08  -0.02     0.00  -0.00  -0.03    -0.09  -0.01   0.02
    48   6     0.00   0.09  -0.01    -0.00   0.00   0.00    -0.13  -0.03   0.02
    49   6     0.01   0.08   0.04    -0.01   0.00   0.04    -0.15  -0.00  -0.04
    50   6     0.01   0.06   0.06    -0.01   0.00   0.04    -0.13   0.04  -0.08
    51   6    -0.01   0.05   0.04    -0.01  -0.00   0.01    -0.10   0.05  -0.06
    52   6    -0.02   0.07  -0.00     0.00  -0.00  -0.02    -0.08   0.03  -0.01
    53   1     0.01   0.11  -0.02    -0.00   0.00   0.00    -0.15  -0.06   0.05
    54   1     0.03   0.08   0.06    -0.02   0.00   0.06    -0.18  -0.01  -0.05
    55   1     0.01   0.05   0.10    -0.02   0.00   0.07    -0.15   0.06  -0.12
    56   1    -0.07   0.06  -0.05     0.01  -0.00  -0.07    -0.02   0.04   0.02
    57   6     0.00   0.08  -0.05     0.00   0.00  -0.03    -0.07  -0.03   0.05
    58   1    -0.00   0.06  -0.04    -0.00   0.00  -0.03    -0.08  -0.05   0.06
    59   7     0.03   0.09  -0.05     0.00  -0.00  -0.04    -0.06  -0.03   0.03
    60   6     0.07   0.05  -0.03    -0.00   0.00  -0.02    -0.05  -0.04   0.01
    61   6     0.05  -0.00   0.01    -0.00  -0.00  -0.02    -0.04  -0.05  -0.01
    62   6     0.15   0.07  -0.02     0.00   0.02  -0.01    -0.06  -0.05   0.00
    63   1     0.08   0.06  -0.03    -0.01  -0.01  -0.02    -0.03  -0.02   0.01
    64   6     0.09  -0.04   0.06    -0.01  -0.00   0.01    -0.03  -0.05  -0.04
    65   1     0.06  -0.00   0.01     0.00   0.01  -0.02    -0.07  -0.06  -0.01
    66   1     0.01  -0.03  -0.01    -0.01  -0.01  -0.02    -0.03  -0.04  -0.00
    67   6     0.18   0.04   0.03     0.00   0.01   0.01    -0.05  -0.06  -0.03
    68   1     0.16   0.07  -0.01     0.01   0.03  -0.02    -0.08  -0.07   0.00
    69   1     0.16   0.11  -0.05     0.01   0.02  -0.02    -0.06  -0.05   0.02
    70   6     0.16  -0.01   0.08    -0.00   0.01   0.02    -0.04  -0.07  -0.06
    71   1     0.08  -0.08   0.08    -0.01  -0.00   0.01    -0.03  -0.06  -0.06
    72   1     0.09  -0.04   0.06    -0.01  -0.01   0.01    -0.01  -0.04  -0.04
    73   1     0.23   0.06   0.05     0.01   0.03   0.02    -0.06  -0.07  -0.04
    74   1     0.18   0.04   0.03    -0.01   0.00   0.02    -0.02  -0.04  -0.03
    75   1     0.18  -0.03   0.12    -0.01   0.01   0.04    -0.02  -0.08  -0.08
    76   1     0.18  -0.00   0.08     0.01   0.03   0.02    -0.07  -0.09  -0.06
    77   1    -0.05  -0.03  -0.00     0.00  -0.01  -0.04     0.06  -0.06   0.04
                      7                      8                      9
                      A                      A                      A
 Frequencies --     59.7104                70.8392                73.7719
 Red. masses --      4.9271                 4.9760                 3.1071
 Frc consts  --      0.0104                 0.0147                 0.0100
 IR Inten    --      2.2229                 0.2978                 0.4568
  Atom  AN      X      Y      Z        X      Y      Z        X      Y      Z
     1   6    -0.00  -0.02  -0.03    -0.01   0.01   0.02     0.00   0.01   0.01
     2   6    -0.01  -0.02   0.03    -0.00  -0.01  -0.06    -0.00   0.01   0.02
     3   6    -0.03  -0.01   0.07    -0.00  -0.01  -0.11     0.00   0.01   0.02
     4   6    -0.03  -0.01   0.06    -0.01  -0.00  -0.08     0.01   0.00  -0.00
     5   6    -0.02  -0.01   0.01    -0.02   0.01  -0.00     0.01   0.00  -0.01
     6   6    -0.00  -0.02  -0.03    -0.02   0.02   0.05     0.00   0.00  -0.01
     7   6    -0.01  -0.02  -0.01    -0.00  -0.00   0.00     0.00   0.01   0.03
     8   1    -0.04  -0.01   0.11     0.01  -0.03  -0.18     0.00   0.01   0.02
     9   1    -0.03  -0.00   0.09    -0.01  -0.01  -0.12     0.01   0.00  -0.01
    10   1    -0.02  -0.01   0.02    -0.02   0.02   0.01     0.01  -0.00  -0.03
    11   6    -0.03   0.00   0.03     0.01  -0.02  -0.07     0.01  -0.00  -0.02
    12   6    -0.03   0.01   0.03     0.01  -0.01  -0.05     0.02  -0.00  -0.04
    13   6    -0.04   0.00   0.02    -0.01   0.00   0.06     0.01  -0.00  -0.01
    14   6    -0.04  -0.01  -0.01    -0.03   0.02   0.17     0.01   0.01   0.03
    15   6    -0.03  -0.02  -0.02    -0.02   0.01   0.14     0.00   0.01   0.05
    16   6    -0.02  -0.01  -0.00    -0.00  -0.00   0.02     0.01   0.01   0.02
    17   6    -0.03   0.01   0.04     0.03  -0.03  -0.15     0.02  -0.01  -0.06
    18   1    -0.05   0.01   0.02    -0.01   0.01   0.08     0.02  -0.00  -0.02
    19   1    -0.04  -0.01  -0.03    -0.04   0.03   0.26     0.00   0.01   0.06
    20   1    -0.03  -0.03  -0.05    -0.03   0.02   0.22    -0.00   0.02   0.08
    21   7    -0.02  -0.01   0.04     0.00  -0.02  -0.07    -0.00   0.01   0.03
    22   6    -0.02  -0.00  -0.02     0.01  -0.01  -0.05     0.01  -0.00  -0.01
    23   6    -0.03   0.01   0.02     0.02  -0.02  -0.11     0.02  -0.01  -0.04
    24   6    -0.04   0.01   0.04     0.02  -0.01  -0.07     0.01  -0.00  -0.02
    25   6    -0.03   0.00   0.01    -0.00   0.00   0.04     0.00   0.00   0.02
    26   6    -0.02  -0.01  -0.04    -0.02   0.02   0.12    -0.01   0.01   0.06
    27   6    -0.02  -0.01  -0.05    -0.01   0.01   0.08    -0.00   0.00   0.05
    28   1    -0.04   0.02   0.07     0.02  -0.02  -0.11     0.01  -0.00  -0.05
    29   1    -0.02  -0.01  -0.06    -0.03   0.04   0.21    -0.01   0.01   0.11
    30   6    -0.04   0.01   0.03    -0.00   0.01   0.07    -0.00   0.00   0.03
    31   1    -0.05   0.01   0.04     0.01  -0.01   0.07     0.00   0.00   0.03
    32   1    -0.03   0.02   0.03    -0.01   0.04   0.08    -0.00   0.01   0.03
    33   1    -0.05  -0.00   0.02     0.00   0.00   0.10    -0.00   0.00   0.03
    34   6    -0.01  -0.02  -0.10    -0.02   0.02   0.15    -0.01   0.01   0.09
    35   1     0.02  -0.02  -0.10    -0.07   0.02   0.15    -0.03   0.01   0.09
    36   1    -0.03  -0.02  -0.11     0.02   0.02   0.17     0.02   0.01   0.10
    37   1    -0.01  -0.02  -0.12    -0.03   0.02   0.20    -0.01   0.01   0.11
    38   8    -0.02  -0.01  -0.03     0.02  -0.01  -0.10     0.02  -0.01  -0.04
    39   7    -0.03   0.01   0.04     0.03  -0.03  -0.15     0.02  -0.00  -0.04
    40   7    -0.03   0.01   0.04     0.02  -0.02  -0.12     0.02  -0.01  -0.06
    41   1    -0.03   0.01   0.03     0.03  -0.03  -0.15     0.01  -0.00  -0.02
    42   7    -0.00  -0.03  -0.05    -0.01   0.01   0.06     0.00   0.01   0.02
    43   1    -0.01  -0.04  -0.09    -0.01   0.02   0.10     0.00   0.01   0.02
[...]
 ! R24   R(14,19)               -0.2242                 12.7                    !
 ! R26   R(15,20)               -0.0959                  5.4                    !
 ! A25   A(11,12,13)             0.0265                  1.5                    !
 ! A27   A(13,12,40)            -0.0291                  1.7                    !
 ! A28   A(12,13,14)            -0.0496                  2.8                    !
 ! A29   A(12,13,18)             0.0232                  1.3                    !
 ! A30   A(14,13,18)             0.0264                  1.5                    !
 ! A32   A(13,14,19)            -0.0247                  1.4                    !
 --------------------------------------------------------------------------------
                           ----------------------------
                           ! Normal Mode   222        !
 --------------------------                            --------------------------
 ! Name  Definition              Value          Relative Weight (%)             !
 --------------------------------------------------------------------------------
 ! R20   R(12,40)                0.0466                  2.7                    !
 ! R29   R(17,40)                0.0399                  2.3                    !
 ! R47   R(39,41)                0.2464                 14.4                    !
 ! R48   R(40,77)               -1.0416                 60.8                    !
 ! A26   A(11,12,40)             0.0233                  1.4                    !
 ! A27   A(13,12,40)            -0.0243                  1.4                    !
 ! A41   A(23,17,40)            -0.025                   1.5                    !
 ! A77   A(12,40,17)            -0.0481                  2.8                    !
 ! A78   A(12,40,77)             0.0604                  3.5                    !
 --------------------------------------------------------------------------------
                           ----------------------------
                           ! Normal Mode   223        !
 --------------------------                            --------------------------
 ! Name  Definition              Value          Relative Weight (%)             !
 --------------------------------------------------------------------------------
 ! R18   R(11,39)               -0.0411                  2.4                    !
 ! R28   R(17,39)               -0.0475                  2.7                    !
 ! R47   R(39,41)                1.0439                 60.4                    !
 ! R48   R(40,77)                0.2466                 14.3                    !
 ! A23   A(12,11,39)            -0.024                   1.4                    !
 ! A24   A(16,11,39)             0.0244                  1.4                    !
 ! A40   A(23,17,39)             0.0247                  1.4                    !
 ! A42   A(39,17,40)            -0.0296                  1.7                    !
 ! A74   A(11,39,17)             0.0481                  2.8                    !
 ! A76   A(17,39,41)            -0.0543                  3.1                    !
 --------------------------------------------------------------------------------
                           ----------------------------
                           ! Normal Mode   224        !
 --------------------------                            --------------------------
 ! Name  Definition              Value          Relative Weight (%)             !
 --------------------------------------------------------------------------------
 ! R3    R(1,42)                 0.0441                  2.9                    !
 ! R15   R(7,42)                 0.0481                  3.1                    !
 ! R47   R(39,41)                0.0204                  1.3                    !
 ! R49   R(42,43)               -1.0681                 69.4                    !
 ! R54   R(46,56)               -0.0865                  5.6                    !
 ! A2    A(2,1,42)               0.0235                  1.5                    !
 ! A3    A(6,1,42)              -0.0244                  1.6                    !
 ! A20   A(16,7,42)             -0.0239                  1.6                    !
 ! A21   A(21,7,42)              0.023                   1.5                    !
 ! A80   A(1,42,7)              -0.0473                  3.1                    !
 ! A82   A(7,42,43)              0.0504                  3.3                    !
 --------------------------------------------------------------------------------
                           ----------------------------
                           ! Normal Mode   225        !
 --------------------------                            --------------------------
 ! Name  Definition              Value          Relative Weight (%)             !
 --------------------------------------------------------------------------------
 ! R49   R(42,43)               -0.0865                  5.7                    !
 ! R51   R(44,46)               -0.0482                  3.1                    !
 ! R53   R(46,52)               -0.0434                  2.8                    !
 ! R54   R(46,56)                1.0681                 69.8                    !
 ! A84   A(6,44,46)              0.0237                  1.5                    !
 ! A85   A(45,44,46)            -0.0228                  1.5                    !
 ! A87   A(44,46,52)             0.0471                  3.1                    !
 ! A88   A(44,46,56)            -0.0494                  3.2                    !
 ! A105  A(46,52,47)             0.0245                  1.6                    !
 ! A106  A(46,52,51)            -0.0236                  1.5                    !
 --------------------------------------------------------------------------------
 -------------------------------------------------------------------
 Center     Atomic                   Forces (Hartrees/Bohr)
 Number     Number              X              Y              Z
 -------------------------------------------------------------------
      1        6           0.000000110    0.000000168   -0.000000320
      2        6          -0.000000541   -0.000000239    0.000001089
      3        6          -0.000001688    0.000000026    0.000003789
      4        6          -0.000002185    0.000000953    0.000005007
      5        6          -0.000001477    0.000001348    0.000003630
      6        6          -0.000000326    0.000000889    0.000000914
      7        6           0.000001169   -0.000001251   -0.000003007
      8        1          -0.000002165   -0.000000200    0.000004882
      9        1          -0.000003036    0.000001298    0.000007120
     10        1          -0.000001891    0.000001990    0.000004690
     11        6           0.000001974   -0.000002812   -0.000005355
     12        6           0.000002985   -0.000003605   -0.000007547
     13        6           0.000004035   -0.000003697   -0.000010024
     14        6           0.000004222   -0.000003062   -0.000010114
     15        6           0.000003225   -0.000002223   -0.000007863
     16        6           0.000002256   -0.000002064   -0.000005416
     17        6           0.000001445   -0.000003642   -0.000004181
     18        1           0.000004763   -0.000004399   -0.000011737
     19        1           0.000005010   -0.000003099   -0.000011986
     20        1           0.000003478   -0.000001683   -0.000008074
     21        7           0.000000217   -0.000001049   -0.000000703
     22        6           0.000001297   -0.000004578   -0.000004162
     23        6           0.000000734   -0.000003866   -0.000002529
     24        6          -0.000000482   -0.000003396    0.000000081
     25        6          -0.000001105   -0.000003755    0.000001586
     26        6          -0.000000552   -0.000004534    0.000000301
     27        6           0.000000483   -0.000005049   -0.000002269
     28        1          -0.000000773   -0.000002772    0.000001073
     29        1          -0.000001199   -0.000004675    0.000001447
     30        6          -0.000002318   -0.000003015    0.000004450
     31        1          -0.000002701   -0.000003199    0.000005242
     32        1          -0.000002277   -0.000000807    0.000004820
     33        1          -0.000002905   -0.000004387    0.000005432
     34        6           0.000001014   -0.000005914   -0.000003792
     35        1           0.000001804   -0.000004357   -0.000005117
     36        1           0.000001259   -0.000007953   -0.000004782
     37        1           0.000000372   -0.000006141   -0.000002330
     38        8           0.000002095   -0.000005446   -0.000006285
     39        7           0.000001155   -0.000002700   -0.000003190
     40        7           0.000002698   -0.000004140   -0.000006625
     41        1           0.000000324   -0.000002350   -0.000001361
     42        7           0.000001292   -0.000000604   -0.000002855
     43        1           0.000001893   -0.000000383   -0.000004298
     44        6           0.000000417    0.000001296   -0.000000519
     45        7           0.000001482    0.000000971   -0.000003248
     46        7           0.000000081    0.000001769    0.000000388
     47        6           0.000000950    0.000002519   -0.000001557
     48        6           0.000002127    0.000002549   -0.000004083
     49        6           0.000003087    0.000002031   -0.000006427
     50        6           0.000003045    0.000001591   -0.000006324
     51        6           0.000001944    0.000001504   -0.000003936
     52        6           0.000000945    0.000002011   -0.000001547
     53        1           0.000002217    0.000002894   -0.000004247
     54        1           0.000003929    0.000002172   -0.000008275
     55        1           0.000003749    0.000001212   -0.000008100
     56        1          -0.000000789    0.000001977    0.000002271
     57        6           0.000000065    0.000002753    0.000000562
     58        1           0.000000158    0.000003311    0.000000532
     59        7          -0.000001082    0.000002814    0.000003028
     60        6          -0.000002048    0.000003132    0.000005371
     61        6          -0.000001814    0.000003594    0.000004989
     62        6          -0.000002629    0.000005392    0.000007123
     63        1          -0.000002741    0.000001128    0.000006397
     64        6          -0.000002982    0.000003967    0.000007697
     65        1          -0.000001167    0.000005645    0.000003988
     66        1          -0.000001488    0.000001979    0.000003791
     67        6          -0.000003773    0.000005788    0.000009770
     68        1          -0.000001895    0.000007452    0.000006108
     69        1          -0.000002734    0.000004965    0.000007375
     70        6          -0.000003483    0.000006260    0.000009411
     71        1          -0.000002810    0.000004423    0.000007327
     72        1          -0.000003640    0.000001949    0.000008616
     73        1          -0.000004044    0.000007499    0.000010921
     74        1          -0.000004400    0.000003814    0.000010790
     75        1          -0.000004363    0.000006397    0.000011335
     76        1          -0.000002901    0.000008363    0.000008561
     77        1           0.000002895   -0.000004748   -0.000007718
 -------------------------------------------------------------------
 Cartesian Forces:  Max     0.000011986 RMS     0.000004247
 FormGI is forming the generalized inverse of G from B-inverse, IUseBI=4.
 GSVD:  received Info=                   1 from GESDD.
 Leave Link  716 at Sun Dec 16 14:43:40 2018, MaxMem=  1342177280 cpu:               7.0 elap:               0.5
 (Enter /gpfs/apps/hpc/Apps/Restricted/Gaussian/Rev_A.03/g16/l9999.exe)

 ----------------------------------------------------------------------

 Electric dipole moment (input orientation):
 (Debye = 10**-18 statcoulomb cm , SI units = C m)
                  (au)            (Debye)         (10**-30 SI)
   Tot        0.486613D+01      0.123685D+02      0.412568D+02
   x         -0.481960D+01     -0.122502D+02     -0.408623D+02
   y          0.292529D+00      0.743536D+00      0.248017D+01
   z          0.604235D+00      0.153581D+01      0.512291D+01

 Dipole polarizability, Alpha (input orientation).
 (esu units = cm**3 , SI units = C**2 m**2 J**-1)
 Alpha(0;0):
               (au)            (10**-24 esu)      (10**-40 SI)
   iso        0.712802D+03      0.105626D+03      0.117525D+03
   aniso      0.714355D+03      0.105856D+03      0.117781D+03
   xx         0.966887D+03      0.143278D+03      0.159418D+03
   yx        -0.442564D+02     -0.655812D+01     -0.729690D+01
   yy         0.889290D+03      0.131779D+03      0.146624D+03
   zx         0.141685D+03      0.209955D+02      0.233607D+02
   zy        -0.867059D+02     -0.128485D+02     -0.142959D+02
   zz         0.282230D+03      0.418221D+02      0.465334D+02

 ----------------------------------------------------------------------

 Dipole orientation:
     6          2.17203598          0.75812532         -2.83219810
     6          1.44848559          2.24719888         -0.73307092
     6          1.36323067          4.88275559         -0.95939938
     6          2.00745622          5.93161089         -3.28569889
     6          2.73111956          4.42964787         -5.35403209
     6          2.83584813          1.79250444         -5.18278361
     6          1.33234224         -1.65823887          0.46660299
     1          0.81198101          6.05653254          0.62362467
     1          1.95028397          7.96491232         -3.51999177
     1          3.19923993          5.33903812         -7.12818304
     6          0.26883083         -3.62450385          4.55651266
     6         -0.03781655         -5.70762705          6.17559699
     6          0.40150016         -8.17369926          5.35297506
     6          1.15148180         -8.44959495          2.84811748
     6          1.45830429         -6.36998743          1.22045517
     6          1.03174284         -3.89290616          2.03101198
     6         -0.97992757         -2.17730626          8.30866957
     1          0.17038666         -9.77652944          6.60091968
     1          1.51647549        -10.32533474          2.11739092
     1          2.04525992         -6.70755574         -0.70998881
     7          0.93740247          0.68214138          1.30366652
     6         -2.44029857         -1.68826432         12.78432658
     6         -1.76683096         -0.54781250         10.34534771
     6         -1.89390626          2.04245904         10.02724343
     6         -2.68216720          3.63883540         12.00933105
     6         -3.33969671          2.56672198         14.36941950
     6         -3.25429914          0.00623731         14.80797289
     1         -1.39352754          2.88290942          8.22686092
     1         -3.93082036          3.82194483         15.87857545
     6         -2.87499629          6.43044686         11.61427246
     1         -1.67256143          7.05523888         10.06161399
     1         -4.82874679          6.93897138         11.14692953
     1         -2.37260667          7.45489566         13.33286723
     6         -3.95073530         -1.15394986         17.28484925
     1         -5.55876951         -2.43495121         17.06053438
     1         -2.39080142         -2.29566810         18.01545146
     1         -4.43345378          0.29534286         18.66503643
     8         -2.33183069         -4.02971426         13.15445979
     7         -0.32555226         -1.49478345          5.93798373
     7         -0.80445476         -4.71252560          8.46622048
     1         -0.23135410          0.26030746          5.14747162
     7          2.07406078         -1.70138211         -2.01350597
     1          2.47383757         -3.18282996         -3.16345050
     6          3.58465512          0.13806736         -7.24289220
     7          3.49149996         -2.37533431         -7.13125624
     7          4.46544915          0.97973261         -9.53482011
     6          5.92850001         -1.33091895        -13.44893130
     6          6.21126167         -3.79986088        -14.35435819
     6          5.58194872         -5.91562252        -12.87470876
     6          4.64834956         -5.66071400        -10.42498457
     6          4.34522650         -3.21221996         -9.46372588
     6          4.97337713         -1.10847350        -10.98559811
     1          6.94476483         -4.07507927        -16.24868331
     1          5.83696797         -7.78812985        -13.66289827
     1          4.18141929         -7.29774066         -9.28771829
     1          4.81285443          2.75803240        -10.15783904
     6          6.62643551          0.87851214        -14.95198881
     1          7.31176884          0.47432516        -16.85831194
     7          6.45668238          3.12148564        -14.05722551
     6          7.18349686          5.29728698        -15.60171276
     6          8.16130922          4.75759641        -18.27425881
     6          4.94824131          7.15294214        -15.68217193
     1          8.70811039          6.23705094        -14.54709552
     6          8.89034087          7.21242592        -19.62840095
     1          6.68115092          3.78934397        -19.35524797
     1          9.78517027          3.47909490        -18.19607112
     6          5.66253549          9.60542835        -17.04478633
     1          3.37456344          6.23278732        -16.66952123
     1          4.31538947          7.53648288        -13.75125342
     6          6.68052238          9.08221387        -19.70541510
     1          9.54227906          6.78670048        -21.54443010
     1         10.48734641          8.08836530        -18.63754318
     1          4.02637068         10.86673036        -17.13511867
     1          7.11806252         10.59035628        -15.94487384
     1          7.27227341         10.84896112        -20.60351443
     1          5.16175098          8.28856221        -20.87274453
     1         -1.23961216         -5.58391453         10.13104724

 Electric dipole moment (dipole orientation):
 (Debye = 10**-18 statcoulomb cm , SI units = C m)
                  (au)            (Debye)         (10**-30 SI)
   Tot        0.486613D+01      0.123685D+02      0.412568D+02
   x          0.000000D+00      0.000000D+00      0.000000D+00
   y          0.000000D+00      0.000000D+00      0.000000D+00
   z          0.486613D+01      0.123685D+02      0.412568D+02

 Dipole polarizability, Alpha (dipole orientation).
 (esu units = cm**3 , SI units = C**2 m**2 J**-1)
 Alpha(0;0):
               (au)            (10**-24 esu)      (10**-40 SI)
   iso        0.712802D+03      0.105626D+03      0.117525D+03
   aniso      0.714355D+03      0.105856D+03      0.117781D+03
   xx         0.321101D+03      0.475823D+02      0.529424D+02
   yx        -0.480527D+02     -0.712067D+01     -0.792281D+01
   yy         0.892130D+03      0.132200D+03      0.147092D+03
   zx        -0.224946D+03     -0.333336D+02     -0.370886D+02
   zy         0.429617D+02      0.636627D+01      0.708343D+01
   zz         0.925175D+03      0.137097D+03      0.152541D+03

 ----------------------------------------------------------------------

 This type of calculation cannot be archived.


 Human beings, who are almost unique in having the
 ability to learn from the experience of others, are
 also remarkable for their apparent disinclination to do so.
                               -- Douglas Adams,
                                Last Chance to See
 Job cpu time:       0 days  0 hours  0 minutes 22.7 seconds.
 Elapsed time:       0 days  0 hours  0 minutes  1.6 seconds.
 File lengths (MBytes):  RWF=     72 Int=      0 D2E=      0 Chk=    104 Scr=      8
 Normal termination of Gaussian 16 at Sun Dec 16 14:43:40 2018.
