 Entering Gaussian System, Link 0=g16
 Initial command:
 /gpfs/apps/hpc/Apps/Restricted/Gaussian/Rev_A.03/g16/l1.exe "/gpfs/scratch60/fas/hammes_schiffer/jg2487/c27n07/Gau-21443.inp" -scrdir="/gpfs/scratch60/fas/hammes_schiffer/jg2487/c27n07/"
 Entering Link 1 = /gpfs/apps/hpc/Apps/Restricted/Gaussian/Rev_A.03/g16/l1.exe PID=     21447.
  
 Copyright (c) 1988,1990,1992,1993,1995,1998,2003,2009,2016,
            Gaussian, Inc.  All Rights Reserved.
  
 This is part of the Gaussian(R) 16 program.  It is based on
 the Gaussian(R) 09 system (copyright 2009, Gaussian, Inc.),
 the Gaussian(R) 03 system (copyright 2003, Gaussian, Inc.),
 the Gaussian(R) 98 system (copyright 1998, Gaussian, Inc.),
 the Gaussian(R) 94 system (copyright 1995, Gaussian, Inc.),
 the Gaussian 92(TM) system (copyright 1992, Gaussian, Inc.),
 the Gaussian 90(TM) system (copyright 1990, Gaussian, Inc.),
 the Gaussian 88(TM) system (copyright 1988, Gaussian, Inc.),
 the Gaussian 86(TM) system (copyright 1986, Carnegie Mellon
 University), and the Gaussian 82(TM) system (copyright 1983,
 Carnegie Mellon University). Gaussian is a federally registered
 trademark of Gaussian, Inc.
  
 This software contains proprietary and confidential information,
 including trade secrets, belonging to Gaussian, Inc.
  
 This software is provided under written license and may be
 used, copied, transmitted, or stored only in accord with that
 written license.
  
 The following legend is applicable only to US Government
 contracts under FAR:
  
                    RESTRICTED RIGHTS LEGEND
  
 Use, reproduction and disclosure by the US Government is
 subject to restrictions as set forth in subparagraphs (a)
 and (c) of the Commercial Computer Software - Restricted
 Rights clause in FAR 52.227-19.
  
 Gaussian, Inc.
 340 Quinnipiac St., Bldg. 40, Wallingford CT 06492
  
  
 ---------------------------------------------------------------
 Warning -- This program may not be used in any manner that
 competes with the business of Gaussian, Inc. or will provide
 assistance to any competitor of Gaussian, Inc.  The licensee
 of this program is prohibited from giving any competitor of
 Gaussian, Inc. access to this program.  By using this program,
 the user acknowledges that Gaussian, Inc. is engaged in the
 business of creating and licensing software in the field of
 computational chemistry and represents and warrants to the
 licensee that it is not a competitor of Gaussian, Inc. and that
 it will not use this program in any manner prohibited above.
 ---------------------------------------------------------------
  

 Cite this work as:
 Gaussian 16, Revision A.03,
 M. J. Frisch, G. W. Trucks, H. B. Schlegel, G. E. Scuseria, 
 M. A. Robb, J. R. Cheeseman, G. Scalmani, V. Barone, 
 G. A. Petersson, H. Nakatsuji, X. Li, M. Caricato, A. V. Marenich, 
 J. Bloino, B. G. Janesko, R. Gomperts, B. Mennucci, H. P. Hratchian, 
 J. V. Ortiz, A. F. Izmaylov, J. L. Sonnenberg, D. Williams-Young, 
 F. Ding, F. Lipparini, F. Egidi, J. Goings, B. Peng, A. Petrone, 
 T. Henderson, D. Ranasinghe, V. G. Zakrzewski, J. Gao, N. Rega, 
 G. Zheng, W. Liang, M. Hada, M. Ehara, K. Toyota, R. Fukuda, 
 J. Hasegawa, M. Ishida, T. Nakajima, Y. Honda, O. Kitao, H. Nakai, 
 T. Vreven, K. Throssell, J. A. Montgomery, Jr., J. E. Peralta, 
 F. Ogliaro, M. J. Bearpark, J. J. Heyd, E. N. Brothers, K. N. Kudin, 
 V. N. Staroverov, T. A. Keith, R. Kobayashi, J. Normand, 
 K. Raghavachari, A. P. Rendell, J. C. Burant, S. S. Iyengar, 
 J. Tomasi, M. Cossi, J. M. Millam, M. Klene, C. Adamo, R. Cammi, 
 J. W. Ochterski, R. L. Martin, K. Morokuma, O. Farkas, 
 J. B. Foresman, and D. J. Fox, Gaussian, Inc., Wallingford CT, 2016.
 
 ******************************************
 Gaussian 16:  ES64L-G16RevA.03 25-Dec-2016
                16-Dec-2018 
 ******************************************
 %chk=cyclohexyl-monoBIP-TS1.chk
 %mem=10GB
 %nprocshared=16
 Will use up to   16 processors via shared memory.
 ----------------------------------------------------------------------
 #p opt=(calcfc,tight,ts,noeigentest) freq=internalmodes b3lyp/6-31g(d,
 p) scrf=(cpcm,solvent=dichloromethane,read) nosymm guess=read empirica
 ldispersion=gd3bj int=grid=ultrafine
 ----------------------------------------------------------------------
 1/5=1,7=10,10=4,11=1,18=20,26=6,38=1,40=2/1,3;
 2/9=110,12=2,15=1,17=6,18=5,40=1/2;
 3/5=1,6=6,7=101,11=2,25=1,30=1,70=2103,71=2,72=9,74=-5,75=-5,116=-2,124=41,140=1/1,2,3;
 4/5=1/1;
 5/5=2,38=6,53=9/2;
 8/6=4,10=90,11=11/1;
 11/6=1,8=1,9=11,15=111,16=1,31=1/1,2,10;
 10/6=1,13=1,31=1/2;
 6/7=2,8=2,9=2,10=2,28=1/1;
 7/10=1,18=20,25=1,30=1/1,2,3,16;
 1/5=1,7=10,10=4,11=1,18=20,26=6/3(2);
 2/9=110,15=1/2;
 99//99;
 2/9=110,15=1/2;
 3/5=1,6=6,7=101,11=2,25=1,30=1,70=2105,71=1,72=9,74=-5,75=-5,124=41/1,2,3;
 4/5=5,16=3,69=1/1;
 5/5=2,38=5,53=9/2;
 7/30=1/1,2,3,16;
 1/5=1,7=10,11=1,18=20,26=6/3(-5);
 2/9=110,15=1/2;
 6/7=2,8=2,9=2,10=2,19=2,28=1/1;
 99/9=1/99;
 Leave Link    1 at Sun Dec 16 10:28:03 2018, MaxMem=  1342177280 cpu:               7.9 elap:               0.5
 (Enter /gpfs/apps/hpc/Apps/Restricted/Gaussian/Rev_A.03/g16/l101.exe)
 ----------------------------------------------------------------------
 cyclohexylimine monoBIP oxidized, optimize to transition state of firs
 t proton transferred
 ----------------------------------------------------------------------
 Symbolic Z-matrix:
 Charge =  1 Multiplicity = 2
 C                    -0.42419   2.67174   0.27773 
 C                    -1.83568   2.79279   0.23762 
 C                    -2.43393   4.05878   0.14155 
 C                    -1.58508   5.1559    0.09357 
 C                    -0.17868   5.02067   0.13608 
 C                     0.44283   3.77617   0.22939 
 C                    -1.33669   0.66604   0.36926 
 H                    -3.51007   4.16887   0.10552 
 H                    -2.00793   6.15044   0.02131 
 H                     0.4382    5.91089   0.09589 
 N                    -2.36559   1.52551   0.29775 
 C                    -2.95818  -1.18915   0.41953 
 C                    -1.56604  -0.75275   0.42968 
 C                    -0.55906  -1.70281   0.4788 
 C                    -0.86681  -3.07205   0.52101 
 C                    -2.23064  -3.48478   0.52577 
 C                    -3.27348  -2.59449   0.48095 
 H                     0.47865  -1.39239   0.47917 
 H                    -2.44452  -4.54684   0.56929 
 C                     0.21415  -4.10109   0.53956 
 H                     1.1964   -3.65188   0.68098 
 H                     0.03505  -4.83795   1.32772 
 H                     0.21665  -4.65347  -0.40708 
 C                    -4.70983  -3.00981   0.48526 
 H                    -5.24635  -2.54246   1.31532 
 H                    -5.20862  -2.69064  -0.4343 
 H                    -4.79374  -4.09258   0.57395 
 O                    -3.92255  -0.33374   0.35053 
 N                    -0.14933   1.33216   0.36148 
 H                     0.81229   0.99913   0.40377 
 C                     1.89445   3.60335   0.27084 
 H                     2.49114   4.51934   0.21674 
 N                     2.40907   2.43412   0.36601 
 C                     3.87325   2.31464   0.40553 
 C                     4.52199   2.74125  -0.92174 
 C                     4.50315   3.07876   1.58164 
 H                     4.08305   1.24906   0.5508 
 C                     6.0376    2.51637  -0.87844 
 H                     4.30877   3.80379  -1.08903 
 H                     4.06885   2.18494  -1.74773 
 C                     6.01756   2.84743   1.62885 
 H                     4.30564   4.15022   1.45818 
 H                     4.0272    2.76875   2.51651 
 C                     6.67827   3.25016   0.30508 
 H                     6.49228   2.83729  -1.82043 
 H                     6.23415   1.44087  -0.78416 
 H                     6.45276   3.40831   2.46156 
 H                     6.21432   1.78578   1.82385 
 H                     7.7534    3.04979   0.33976 
 H                     6.56051   4.33168   0.162 
 H                    -3.45551   0.69607   0.30998 
 
 ITRead=  0  0  0  0  0  0  0  0  0  0  0  0  0  0  0  0  0  0  0  0
 ITRead=  0  0  0  0  0  0  0  0  0  0  0  0  0  0  0  0  0  0  0  0
 ITRead=  0  0  0  0  0  0  0  0  0  0  0
 MicOpt= -1 -1 -1 -1 -1 -1 -1 -1 -1 -1 -1 -1 -1 -1 -1 -1 -1 -1 -1 -1
 MicOpt= -1 -1 -1 -1 -1 -1 -1 -1 -1 -1 -1 -1 -1 -1 -1 -1 -1 -1 -1 -1
 MicOpt= -1 -1 -1 -1 -1 -1 -1 -1 -1 -1 -1
 NAtoms=     51 NQM=       51 NQMF=       0 NMMI=      0 NMMIF=      0
                NMic=       0 NMicF=      0.
                    Isotopes and Nuclear Properties:
 (Nuclear quadrupole moments (NQMom) in fm**2, nuclear magnetic moments (NMagM)
  in nuclear magnetons)

  Atom         1           2           3           4           5           6           7           8           9          10
 IAtWgt=          12          12          12          12          12          12          12           1           1           1
 AtmWgt=  12.0000000  12.0000000  12.0000000  12.0000000  12.0000000  12.0000000  12.0000000   1.0078250   1.0078250   1.0078250
 NucSpn=           0           0           0           0           0           0           0           1           1           1
 AtZEff=  -0.0000000  -0.0000000  -0.0000000  -0.0000000  -0.0000000  -0.0000000  -0.0000000  -0.0000000  -0.0000000  -0.0000000
 NQMom=    0.0000000   0.0000000   0.0000000   0.0000000   0.0000000   0.0000000   0.0000000   0.0000000   0.0000000   0.0000000
 NMagM=    0.0000000   0.0000000   0.0000000   0.0000000   0.0000000   0.0000000   0.0000000   2.7928460   2.7928460   2.7928460
 AtZNuc=   6.0000000   6.0000000   6.0000000   6.0000000   6.0000000   6.0000000   6.0000000   1.0000000   1.0000000   1.0000000

  Atom        11          12          13          14          15          16          17          18          19          20
 IAtWgt=          14          12          12          12          12          12          12           1           1          12
 AtmWgt=  14.0030740  12.0000000  12.0000000  12.0000000  12.0000000  12.0000000  12.0000000   1.0078250   1.0078250  12.0000000
 NucSpn=           2           0           0           0           0           0           0           1           1           0
 AtZEff=  -0.0000000  -0.0000000  -0.0000000  -0.0000000  -0.0000000  -0.0000000  -0.0000000  -0.0000000  -0.0000000  -0.0000000
 NQMom=    2.0440000   0.0000000   0.0000000   0.0000000   0.0000000   0.0000000   0.0000000   0.0000000   0.0000000   0.0000000
 NMagM=    0.4037610   0.0000000   0.0000000   0.0000000   0.0000000   0.0000000   0.0000000   2.7928460   2.7928460   0.0000000
 AtZNuc=   7.0000000   6.0000000   6.0000000   6.0000000   6.0000000   6.0000000   6.0000000   1.0000000   1.0000000   6.0000000

  Atom        21          22          23          24          25          26          27          28          29          30
 IAtWgt=           1           1           1          12           1           1           1          16          14           1
 AtmWgt=   1.0078250   1.0078250   1.0078250  12.0000000   1.0078250   1.0078250   1.0078250  15.9949146  14.0030740   1.0078250
 NucSpn=           1           1           1           0           1           1           1           0           2           1
 AtZEff=  -0.0000000  -0.0000000  -0.0000000  -0.0000000  -0.0000000  -0.0000000  -0.0000000  -0.0000000  -0.0000000  -0.0000000
 NQMom=    0.0000000   0.0000000   0.0000000   0.0000000   0.0000000   0.0000000   0.0000000   0.0000000   2.0440000   0.0000000
 NMagM=    2.7928460   2.7928460   2.7928460   0.0000000   2.7928460   2.7928460   2.7928460   0.0000000   0.4037610   2.7928460
 AtZNuc=   1.0000000   1.0000000   1.0000000   6.0000000   1.0000000   1.0000000   1.0000000   8.0000000   7.0000000   1.0000000

  Atom        31          32          33          34          35          36          37          38          39          40
 IAtWgt=          12           1          14          12          12          12           1          12           1           1
 AtmWgt=  12.0000000   1.0078250  14.0030740  12.0000000  12.0000000  12.0000000   1.0078250  12.0000000   1.0078250   1.0078250
 NucSpn=           0           1           2           0           0           0           1           0           1           1
 AtZEff=  -0.0000000  -0.0000000  -0.0000000  -0.0000000  -0.0000000  -0.0000000  -0.0000000  -0.0000000  -0.0000000  -0.0000000
 NQMom=    0.0000000   0.0000000   2.0440000   0.0000000   0.0000000   0.0000000   0.0000000   0.0000000   0.0000000   0.0000000
 NMagM=    0.0000000   2.7928460   0.4037610   0.0000000   0.0000000   0.0000000   2.7928460   0.0000000   2.7928460   2.7928460
 AtZNuc=   6.0000000   1.0000000   7.0000000   6.0000000   6.0000000   6.0000000   1.0000000   6.0000000   1.0000000   1.0000000

  Atom        41          42          43          44          45          46          47          48          49          50
 IAtWgt=          12           1           1          12           1           1           1           1           1           1
 AtmWgt=  12.0000000   1.0078250   1.0078250  12.0000000   1.0078250   1.0078250   1.0078250   1.0078250   1.0078250   1.0078250
 NucSpn=           0           1           1           0           1           1           1           1           1           1
 AtZEff=  -0.0000000  -0.0000000  -0.0000000  -0.0000000  -0.0000000  -0.0000000  -0.0000000  -0.0000000  -0.0000000  -0.0000000
 NQMom=    0.0000000   0.0000000   0.0000000   0.0000000   0.0000000   0.0000000   0.0000000   0.0000000   0.0000000   0.0000000
 NMagM=    0.0000000   2.7928460   2.7928460   0.0000000   2.7928460   2.7928460   2.7928460   2.7928460   2.7928460   2.7928460
 AtZNuc=   6.0000000   1.0000000   1.0000000   6.0000000   1.0000000   1.0000000   1.0000000   1.0000000   1.0000000   1.0000000

  Atom        51
 IAtWgt=           1
 AtmWgt=   1.0078250
 NucSpn=           1
 AtZEff=  -0.0000000
 NQMom=    0.0000000
 NMagM=    2.7928460
 AtZNuc=   1.0000000
 Leave Link  101 at Sun Dec 16 10:28:03 2018, MaxMem=  1342177280 cpu:               5.6 elap:               0.4
 (Enter /gpfs/apps/hpc/Apps/Restricted/Gaussian/Rev_A.03/g16/l103.exe)

 GradGradGradGradGradGradGradGradGradGradGradGradGradGradGradGradGradGrad
 Berny optimization.
 Initialization pass.
                           ----------------------------
                           !    Initial Parameters    !
                           ! (Angstroms and Degrees)  !
 --------------------------                            --------------------------
 ! Name  Definition              Value          Derivative Info.                !
 --------------------------------------------------------------------------------
 ! R1    R(1,2)                  1.4172         calculate D2E/DX2 analytically  !
 ! R2    R(1,6)                  1.4049         calculate D2E/DX2 analytically  !
 ! R3    R(1,29)                 1.3701         calculate D2E/DX2 analytically  !
 ! R4    R(2,3)                  1.4035         calculate D2E/DX2 analytically  !
 ! R5    R(2,11)                 1.3749         calculate D2E/DX2 analytically  !
 ! R6    R(3,4)                  1.388          calculate D2E/DX2 analytically  !
 ! R7    R(3,8)                  1.0823         calculate D2E/DX2 analytically  !
 ! R8    R(4,5)                  1.4135         calculate D2E/DX2 analytically  !
 ! R9    R(4,9)                  1.0831         calculate D2E/DX2 analytically  !
 ! R10   R(5,6)                  1.3942         calculate D2E/DX2 analytically  !
 ! R11   R(5,10)                 1.0838         calculate D2E/DX2 analytically  !
 ! R12   R(6,31)                 1.4625         calculate D2E/DX2 analytically  !
 ! R13   R(7,11)                 1.3426         calculate D2E/DX2 analytically  !
 ! R14   R(7,13)                 1.4385         calculate D2E/DX2 analytically  !
 ! R15   R(7,29)                 1.3615         calculate D2E/DX2 analytically  !
 ! R16   R(12,13)                1.459          calculate D2E/DX2 analytically  !
 ! R17   R(12,17)                1.4416         calculate D2E/DX2 analytically  !
 ! R18   R(12,28)                1.2909         calculate D2E/DX2 analytically  !
 ! R19   R(13,14)                1.3853         calculate D2E/DX2 analytically  !
 ! R20   R(14,15)                1.404          calculate D2E/DX2 analytically  !
 ! R21   R(14,18)                1.0831         calculate D2E/DX2 analytically  !
 ! R22   R(15,16)                1.4249         calculate D2E/DX2 analytically  !
 ! R23   R(15,20)                1.4926         calculate D2E/DX2 analytically  !
 ! R24   R(16,17)                1.3719         calculate D2E/DX2 analytically  !
 ! R25   R(16,19)                1.0842         calculate D2E/DX2 analytically  !
 ! R26   R(17,24)                1.4952         calculate D2E/DX2 analytically  !
 ! R27   R(20,21)                1.0893         calculate D2E/DX2 analytically  !
 ! R28   R(20,22)                1.0937         calculate D2E/DX2 analytically  !
 ! R29   R(20,23)                1.096          calculate D2E/DX2 analytically  !
 ! R30   R(24,25)                1.0933         calculate D2E/DX2 analytically  !
 ! R31   R(24,26)                1.0937         calculate D2E/DX2 analytically  !
 ! R32   R(24,27)                1.0896         calculate D2E/DX2 analytically  !
 ! R33   R(28,51)                1.1315         calculate D2E/DX2 analytically  !
 ! R34   R(29,30)                1.0185         calculate D2E/DX2 analytically  !
 ! R35   R(31,32)                1.0945         calculate D2E/DX2 analytically  !
 ! R36   R(31,33)                1.281          calculate D2E/DX2 analytically  !
 ! R37   R(33,34)                1.4696         calculate D2E/DX2 analytically  !
 ! R38   R(34,35)                1.5377         calculate D2E/DX2 analytically  !
 ! R39   R(34,36)                1.5375         calculate D2E/DX2 analytically  !
 ! R40   R(34,37)                1.0957         calculate D2E/DX2 analytically  !
 ! R41   R(35,38)                1.5328         calculate D2E/DX2 analytically  !
 ! R42   R(35,39)                1.0966         calculate D2E/DX2 analytically  !
 ! R43   R(35,40)                1.0941         calculate D2E/DX2 analytically  !
 ! R44   R(36,41)                1.5327         calculate D2E/DX2 analytically  !
 ! R45   R(36,42)                1.0965         calculate D2E/DX2 analytically  !
 ! R46   R(36,43)                1.0939         calculate D2E/DX2 analytically  !
 ! R47   R(38,44)                1.5328         calculate D2E/DX2 analytically  !
 ! R48   R(38,45)                1.0941         calculate D2E/DX2 analytically  !
 ! R49   R(38,46)                1.0974         calculate D2E/DX2 analytically  !
 ! R50   R(41,44)                1.5333         calculate D2E/DX2 analytically  !
 ! R51   R(41,47)                1.0943         calculate D2E/DX2 analytically  !
 ! R52   R(41,48)                1.0972         calculate D2E/DX2 analytically  !
 ! R53   R(44,49)                1.0942         calculate D2E/DX2 analytically  !
 ! R54   R(44,50)                1.0973         calculate D2E/DX2 analytically  !
 ! A1    A(2,1,6)              123.1279         calculate D2E/DX2 analytically  !
 ! A2    A(2,1,29)             106.5617         calculate D2E/DX2 analytically  !
 ! A3    A(6,1,29)             130.3098         calculate D2E/DX2 analytically  !
 ! A4    A(1,2,3)              120.2317         calculate D2E/DX2 analytically  !
 ! A5    A(1,2,11)             107.6912         calculate D2E/DX2 analytically  !
 ! A6    A(3,2,11)             132.0752         calculate D2E/DX2 analytically  !
 ! A7    A(2,3,4)              117.0436         calculate D2E/DX2 analytically  !
 ! A8    A(2,3,8)              121.1864         calculate D2E/DX2 analytically  !
 ! A9    A(4,3,8)              121.7699         calculate D2E/DX2 analytically  !
 ! A10   A(3,4,5)              122.1291         calculate D2E/DX2 analytically  !
 ! A11   A(3,4,9)              119.2977         calculate D2E/DX2 analytically  !
 ! A12   A(5,4,9)              118.5732         calculate D2E/DX2 analytically  !
 ! A13   A(4,5,6)              122.0694         calculate D2E/DX2 analytically  !
 ! A14   A(4,5,10)             119.1184         calculate D2E/DX2 analytically  !
 ! A15   A(6,5,10)             118.8122         calculate D2E/DX2 analytically  !
 ! A16   A(1,6,5)              115.398          calculate D2E/DX2 analytically  !
 ! A17   A(1,6,31)             121.2441         calculate D2E/DX2 analytically  !
 ! A18   A(5,6,31)             123.3574         calculate D2E/DX2 analytically  !
 ! A19   A(11,7,13)            120.7608         calculate D2E/DX2 analytically  !
 ! A20   A(11,7,29)            110.7841         calculate D2E/DX2 analytically  !
 ! A21   A(13,7,29)            128.4526         calculate D2E/DX2 analytically  !
 ! A22   A(2,11,7)             107.2784         calculate D2E/DX2 analytically  !
 ! A23   A(13,12,17)           119.9998         calculate D2E/DX2 analytically  !
 ! A24   A(13,12,28)           120.9963         calculate D2E/DX2 analytically  !
 ! A25   A(17,12,28)           119.0032         calculate D2E/DX2 analytically  !
 ! A26   A(7,13,12)            116.5432         calculate D2E/DX2 analytically  !
 ! A27   A(7,13,14)            124.1953         calculate D2E/DX2 analytically  !
 ! A28   A(12,13,14)           119.2564         calculate D2E/DX2 analytically  !
 ! A29   A(13,14,15)           120.7009         calculate D2E/DX2 analytically  !
 ! A30   A(13,14,18)           119.992          calculate D2E/DX2 analytically  !
 ! A31   A(15,14,18)           119.3062         calculate D2E/DX2 analytically  !
 ! A32   A(14,15,16)           119.4964         calculate D2E/DX2 analytically  !
 ! A33   A(14,15,20)           120.93           calculate D2E/DX2 analytically  !
 ! A34   A(16,15,20)           119.5667         calculate D2E/DX2 analytically  !
 ! A35   A(15,16,17)           122.6476         calculate D2E/DX2 analytically  !
 ! A36   A(15,16,19)           118.2073         calculate D2E/DX2 analytically  !
 ! A37   A(17,16,19)           119.1449         calculate D2E/DX2 analytically  !
 ! A38   A(12,17,16)           117.8891         calculate D2E/DX2 analytically  !
 ! A39   A(12,17,24)           118.7518         calculate D2E/DX2 analytically  !
 ! A40   A(16,17,24)           123.3583         calculate D2E/DX2 analytically  !
 ! A41   A(15,20,21)           111.7369         calculate D2E/DX2 analytically  !
 ! A42   A(15,20,22)           110.7842         calculate D2E/DX2 analytically  !
 ! A43   A(15,20,23)           109.7786         calculate D2E/DX2 analytically  !
 ! A44   A(21,20,22)           109.3865         calculate D2E/DX2 analytically  !
 ! A45   A(21,20,23)           108.536          calculate D2E/DX2 analytically  !
 ! A46   A(22,20,23)           106.4538         calculate D2E/DX2 analytically  !
 ! A47   A(17,24,25)           110.7856         calculate D2E/DX2 analytically  !
 ! A48   A(17,24,26)           110.7697         calculate D2E/DX2 analytically  !
 ! A49   A(17,24,27)           110.5013         calculate D2E/DX2 analytically  !
 ! A50   A(25,24,26)           106.8454         calculate D2E/DX2 analytically  !
 ! A51   A(25,24,27)           108.9775         calculate D2E/DX2 analytically  !
 ! A52   A(26,24,27)           108.8623         calculate D2E/DX2 analytically  !
 ! A53   A(12,28,51)           107.2564         calculate D2E/DX2 analytically  !
 ! A54   A(1,29,7)             107.6843         calculate D2E/DX2 analytically  !
 ! A55   A(1,29,30)            120.7738         calculate D2E/DX2 analytically  !
 ! A56   A(7,29,30)            131.5418         calculate D2E/DX2 analytically  !
 ! A57   A(6,31,32)            116.156          calculate D2E/DX2 analytically  !
 ! A58   A(6,31,33)            120.5782         calculate D2E/DX2 analytically  !
 ! A59   A(32,31,33)           123.2658         calculate D2E/DX2 analytically  !
 ! A60   A(31,33,34)           118.4543         calculate D2E/DX2 analytically  !
 ! A61   A(33,34,35)           111.9981         calculate D2E/DX2 analytically  !
 ! A62   A(33,34,36)           112.8519         calculate D2E/DX2 analytically  !
 ! A63   A(33,34,37)           105.8668         calculate D2E/DX2 analytically  !
 ! A64   A(35,34,36)           110.4593         calculate D2E/DX2 analytically  !
 ! A65   A(35,34,37)           107.6661         calculate D2E/DX2 analytically  !
 ! A66   A(36,34,37)           107.6654         calculate D2E/DX2 analytically  !
 ! A67   A(34,35,38)           110.6144         calculate D2E/DX2 analytically  !
 ! A68   A(34,35,39)           108.5709         calculate D2E/DX2 analytically  !
 ! A69   A(34,35,40)           109.6235         calculate D2E/DX2 analytically  !
 ! A70   A(38,35,39)           109.7998         calculate D2E/DX2 analytically  !
 ! A71   A(38,35,40)           110.8699         calculate D2E/DX2 analytically  !
 ! A72   A(39,35,40)           107.2753         calculate D2E/DX2 analytically  !
 ! A73   A(34,36,41)           110.6925         calculate D2E/DX2 analytically  !
 ! A74   A(34,36,42)           109.0092         calculate D2E/DX2 analytically  !
 ! A75   A(34,36,43)           109.5509         calculate D2E/DX2 analytically  !
 ! A76   A(41,36,42)           109.2044         calculate D2E/DX2 analytically  !
 ! A77   A(41,36,43)           111.1496         calculate D2E/DX2 analytically  !
 ! A78   A(42,36,43)           107.1443         calculate D2E/DX2 analytically  !
 ! A79   A(35,38,44)           111.3981         calculate D2E/DX2 analytically  !
 ! A80   A(35,38,45)           110.0937         calculate D2E/DX2 analytically  !
 ! A81   A(35,38,46)           108.8633         calculate D2E/DX2 analytically  !
 ! A82   A(44,38,45)           110.5271         calculate D2E/DX2 analytically  !
 ! A83   A(44,38,46)           109.1458         calculate D2E/DX2 analytically  !
 ! A84   A(45,38,46)           106.6791         calculate D2E/DX2 analytically  !
 ! A85   A(36,41,44)           111.0709         calculate D2E/DX2 analytically  !
 ! A86   A(36,41,47)           109.8185         calculate D2E/DX2 analytically  !
 ! A87   A(36,41,48)           109.1902         calculate D2E/DX2 analytically  !
 ! A88   A(44,41,47)           110.5471         calculate D2E/DX2 analytically  !
 ! A89   A(44,41,48)           109.2874         calculate D2E/DX2 analytically  !
 ! A90   A(47,41,48)           106.8218         calculate D2E/DX2 analytically  !
 ! A91   A(38,44,41)           111.1462         calculate D2E/DX2 analytically  !
 ! A92   A(38,44,49)           110.3341         calculate D2E/DX2 analytically  !
 ! A93   A(38,44,50)           109.0442         calculate D2E/DX2 analytically  !
 ! A94   A(41,44,49)           110.3609         calculate D2E/DX2 analytically  !
 ! A95   A(41,44,50)           108.978          calculate D2E/DX2 analytically  !
 ! A96   A(49,44,50)           106.8626         calculate D2E/DX2 analytically  !
 ! D1    D(6,1,2,3)              0.1821         calculate D2E/DX2 analytically  !
 ! D2    D(6,1,2,11)           179.7342         calculate D2E/DX2 analytically  !
 ! D3    D(29,1,2,3)          -179.5764         calculate D2E/DX2 analytically  !
 ! D4    D(29,1,2,11)           -0.0243         calculate D2E/DX2 analytically  !
 ! D5    D(2,1,6,5)             -0.0858         calculate D2E/DX2 analytically  !
 ! D6    D(2,1,6,31)          -179.8726         calculate D2E/DX2 analytically  !
 ! D7    D(29,1,6,5)           179.6107         calculate D2E/DX2 analytically  !
 ! D8    D(29,1,6,31)           -0.1761         calculate D2E/DX2 analytically  !
 ! D9    D(2,1,29,7)             0.1227         calculate D2E/DX2 analytically  !
 ! D10   D(2,1,29,30)         -179.9666         calculate D2E/DX2 analytically  !
 ! D11   D(6,1,29,7)          -179.6121         calculate D2E/DX2 analytically  !
 ! D12   D(6,1,29,30)            0.2986         calculate D2E/DX2 analytically  !
 ! D13   D(1,2,3,4)             -0.1876         calculate D2E/DX2 analytically  !
 ! D14   D(1,2,3,8)            179.7356         calculate D2E/DX2 analytically  !
 ! D15   D(11,2,3,4)          -179.6127         calculate D2E/DX2 analytically  !
 ! D16   D(11,2,3,8)             0.3105         calculate D2E/DX2 analytically  !
 ! D17   D(1,2,11,7)            -0.0847         calculate D2E/DX2 analytically  !
 ! D18   D(3,2,11,7)           179.3939         calculate D2E/DX2 analytically  !
 ! D19   D(2,3,4,5)              0.1142         calculate D2E/DX2 analytically  !
 ! D20   D(2,3,4,9)           -179.8792         calculate D2E/DX2 analytically  !
 ! D21   D(8,3,4,5)           -179.8084         calculate D2E/DX2 analytically  !
 ! D22   D(8,3,4,9)              0.1981         calculate D2E/DX2 analytically  !
 ! D23   D(3,4,5,6)             -0.0247         calculate D2E/DX2 analytically  !
 ! D24   D(3,4,5,10)          -179.971          calculate D2E/DX2 analytically  !
 ! D25   D(9,4,5,6)            179.9688         calculate D2E/DX2 analytically  !
 ! D26   D(9,4,5,10)             0.0225         calculate D2E/DX2 analytically  !
 ! D27   D(4,5,6,1)              0.0072         calculate D2E/DX2 analytically  !
 ! D28   D(4,5,6,31)           179.7889         calculate D2E/DX2 analytically  !
 ! D29   D(10,5,6,1)           179.9536         calculate D2E/DX2 analytically  !
 ! D30   D(10,5,6,31)           -0.2646         calculate D2E/DX2 analytically  !
 ! D31   D(1,6,31,32)          179.3367         calculate D2E/DX2 analytically  !
 ! D32   D(1,6,31,33)           -0.6944         calculate D2E/DX2 analytically  !
 ! D33   D(5,6,31,32)           -0.4327         calculate D2E/DX2 analytically  !
 ! D34   D(5,6,31,33)          179.5362         calculate D2E/DX2 analytically  !
 ! D35   D(13,7,11,2)         -179.3079         calculate D2E/DX2 analytically  !
 ! D36   D(29,7,11,2)            0.1663         calculate D2E/DX2 analytically  !
 ! D37   D(11,7,13,12)          -0.4724         calculate D2E/DX2 analytically  !
 ! D38   D(11,7,13,14)         178.6999         calculate D2E/DX2 analytically  !
 ! D39   D(29,7,13,12)        -179.8447         calculate D2E/DX2 analytically  !
 ! D40   D(29,7,13,14)          -0.6724         calculate D2E/DX2 analytically  !
 ! D41   D(11,7,29,1)           -0.1831         calculate D2E/DX2 analytically  !
 ! D42   D(11,7,29,30)         179.9194         calculate D2E/DX2 analytically  !
 ! D43   D(13,7,29,1)          179.24           calculate D2E/DX2 analytically  !
 ! D44   D(13,7,29,30)          -0.6575         calculate D2E/DX2 analytically  !
 ! D45   D(17,12,13,7)        -179.8399         calculate D2E/DX2 analytically  !
 ! D46   D(17,12,13,14)          0.9449         calculate D2E/DX2 analytically  !
 ! D47   D(28,12,13,7)           0.4447         calculate D2E/DX2 analytically  !
 ! D48   D(28,12,13,14)       -178.7706         calculate D2E/DX2 analytically  !
 ! D49   D(13,12,17,16)         -1.0454         calculate D2E/DX2 analytically  !
 ! D50   D(13,12,17,24)        179.2805         calculate D2E/DX2 analytically  !
 ! D51   D(28,12,17,16)        178.6757         calculate D2E/DX2 analytically  !
 ! D52   D(28,12,17,24)         -0.9984         calculate D2E/DX2 analytically  !
 ! D53   D(13,12,28,51)         -0.1761         calculate D2E/DX2 analytically  !
 ! D54   D(17,12,28,51)       -179.8943         calculate D2E/DX2 analytically  !
 ! D55   D(7,13,14,15)        -179.2677         calculate D2E/DX2 analytically  !
 ! D56   D(7,13,14,18)           0.3796         calculate D2E/DX2 analytically  !
 ! D57   D(12,13,14,15)         -0.1165         calculate D2E/DX2 analytically  !
 ! D58   D(12,13,14,18)        179.5308         calculate D2E/DX2 analytically  !
 ! D59   D(13,14,15,16)         -0.5848         calculate D2E/DX2 analytically  !
 ! D60   D(13,14,15,20)        178.4575         calculate D2E/DX2 analytically  !
 ! D61   D(18,14,15,16)        179.7654         calculate D2E/DX2 analytically  !
 ! D62   D(18,14,15,20)         -1.1922         calculate D2E/DX2 analytically  !
 ! D63   D(14,15,16,17)          0.4742         calculate D2E/DX2 analytically  !
 ! D64   D(14,15,16,19)       -179.3633         calculate D2E/DX2 analytically  !
 ! D65   D(20,15,16,17)       -178.5814         calculate D2E/DX2 analytically  !
 ! D66   D(20,15,16,19)          1.5812         calculate D2E/DX2 analytically  !
 ! D67   D(14,15,20,21)          9.3297         calculate D2E/DX2 analytically  !
 ! D68   D(14,15,20,22)        131.5751         calculate D2E/DX2 analytically  !
 ! D69   D(14,15,20,23)       -111.1386         calculate D2E/DX2 analytically  !
 ! D70   D(16,15,20,21)       -171.6286         calculate D2E/DX2 analytically  !
 ! D71   D(16,15,20,22)        -49.3832         calculate D2E/DX2 analytically  !
 ! D72   D(16,15,20,23)         67.9031         calculate D2E/DX2 analytically  !
 ! D73   D(15,16,17,12)          0.3458         calculate D2E/DX2 analytically  !
 ! D74   D(15,16,17,24)       -179.9963         calculate D2E/DX2 analytically  !
 ! D75   D(19,16,17,12)       -179.8182         calculate D2E/DX2 analytically  !
 ! D76   D(19,16,17,24)         -0.1603         calculate D2E/DX2 analytically  !
 ! D77   D(12,17,24,25)        -56.889          calculate D2E/DX2 analytically  !
 ! D78   D(12,17,24,26)         61.5007         calculate D2E/DX2 analytically  !
 ! D79   D(12,17,24,27)       -177.7718         calculate D2E/DX2 analytically  !
 ! D80   D(16,17,24,25)        123.4559         calculate D2E/DX2 analytically  !
 ! D81   D(16,17,24,26)       -118.1544         calculate D2E/DX2 analytically  !
 ! D82   D(16,17,24,27)          2.5731         calculate D2E/DX2 analytically  !
 ! D83   D(6,31,33,34)        -179.9256         calculate D2E/DX2 analytically  !
 ! D84   D(32,31,33,34)          0.0411         calculate D2E/DX2 analytically  !
 ! D85   D(31,33,34,35)        -66.402          calculate D2E/DX2 analytically  !
 ! D86   D(31,33,34,36)         59.0027         calculate D2E/DX2 analytically  !
 ! D87   D(31,33,34,37)        176.5274         calculate D2E/DX2 analytically  !
 ! D88   D(33,34,35,38)       -176.2312         calculate D2E/DX2 analytically  !
 ! D89   D(33,34,35,39)         63.2271         calculate D2E/DX2 analytically  !
 ! D90   D(33,34,35,40)        -53.6696         calculate D2E/DX2 analytically  !
 ! D91   D(36,34,35,38)         57.0591         calculate D2E/DX2 analytically  !
 ! D92   D(36,34,35,39)        -63.4826         calculate D2E/DX2 analytically  !
 ! D93   D(36,34,35,40)        179.6207         calculate D2E/DX2 analytically  !
 ! D94   D(37,34,35,38)        -60.2467         calculate D2E/DX2 analytically  !
 ! D95   D(37,34,35,39)        179.2116         calculate D2E/DX2 analytically  !
 ! D96   D(37,34,35,40)         62.3149         calculate D2E/DX2 analytically  !
 ! D97   D(33,34,36,41)        176.3426         calculate D2E/DX2 analytically  !
 ! D98   D(33,34,36,42)        -63.523          calculate D2E/DX2 analytically  !
 ! D99   D(33,34,36,43)         53.4261         calculate D2E/DX2 analytically  !
 ! D100  D(35,34,36,41)        -57.4243         calculate D2E/DX2 analytically  !
 ! D101  D(35,34,36,42)         62.7101         calculate D2E/DX2 analytically  !
 ! D102  D(35,34,36,43)        179.6591         calculate D2E/DX2 analytically  !
 ! D103  D(37,34,36,41)         59.8819         calculate D2E/DX2 analytically  !
 ! D104  D(37,34,36,42)       -179.9837         calculate D2E/DX2 analytically  !
 ! D105  D(37,34,36,43)        -63.0347         calculate D2E/DX2 analytically  !
 ! D106  D(34,35,38,44)        -56.1234         calculate D2E/DX2 analytically  !
 ! D107  D(34,35,38,45)       -179.1051         calculate D2E/DX2 analytically  !
 ! D108  D(34,35,38,46)         64.283          calculate D2E/DX2 analytically  !
 ! D109  D(39,35,38,44)         63.6828         calculate D2E/DX2 analytically  !
 ! D110  D(39,35,38,45)        -59.2988         calculate D2E/DX2 analytically  !
 ! D111  D(39,35,38,46)       -175.9108         calculate D2E/DX2 analytically  !
 ! D112  D(40,35,38,44)       -177.9548         calculate D2E/DX2 analytically  !
 ! D113  D(40,35,38,45)         59.0635         calculate D2E/DX2 analytically  !
 ! D114  D(40,35,38,46)        -57.5485         calculate D2E/DX2 analytically  !
 ! D115  D(34,36,41,44)         56.6129         calculate D2E/DX2 analytically  !
 ! D116  D(34,36,41,47)        179.2052         calculate D2E/DX2 analytically  !
 ! D117  D(34,36,41,48)        -63.9775         calculate D2E/DX2 analytically  !
 ! D118  D(42,36,41,44)        -63.4048         calculate D2E/DX2 analytically  !
 ! D119  D(42,36,41,47)         59.1876         calculate D2E/DX2 analytically  !
 ! D120  D(42,36,41,48)        176.0048         calculate D2E/DX2 analytically  !
 ! D121  D(43,36,41,44)        178.5968         calculate D2E/DX2 analytically  !
 ! D122  D(43,36,41,47)        -58.8108         calculate D2E/DX2 analytically  !
 ! D123  D(43,36,41,48)         58.0064         calculate D2E/DX2 analytically  !
 ! D124  D(35,38,44,41)         55.2665         calculate D2E/DX2 analytically  !
 ! D125  D(35,38,44,49)        178.0309         calculate D2E/DX2 analytically  !
 ! D126  D(35,38,44,50)        -64.8918         calculate D2E/DX2 analytically  !
 ! D127  D(45,38,44,41)        177.9998         calculate D2E/DX2 analytically  !
 ! D128  D(45,38,44,49)        -59.2357         calculate D2E/DX2 analytically  !
 ! D129  D(45,38,44,50)         57.8415         calculate D2E/DX2 analytically  !
 ! D130  D(46,38,44,41)        -64.9735         calculate D2E/DX2 analytically  !
 ! D131  D(46,38,44,49)         57.7909         calculate D2E/DX2 analytically  !
 ! D132  D(46,38,44,50)        174.8682         calculate D2E/DX2 analytically  !
 ! D133  D(36,41,44,38)        -55.3996         calculate D2E/DX2 analytically  !
 ! D134  D(36,41,44,49)       -178.1487         calculate D2E/DX2 analytically  !
 ! D135  D(36,41,44,50)         64.7979         calculate D2E/DX2 analytically  !
 ! D136  D(47,41,44,38)       -177.5697         calculate D2E/DX2 analytically  !
 ! D137  D(47,41,44,49)         59.6813         calculate D2E/DX2 analytically  !
 ! D138  D(47,41,44,50)        -57.3721         calculate D2E/DX2 analytically  !
 ! D139  D(48,41,44,38)         65.1333         calculate D2E/DX2 analytically  !
 ! D140  D(48,41,44,49)        -57.6157         calculate D2E/DX2 analytically  !
 ! D141  D(48,41,44,50)       -174.6691         calculate D2E/DX2 analytically  !
 --------------------------------------------------------------------------------
 Trust Radius=3.00D-01 FncErr=5.00D-06 GrdErr=5.00D-06 EigMax=2.50D+02 EigMin=1.00D-04
 Number of steps in this run=    301 maximum allowed number of steps=    306.
 Search for a saddle point of order  1.
 GradGradGradGradGradGradGradGradGradGradGradGradGradGradGradGradGradGrad

 Leave Link  103 at Sun Dec 16 10:28:03 2018, MaxMem=  1342177280 cpu:               0.5 elap:               0.1
 (Enter /gpfs/apps/hpc/Apps/Restricted/Gaussian/Rev_A.03/g16/l202.exe)
 Symmetry turned off by external request.
 Stoichiometry    C22H25N3O(1+,2)
 Framework group  C1[X(C22H25N3O)]
 Deg. of freedom   147
 Full point group                 C1      NOp   1
                          Input orientation:                          
 ---------------------------------------------------------------------
 Center     Atomic      Atomic             Coordinates (Angstroms)
 Number     Number       Type             X           Y           Z
 ---------------------------------------------------------------------
      1          6           0       -0.424191    2.671740    0.277732
      2          6           0       -1.835682    2.792786    0.237620
      3          6           0       -2.433932    4.058781    0.141547
      4          6           0       -1.585080    5.155900    0.093569
      5          6           0       -0.178679    5.020674    0.136079
      6          6           0        0.442832    3.776169    0.229386
      7          6           0       -1.336685    0.666036    0.369264
      8          1           0       -3.510066    4.168869    0.105523
      9          1           0       -2.007926    6.150438    0.021308
     10          1           0        0.438200    5.910889    0.095889
     11          7           0       -2.365591    1.525508    0.297750
     12          6           0       -2.958184   -1.189148    0.419530
     13          6           0       -1.566044   -0.752745    0.429680
     14          6           0       -0.559056   -1.702807    0.478795
     15          6           0       -0.866807   -3.072047    0.521013
     16          6           0       -2.230640   -3.484783    0.525765
     17          6           0       -3.273484   -2.594493    0.480952
     18          1           0        0.478651   -1.392386    0.479165
     19          1           0       -2.444521   -4.546836    0.569291
     20          6           0        0.214153   -4.101092    0.539564
     21          1           0        1.196401   -3.651878    0.680976
     22          1           0        0.035050   -4.837947    1.327723
     23          1           0        0.216654   -4.653468   -0.407084
     24          6           0       -4.709834   -3.009811    0.485260
     25          1           0       -5.246347   -2.542462    1.315320
     26          1           0       -5.208621   -2.690638   -0.434300
     27          1           0       -4.793742   -4.092576    0.573947
     28          8           0       -3.922550   -0.333742    0.350531
     29          7           0       -0.149329    1.332159    0.361478
     30          1           0        0.812288    0.999127    0.403774
     31          6           0        1.894450    3.603352    0.270844
     32          1           0        2.491136    4.519343    0.216736
     33          7           0        2.409067    2.434119    0.366008
     34          6           0        3.873253    2.314636    0.405526
     35          6           0        4.521994    2.741246   -0.921736
     36          6           0        4.503154    3.078759    1.581638
     37          1           0        4.083049    1.249059    0.550802
     38          6           0        6.037601    2.516367   -0.878442
     39          1           0        4.308768    3.803787   -1.089031
     40          1           0        4.068849    2.184945   -1.747731
     41          6           0        6.017559    2.847426    1.628849
     42          1           0        4.305639    4.150225    1.458179
     43          1           0        4.027201    2.768750    2.516512
     44          6           0        6.678272    3.250156    0.305078
     45          1           0        6.492278    2.837287   -1.820427
     46          1           0        6.234149    1.440867   -0.784161
     47          1           0        6.452761    3.408314    2.461564
     48          1           0        6.214318    1.785780    1.823851
     49          1           0        7.753399    3.049790    0.339762
     50          1           0        6.560505    4.331682    0.161998
     51          1           0       -3.455509    0.696067    0.309977
 ---------------------------------------------------------------------
 Rotational constants (GHZ):           0.2915799           0.1039514           0.0791481
 Leave Link  202 at Sun Dec 16 10:28:03 2018, MaxMem=  1342177280 cpu:               0.9 elap:               0.1
 (Enter /gpfs/apps/hpc/Apps/Restricted/Gaussian/Rev_A.03/g16/l301.exe)
 Standard basis: 6-31G(d,p) (6D, 7F)
 Ernie: Thresh=  0.10000D-02 Tol=  0.10000D-05 Strict=F.
   515 basis functions,   903 primitive gaussians,   515 cartesian basis functions
    93 alpha electrons       92 beta electrons
       nuclear repulsion energy      2191.0150093985 Hartrees.
 IExCor=  402 DFT=T Ex+Corr=B3LYP ExCW=0 ScaHFX=  0.200000
 ScaDFX=  0.800000  0.720000  1.000000  0.810000 ScalE2=  1.000000  1.000000
 IRadAn=      5 IRanWt=     -1 IRanGd=            0 ICorTp=0 IEmpDi=141
 NAtoms=   51 NActive=   51 NUniq=   51 SFac= 1.00D+00 NAtFMM=   60 NAOKFM=F Big=F
 Integral buffers will be    131072 words long.
 Raffenetti 2 integral format.
 Two-electron integral symmetry is turned off.
 R6Disp:  Grimme-D3(BJ) Dispersion energy=       -0.1080287128 Hartrees.
 Nuclear repulsion after empirical dispersion term =     2190.9069806856 Hartrees.
 Force inversion solution in PCM.
 Using the following non-standard input for PCM:
 radii=bondi
 dis
 rep
 cav
 --- end of non-standard input.
 Force inversion solution in PCM.
 ------------------------------------------------------------------------------
 Polarizable Continuum Model (PCM)
 =================================
 Model                : C-PCM.
 Atomic radii         : Bondi.
 Polarization charges : Total charges.
 Charge compensation  : None.
 Solution method      : Matrix inversion.
 Cavity type          : Scaled VdW (van der Waals Surface) (Alpha=1.100).
 Cavity algorithm     : GePol (No added spheres)
                        Default sphere list used, NSphG=   51.
                        Lebedev-Laikov grids with approx.  5.0 points / Ang**2.
                        Smoothing algorithm: York/Karplus (Gamma=1.0000).
                        Polarization charges: spherical gaussians, with
                                              point-specific exponents (IZeta= 3).
                        Self-potential: point-specific (ISelfS= 7).
                        Self-field    : sphere-specific E.n sum rule (ISelfD= 2).
 1st derivatives      : Analytical E(r).r(x)/FMM algorithm (CHGder, D1EAlg=3).
                        Cavity 1st derivative terms included.
 2nd derivatives      : Analytical E(r).r(xy)/FMM algorithm (CHGder, D2EAlg=3).
                        Cavity 2nd derivative terms included.
 Solvent              : Dichloromethane, Eps=   8.930000 Eps(inf)=   2.028346
 ------------------------------------------------------------------------------
 GePol: Number of generator spheres                  =      51
 GePol: Total number of spheres                      =      51
 GePol: Number of exposed spheres                    =      51 (100.00%)
 GePol: Number of points                             =    3459
 GePol: Average weight of points                     =       0.12
 GePol: Minimum weight of points                     =   0.27D-10
 GePol: Maximum weight of points                     =    0.21770
 GePol: Number of points with low weight             =     222
 GePol: Fraction of low-weight points (<1% of avg)   =       6.42%
 GePol: Cavity surface area                          =    408.938 Ang**2
 GePol: Cavity volume                                =    386.972 Ang**3
 PCM non-electrostatic energy =         0.0148748580 Hartrees.
 Nuclear repulsion after PCM non-electrostatic terms =     2190.9218555436 Hartrees.
 Leave Link  301 at Sun Dec 16 10:28:04 2018, MaxMem=  1342177280 cpu:               3.2 elap:               0.2
 (Enter /gpfs/apps/hpc/Apps/Restricted/Gaussian/Rev_A.03/g16/l302.exe)
 NPDir=0 NMtPBC=     1 NCelOv=     1 NCel=       1 NClECP=     1 NCelD=      1
         NCelK=      1 NCelE2=     1 NClLst=     1 CellRange=     0.0.
 One-electron integrals computed using PRISM.
 NBasis=   515 RedAO= T EigKep=  3.00D-04  NBF=   515
 NBsUse=   515 1.00D-06 EigRej= -1.00D+00 NBFU=   515
 Precomputing XC quadrature grid using
 IXCGrd= 4 IRadAn=           5 IRanWt=          -1 IRanGd=           0 AccXCQ= 0.00D+00.
 Generated NRdTot=       0 NPtTot=           0 NUsed=           0 NTot=          32
 NSgBfM=   506   506   506   506   506 MxSgAt=    51 MxSgA2=    51.
 Leave Link  302 at Sun Dec 16 10:28:05 2018, MaxMem=  1342177280 cpu:              17.2 elap:               1.2
 (Enter /gpfs/apps/hpc/Apps/Restricted/Gaussian/Rev_A.03/g16/l303.exe)
 DipDrv:  MaxL=1.
 Leave Link  303 at Sun Dec 16 10:28:05 2018, MaxMem=  1342177280 cpu:               2.7 elap:               0.2
 (Enter /gpfs/apps/hpc/Apps/Restricted/Gaussian/Rev_A.03/g16/l401.exe)
 Initial guess from the checkpoint file:  "cyclohexyl-monoBIP-TS1.chk"
 B after Tr=    -0.000000   -0.000000   -0.000000
         Rot=    1.000000   -0.000000   -0.000000   -0.000000 Ang=  -0.00 deg.
 Guess basis will be translated and rotated to current coordinates.
 JPrj=2 DoOrth=T DoCkMO=T.
 Initial guess <Sx>= 0.0000 <Sy>= 0.0000 <Sz>= 0.5000 <S**2>= 0.7639 S= 0.5069
 Leave Link  401 at Sun Dec 16 10:28:07 2018, MaxMem=  1342177280 cpu:              25.9 elap:               1.7
 (Enter /gpfs/apps/hpc/Apps/Restricted/Gaussian/Rev_A.03/g16/l502.exe)
 Two-electron integral symmetry not used.
 UHF open shell SCF:
 Using DIIS extrapolation, IDIIS=  1040.
 NGot=  1342177280 LenX=  1341634262 LenY=  1341368522
 Requested convergence on RMS density matrix=1.00D-08 within 128 cycles.
 Requested convergence on MAX density matrix=1.00D-06.
 Requested convergence on             energy=1.00D-06.
 No special actions if energy rises.
 Fock matrices will be formed incrementally for  20 cycles.

 Cycle   1  Pass 1  IDiag  1:
 FoFJK:  IHMeth= 1 ICntrl=       0 DoSepK=F KAlg= 0 I1Cent=           0 FoldK=F
 IRaf= 600000000 NMat=       1 IRICut=       1 DoRegI=T DoRafI=F ISym2E= 0 IDoP0=0 IntGTp=1.
 FoFCou: FMM=F IPFlag=           0 FMFlag=      100000 FMFlg1=           0
         NFxFlg=           0 DoJE=F BraDBF=F KetDBF=F FulRan=T
         wScrn=  0.000000 ICntrl=         0 IOpCl=  1 I1Cent=           0 NGrid=           0
         NMat0=    1 NMatS0=      1 NMatT0=    0 NMatD0=    1 NMtDS0=    0 NMtDT0=    0
 Symmetry not used in FoFCou.
 Inv3:  Mode=1 IEnd=    35894043.
 Iteration    1 A*A^-1 deviation from unit magnitude is 1.31D-14 for    678.
 Iteration    1 A*A^-1 deviation from orthogonality  is 6.39D-15 for   2279    657.
 Iteration    1 A^-1*A deviation from unit magnitude is 1.27D-14 for   2154.
 Iteration    1 A^-1*A deviation from orthogonality  is 5.34D-15 for   3454   1382.
 E= -1092.88123496251    
 DIIS: error= 3.30D-08 at cycle   1 NSaved=   1.
 NSaved= 1 IEnMin= 1 EnMin= -1092.88123496251     IErMin= 1 ErrMin= 3.30D-08
 ErrMax= 3.30D-08  0.00D+00 EMaxC= 1.00D-01 BMatC= 9.83D-12 BMatP= 9.83D-12
 IDIUse=1 WtCom= 1.00D+00 WtEn= 0.00D+00
 Coeff-Com:  0.100D+01
 Coeff:      0.100D+01
 Gap=     0.157 Goal=   None    Shift=    0.000
 Gap=     0.064 Goal=   None    Shift=    0.000
 RMSDP=8.23D-09 MaxDP=2.63D-07              OVMax= 5.01D-07

 Error on total polarization charges =  0.03869
 SCF Done:  E(UB3LYP) =  -1092.88123496     A.U. after    1 cycles
            NFock=  1  Conv=0.82D-08     -V/T= 2.0096
 <Sx>= 0.0000 <Sy>= 0.0000 <Sz>= 0.5000 <S**2>= 0.7639 S= 0.5069
 <L.S>= 0.000000000000E+00
 KE= 1.082450251166D+03 PE=-6.893463561577D+03 EE= 2.527210219905D+03
 Annihilation of the first spin contaminant:
 S**2 before annihilation     0.7639,   after     0.7501
 Leave Link  502 at Sun Dec 16 10:28:29 2018, MaxMem=  1342177280 cpu:             291.9 elap:              21.9
 (Enter /gpfs/apps/hpc/Apps/Restricted/Gaussian/Rev_A.03/g16/l801.exe)
 DoSCS=F DFT=T ScalE2(SS,OS)=  1.000000  1.000000
 Range of M.O.s used for correlation:     1   515
 NBasis=   515 NAE=    93 NBE=    92 NFC=     0 NFV=     0
 NROrb=    515 NOA=    93 NOB=    92 NVA=   422 NVB=   423

 **** Warning!!: The largest alpha MO coefficient is  0.12504128D+02


 **** Warning!!: The largest beta MO coefficient is  0.12526589D+02


 **** Warning!!: The smallest beta delta epsilon is  0.64157342D-01

 Leave Link  801 at Sun Dec 16 10:28:29 2018, MaxMem=  1342177280 cpu:               0.9 elap:               0.1
 (Enter /gpfs/apps/hpc/Apps/Restricted/Gaussian/Rev_A.03/g16/l1101.exe)
 Using compressed storage, NAtomX=    51.
 Will process     52 centers per pass.
 R6Disp: Adding Grimme-D3(BJ) dispersion energy 1st derivatives to the gradient.
 Leave Link 1101 at Sun Dec 16 10:28:31 2018, MaxMem=  1342177280 cpu:              14.6 elap:               1.0
 (Enter /gpfs/apps/hpc/Apps/Restricted/Gaussian/Rev_A.03/g16/l1102.exe)
 Symmetrizing basis deriv contribution to polar:
 IMax=3 JMax=2 DiffMx= 0.00D+00
 Leave Link 1102 at Sun Dec 16 10:28:31 2018, MaxMem=  1342177280 cpu:               1.2 elap:               0.1
 (Enter /gpfs/apps/hpc/Apps/Restricted/Gaussian/Rev_A.03/g16/l1110.exe)
 Forming Gx(P) for the SCF density, NAtomX=    51.
 Integral derivatives from FoFJK, PRISM(SPDF).
 Do as many integral derivatives as possible in FoFJK.
 G2DrvN: MDV=    1342173472.
 G2DrvN: will do    52 centers at a time, making    1 passes.
 Calling FoFCou, ICntrl=  3107 FMM=F I1Cent=   0 AccDes= 0.00D+00.
 FoFJK:  IHMeth= 1 ICntrl=    3107 DoSepK=F KAlg= 0 I1Cent=           0 FoldK=F
 IRaf=         0 NMat=       1 IRICut=       1 DoRegI=T DoRafI=F ISym2E= 0 IDoP0=0 IntGTp=1.
 FoFCou: FMM=F IPFlag=           0 FMFlag=      100000 FMFlg1=           0
         NFxFlg=           0 DoJE=F BraDBF=F KetDBF=F FulRan=T
         wScrn=  0.000000 ICntrl=      3107 IOpCl=  1 I1Cent=           0 NGrid=           0
         NMat0=    1 NMatS0=      1 NMatT0=    0 NMatD0=    1 NMtDS0=    0 NMtDT0=    0
 Symmetry not used in FoFCou.
 NEqPCM:  Using equilibrium solvation (IEInf=0, Eps=   8.9300, EpsInf=   2.0283)
 G2PCM: DoFxE=T DoFxN=T DoGrad=T DoDP/DQ/DG/TGxP=FFFF NFrqRd=   0 IEInf=0 SqF1=F DoCFld=F IF1Alg=4.
 GePol: Maximum number of non-zero 1st derivatives   =     219
 End of G2Drv F.D. properties file   721 does not exist.
 End of G2Drv F.D. properties file   722 does not exist.
 End of G2Drv F.D. properties file   788 does not exist.
 Leave Link 1110 at Sun Dec 16 10:37:31 2018, MaxMem=  1342177280 cpu:            8623.0 elap:             539.3
 (Enter /gpfs/apps/hpc/Apps/Restricted/Gaussian/Rev_A.03/g16/l1002.exe)
 Minotr:  UHF open shell wavefunction.
          IDoAtm=11111111111111111111111111111111111111111111111111
          IDoAtm=1
 NEqPCM:  Using equilibrium solvation (IEInf=0, Eps=   8.9300, EpsInf=   2.0283)
          Direct CPHF calculation.
          Differentiating once with respect to nuclear coordinates.
          Requested convergence is 1.0D-08 RMS, and 1.0D-07 maximum.
          Secondary convergence is 1.0D-12 RMS, and 1.0D-12 maximum.
          NewPWx=T KeepS1=F KeepF1=F KeepIn=T MapXYZ=F SortEE=F KeepMc=T.
        15521 words used for storage of precomputed grid.
 Two-electron integral symmetry not used.
          MDV=    1342177280 using IRadAn=       1.
          Solving linear equations simultaneously, MaxMat=     384.
 FoF2E skips out because all densities are zero.
 CalDSu exits because no D1Ps are significant.
 FoFJK:  IHMeth= 1 ICntrl=       0 DoSepK=F KAlg= 0 I1Cent=           0 FoldK=F
 IRaf= 560000000 NMat=      80 IRICut=     200 DoRegI=T DoRafI=T ISym2E= 0 IDoP0=0 IntGTp=1.
          There are   156 degrees of freedom in the 1st order CPHF.  IDoFFX=6 NUNeed=     0.
    150 vectors produced by pass  0 Test12= 7.82D-14 1.00D-09 XBig12= 4.30D-01 2.21D-01.
 AX will form    80 AO Fock derivatives at one time.
    150 vectors produced by pass  1 Test12= 7.82D-14 1.00D-09 XBig12= 1.13D-01 6.50D-02.
    150 vectors produced by pass  2 Test12= 7.82D-14 1.00D-09 XBig12= 1.66D-03 1.01D-02.
    150 vectors produced by pass  3 Test12= 7.82D-14 1.00D-09 XBig12= 1.16D-05 7.73D-04.
    150 vectors produced by pass  4 Test12= 7.82D-14 1.00D-09 XBig12= 4.92D-08 2.73D-05.
    134 vectors produced by pass  5 Test12= 7.82D-14 1.00D-09 XBig12= 3.05D-10 1.06D-06.
     76 vectors produced by pass  6 Test12= 7.82D-14 1.00D-09 XBig12= 1.30D-12 8.58D-08.
     15 vectors produced by pass  7 Test12= 7.82D-14 1.00D-09 XBig12= 4.68D-15 4.31D-09.
 InvSVY:  IOpt=1 It=  1 EMax= 1.44D-15
 Solved reduced A of dimension   975 with   156 vectors.
 End of Minotr F.D. properties file   721 does not exist.
 End of Minotr F.D. properties file   722 does not exist.
 End of Minotr F.D. properties file   788 does not exist.
 Leave Link 1002 at Sun Dec 16 10:56:02 2018, MaxMem=  1342177280 cpu:           17766.9 elap:            1111.5
 (Enter /gpfs/apps/hpc/Apps/Restricted/Gaussian/Rev_A.03/g16/l601.exe)
 Copying SCF densities to generalized density rwf, IOpCl= 1 IROHF=0.

 **********************************************************************

            Population analysis using the SCF density.

 **********************************************************************

 Alpha  occ. eigenvalues --  -19.22214 -14.42278 -14.38568 -14.34651 -10.32278
 Alpha  occ. eigenvalues --  -10.30959 -10.26479 -10.26283 -10.25951 -10.25684
 Alpha  occ. eigenvalues --  -10.24983 -10.24683 -10.23699 -10.23051 -10.22822
 Alpha  occ. eigenvalues --  -10.22207 -10.22191 -10.21867 -10.21641 -10.20468
 Alpha  occ. eigenvalues --  -10.20138 -10.18521 -10.18464 -10.18193 -10.18188
 Alpha  occ. eigenvalues --  -10.17959  -1.11695  -1.06511  -0.94417  -0.92637
 Alpha  occ. eigenvalues --   -0.90853  -0.88133  -0.83473  -0.82890  -0.81848
 Alpha  occ. eigenvalues --   -0.78771  -0.76732  -0.74517  -0.73852  -0.72337
 Alpha  occ. eigenvalues --   -0.71255  -0.69119  -0.66989  -0.66033  -0.64150
 Alpha  occ. eigenvalues --   -0.61812  -0.61371  -0.61103  -0.59261  -0.57687
 Alpha  occ. eigenvalues --   -0.56469  -0.54792  -0.53496  -0.52524  -0.51482
 Alpha  occ. eigenvalues --   -0.50073  -0.49912  -0.48624  -0.47854  -0.47527
 Alpha  occ. eigenvalues --   -0.47121  -0.46205  -0.45109  -0.44839  -0.44708
 Alpha  occ. eigenvalues --   -0.44567  -0.44278  -0.42840  -0.42561  -0.42192
 Alpha  occ. eigenvalues --   -0.40918  -0.40826  -0.40738  -0.39671  -0.39211
 Alpha  occ. eigenvalues --   -0.38782  -0.38733  -0.38260  -0.37817  -0.36774
 Alpha  occ. eigenvalues --   -0.35905  -0.35161  -0.34662  -0.32852  -0.32678
 Alpha  occ. eigenvalues --   -0.32455  -0.32332  -0.31017  -0.29886  -0.26888
 Alpha  occ. eigenvalues --   -0.26660  -0.25358  -0.24750
 Alpha virt. eigenvalues --   -0.09036  -0.05751  -0.04380  -0.01151   0.01287
 Alpha virt. eigenvalues --    0.03842   0.07156   0.08666   0.09203   0.09770
 Alpha virt. eigenvalues --    0.10225   0.10727   0.11353   0.11993   0.12223
 Alpha virt. eigenvalues --    0.12782   0.12979   0.13263   0.14608   0.15210
 Alpha virt. eigenvalues --    0.15269   0.15882   0.16479   0.16588   0.16925
 Alpha virt. eigenvalues --    0.17302   0.17427   0.17900   0.17908   0.18251
 Alpha virt. eigenvalues --    0.18297   0.18463   0.18958   0.19309   0.20061
 Alpha virt. eigenvalues --    0.21183   0.21934   0.22914   0.23463   0.23968
 Alpha virt. eigenvalues --    0.23997   0.24558   0.24596   0.25256   0.27453
 Alpha virt. eigenvalues --    0.27819   0.28905   0.29138   0.30415   0.31065
 Alpha virt. eigenvalues --    0.31467   0.32773   0.33670   0.35516   0.37840
 Alpha virt. eigenvalues --    0.38214   0.41048   0.41248   0.42327   0.45074
 Alpha virt. eigenvalues --    0.46288   0.47101   0.48183   0.49018   0.49741
 Alpha virt. eigenvalues --    0.49953   0.50268   0.51278   0.51306   0.51498
 Alpha virt. eigenvalues --    0.51659   0.51980   0.52855   0.53151   0.53793
 Alpha virt. eigenvalues --    0.53968   0.54025   0.54544   0.54823   0.55868
 Alpha virt. eigenvalues --    0.56161   0.56676   0.56784   0.57399   0.58641
 Alpha virt. eigenvalues --    0.58718   0.59399   0.59725   0.60349   0.61312
 Alpha virt. eigenvalues --    0.61607   0.61899   0.62279   0.63066   0.63467
 Alpha virt. eigenvalues --    0.64290   0.65396   0.65810   0.66924   0.67967
 Alpha virt. eigenvalues --    0.68471   0.69732   0.70465   0.71096   0.71298
 Alpha virt. eigenvalues --    0.72863   0.73061   0.74278   0.74952   0.75242
 Alpha virt. eigenvalues --    0.75758   0.76062   0.77577   0.77816   0.79055
 Alpha virt. eigenvalues --    0.79731   0.79977   0.80397   0.80781   0.81577
 Alpha virt. eigenvalues --    0.82821   0.83000   0.83785   0.84009   0.84855
 Alpha virt. eigenvalues --    0.84928   0.85657   0.86201   0.86500   0.87032
 Alpha virt. eigenvalues --    0.87180   0.88285   0.88935   0.89005   0.89860
 Alpha virt. eigenvalues --    0.90203   0.90866   0.90991   0.91160   0.91777
 Alpha virt. eigenvalues --    0.92101   0.92988   0.94011   0.94462   0.94936
 Alpha virt. eigenvalues --    0.95559   0.96582   0.96980   0.97063   0.98689
 Alpha virt. eigenvalues --    1.00363   1.01841   1.05045   1.05329   1.06607
 Alpha virt. eigenvalues --    1.08117   1.08359   1.10013   1.10570   1.12506
 Alpha virt. eigenvalues --    1.14172   1.14800   1.16546   1.17509   1.18514
 Alpha virt. eigenvalues --    1.18808   1.20015   1.21689   1.23143   1.23555
 Alpha virt. eigenvalues --    1.24364   1.25348   1.25568   1.26055   1.26444
 Alpha virt. eigenvalues --    1.27183   1.27395   1.27862   1.31987   1.32855
 Alpha virt. eigenvalues --    1.34723   1.35483   1.35931   1.36231   1.36758
 Alpha virt. eigenvalues --    1.37064   1.37666   1.38622   1.39218   1.40303
 Alpha virt. eigenvalues --    1.40698   1.41931   1.44237   1.45691   1.48552
 Alpha virt. eigenvalues --    1.50754   1.51062   1.51867   1.55276   1.57161
 Alpha virt. eigenvalues --    1.58475   1.59293   1.60506   1.60794   1.60927
 Alpha virt. eigenvalues --    1.63481   1.66333   1.66950   1.67709   1.68512
 Alpha virt. eigenvalues --    1.69777   1.70269   1.71231   1.72175   1.72640
 Alpha virt. eigenvalues --    1.73256   1.73530   1.75700   1.76220   1.76960
 Alpha virt. eigenvalues --    1.78880   1.79854   1.80388   1.81458   1.81656
 Alpha virt. eigenvalues --    1.81769   1.83242   1.83397   1.84638   1.85057
 Alpha virt. eigenvalues --    1.85276   1.87298   1.87851   1.89030   1.89157
 Alpha virt. eigenvalues --    1.89672   1.89744   1.90970   1.92593   1.93097
 Alpha virt. eigenvalues --    1.93179   1.94004   1.95306   1.95797   1.96325
 Alpha virt. eigenvalues --    1.97170   1.97516   1.98511   1.99484   2.01456
 Alpha virt. eigenvalues --    2.02372   2.02984   2.03400   2.03657   2.06235
 Alpha virt. eigenvalues --    2.07242   2.07806   2.08759   2.10186   2.11426
 Alpha virt. eigenvalues --    2.11652   2.11804   2.12328   2.12897   2.14421
 Alpha virt. eigenvalues --    2.14830   2.15228   2.15402   2.16435   2.17356
 Alpha virt. eigenvalues --    2.17542   2.18409   2.19309   2.20017   2.20909
 Alpha virt. eigenvalues --    2.22118   2.22345   2.24412   2.25282   2.25446
 Alpha virt. eigenvalues --    2.25471   2.25903   2.26665   2.28701   2.29307
 Alpha virt. eigenvalues --    2.29361   2.31645   2.32081   2.33887   2.34136
 Alpha virt. eigenvalues --    2.34370   2.35993   2.36884   2.36962   2.37966
 Alpha virt. eigenvalues --    2.38202   2.38812   2.39385   2.40797   2.41091
 Alpha virt. eigenvalues --    2.42736   2.43561   2.46444   2.46852   2.47218
 Alpha virt. eigenvalues --    2.47713   2.48395   2.49663   2.50356   2.51324
 Alpha virt. eigenvalues --    2.52399   2.52833   2.53400   2.54341   2.54964
 Alpha virt. eigenvalues --    2.55156   2.55706   2.58298   2.58400   2.58569
 Alpha virt. eigenvalues --    2.59686   2.60761   2.62424   2.62869   2.63797
 Alpha virt. eigenvalues --    2.63986   2.64684   2.66262   2.66488   2.67352
 Alpha virt. eigenvalues --    2.68618   2.70716   2.72096   2.72987   2.73261
 Alpha virt. eigenvalues --    2.73596   2.74051   2.75399   2.75842   2.76937
 Alpha virt. eigenvalues --    2.79445   2.80839   2.81283   2.82133   2.82945
 Alpha virt. eigenvalues --    2.83926   2.84044   2.85672   2.85961   2.87169
 Alpha virt. eigenvalues --    2.87436   2.88390   2.88460   2.90919   2.90998
 Alpha virt. eigenvalues --    2.92542   2.93486   2.94421   2.94662   2.98671
 Alpha virt. eigenvalues --    2.99995   3.02543   3.04285   3.07647   3.10140
 Alpha virt. eigenvalues --    3.13369   3.15353   3.16607   3.18273   3.19110
 Alpha virt. eigenvalues --    3.20768   3.21683   3.25291   3.30010   3.30391
 Alpha virt. eigenvalues --    3.31259   3.31590   3.33215   3.37467   3.38117
 Alpha virt. eigenvalues --    3.40299   3.40834   3.41475   3.41940   3.44299
 Alpha virt. eigenvalues --    3.46040   3.46918   3.47065   3.51176   3.52616
 Alpha virt. eigenvalues --    3.54182   3.55583   3.60835   3.64425   3.69499
 Alpha virt. eigenvalues --    3.79130   4.00294   4.06111   4.07271   4.08597
 Alpha virt. eigenvalues --    4.10022   4.12888   4.13435   4.25807   4.26808
 Alpha virt. eigenvalues --    4.29735   4.34132   4.36863   4.41103   4.42974
 Alpha virt. eigenvalues --    4.44517   4.46006   4.49463   4.53382   4.57987
 Alpha virt. eigenvalues --    4.61265   4.67184   4.73498   4.74858   4.78921
 Alpha virt. eigenvalues --    4.85107   4.89496
  Beta  occ. eigenvalues --  -19.21646 -14.42233 -14.38481 -14.34659 -10.32045
  Beta  occ. eigenvalues --  -10.31015 -10.26234 -10.26220 -10.25649 -10.25500
  Beta  occ. eigenvalues --  -10.24979 -10.24509 -10.23793 -10.23129 -10.22840
  Beta  occ. eigenvalues --  -10.22187 -10.22151 -10.21867 -10.21618 -10.20481
  Beta  occ. eigenvalues --  -10.20146 -10.18522 -10.18464 -10.18193 -10.18188
  Beta  occ. eigenvalues --  -10.17959  -1.10638  -1.06359  -0.94393  -0.92508
  Beta  occ. eigenvalues --   -0.90231  -0.87980  -0.83278  -0.82820  -0.81057
  Beta  occ. eigenvalues --   -0.78736  -0.76513  -0.74517  -0.73836  -0.72281
  Beta  occ. eigenvalues --   -0.70855  -0.68896  -0.66899  -0.65927  -0.64077
  Beta  occ. eigenvalues --   -0.61612  -0.61370  -0.60663  -0.59177  -0.57489
  Beta  occ. eigenvalues --   -0.56448  -0.54641  -0.53439  -0.52296  -0.51399
  Beta  occ. eigenvalues --   -0.49861  -0.49308  -0.48459  -0.47809  -0.47011
  Beta  occ. eigenvalues --   -0.46068  -0.46008  -0.45062  -0.44784  -0.44373
  Beta  occ. eigenvalues --   -0.44278  -0.43523  -0.42833  -0.42126  -0.41751
  Beta  occ. eigenvalues --   -0.40906  -0.40635  -0.40606  -0.39526  -0.39173
  Beta  occ. eigenvalues --   -0.38634  -0.38267  -0.38169  -0.37675  -0.35869
  Beta  occ. eigenvalues --   -0.35152  -0.35012  -0.34660  -0.32652  -0.32471
  Beta  occ. eigenvalues --   -0.32353  -0.32292  -0.30374  -0.29733  -0.26666
  Beta  occ. eigenvalues --   -0.25486  -0.25205
  Beta virt. eigenvalues --   -0.18790  -0.08434  -0.05126  -0.02047  -0.00678
  Beta virt. eigenvalues --    0.01875   0.04215   0.07166   0.08668   0.09222
  Beta virt. eigenvalues --    0.09795   0.10295   0.10788   0.12065   0.12246
  Beta virt. eigenvalues --    0.12462   0.12965   0.13014   0.13359   0.14667
  Beta virt. eigenvalues --    0.15247   0.15508   0.15887   0.16511   0.16708
  Beta virt. eigenvalues --    0.17098   0.17313   0.17428   0.18018   0.18130
  Beta virt. eigenvalues --    0.18254   0.18473   0.18806   0.19024   0.19363
  Beta virt. eigenvalues --    0.20174   0.21335   0.22197   0.22946   0.23568
  Beta virt. eigenvalues --    0.23978   0.24252   0.24614   0.24811   0.25398
  Beta virt. eigenvalues --    0.27560   0.27824   0.28973   0.29190   0.30495
  Beta virt. eigenvalues --    0.31171   0.31590   0.32934   0.33970   0.35706
  Beta virt. eigenvalues --    0.37900   0.38340   0.41099   0.41381   0.42546
  Beta virt. eigenvalues --    0.45382   0.46766   0.47230   0.48336   0.49208
  Beta virt. eigenvalues --    0.49914   0.50034   0.50313   0.51335   0.51363
  Beta virt. eigenvalues --    0.51734   0.52041   0.52107   0.53168   0.53213
  Beta virt. eigenvalues --    0.53812   0.54005   0.54048   0.54696   0.55221
  Beta virt. eigenvalues --    0.55968   0.56210   0.56736   0.56862   0.57444
  Beta virt. eigenvalues --    0.58712   0.59073   0.59477   0.59845   0.60620
  Beta virt. eigenvalues --    0.61394   0.61681   0.62167   0.62382   0.63117
  Beta virt. eigenvalues --    0.63623   0.64389   0.65624   0.65822   0.67084
  Beta virt. eigenvalues --    0.68027   0.68590   0.69880   0.70947   0.71300
  Beta virt. eigenvalues --    0.71388   0.73041   0.73553   0.74518   0.75207
  Beta virt. eigenvalues --    0.75340   0.76118   0.76131   0.77615   0.78062
  Beta virt. eigenvalues --    0.79092   0.79929   0.80024   0.80539   0.80775
  Beta virt. eigenvalues --    0.81609   0.82830   0.83179   0.83895   0.84256
  Beta virt. eigenvalues --    0.84983   0.85112   0.85738   0.86243   0.86535
  Beta virt. eigenvalues --    0.87109   0.87199   0.88334   0.88957   0.89059
  Beta virt. eigenvalues --    0.89912   0.90347   0.90909   0.91042   0.91182
  Beta virt. eigenvalues --    0.91907   0.92137   0.93058   0.94053   0.94555
  Beta virt. eigenvalues --    0.94958   0.95758   0.96664   0.97167   0.98462
  Beta virt. eigenvalues --    0.98807   1.00515   1.01881   1.05135   1.05429
  Beta virt. eigenvalues --    1.06902   1.08200   1.08609   1.10106   1.10616
  Beta virt. eigenvalues --    1.12587   1.14245   1.14805   1.16593   1.17746
  Beta virt. eigenvalues --    1.19027   1.19436   1.20094   1.21750   1.23314
  Beta virt. eigenvalues --    1.23815   1.24487   1.25598   1.25812   1.26088
  Beta virt. eigenvalues --    1.26654   1.27433   1.27835   1.28016   1.32053
  Beta virt. eigenvalues --    1.33005   1.35234   1.35807   1.36103   1.36609
  Beta virt. eigenvalues --    1.36938   1.37371   1.37806   1.38766   1.39336
  Beta virt. eigenvalues --    1.40395   1.40726   1.42124   1.44355   1.45870
  Beta virt. eigenvalues --    1.48619   1.50757   1.51186   1.52000   1.55424
  Beta virt. eigenvalues --    1.57162   1.58636   1.60132   1.60571   1.60810
  Beta virt. eigenvalues --    1.61016   1.63494   1.66481   1.67210   1.68060
  Beta virt. eigenvalues --    1.68691   1.69952   1.70736   1.71479   1.72365
  Beta virt. eigenvalues --    1.72874   1.73305   1.73758   1.76055   1.76276
  Beta virt. eigenvalues --    1.77074   1.78951   1.79950   1.80439   1.81653
  Beta virt. eigenvalues --    1.81740   1.81921   1.83473   1.83686   1.84763
  Beta virt. eigenvalues --    1.85132   1.85530   1.87352   1.88055   1.89171
  Beta virt. eigenvalues --    1.89670   1.89859   1.90393   1.91057   1.92654
  Beta virt. eigenvalues --    1.93239   1.93361   1.94092   1.95324   1.96004
  Beta virt. eigenvalues --    1.96719   1.97346   1.97962   1.98595   1.99545
  Beta virt. eigenvalues --    2.01644   2.02601   2.03167   2.03757   2.04007
  Beta virt. eigenvalues --    2.06430   2.07594   2.07994   2.08874   2.10215
  Beta virt. eigenvalues --    2.11604   2.11706   2.12009   2.12342   2.12989
  Beta virt. eigenvalues --    2.14431   2.14851   2.15335   2.15413   2.16477
  Beta virt. eigenvalues --    2.17419   2.17721   2.18441   2.20056   2.20175
  Beta virt. eigenvalues --    2.20915   2.22174   2.22648   2.24500   2.25365
  Beta virt. eigenvalues --    2.25603   2.25656   2.26036   2.26983   2.28876
  Beta virt. eigenvalues --    2.29319   2.29531   2.31804   2.32393   2.33892
  Beta virt. eigenvalues --    2.34155   2.34499   2.36021   2.36981   2.37082
  Beta virt. eigenvalues --    2.38033   2.38251   2.39183   2.39611   2.40886
  Beta virt. eigenvalues --    2.41145   2.42863   2.43714   2.46501   2.47086
  Beta virt. eigenvalues --    2.47273   2.47863   2.48608   2.50001   2.50392
  Beta virt. eigenvalues --    2.51429   2.52716   2.53111   2.53495   2.54383
  Beta virt. eigenvalues --    2.55095   2.55273   2.55849   2.58400   2.58553
  Beta virt. eigenvalues --    2.58689   2.59796   2.60972   2.62868   2.62990
  Beta virt. eigenvalues --    2.63893   2.64105   2.64852   2.66423   2.66661
  Beta virt. eigenvalues --    2.67557   2.68810   2.70926   2.72318   2.73119
  Beta virt. eigenvalues --    2.73442   2.73841   2.74116   2.75476   2.75875
  Beta virt. eigenvalues --    2.77031   2.79671   2.80840   2.81287   2.82266
  Beta virt. eigenvalues --    2.83023   2.84044   2.84244   2.85751   2.86143
  Beta virt. eigenvalues --    2.87183   2.87634   2.88390   2.88544   2.90922
  Beta virt. eigenvalues --    2.91104   2.92566   2.93607   2.94421   2.94714
  Beta virt. eigenvalues --    2.98765   3.00178   3.02617   3.04385   3.07755
  Beta virt. eigenvalues --    3.10193   3.13499   3.15435   3.16848   3.18480
  Beta virt. eigenvalues --    3.19200   3.20780   3.21731   3.25316   3.30011
  Beta virt. eigenvalues --    3.30402   3.31279   3.31599   3.33215   3.37504
  Beta virt. eigenvalues --    3.38124   3.40398   3.41124   3.41579   3.41952
  Beta virt. eigenvalues --    3.44347   3.46040   3.47002   3.47067   3.51183
  Beta virt. eigenvalues --    3.52616   3.54257   3.55598   3.60847   3.64516
  Beta virt. eigenvalues --    3.69586   3.79159   4.00867   4.06144   4.07400
  Beta virt. eigenvalues --    4.09131   4.10150   4.13045   4.13461   4.25943
  Beta virt. eigenvalues --    4.27113   4.29789   4.34145   4.36932   4.41221
  Beta virt. eigenvalues --    4.42973   4.44634   4.46086   4.49528   4.53597
  Beta virt. eigenvalues --    4.58114   4.61379   4.67627   4.73499   4.74858
  Beta virt. eigenvalues --    4.78937   4.85520   4.89577
          Condensed to atoms (all electrons):
          Atomic-Atomic Spin Densities.
 Mulliken charges and spin densities:
               1          2
     1  C    0.252622   0.043969
     2  C    0.314587   0.025104
     3  C   -0.101396   0.001529
     4  C   -0.108417   0.016387
     5  C   -0.161079   0.043385
     6  C    0.099387  -0.016754
     7  C    0.597937  -0.047189
     8  H    0.139223  -0.000331
     9  H    0.130494  -0.000910
    10  H    0.132798  -0.001875
    11  N   -0.728843   0.046246
    12  C    0.339158   0.157093
    13  C    0.095397   0.181591
    14  C   -0.151604  -0.079308
    15  C    0.134776   0.328591
    16  C   -0.131904  -0.070920
    17  C    0.124364   0.127672
    18  H    0.152847   0.002094
    19  H    0.139936   0.001633
    20  C   -0.389034  -0.019790
    21  H    0.144145   0.000703
    22  H    0.158533   0.014759
    23  H    0.166535   0.022251
    24  C   -0.375626  -0.008525
    25  H    0.152968   0.006419
    26  H    0.154610   0.007106
    27  H    0.139811  -0.000199
    28  O   -0.537174   0.204714
    29  N   -0.652618   0.020984
    30  H    0.317813  -0.000710
    31  C    0.165917   0.002762
    32  H    0.122380  -0.000133
    33  N   -0.492253  -0.004257
    34  C    0.059272   0.000276
    35  C   -0.178628  -0.000170
    36  C   -0.181987  -0.000149
    37  H    0.094067  -0.000011
    38  C   -0.186272  -0.000014
    39  H    0.102901   0.000008
    40  H    0.099575   0.000005
    41  C   -0.186884  -0.000008
    42  H    0.103897   0.000008
    43  H    0.099843   0.000004
    44  C   -0.180206   0.000001
    45  H    0.097720  -0.000009
    46  H    0.098378   0.000000
    47  H    0.097634  -0.000008
    48  H    0.098318  -0.000000
    49  H    0.094961   0.000000
    50  H    0.096432   0.000000
    51  H    0.424686  -0.004025
 Sum of Mulliken charges =   1.00000   1.00000
 Mulliken charges and spin densities with hydrogens summed into heavy atoms:
               1          2
     1  C    0.252622   0.043969
     2  C    0.314587   0.025104
     3  C    0.037828   0.001198
     4  C    0.022077   0.015477
     5  C   -0.028281   0.041511
     6  C    0.099387  -0.016754
     7  C    0.597937  -0.047189
    11  N   -0.728843   0.046246
    12  C    0.339158   0.157093
    13  C    0.095397   0.181591
    14  C    0.001243  -0.077214
    15  C    0.134776   0.328591
    16  C    0.008033  -0.069287
    17  C    0.124364   0.127672
    20  C    0.080179   0.017923
    24  C    0.071763   0.004800
    28  O   -0.112488   0.200689
    29  N   -0.334805   0.020274
    31  C    0.288297   0.002629
    33  N   -0.492253  -0.004257
    34  C    0.153339   0.000266
    35  C    0.023848  -0.000157
    36  C    0.021753  -0.000138
    38  C    0.009826  -0.000023
    41  C    0.009067  -0.000017
    44  C    0.011188   0.000002
 APT charges:
               1
     1  C   -0.267650
     2  C   -0.291107
     3  C   -0.403796
     4  C   -0.509656
     5  C   -0.327549
     6  C   -0.605741
     7  C    0.148307
     8  H    0.816415
     9  H    1.210290
    10  H    0.998075
    11  N   -0.432202
    12  C   -0.360674
    13  C   -0.232765
    14  C   -0.491004
    15  C    0.001482
    16  C   -0.512942
    17  C    0.157456
    18  H    0.164306
    19  H    0.953680
    20  C   -1.198763
    21  H    0.109644
    22  H    0.794700
    23  H    0.577999
    24  C   -1.406031
    25  H    0.532189
    26  H    0.456785
    27  H    0.820437
    28  O    0.141533
    29  N   -0.655551
    30  H    0.271603
    31  C    0.049427
    32  H    0.860179
    33  N   -0.844551
    34  C   -0.029390
    35  C   -0.444844
    36  C   -0.608189
    37  H    0.077001
    38  C   -0.910668
    39  H    0.527788
    40  H   -0.034221
    41  C   -1.068649
    42  H    0.546724
    43  H    0.107265
    44  C   -1.704322
    45  H    0.824855
    46  H    0.120179
    47  H    0.963451
    48  H    0.134276
    49  H    1.068424
    50  H    0.606837
    51  H    0.298958
 Sum of APT charges =   1.00000
 APT charges with hydrogens summed into heavy atoms:
               1
     1  C   -0.267650
     2  C   -0.291107
     3  C    0.412619
     4  C    0.700635
     5  C    0.670526
     6  C   -0.605741
     7  C    0.148307
    11  N   -0.432202
    12  C   -0.360674
    13  C   -0.232765
    14  C   -0.326699
    15  C    0.001482
    16  C    0.440737
    17  C    0.157456
    20  C    0.283580
    24  C    0.403381
    28  O    0.440492
    29  N   -0.383948
    31  C    0.909606
    33  N   -0.844551
    34  C    0.047611
    35  C    0.048723
    36  C    0.045800
    38  C    0.034366
    41  C    0.029078
    44  C   -0.029061
 Electronic spatial extent (au):  <R**2>=          14214.2688
 Charge=              1.0000 electrons
 Dipole moment (field-independent basis, Debye):
    X=             -2.1523    Y=             -0.6044    Z=              1.7927  Tot=              2.8656
 Quadrupole moment (field-independent basis, Debye-Ang):
   XX=           -114.2735   YY=            -80.8615   ZZ=           -151.9468
   XY=             17.0424   XZ=             -1.0596   YZ=             -3.2732
 Traceless Quadrupole moment (field-independent basis, Debye-Ang):
   XX=              1.4204   YY=             34.8324   ZZ=            -36.2528
   XY=             17.0424   XZ=             -1.0596   YZ=             -3.2732
 Octapole moment (field-independent basis, Debye-Ang**2):
  XXX=           -180.5951  YYY=           -429.4715  ZZZ=           -160.5009  XYY=           -103.1026
  XXY=           -150.3229  XXZ=            -39.6217  XZZ=            -57.3989  YZZ=           -181.5599
  YYZ=            -33.8832  XYZ=             10.2061
 Hexadecapole moment (field-independent basis, Debye-Ang**3):
 XXXX=          -9676.2937 YYYY=          -6665.3607 ZZZZ=           -591.9646 XXXY=          -1835.1905
 XXXZ=            -52.7795 YYYX=          -1972.0325 YYYZ=           -121.1836 ZZZX=            -46.9277
 ZZZY=            -62.5921 XXYY=          -2632.8231 XXZZ=          -1805.8467 YYZZ=          -1538.6630
 XXYZ=            -32.7981 YYXZ=            -30.1057 ZZXY=           -700.6963
 N-N= 2.190921855544D+03 E-N=-6.893463562089D+03  KE= 1.082450251166D+03
  Exact polarizability:   0.000   0.000   0.000   0.000   0.000   0.000
 Approx polarizability: 503.315 -10.975 787.079   5.992 -28.934 201.102
                          Isotropic Fermi Contact Couplings
        Atom                 a.u.       MegaHertz       Gauss      10(-4) cm-1
     1  C(13)              0.00342       3.84059       1.37042       1.28108
     2  C(13)              0.00058       0.65557       0.23392       0.21867
     3  C(13)             -0.00050      -0.56062      -0.20004      -0.18700
     4  C(13)              0.00093       1.04830       0.37406       0.34968
     5  C(13)              0.00396       4.45451       1.58948       1.48586
     6  C(13)             -0.00265      -2.97847      -1.06279      -0.99351
     7  C(13)             -0.00868      -9.75574      -3.48109      -3.25417
     8  H(1)              -0.00013      -0.56137      -0.20031      -0.18725
     9  H(1)              -0.00031      -1.37657      -0.49119      -0.45917
    10  H(1)              -0.00066      -2.93044      -1.04566      -0.97749
[...]
 00056097,-0.00004224,-0.00007018,0.00052110,0.00008287,0.00059088,-0.0
 0082590,-0.00007494,-0.00011796,-0.00010090,0.00007374,-0.00003113,0.0
 0007170,0.04307324,-0.28772915,0.04098480,0.00132026,0.00097683,-0.000
 13797,0.00026523,0.00086755,-0.00042029,0.00083101,-0.00938707,0.00174
 839,-0.00008438,0.00027822,0.00011037,0.00025609,0.00045274,0.00046767
 ,0.00276582,-0.01597418,0.00263526,-0.04764649,0.31364090,0.00000139,-
 0.00000654,0.00000100,0.00000373,-0.00000083,0.00000252,0.00000581,-0.
 00000385,0.00000004,0.00000550,0.00000466,0.00000048,0.00000097,0.0000
 1110,0.00000216,0.00000825,-0.00001313,-0.00002853,-0.00000714,0.00000
 382,0.00000072,0.00000028,0.00000017,-0.00000011,0.00000146,-0.0000009
 9,-0.00000004,-0.00000121,0.00000012,-0.00000083,0.00000728,-0.0000034
 3,-0.00000010,-0.00000264,0.00000453,-0.00000001,0.00000292,-0.0000045
 6,0.00000040,-0.00000280,0.00000818,-0.00000038,-0.00000280,-0.0000062
 6,0.00000034,0.00000233,-0.00000097,-0.00000004,-0.00000249,-0.0000020
 6,0.00000009,-0.00000037,-0.00000041,0.00000111,0.00000013,0.00000034,
 0.00000008,-0.00000029,0.00000065,0.00000007,0.00000025,0.,0.00000079,
 0.00000013,0.00000034,-0.00000012,-0.00000041,-0.00000010,0.00000002,0
 .00000073,-0.00000049,0.00000014,0.00000032,0.00000020,-0.00000004,0.0
 0000027,0.00000025,0.,0.00000018,0.00000026,0.,0.00000513,-0.00000157,
 -0.00000005,0.00000733,0.00000753,-0.00000110,-0.00000983,-0.00000540,
 0.00000052,-0.00004727,-0.00009435,-0.00000059,0.00003228,0.00000781,0
 .00003713,-0.00001800,-0.00003303,-0.00004363,-0.00011466,0.00083192,0
 .00011733,0.00006043,-0.00014061,-0.00014079,-0.00012079,0.00028886,-0
 .00081872,-0.00008966,0.00001211,0.00020326,-0.00026874,0.00106668,0.0
 0169290,0.00005887,-0.00009023,0.00004563,-0.00007848,-0.00000695,-0.0
 0001342,-0.00826490,0.03993132,-0.05712825,0.00017698,0.00015711,0.001
 03038,-0.00035940,-0.00059134,0.00062343,-0.00460567,0.02893366,-0.006
 41204,0.00020307,-0.00027930,0.00024674,0.00002296,-0.00057055,-0.0001
 0214,0.00489121,-0.02348682,0.00466603,0.00625938,-0.04710386,0.059765
 18,-0.00000035,0.00002087,-0.00000090,-0.00002540,-0.00001085,-0.00000
 033,-0.00002463,0.00002937,-0.00000223,-0.00004166,-0.00002730,0.00000
 089,0.00001374,-0.00005569,0.00000426,-0.00001432,0.00004958,-0.000005
 56,0.00003114,-0.00003197,0.00000245,-0.00000103,-0.00000098,0.0000000
 8,-0.00000612,0.00000379,-0.00000042,0.00000558,-0.00000272,0.,-0.0000
 3974,0.00002616,-0.00000228,0.00000824,-0.00002509,0.00000108,-0.00001
 861,0.00004635,-0.00000248,0.00001851,-0.00007138,0.00000305,0.0000184
 7,0.00005839,-0.00000034,-0.00001098,0.00000628,-0.00000047,0.00001430
 ,0.00001385,-0.00000025,-0.00000036,0.00000280,-0.00000001,-0.00000114
 ,-0.00000201,0.00000010,0.,-0.00001018,-0.00000339,0.00000036,0.000000
 51,0.00000043,0.00000243,-0.00000022,0.00000137,0.00000261,-0.00000037
 ,0.00000060,-0.00000399,0.00000283,-0.00000073,-0.00000137,-0.00000112
 ,0.00000012,-0.00000155,-0.00000114,0.00000018,-0.00000108,-0.00000158
 ,0.00000019,-0.00002483,0.00000523,-0.00000066,-0.00004114,-0.00002296
 ,0.00000033,0.00005237,0.00003792,-0.00000156,0.00008892,-0.00009551,0
 .00000765,0.00002178,-0.00002202,0.00000171,-0.00009114,0.00008034,-0.
 00001144,0.00069973,0.00037392,-0.00001784,0.00077134,-0.00220053,-0.0
 0268647,0.00066472,-0.00146635,0.00326519,-0.00003702,-0.00007644,0.00
 000599,-0.01248545,0.00301947,0.00012839,0.00014506,0.00009620,0.00005
 870,-0.00107806,0.00010483,0.00007671,-0.01218281,0.00284229,-0.000888
 51,0.00016774,0.00007216,-0.00007083,-0.00111038,0.00007907,-0.0001300
 9,-0.30000147,0.05042180,-0.00828469,0.00030978,0.00031478,-0.00027203
 ,0.00050953,-0.00028931,0.00032027,0.00035584,0.00008539,0.00022123,0.
 00066776,-0.00041185,-0.00026413,0.32545200,-0.00000199,0.00000997,-0.
 00000046,-0.00000582,-0.00000108,-0.00000013,-0.00000843,0.00000831,-0
 .00000066,-0.00001155,-0.00000682,0.00000095,-0.00000070,-0.00001949,0
 .00000183,-0.00000132,0.00002199,-0.00001089,0.00000774,-0.00000758,0.
 00000071,-0.00000019,-0.00000020,-0.00000008,-0.00000235,0.00000123,-0
 .00000020,0.00000115,0.00000064,-0.00000030,-0.00001027,0.00000613,-0.
 00000056,0.00000111,-0.00000592,0.00000017,-0.00000430,0.00001180,-0.0
 0000062,0.00000386,-0.00001783,0.00000084,0.00000405,0.00001438,-0.000
 00009,-0.00000199,0.00000121,-0.00000010,0.00000275,0.00000327,-0.0000
 0009,-0.00000025,0.00000070,-0.00000014,-0.00000028,-0.00000042,0.,-0.
 00000039,-0.00000289,-0.00000094,0.00000011,0.00000006,0.00000013,0.00
 000068,-0.00000004,0.00000022,0.00000064,-0.00000012,0.00000030,-0.000
 00079,0.00000050,-0.00000013,-0.00000029,-0.00000025,0.,-0.00000029,-0
 .00000025,0.00000007,-0.00000026,-0.00000027,0.00000003,-0.00000504,0.
 00000088,-0.00000004,-0.00001283,-0.00001056,0.00000045,0.00001471,0.0
 0001206,-0.00000155,0.00002542,-0.00004604,0.00001839,-0.00000565,-0.0
 0000837,0.00000329,-0.00001881,0.00006843,0.00003454,0.00044890,0.0000
 2736,-0.00010962,-0.00069520,-0.00123018,-0.00266205,-0.00041677,0.000
 13204,0.00148518,-0.00001736,-0.00006051,0.00002367,-0.01728505,0.0024
 8018,-0.00048297,-0.00029538,0.00027367,-0.00004346,-0.00091337,0.0002
 6961,-0.00016130,-0.01031671,0.00081493,-0.00009465,-0.00035242,0.0002
 7590,-0.00005005,-0.00039327,0.00032354,0.00006612,0.05206778,-0.05882
 438,0.00197902,0.00070977,0.00038783,0.00043166,0.00025011,0.00066405,
 0.00089355,0.00030056,0.00014728,-0.00020768,-0.00006732,0.00053722,-0
 .00069264,-0.05423510,0.05914161,-0.00000010,-0.00000038,-0.00000004,0
 .00000064,0.00000122,0.00000052,0.00000020,-0.00000061,-0.00000016,0.0
 0000100,0.00000023,0.00000496,-0.00000023,0.00000167,0.00000425,0.0000
 0233,-0.00000259,-0.00006175,-0.00000008,0.00000048,0.00000075,0.00000
 006,-0.00000005,-0.00000067,0.00000024,-0.00000008,-0.00000049,-0.0000
 0017,-0.00000006,-0.00000180,0.00000152,-0.00000057,0.00000007,0.00000
 017,0.00000046,-0.00000041,0.00000049,-0.00000152,0.00000009,-0.000000
 25,0.00000205,0.00000055,-0.00000037,-0.00000159,-0.00000022,0.0000001
 1,-0.00000010,0.00000011,-0.00000014,-0.00000030,-0.00000010,0.0000000
 4,-0.00000014,-0.00000117,0.00000002,0.00000003,-0.00000011,0.00000001
 ,0.00000032,0.00000039,0.00000001,0.,-0.00000043,-0.00000022,-0.000000
 18,0.,0.00000006,0.00000030,-0.00000002,0.00000005,-0.00000002,0.,-0.0
 0000007,0.00000003,0.00000001,0.00000010,0.,0.,0.00000002,0.,-0.000000
 03,0.00000027,0.00000013,0.00000052,0.00000346,0.00000150,0.00000114,-
 0.00000329,-0.00000384,-0.00000646,-0.00001265,0.00001185,0.00009566,-
 0.00000310,0.00000812,0.00001252,0.00003414,0.00004381,0.00034459,-0.0
 0005883,-0.00013107,-0.00087004,-0.00103613,-0.00364250,-0.00421428,0.
 00133071,0.00244362,-0.00554150,0.00000176,0.00002575,0.00012442,-0.02
 613372,0.00628973,-0.00087455,0.00033365,0.00003879,-0.00000242,-0.001
 91547,-0.00007254,0.00001103,0.02995410,-0.00669664,0.00152709,-0.0002
 6588,-0.00009910,-0.00000100,0.00208285,-0.00001354,0.00001781,-0.0086
 9663,0.00201991,-0.04658316,0.00062141,0.00075090,0.00083673,0.0007085
 1,0.00016139,0.00102463,-0.00070048,-0.00050107,0.00110024,-0.00085794
 ,0.00001992,0.00115201,0.00880467,-0.00120594,0.05253773,0.00000051,-0
 .00000220,0.00000021,0.00000474,0.00000392,-0.00000006,0.00000232,-0.0
 0000453,0.00000033,0.00000687,0.00000475,-0.00000020,-0.00000521,0.000
 00613,-0.00000048,0.00000224,0.00000743,-0.00000038,-0.00000400,0.0000
 0619,-0.00000043,0.00000021,0.00000023,0.,0.00000049,-0.00000040,0.000
 00006,-0.00000175,0.00000070,-0.00000009,0.00000590,-0.00000457,0.0000
 0037,-0.00000114,0.00000414,-0.00000017,0.00000336,-0.00000861,0.00000
 046,-0.00000312,0.00001285,-0.00000056,-0.00000334,-0.00001038,0.00000
 006,0.00000199,-0.00000113,0.00000009,-0.00000252,-0.00000241,0.000000
 04,0.00000010,-0.00000038,0.00000008,0.00000019,0.00000035,-0.00000002
 ,0.00000012,0.00000182,0.00000062,-0.00000013,-0.00000005,-0.00000010,
 -0.00000049,0.00000004,-0.00000022,-0.00000049,0.00000009,-0.00000013,
 0.00000071,-0.00000049,0.00000013,0.00000023,0.00000019,-0.00000002,0.
 00000026,0.00000019,-0.00000003,0.00000018,0.00000028,-0.00000003,0.00
 000414,-0.00000089,0.00000010,0.00000475,0.00000035,0.00000003,-0.0000
 0625,-0.00000406,0.00000020,-0.00002216,-0.00001602,-0.00000018,0.0000
 1285,-0.00001037,0.00001139,0.00000593,0.00001317,-0.00000105,-0.00007
 062,-0.00000556,-0.00000181,0.00092076,-0.00092775,0.00042599,0.000937
 44,-0.00098741,-0.00014961,0.00000200,0.00017031,-0.00002095,0.0007133
 8,-0.01404461,0.00147156,-0.00028311,-0.00020101,0.00001093,0.00016007
 ,0.00016756,0.00000837,0.00072130,-0.01418408,0.00220917,-0.00029712,0
 .00025756,0.00000371,0.00016646,0.00016104,-0.00005169,-0.05569742,0.0
 2996621,-0.00353246,0.00015834,0.00029496,0.00039897,-0.00029217,-0.00
 168882,-0.00209610,0.00040558,0.00050559,-0.00045218,-0.00039227,-0.00
 110371,0.00250496,-0.00279146,0.03123916,-0.00419663,0.05563350,-0.000
 00561,0.00000727,-0.00000029,-0.00000054,0.00000485,-0.00000035,-0.000
 00837,0.00000262,-0.00000030,-0.00000338,-0.00000237,0.00000029,-0.000
 00939,-0.00001932,0.00000092,-0.00000184,0.00003321,-0.00000596,0.0000
 1366,0.00000558,0.00000007,-0.00000054,-0.00000007,0.,-0.00000335,0.00
 000199,-0.00000016,0.00000245,0.00000316,-0.00000004,-0.00001277,0.000
 00093,-0.00000046,0.00000544,-0.00000517,0.00000039,-0.00000130,-0.000
 00278,0.00000014,0.00000170,0.00000132,-0.00000009,0.00000276,-0.00000
 130,-0.00000011,-0.00000284,0.00000081,0.,0.00000274,0.00000129,0.0000
 0001,0.00000052,-0.00000010,0.00000005,0.00000013,-0.00000023,0.000000
 02,0.00000106,0.00000186,0.00000072,-0.00000054,-0.00000026,-0.0000004
 3,-0.00000043,-0.00000018,0.00000018,0.,0.00000015,-0.00000035,-0.0000
 0069,0.00000048,-0.00000014,-0.00000030,-0.00000026,0.00000019,-0.0000
 0033,-0.00000029,-0.00000013,-0.00000012,-0.00000023,0.00000003,-0.000
 00658,0.00000219,-0.00000028,-0.00002157,-0.00001337,0.,0.00002334,0.0
 0001188,0.00000006,-0.00000046,-0.00012251,0.00001177,0.00001126,0.000
 03233,-0.00001496,-0.00015072,0.00003668,0.00001458,0.00003282,0.00026
 422,-0.00006526,0.00083387,0.00046503,0.00070948,0.00053692,0.00033433
 ,-0.00058726,0.00013986,-0.00002069,-0.00000358,0.00195630,-0.01673013
 ,0.00115996,-0.00117895,-0.00037034,0.00009068,-0.00008327,0.00034206,
 -0.00014874,0.00117086,-0.00905414,0.00180659,-0.00072189,-0.00032400,
 -0.00008523,-0.00014797,0.00029264,0.00004266,0.02857344,-0.29352773,0
 .03244699,-0.00006445,0.00001809,-0.00006500,-0.00170973,-0.00067745,-
 0.00305084,0.00007724,0.00051803,0.00043759,-0.00089564,0.00065069,0.0
 0187051,0.00125681,-0.00539650,0.00055260,-0.02961403,0.32323318,0.000
 00042,-0.00000079,0.00000060,0.00000025,-0.00000019,0.00000005,0.00000
 094,-0.00000046,0.,0.00000064,0.00000029,0.00000133,0.00000096,0.00000
 289,0.00000045,0.00000112,-0.00000469,-0.00001606,-0.00000180,-0.00000
 075,-0.00000003,0.00000007,-0.00000001,-0.00000015,0.00000047,-0.00000
 023,0.00000007,-0.00000023,-0.00000021,0.00000060,0.00000193,-0.000000
 31,0.00000008,-0.00000052,0.00000063,-0.00000025,0.00000025,-0.0000000
 8,0.00000006,-0.00000023,0.00000043,0.00000041,-0.00000029,-0.00000040
 ,-0.00000016,0.00000030,-0.00000009,0.00000010,-0.00000032,-0.00000020
 ,-0.00000006,-0.00000002,-0.00000009,-0.00000076,0.,0.00000003,-0.0000
 0010,-0.00000018,-0.00000007,0.00000023,0.00000011,0.,-0.00000053,-0.0
 0000020,-0.00000018,-0.00000003,0.00000023,0.00000025,0.00000009,0.000
 00008,-0.00000005,0.00000003,-0.00000002,0.00000005,-0.00000002,0.0000
 0008,0.00000001,0.00000002,0.00000002,0.00000002,-0.00000004,0.0000007
 6,-0.00000010,0.00000024,0.00000354,0.00000189,0.00000024,-0.00000363,
 -0.00000242,-0.00000122,-0.00000202,0.00001899,0.00002254,-0.00000394,
 -0.00000126,0.00000360,0.00002640,0.00001234,0.00012423,-0.00000895,-0
 .00007511,-0.00027166,0.00118805,0.00005120,0.00095290,-0.00141100,0.0
 0010587,0.00110137,-0.00001726,-0.00000694,-0.00006282,0.00277434,-0.0
 2790365,0.00196292,-0.00005674,0.00057840,0.00020479,0.00025935,0.0002
 5620,-0.00008878,-0.00314409,0.03034637,-0.00591169,0.00030149,-0.0006
 2167,0.00033800,-0.00022562,-0.00035290,-0.00003514,-0.00344289,0.0325
 2453,-0.05227403,0.00076962,0.00086923,0.00117620,-0.00303988,-0.00311
 096,-0.00367148,-0.00063012,-0.00028373,0.00138052,0.00345919,0.001928
 50,-0.00489985,-0.00025778,0.00078639,-0.00063625,0.00345774,-0.035116
 51,0.06059968,0.00910968,0.00086791,0.00010015,0.00752408,-0.02040875,
 0.00156727,0.00040961,0.00427353,-0.00025012,-0.00438656,-0.00081027,-
 0.00006074,0.00247540,-0.00117229,0.00014106,0.00218243,-0.00031816,0.
 00004925,-0.02752746,-0.00143898,-0.00069718,0.00005051,-0.00030563,0.
 00010895,0.00012531,0.00018062,-0.00001039,0.00003231,0.00008781,-0.00
 000803,-0.01932386,0.04622397,-0.00294024,0.02910772,0.01042534,-0.000
 12453,-0.00357326,0.00785503,-0.00040084,0.00153858,-0.00895000,0.0004
 3942,0.00544065,0.00646152,-0.00020946,-0.00233789,0.00262207,-0.00015
 451,-0.00465028,0.00785080,-0.00065597,-0.00027031,0.00013103,-0.00000
 519,-0.00058521,0.00034806,0.00001299,-0.00030710,-0.00004121,0.000019
 30,-0.00009582,0.00006480,-0.00002820,-0.00000412,-0.00012567,0.000046
 91,-0.00005111,-0.00013128,-0.00003094,-0.00130750,0.00000674,-0.00009
 158,-0.00008978,-0.00026186,0.00007713,-0.00008697,-0.00024182,-0.0000
 1208,0.00001072,0.00008234,0.00001482,-0.06502577,0.00457703,-0.001636
 79,0.01112347,0.00562168,-0.00010898,-0.00055152,0.00054756,-0.0000720
 4,-0.00028766,0.00065601,-0.00005537,0.00024338,0.00004537,0.00000151,
 0.00038438,-0.00010114,0.00002270,-0.00017187,0.00022513,-0.00003562,0
 .00007185,-0.00004184,0.00009517,0.00007812,-0.00006325,-0.00007102,0.
 00005100,-0.00003733,0.00000753,-0.00001199,0.00002634,-0.00005004,-0.
 00000611,0.00000137,0.00000128,-0.00000975,-0.00000365,-0.00000505,-0.
 00001275,0.00003584,0.00004031,-0.00000821,-0.00000154,-0.00000132,-0.
 00000864,-0.00000182,0.00000712,-0.00000347,-0.00001713,0.00000232,0.0
 0003204,-0.00000149,-0.00000660,0.00000418,-0.00000556,0.00000422,0.00
 003142,0.00000082,0.00000767,0.00000490,-0.00000670,-0.00000285,0.0000
 1415,0.00000326,-0.00000022,-0.00000215,0.00000440,-0.00000058,0.06065
 124,0.01149193,-0.00333454,0.00051129,0.00193980,-0.02571040,0.0013456
 3,-0.00018503,0.00602992,-0.00038954,-0.00633502,-0.00151646,-0.000053
 22,0.00381100,-0.00215579,0.00022176,0.00259649,0.00047955,0.00007271,
 -0.00663547,0.01321516,-0.00058675,-0.00021755,0.00020351,-0.00002219,
 0.00013000,0.00011960,-0.00000586,0.00002848,0.00006296,-0.00000724,0.
 02872573,0.02629990,-0.00111191,0.03182068,-0.05685245,0.00351771,-0.0
 0279864,0.00896139,-0.00071768,0.00148338,-0.01212196,0.00058712,0.007
 61569,0.00811373,-0.00032659,-0.00467677,0.00210640,-0.00013199,-0.000
 17373,0.00905800,-0.00013250,-0.00079408,0.00047929,0.00001044,-0.0004
 6272,0.00035168,-0.00005154,-0.00036259,0.00055411,0.00019988,-0.00017
 922,0.00009508,-0.00007489,-0.00017100,-0.00016642,0.00002922,-0.00023
 814,-0.00016343,-0.00009573,-0.00138476,0.00075495,-0.00023634,-0.0002
 3601,-0.00033198,0.00035268,-0.00017960,-0.00032777,-0.00023040,-0.000
 01783,0.00026888,0.00002725,-0.01893550,-0.02826923,-0.00117878,0.0188
 1614,0.00543842,0.00016750,-0.00043220,0.00148748,-0.00005931,0.000016
 53,0.00048370,-0.00002973,0.00017046,0.00004518,-0.00000285,0.00047726
 ,0.00017715,-0.00000107,-0.00016856,0.00025771,-0.00002852,0.00006543,
 -0.00003198,0.00007455,0.00007608,-0.00005152,-0.00005670,0.00004004,-
 0.00003914,0.00000668,-0.00001081,0.00002187,-0.00004117,-0.00000467,-
 0.00000065,0.00000166,-0.00000875,-0.00000170,-0.00000448,-0.00001143,
 0.00003087,0.00003474,-0.00000683,-0.00000239,-0.00000191,-0.00000760,
 -0.00000035,0.00000509,-0.00000255,-0.00001368,0.00000220,0.00002577,-
 0.00000126,-0.00000542,0.00000443,-0.00000589,0.00000351,0.00002589,0.
 00000026,0.00000609,0.00000493,-0.00000671,-0.00000183,0.00001170,0.00
 000293,-0.00000038,-0.00000175,0.00000258,-0.00000045,-0.06473904,0.04
 600345,-0.00039446,0.00035335,0.00140833,0.00031793,0.00055382,-0.0043
 5797,0.00001752,-0.00028872,-0.00056441,0.00022694,0.00007434,0.000113
 44,-0.00014046,0.00007782,-0.00016152,-0.00008639,-0.00000686,0.000648
 62,-0.00021910,-0.00048857,0.00212191,0.00010974,-0.00002654,-0.000152
 52,-0.00000377,0.00000187,0.00003458,-0.00000105,0.00000056,0.00002031
 ,-0.00217974,-0.00032944,-0.02024715,-0.00095556,0.00284160,0.00068410
 ,0.00015271,-0.00054846,-0.00431976,-0.00001790,0.00038398,-0.00023082
 ,-0.00027524,-0.00025323,0.00008878,0.00022083,0.00000618,0.00029326,-
 0.00029633,0.00003502,0.00654036,0.00002942,-0.00000811,0.00039942,0.0
 0000647,-0.00003885,-0.00073689,0.00002760,-0.00001387,0.00000532,-0.0
 0000106,-0.00001094,0.00001989,0.00001475,-0.00001871,0.00001479,-0.00
 000818,0.00001471,0.00001964,0.00003113,-0.00005876,-0.00051039,-0.000
 01582,0.00003352,0.00006579,0.00001427,-0.00000840,0.00009604,0.000006
 63,-0.00000489,0.00002676,-0.00076917,-0.00053552,-0.03518833,-0.00073
 736,-0.00010595,0.00126160,-0.00001138,-0.00001573,0.00085134,-0.00001
 073,-0.00000122,0.00008801,-0.00000089,-0.00000322,-0.00003110,-0.0000
 1042,-0.00001646,-0.00006353,0.00000355,-0.00000454,0.00001566,-0.0000
 0434,0.00000295,-0.00000129,0.00000118,-0.00000255,0.00000106,-0.00000
 074,0.00000100,-0.00000052,0.00000077,-0.00000121,0.00000156,0.0000006
 6,-0.00000027,-0.00000009,0.,-0.00000125,-0.00000190,-0.00000019,0.000
 00065,0.00000027,-0.00000052,0.00000075,-0.00000028,0.00000045,0.00000
 038,-0.00000219,-0.00000005,0.00000034,0.00000132,-0.00000033,0.000000
 38,-0.00000079,-0.00000017,0.00000021,0.00000026,-0.00000027,-0.000000
 56,-0.00000081,-0.00000021,0.00000030,0.00000029,-0.00000020,-0.000000
 17,-0.00000078,0.00000004,0.00000003,-0.00000025,0.00495943,-0.0015907
 5,0.05175054\\-0.00000201,-0.00000197,0.00000172,-0.00000255,-0.000003
 37,0.00000332,-0.00000422,-0.00000457,0.00000429,-0.00000574,-0.000002
 92,0.00000301,-0.00000532,-0.00000204,0.00000165,-0.00000389,-0.000000
 04,0.00000050,0.,-0.00000333,0.00000263,-0.00000431,-0.00000580,0.0000
 0550,-0.00000700,-0.00000396,0.00000375,-0.00000654,-0.00000040,0.0000
 0065,-0.00000053,-0.00000455,0.00000418,0.00000224,-0.00000471,0.00000
 467,0.00000283,-0.00000302,0.00000298,0.00000347,-0.00000216,0.0000017
 0,0.00000559,-0.00000169,0.00000207,0.00000593,-0.00000465,0.00000381,
 0.00000524,-0.00000551,0.00000492,0.00000347,-0.00000042,0.00000041,0.
 00000767,-0.00000391,0.00000393,0.00000671,-0.00000119,0.00000040,0.00
 000692,0.00000056,-0.00000048,0.00000893,-0.00000138,0.00000106,0.0000
 0656,-0.00000078,0.00000073,0.00000562,-0.00000712,0.00000700,0.000005
 96,-0.00000814,0.00000741,0.00000384,-0.00000806,0.00000731,0.00000703
 ,-0.00000754,0.00000681,0.00000251,-0.00000681,0.00000594,-0.00000060,
 -0.00000068,0.00000133,0.00000048,-0.00000031,0.00000008,-0.00000315,0
 .00000100,-0.00000111,-0.00000462,0.00000227,-0.00000189,-0.00000192,0
 .00000195,-0.00000181,-0.00000190,0.00000460,-0.00000372,-0.00000374,0
 .00000471,-0.00000471,-0.00000075,0.00000469,-0.00000461,0.00000008,0.
 00000377,-0.00000384,-0.00000331,0.00000689,-0.00000617,-0.00000537,0.
 00000447,-0.00000402,-0.00000402,0.00000422,-0.00000373,-0.00000111,0.
 00000652,-0.00000652,-0.00000268,0.00000436,-0.00000412,0.00000031,0.0
 0000396,-0.00000357,-0.00000241,0.00000756,-0.00000691,-0.00000505,0.0
 0000736,-0.00000682,-0.00000190,0.00000707,-0.00000659,-0.00000031,0.0
 0000731,-0.00000657,0.00000086,0.00000706,-0.00000650,-0.00000304,0.00
 000904,-0.00000842,-0.00000457,0.00000731,-0.00000692,0.00000034,-0.00
 000568,0.00000529\\\@


 In the race for quality, there is no finish line.
                               -- David T. Kearns
 Job cpu time:       0 days  9 hours 21 minutes 37.1 seconds.
 Elapsed time:       0 days  0 hours 35 minutes 13.3 seconds.
 File lengths (MBytes):  RWF=   2884 Int=      0 D2E=      0 Chk=     56 Scr=      8
 Normal termination of Gaussian 16 at Sun Dec 16 11:36:22 2018.
