 Entering Gaussian System, Link 0=g16
 Initial command:
 /gpfs/apps/hpc/Apps/Restricted/Gaussian/Rev_A.03/g16/l1.exe "/gpfs/scratch60/fas/hammes_schiffer/jg2487/c43n03/Gau-169002.inp" -scrdir="/gpfs/scratch60/fas/hammes_schiffer/jg2487/c43n03/"
 Entering Link 1 = /gpfs/apps/hpc/Apps/Restricted/Gaussian/Rev_A.03/g16/l1.exe PID=    169003.
  
 Copyright (c) 1988,1990,1992,1993,1995,1998,2003,2009,2016,
            Gaussian, Inc.  All Rights Reserved.
  
 This is part of the Gaussian(R) 16 program.  It is based on
 the Gaussian(R) 09 system (copyright 2009, Gaussian, Inc.),
 the Gaussian(R) 03 system (copyright 2003, Gaussian, Inc.),
 the Gaussian(R) 98 system (copyright 1998, Gaussian, Inc.),
 the Gaussian(R) 94 system (copyright 1995, Gaussian, Inc.),
 the Gaussian 92(TM) system (copyright 1992, Gaussian, Inc.),
 the Gaussian 90(TM) system (copyright 1990, Gaussian, Inc.),
 the Gaussian 88(TM) system (copyright 1988, Gaussian, Inc.),
 the Gaussian 86(TM) system (copyright 1986, Carnegie Mellon
 University), and the Gaussian 82(TM) system (copyright 1983,
 Carnegie Mellon University). Gaussian is a federally registered
 trademark of Gaussian, Inc.
  
 This software contains proprietary and confidential information,
 including trade secrets, belonging to Gaussian, Inc.
  
 This software is provided under written license and may be
 used, copied, transmitted, or stored only in accord with that
 written license.
  
 The following legend is applicable only to US Government
 contracts under FAR:
  
                    RESTRICTED RIGHTS LEGEND
  
 Use, reproduction and disclosure by the US Government is
 subject to restrictions as set forth in subparagraphs (a)
 and (c) of the Commercial Computer Software - Restricted
 Rights clause in FAR 52.227-19.
  
 Gaussian, Inc.
 340 Quinnipiac St., Bldg. 40, Wallingford CT 06492
  
  
 ---------------------------------------------------------------
 Warning -- This program may not be used in any manner that
 competes with the business of Gaussian, Inc. or will provide
 assistance to any competitor of Gaussian, Inc.  The licensee
 of this program is prohibited from giving any competitor of
 Gaussian, Inc. access to this program.  By using this program,
 the user acknowledges that Gaussian, Inc. is engaged in the
 business of creating and licensing software in the field of
 computational chemistry and represents and warrants to the
 licensee that it is not a competitor of Gaussian, Inc. and that
 it will not use this program in any manner prohibited above.
 ---------------------------------------------------------------
  

 Cite this work as:
 Gaussian 16, Revision A.03,
 M. J. Frisch, G. W. Trucks, H. B. Schlegel, G. E. Scuseria, 
 M. A. Robb, J. R. Cheeseman, G. Scalmani, V. Barone, 
 G. A. Petersson, H. Nakatsuji, X. Li, M. Caricato, A. V. Marenich, 
 J. Bloino, B. G. Janesko, R. Gomperts, B. Mennucci, H. P. Hratchian, 
 J. V. Ortiz, A. F. Izmaylov, J. L. Sonnenberg, D. Williams-Young, 
 F. Ding, F. Lipparini, F. Egidi, J. Goings, B. Peng, A. Petrone, 
 T. Henderson, D. Ranasinghe, V. G. Zakrzewski, J. Gao, N. Rega, 
 G. Zheng, W. Liang, M. Hada, M. Ehara, K. Toyota, R. Fukuda, 
 J. Hasegawa, M. Ishida, T. Nakajima, Y. Honda, O. Kitao, H. Nakai, 
 T. Vreven, K. Throssell, J. A. Montgomery, Jr., J. E. Peralta, 
 F. Ogliaro, M. J. Bearpark, J. J. Heyd, E. N. Brothers, K. N. Kudin, 
 V. N. Staroverov, T. A. Keith, R. Kobayashi, J. Normand, 
 K. Raghavachari, A. P. Rendell, J. C. Burant, S. S. Iyengar, 
 J. Tomasi, M. Cossi, J. M. Millam, M. Klene, C. Adamo, R. Cammi, 
 J. W. Ochterski, R. L. Martin, K. Morokuma, O. Farkas, 
 J. B. Foresman, and D. J. Fox, Gaussian, Inc., Wallingford CT, 2016.
 
 ******************************************
 Gaussian 16:  ES64L-G16RevA.03 25-Dec-2016
                21-Dec-2018 
 ******************************************
 %chk=cyclohexyl-monoBIP-TS1.chk
 %mem=10GB
 %nprocshared=16
 Will use up to   16 processors via shared memory.
 ----------------------------------------------------------------------
 #p opt=(calcfc,tight,ts,noeigentest) freq=internalmodes b3lyp/6-31g(d,
 p) scrf=(cpcm,solvent=dichloromethane,read) nosymm empiricaldispersion
 =gd3bj int=grid=ultrafine
 ----------------------------------------------------------------------
 1/5=1,7=10,10=4,11=1,18=20,26=6,38=1,40=2/1,3;
 2/9=110,12=2,15=1,17=6,18=5,40=1/2;
 3/5=1,6=6,7=101,11=2,25=1,30=1,70=2103,71=2,72=9,74=-5,75=-5,124=41,140=1/1,2,3;
 4//1;
 5/5=2,38=5,53=9/2;
 8/6=4,10=90,11=11/1;
 11/6=1,8=1,9=11,15=111,16=1,31=1/1,2,10;
 10/6=1,13=1,31=1/2;
 6/7=2,8=2,9=2,10=2,28=1/1;
 7/10=1,18=20,25=1,30=1/1,2,3,16;
 1/5=1,7=10,10=4,11=1,18=20,26=6/3(2);
 2/9=110,15=1/2;
 99//99;
 2/9=110,15=1/2;
 3/5=1,6=6,7=101,11=2,25=1,30=1,70=2105,71=1,72=9,74=-5,75=-5,124=41/1,2,3;
 4/5=5,16=3,69=1/1;
 5/5=2,38=5,53=9/2;
 7/30=1/1,2,3,16;
 1/5=1,7=10,11=1,18=20,26=6/3(-5);
 2/9=110,15=1/2;
 6/7=2,8=2,9=2,10=2,19=2,28=1/1;
 99/9=1/99;
 Leave Link    1 at Fri Dec 21 13:53:15 2018, MaxMem=  1342177280 cpu:               6.8 elap:               0.5
 (Enter /gpfs/apps/hpc/Apps/Restricted/Gaussian/Rev_A.03/g16/l101.exe)
 ----------------------------------------------------------------------
 cyclohexylimine monoBIP oxidized, optimize to transition state of firs
 t proton transferred
 ----------------------------------------------------------------------
 Symbolic Z-matrix:
 Charge =  1 Multiplicity = 2
 C                    -0.42461   2.69868   0.24694 
 C                    -1.8349    2.82875   0.18566 
 C                    -2.42489   4.09885   0.09052 
 C                    -1.5695    5.19136   0.06672 
 C                    -0.16485   5.04762   0.13418 
 C                     0.44881   3.79926   0.22623 
 C                    -1.35203   0.69742   0.31147 
 H                    -3.4996    4.21488   0.03754 
 H                    -1.98548   6.18892  -0.00363 
 H                     0.45707   5.93499   0.11505 
 N                    -2.37306   1.56512   0.22986 
 C                    -2.97757  -1.1645    0.37122 
 C                    -1.58389  -0.72137   0.36957 
 C                    -0.56059  -1.65584   0.40914 
 C                    -0.84875  -3.02446   0.46191 
 C                    -2.21539  -3.43668   0.49116 
 C                    -3.28449  -2.57524   0.4582 
 H                     0.4663   -1.31869   0.39503 
 H                    -2.41082  -4.49707   0.5449 
 C                     0.23394  -4.08991   0.47711 
 C                    -4.73316  -3.05976   0.50266 
 O                    -3.92675  -0.29161   0.28868 
 N                    -0.15967   1.35711   0.32452 
 H                     0.79876   1.01801   0.38301 
 C                     1.89842   3.62136   0.29726 
 H                     2.49836   4.53628   0.26608 
 N                     2.40827   2.44982   0.38901 
 C                     3.87157   2.32687   0.45258 
 C                     4.53765   2.74791  -0.86823 
 C                     4.48966   3.09437   1.63276 
 H                     4.07632   1.26101   0.60431 
 C                     6.05208   2.5206   -0.80721 
 H                     4.32752   3.81032  -1.04086 
 H                     4.09356   2.1905   -1.69827 
 C                     6.00317   2.86119   1.69797 
 H                     4.29582   4.16573   1.50381 
 H                     4.00409   2.78832   2.56389 
 C                     6.68096   3.25715   0.38076 
 H                     6.51742   2.83719  -1.74544 
 H                     6.24544   1.44515  -0.70674 
 H                     6.42943   3.42489   2.53343 
 H                     6.196     1.80013   1.89986 
 H                     7.75499   3.05338   0.4295 
 H                     6.56824   4.33854   0.23245 
 H                    -3.45856   0.73254   0.2399 
 C                    -5.45776  -2.65294  -0.80023 
 H                    -6.47848  -3.04318  -0.77959 
 H                    -5.50364  -1.57056  -0.91343 
 H                    -4.94716  -3.07431  -1.6696 
 C                    -5.45329  -2.44462   1.72405 
 H                    -5.4911   -1.35796   1.66337 
 H                    -6.47685  -2.82556   1.76273 
 H                    -4.94878  -2.72681   2.65162 
 C                    -4.80131  -4.5885    0.63596 
 H                    -4.34255  -5.09561  -0.21705 
 H                    -4.30842  -4.933     1.54874 
 H                    -5.84858  -4.8929    0.68327 
 C                     0.06191  -4.96714   1.73842 
 H                    -0.91443  -5.45472   1.76761 
 H                     0.82838  -5.74619   1.7363 
 H                     0.17805  -4.37105   2.64626 
 C                     0.06499  -4.97096  -0.78311 
 H                     0.82105  -5.7601   -0.77011 
 H                    -0.91905  -5.4424   -0.81902 
 H                     0.19823  -4.37985  -1.69193 
 C                     1.64643  -3.49249   0.47932 
 H                     1.83042  -2.88955  -0.41315 
 H                     1.82017  -2.87247   1.36233 
 H                     2.37803  -4.3031    0.4901 
 
 ITRead=  0  0  0  0  0  0  0  0  0  0  0  0  0  0  0  0  0  0  0  0
 ITRead=  0  0  0  0  0  0  0  0  0  0  0  0  0  0  0  0  0  0  0  0
 ITRead=  0  0  0  0  0  0  0  0  0  0  0  0  0  0  0  0  0  0  0  0
 ITRead=  0  0  0  0  0  0  0  0  0
 MicOpt= -1 -1 -1 -1 -1 -1 -1 -1 -1 -1 -1 -1 -1 -1 -1 -1 -1 -1 -1 -1
 MicOpt= -1 -1 -1 -1 -1 -1 -1 -1 -1 -1 -1 -1 -1 -1 -1 -1 -1 -1 -1 -1
 MicOpt= -1 -1 -1 -1 -1 -1 -1 -1 -1 -1 -1 -1 -1 -1 -1 -1 -1 -1 -1 -1
 MicOpt= -1 -1 -1 -1 -1 -1 -1 -1 -1
 NAtoms=     69 NQM=       69 NQMF=       0 NMMI=      0 NMMIF=      0
                NMic=       0 NMicF=      0.
                    Isotopes and Nuclear Properties:
 (Nuclear quadrupole moments (NQMom) in fm**2, nuclear magnetic moments (NMagM)
  in nuclear magnetons)

  Atom         1           2           3           4           5           6           7           8           9          10
 IAtWgt=          12          12          12          12          12          12          12           1           1           1
 AtmWgt=  12.0000000  12.0000000  12.0000000  12.0000000  12.0000000  12.0000000  12.0000000   1.0078250   1.0078250   1.0078250
 NucSpn=           0           0           0           0           0           0           0           1           1           1
 AtZEff=  -0.0000000  -0.0000000  -0.0000000  -0.0000000  -0.0000000  -0.0000000  -0.0000000  -0.0000000  -0.0000000  -0.0000000
 NQMom=    0.0000000   0.0000000   0.0000000   0.0000000   0.0000000   0.0000000   0.0000000   0.0000000   0.0000000   0.0000000
 NMagM=    0.0000000   0.0000000   0.0000000   0.0000000   0.0000000   0.0000000   0.0000000   2.7928460   2.7928460   2.7928460
 AtZNuc=   6.0000000   6.0000000   6.0000000   6.0000000   6.0000000   6.0000000   6.0000000   1.0000000   1.0000000   1.0000000

  Atom        11          12          13          14          15          16          17          18          19          20
 IAtWgt=          14          12          12          12          12          12          12           1           1          12
 AtmWgt=  14.0030740  12.0000000  12.0000000  12.0000000  12.0000000  12.0000000  12.0000000   1.0078250   1.0078250  12.0000000
 NucSpn=           2           0           0           0           0           0           0           1           1           0
 AtZEff=  -0.0000000  -0.0000000  -0.0000000  -0.0000000  -0.0000000  -0.0000000  -0.0000000  -0.0000000  -0.0000000  -0.0000000
 NQMom=    2.0440000   0.0000000   0.0000000   0.0000000   0.0000000   0.0000000   0.0000000   0.0000000   0.0000000   0.0000000
 NMagM=    0.4037610   0.0000000   0.0000000   0.0000000   0.0000000   0.0000000   0.0000000   2.7928460   2.7928460   0.0000000
 AtZNuc=   7.0000000   6.0000000   6.0000000   6.0000000   6.0000000   6.0000000   6.0000000   1.0000000   1.0000000   6.0000000

  Atom        21          22          23          24          25          26          27          28          29          30
 IAtWgt=          12          16          14           1          12           1          14          12          12          12
 AtmWgt=  12.0000000  15.9949146  14.0030740   1.0078250  12.0000000   1.0078250  14.0030740  12.0000000  12.0000000  12.0000000
 NucSpn=           0           0           2           1           0           1           2           0           0           0
 AtZEff=  -0.0000000  -0.0000000  -0.0000000  -0.0000000  -0.0000000  -0.0000000  -0.0000000  -0.0000000  -0.0000000  -0.0000000
 NQMom=    0.0000000   0.0000000   2.0440000   0.0000000   0.0000000   0.0000000   2.0440000   0.0000000   0.0000000   0.0000000
 NMagM=    0.0000000   0.0000000   0.4037610   2.7928460   0.0000000   2.7928460   0.4037610   0.0000000   0.0000000   0.0000000
 AtZNuc=   6.0000000   8.0000000   7.0000000   1.0000000   6.0000000   1.0000000   7.0000000   6.0000000   6.0000000   6.0000000

  Atom        31          32          33          34          35          36          37          38          39          40
 IAtWgt=           1          12           1           1          12           1           1          12           1           1
 AtmWgt=   1.0078250  12.0000000   1.0078250   1.0078250  12.0000000   1.0078250   1.0078250  12.0000000   1.0078250   1.0078250
 NucSpn=           1           0           1           1           0           1           1           0           1           1
 AtZEff=  -0.0000000  -0.0000000  -0.0000000  -0.0000000  -0.0000000  -0.0000000  -0.0000000  -0.0000000  -0.0000000  -0.0000000
 NQMom=    0.0000000   0.0000000   0.0000000   0.0000000   0.0000000   0.0000000   0.0000000   0.0000000   0.0000000   0.0000000
 NMagM=    2.7928460   0.0000000   2.7928460   2.7928460   0.0000000   2.7928460   2.7928460   0.0000000   2.7928460   2.7928460
 AtZNuc=   1.0000000   6.0000000   1.0000000   1.0000000   6.0000000   1.0000000   1.0000000   6.0000000   1.0000000   1.0000000

  Atom        41          42          43          44          45          46          47          48          49          50
 IAtWgt=           1           1           1           1           1          12           1           1           1          12
 AtmWgt=   1.0078250   1.0078250   1.0078250   1.0078250   1.0078250  12.0000000   1.0078250   1.0078250   1.0078250  12.0000000
 NucSpn=           1           1           1           1           1           0           1           1           1           0
 AtZEff=  -0.0000000  -0.0000000  -0.0000000  -0.0000000  -0.0000000  -0.0000000  -0.0000000  -0.0000000  -0.0000000  -0.0000000
 NQMom=    0.0000000   0.0000000   0.0000000   0.0000000   0.0000000   0.0000000   0.0000000   0.0000000   0.0000000   0.0000000
 NMagM=    2.7928460   2.7928460   2.7928460   2.7928460   2.7928460   0.0000000   2.7928460   2.7928460   2.7928460   0.0000000
 AtZNuc=   1.0000000   1.0000000   1.0000000   1.0000000   1.0000000   6.0000000   1.0000000   1.0000000   1.0000000   6.0000000

  Atom        51          52          53          54          55          56          57          58          59          60
 IAtWgt=           1           1           1          12           1           1           1          12           1           1
 AtmWgt=   1.0078250   1.0078250   1.0078250  12.0000000   1.0078250   1.0078250   1.0078250  12.0000000   1.0078250   1.0078250
 NucSpn=           1           1           1           0           1           1           1           0           1           1
 AtZEff=  -0.0000000  -0.0000000  -0.0000000  -0.0000000  -0.0000000  -0.0000000  -0.0000000  -0.0000000  -0.0000000  -0.0000000
 NQMom=    0.0000000   0.0000000   0.0000000   0.0000000   0.0000000   0.0000000   0.0000000   0.0000000   0.0000000   0.0000000
 NMagM=    2.7928460   2.7928460   2.7928460   0.0000000   2.7928460   2.7928460   2.7928460   0.0000000   2.7928460   2.7928460
 AtZNuc=   1.0000000   1.0000000   1.0000000   6.0000000   1.0000000   1.0000000   1.0000000   6.0000000   1.0000000   1.0000000

  Atom        61          62          63          64          65          66          67          68          69
 IAtWgt=           1          12           1           1           1          12           1           1           1
 AtmWgt=   1.0078250  12.0000000   1.0078250   1.0078250   1.0078250  12.0000000   1.0078250   1.0078250   1.0078250
 NucSpn=           1           0           1           1           1           0           1           1           1
 AtZEff=  -0.0000000  -0.0000000  -0.0000000  -0.0000000  -0.0000000  -0.0000000  -0.0000000  -0.0000000  -0.0000000
 NQMom=    0.0000000   0.0000000   0.0000000   0.0000000   0.0000000   0.0000000   0.0000000   0.0000000   0.0000000
 NMagM=    2.7928460   0.0000000   2.7928460   2.7928460   2.7928460   0.0000000   2.7928460   2.7928460   2.7928460
 AtZNuc=   1.0000000   6.0000000   1.0000000   1.0000000   1.0000000   6.0000000   1.0000000   1.0000000   1.0000000
 Leave Link  101 at Fri Dec 21 13:53:15 2018, MaxMem=  1342177280 cpu:               4.3 elap:               0.3
 (Enter /gpfs/apps/hpc/Apps/Restricted/Gaussian/Rev_A.03/g16/l103.exe)

 GradGradGradGradGradGradGradGradGradGradGradGradGradGradGradGradGradGrad
 Berny optimization.
 Initialization pass.
                           ----------------------------
                           !    Initial Parameters    !
                           ! (Angstroms and Degrees)  !
 --------------------------                            --------------------------
 ! Name  Definition              Value          Derivative Info.                !
 --------------------------------------------------------------------------------
 ! R1    R(1,2)                  1.4176         calculate D2E/DX2 analytically  !
 ! R2    R(1,6)                  1.4052         calculate D2E/DX2 analytically  !
 ! R3    R(1,23)                 1.3697         calculate D2E/DX2 analytically  !
 ! R4    R(2,3)                  1.4037         calculate D2E/DX2 analytically  !
 ! R5    R(2,11)                 1.3742         calculate D2E/DX2 analytically  !
 ! R6    R(3,4)                  1.3877         calculate D2E/DX2 analytically  !
 ! R7    R(3,8)                  1.0823         calculate D2E/DX2 analytically  !
 ! R8    R(4,5)                  1.4136         calculate D2E/DX2 analytically  !
 ! R9    R(4,9)                  1.0831         calculate D2E/DX2 analytically  !
 ! R10   R(5,6)                  1.3941         calculate D2E/DX2 analytically  !
 ! R11   R(5,10)                 1.0838         calculate D2E/DX2 analytically  !
 ! R12   R(6,25)                 1.4622         calculate D2E/DX2 analytically  !
 ! R13   R(7,11)                 1.3424         calculate D2E/DX2 analytically  !
 ! R14   R(7,13)                 1.4388         calculate D2E/DX2 analytically  !
 ! R15   R(7,23)                 1.3627         calculate D2E/DX2 analytically  !
 ! R16   R(12,13)                1.4624         calculate D2E/DX2 analytically  !
 ! R17   R(12,17)                1.4464         calculate D2E/DX2 analytically  !
 ! R18   R(12,22)                1.2922         calculate D2E/DX2 analytically  !
 ! R19   R(13,14)                1.3863         calculate D2E/DX2 analytically  !
 ! R20   R(14,15)                1.3996         calculate D2E/DX2 analytically  !
 ! R21   R(14,18)                1.0809         calculate D2E/DX2 analytically  !
 ! R22   R(15,16)                1.4278         calculate D2E/DX2 analytically  !
 ! R23   R(15,20)                1.5191         calculate D2E/DX2 analytically  !
 ! R24   R(16,17)                1.3734         calculate D2E/DX2 analytically  !
 ! R25   R(16,19)                1.0796         calculate D2E/DX2 analytically  !
 ! R26   R(17,21)                1.5282         calculate D2E/DX2 analytically  !
 ! R27   R(20,58)                1.546          calculate D2E/DX2 analytically  !
 ! R28   R(20,62)                1.5469         calculate D2E/DX2 analytically  !
 ! R29   R(20,66)                1.5336         calculate D2E/DX2 analytically  !
 ! R30   R(21,46)                1.5453         calculate D2E/DX2 analytically  !
 ! R31   R(21,50)                1.5456         calculate D2E/DX2 analytically  !
 ! R32   R(21,54)                1.5361         calculate D2E/DX2 analytically  !
 ! R33   R(22,45)                1.1271         calculate D2E/DX2 analytically  !
 ! R34   R(23,24)                1.0183         calculate D2E/DX2 analytically  !
 ! R35   R(25,26)                1.0945         calculate D2E/DX2 analytically  !
 ! R36   R(25,27)                1.281          calculate D2E/DX2 analytically  !
 ! R37   R(27,28)                1.4698         calculate D2E/DX2 analytically  !
 ! R38   R(28,29)                1.538          calculate D2E/DX2 analytically  !
 ! R39   R(28,30)                1.5375         calculate D2E/DX2 analytically  !
 ! R40   R(28,31)                1.0959         calculate D2E/DX2 analytically  !
 ! R41   R(29,32)                1.5326         calculate D2E/DX2 analytically  !
 ! R42   R(29,33)                1.0967         calculate D2E/DX2 analytically  !
 ! R43   R(29,34)                1.094          calculate D2E/DX2 analytically  !
 ! R44   R(30,35)                1.5328         calculate D2E/DX2 analytically  !
 ! R45   R(30,36)                1.0964         calculate D2E/DX2 analytically  !
 ! R46   R(30,37)                1.0938         calculate D2E/DX2 analytically  !
 ! R47   R(32,38)                1.5327         calculate D2E/DX2 analytically  !
 ! R48   R(32,39)                1.0941         calculate D2E/DX2 analytically  !
 ! R49   R(32,40)                1.0973         calculate D2E/DX2 analytically  !
 ! R50   R(35,38)                1.5334         calculate D2E/DX2 analytically  !
 ! R51   R(35,41)                1.0943         calculate D2E/DX2 analytically  !
 ! R52   R(35,42)                1.0972         calculate D2E/DX2 analytically  !
 ! R53   R(38,43)                1.0943         calculate D2E/DX2 analytically  !
 ! R54   R(38,44)                1.0973         calculate D2E/DX2 analytically  !
 ! R55   R(46,47)                1.093          calculate D2E/DX2 analytically  !
 ! R56   R(46,48)                1.0893         calculate D2E/DX2 analytically  !
 ! R57   R(46,49)                1.0927         calculate D2E/DX2 analytically  !
 ! R58   R(50,51)                1.089          calculate D2E/DX2 analytically  !
 ! R59   R(50,52)                1.0928         calculate D2E/DX2 analytically  !
 ! R60   R(50,53)                1.093          calculate D2E/DX2 analytically  !
 ! R61   R(54,55)                1.0933         calculate D2E/DX2 analytically  !
 ! R62   R(54,56)                1.0931         calculate D2E/DX2 analytically  !
 ! R63   R(54,57)                1.0916         calculate D2E/DX2 analytically  !
 ! R64   R(58,59)                1.0917         calculate D2E/DX2 analytically  !
 ! R65   R(58,60)                1.0929         calculate D2E/DX2 analytically  !
 ! R66   R(58,61)                1.0922         calculate D2E/DX2 analytically  !
 ! R67   R(62,63)                1.0929         calculate D2E/DX2 analytically  !
 ! R68   R(62,64)                1.0917         calculate D2E/DX2 analytically  !
 ! R69   R(62,65)                1.0923         calculate D2E/DX2 analytically  !
 ! R70   R(66,67)                1.0927         calculate D2E/DX2 analytically  !
 ! R71   R(66,68)                1.0928         calculate D2E/DX2 analytically  !
 ! R72   R(66,69)                1.092          calculate D2E/DX2 analytically  !
 ! A1    A(2,1,6)              123.0834         calculate D2E/DX2 analytically  !
 ! A2    A(2,1,23)             106.544          calculate D2E/DX2 analytically  !
 ! A3    A(6,1,23)             130.3726         calculate D2E/DX2 analytically  !
 ! A4    A(1,2,3)              120.2722         calculate D2E/DX2 analytically  !
 ! A5    A(1,2,11)             107.6884         calculate D2E/DX2 analytically  !
 ! A6    A(3,2,11)             132.0384         calculate D2E/DX2 analytically  !
 ! A7    A(2,3,4)              117.0278         calculate D2E/DX2 analytically  !
 ! A8    A(2,3,8)              121.1797         calculate D2E/DX2 analytically  !
 ! A9    A(4,3,8)              121.7925         calculate D2E/DX2 analytically  !
 ! A10   A(3,4,5)              122.1147         calculate D2E/DX2 analytically  !
 ! A11   A(3,4,9)              119.305          calculate D2E/DX2 analytically  !
 ! A12   A(5,4,9)              118.5802         calculate D2E/DX2 analytically  !
 ! A13   A(4,5,6)              122.1146         calculate D2E/DX2 analytically  !
 ! A14   A(4,5,10)             119.0856         calculate D2E/DX2 analytically  !
 ! A15   A(6,5,10)             118.7998         calculate D2E/DX2 analytically  !
 ! A16   A(1,6,5)              115.3862         calculate D2E/DX2 analytically  !
 ! A17   A(1,6,25)             121.346          calculate D2E/DX2 analytically  !
 ! A18   A(5,6,25)             123.2678         calculate D2E/DX2 analytically  !
 ! A19   A(11,7,13)            121.1499         calculate D2E/DX2 analytically  !
 ! A20   A(11,7,23)            110.6817         calculate D2E/DX2 analytically  !
 ! A21   A(13,7,23)            128.1683         calculate D2E/DX2 analytically  !
 ! A22   A(2,11,7)             107.3656         calculate D2E/DX2 analytically  !
 ! A23   A(13,12,17)           119.8574         calculate D2E/DX2 analytically  !
 ! A24   A(13,12,22)           119.6874         calculate D2E/DX2 analytically  !
 ! A25   A(17,12,22)           120.4545         calculate D2E/DX2 analytically  !
 ! A26   A(7,13,12)            116.899          calculate D2E/DX2 analytically  !
 ! A27   A(7,13,14)            123.1542         calculate D2E/DX2 analytically  !
 ! A28   A(12,13,14)           119.9434         calculate D2E/DX2 analytically  !
 ! A29   A(13,14,15)           120.5464         calculate D2E/DX2 analytically  !
 ! A30   A(13,14,18)           119.3811         calculate D2E/DX2 analytically  !
 ! A31   A(15,14,18)           120.0721         calculate D2E/DX2 analytically  !
 ! A32   A(14,15,16)           118.6962         calculate D2E/DX2 analytically  !
 ! A33   A(14,15,20)           122.6483         calculate D2E/DX2 analytically  !
 ! A34   A(16,15,20)           118.6533         calculate D2E/DX2 analytically  !
 ! A35   A(15,16,17)           124.3008         calculate D2E/DX2 analytically  !
 ! A36   A(15,16,19)           117.2502         calculate D2E/DX2 analytically  !
 ! A37   A(17,16,19)           118.4488         calculate D2E/DX2 analytically  !
 ! A38   A(12,17,16)           116.6191         calculate D2E/DX2 analytically  !
 ! A39   A(12,17,21)           120.8072         calculate D2E/DX2 analytically  !
 ! A40   A(16,17,21)           122.573          calculate D2E/DX2 analytically  !
 ! A41   A(15,20,58)           109.0766         calculate D2E/DX2 analytically  !
 ! A42   A(15,20,62)           108.2687         calculate D2E/DX2 analytically  !
 ! A43   A(15,20,66)           112.5334         calculate D2E/DX2 analytically  !
 ! A44   A(58,20,62)           109.2278         calculate D2E/DX2 analytically  !
 ! A45   A(58,20,66)           108.8051         calculate D2E/DX2 analytically  !
 ! A46   A(62,20,66)           108.8829         calculate D2E/DX2 analytically  !
 ! A47   A(17,21,46)           109.6639         calculate D2E/DX2 analytically  !
 ! A48   A(17,21,50)           109.7849         calculate D2E/DX2 analytically  !
 ! A49   A(17,21,54)           111.1077         calculate D2E/DX2 analytically  !
 ! A50   A(46,21,50)           110.061          calculate D2E/DX2 analytically  !
 ! A51   A(46,21,54)           108.3224         calculate D2E/DX2 analytically  !
 ! A52   A(50,21,54)           107.8701         calculate D2E/DX2 analytically  !
 ! A53   A(12,22,45)           108.1457         calculate D2E/DX2 analytically  !
 ! A54   A(1,23,7)             107.7201         calculate D2E/DX2 analytically  !
 ! A55   A(1,23,24)            120.7614         calculate D2E/DX2 analytically  !
 ! A56   A(7,23,24)            131.5177         calculate D2E/DX2 analytically  !
 ! A57   A(6,25,26)            116.1245         calculate D2E/DX2 analytically  !
 ! A58   A(6,25,27)            120.6196         calculate D2E/DX2 analytically  !
 ! A59   A(26,25,27)           123.2558         calculate D2E/DX2 analytically  !
 ! A60   A(25,27,28)           118.4144         calculate D2E/DX2 analytically  !
 ! A61   A(27,28,29)           111.7845         calculate D2E/DX2 analytically  !
 ! A62   A(27,28,30)           113.0585         calculate D2E/DX2 analytically  !
 ! A63   A(27,28,31)           105.8633         calculate D2E/DX2 analytically  !
 ! A64   A(29,28,30)           110.3918         calculate D2E/DX2 analytically  !
 ! A65   A(29,28,31)           107.7121         calculate D2E/DX2 analytically  !
 ! A66   A(30,28,31)           107.705          calculate D2E/DX2 analytically  !
 ! A67   A(28,29,32)           110.6802         calculate D2E/DX2 analytically  !
 ! A68   A(28,29,33)           108.5061         calculate D2E/DX2 analytically  !
 ! A69   A(28,29,34)           109.6503         calculate D2E/DX2 analytically  !
 ! A70   A(32,29,33)           109.8335         calculate D2E/DX2 analytically  !
 ! A71   A(32,29,34)           110.8394         calculate D2E/DX2 analytically  !
 ! A72   A(33,29,34)           107.2404         calculate D2E/DX2 analytically  !
 ! A73   A(28,30,35)           110.7125         calculate D2E/DX2 analytically  !
 ! A74   A(28,30,36)           109.0531         calculate D2E/DX2 analytically  !
 ! A75   A(28,30,37)           109.5906         calculate D2E/DX2 analytically  !
 ! A76   A(35,30,36)           109.1625         calculate D2E/DX2 analytically  !
 ! A77   A(35,30,37)           111.0731         calculate D2E/DX2 analytically  !
 ! A78   A(36,30,37)           107.1605         calculate D2E/DX2 analytically  !
 ! A79   A(29,32,38)           111.4087         calculate D2E/DX2 analytically  !
 ! A80   A(29,32,39)           110.0732         calculate D2E/DX2 analytically  !
 ! A81   A(29,32,40)           108.8528         calculate D2E/DX2 analytically  !
 ! A82   A(38,32,39)           110.5536         calculate D2E/DX2 analytically  !
 ! A83   A(38,32,40)           109.1297         calculate D2E/DX2 analytically  !
 ! A84   A(39,32,40)           106.6883         calculate D2E/DX2 analytically  !
 ! A85   A(30,35,38)           111.1398         calculate D2E/DX2 analytically  !
 ! A86   A(30,35,41)           109.8012         calculate D2E/DX2 analytically  !
 ! A87   A(30,35,42)           109.1776         calculate D2E/DX2 analytically  !
 ! A88   A(38,35,41)           110.5263         calculate D2E/DX2 analytically  !
 ! A89   A(38,35,42)           109.2755         calculate D2E/DX2 analytically  !
 ! A90   A(41,35,42)           106.8122         calculate D2E/DX2 analytically  !
 ! A91   A(32,38,35)           111.1215         calculate D2E/DX2 analytically  !
 ! A92   A(32,38,43)           110.3495         calculate D2E/DX2 analytically  !
 ! A93   A(32,38,44)           109.0666         calculate D2E/DX2 analytically  !
 ! A94   A(35,38,43)           110.3348         calculate D2E/DX2 analytically  !
 ! A95   A(35,38,44)           108.9763         calculate D2E/DX2 analytically  !
 ! A96   A(43,38,44)           106.8793         calculate D2E/DX2 analytically  !
 ! A97   A(21,46,47)           109.1463         calculate D2E/DX2 analytically  !
 ! A98   A(21,46,48)           111.6515         calculate D2E/DX2 analytically  !
 ! A99   A(21,46,49)           110.4964         calculate D2E/DX2 analytically  !
 ! A100  A(47,46,48)           108.5068         calculate D2E/DX2 analytically  !
 ! A101  A(47,46,49)           108.2844         calculate D2E/DX2 analytically  !
 ! A102  A(48,46,49)           108.6742         calculate D2E/DX2 analytically  !
 ! A103  A(21,50,51)           111.6716         calculate D2E/DX2 analytically  !
 ! A104  A(21,50,52)           109.0038         calculate D2E/DX2 analytically  !
 ! A105  A(21,50,53)           110.6607         calculate D2E/DX2 analytically  !
 ! A106  A(51,50,52)           108.4991         calculate D2E/DX2 analytically  !
 ! A107  A(51,50,53)           108.7204         calculate D2E/DX2 analytically  !
 ! A108  A(52,50,53)           108.1978         calculate D2E/DX2 analytically  !
 ! A109  A(21,54,55)           112.0434         calculate D2E/DX2 analytically  !
 ! A110  A(21,54,56)           111.4767         calculate D2E/DX2 analytically  !
 ! A111  A(21,54,57)           108.8952         calculate D2E/DX2 analytically  !
 ! A112  A(55,54,56)           108.4302         calculate D2E/DX2 analytically  !
 ! A113  A(55,54,57)           107.8812         calculate D2E/DX2 analytically  !
 ! A114  A(56,54,57)           107.9703         calculate D2E/DX2 analytically  !
 ! A115  A(20,58,59)           112.0095         calculate D2E/DX2 analytically  !
 ! A116  A(20,58,60)           108.957          calculate D2E/DX2 analytically  !
 ! A117  A(20,58,61)           110.8929         calculate D2E/DX2 analytically  !
 ! A118  A(59,58,60)           107.9921         calculate D2E/DX2 analytically  !
 ! A119  A(59,58,61)           108.4585         calculate D2E/DX2 analytically  !
 ! A120  A(60,58,61)           108.4258         calculate D2E/DX2 analytically  !
 ! A121  A(20,62,63)           109.0254         calculate D2E/DX2 analytically  !
 ! A122  A(20,62,64)           111.7891         calculate D2E/DX2 analytically  !
 ! A123  A(20,62,65)           110.8719         calculate D2E/DX2 analytically  !
 ! A124  A(63,62,64)           108.1875         calculate D2E/DX2 analytically  !
 ! A125  A(63,62,65)           108.4358         calculate D2E/DX2 analytically  !
 ! A126  A(64,62,65)           108.4376         calculate D2E/DX2 analytically  !
 ! A127  A(20,66,67)           111.6456         calculate D2E/DX2 analytically  !
 ! A128  A(20,66,68)           111.6285         calculate D2E/DX2 analytically  !
 ! A129  A(20,66,69)           109.1409         calculate D2E/DX2 analytically  !
 ! A130  A(67,66,68)           108.67           calculate D2E/DX2 analytically  !
 ! A131  A(67,66,69)           107.7506         calculate D2E/DX2 analytically  !
 ! A132  A(68,66,69)           107.8588         calculate D2E/DX2 analytically  !
 ! D1    D(6,1,2,3)              0.4305         calculate D2E/DX2 analytically  !
 ! D2    D(6,1,2,11)          -179.8971         calculate D2E/DX2 analytically  !
 ! D3    D(23,1,2,3)          -179.5981         calculate D2E/DX2 analytically  !
 ! D4    D(23,1,2,11)            0.0744         calculate D2E/DX2 analytically  !
 ! D5    D(2,1,6,5)             -0.2811         calculate D2E/DX2 analytically  !
 ! D6    D(2,1,6,25)           179.7319         calculate D2E/DX2 analytically  !
 ! D7    D(23,1,6,5)           179.7549         calculate D2E/DX2 analytically  !
 ! D8    D(23,1,6,25)           -0.2322         calculate D2E/DX2 analytically  !
 ! D9    D(2,1,23,7)            -0.0065         calculate D2E/DX2 analytically  !
 ! D10   D(2,1,23,24)         -179.7208         calculate D2E/DX2 analytically  !
 ! D11   D(6,1,23,7)           179.9621         calculate D2E/DX2 analytically  !
 ! D12   D(6,1,23,24)            0.2478         calculate D2E/DX2 analytically  !
 ! D13   D(1,2,3,4)             -0.2776         calculate D2E/DX2 analytically  !
 ! D14   D(1,2,3,8)            179.6715         calculate D2E/DX2 analytically  !
 ! D15   D(11,2,3,4)          -179.8574         calculate D2E/DX2 analytically  !
 ! D16   D(11,2,3,8)             0.0917         calculate D2E/DX2 analytically  !
 ! D17   D(1,2,11,7)            -0.1142         calculate D2E/DX2 analytically  !
 ! D18   D(3,2,11,7)           179.5049         calculate D2E/DX2 analytically  !
 ! D19   D(2,3,4,5)              0.0131         calculate D2E/DX2 analytically  !
 ! D20   D(2,3,4,9)           -179.8579         calculate D2E/DX2 analytically  !
 ! D21   D(8,3,4,5)           -179.9357         calculate D2E/DX2 analytically  !
 ! D22   D(8,3,4,9)              0.1933         calculate D2E/DX2 analytically  !
 ! D23   D(3,4,5,6)              0.1267         calculate D2E/DX2 analytically  !
 ! D24   D(3,4,5,10)          -179.8016         calculate D2E/DX2 analytically  !
 ! D25   D(9,4,5,6)            179.9986         calculate D2E/DX2 analytically  !
 ! D26   D(9,4,5,10)             0.0703         calculate D2E/DX2 analytically  !
 ! D27   D(4,5,6,1)              0.0064         calculate D2E/DX2 analytically  !
 ! D28   D(4,5,6,25)           179.9932         calculate D2E/DX2 analytically  !
 ! D29   D(10,5,6,1)           179.9349         calculate D2E/DX2 analytically  !
 ! D30   D(10,5,6,25)           -0.0784         calculate D2E/DX2 analytically  !
 ! D31   D(1,6,25,26)          179.5            calculate D2E/DX2 analytically  !
 ! D32   D(1,6,25,27)           -0.4383         calculate D2E/DX2 analytically  !
 ! D33   D(5,6,25,26)           -0.4859         calculate D2E/DX2 analytically  !
 ! D34   D(5,6,25,27)          179.5758         calculate D2E/DX2 analytically  !
 ! D35   D(13,7,11,2)         -179.7565         calculate D2E/DX2 analytically  !
 ! D36   D(23,7,11,2)            0.1134         calculate D2E/DX2 analytically  !
 ! D37   D(11,7,13,12)          -1.572          calculate D2E/DX2 analytically  !
 ! D38   D(11,7,13,14)         177.7672         calculate D2E/DX2 analytically  !
 ! D39   D(23,7,13,12)         178.5828         calculate D2E/DX2 analytically  !
 ! D40   D(23,7,13,14)          -2.078          calculate D2E/DX2 analytically  !
 ! D41   D(11,7,23,1)           -0.0665         calculate D2E/DX2 analytically  !
 ! D42   D(11,7,23,24)         179.6056         calculate D2E/DX2 analytically  !
 ! D43   D(13,7,23,1)          179.7919         calculate D2E/DX2 analytically  !
 ! D44   D(13,7,23,24)          -0.536          calculate D2E/DX2 analytically  !
 ! D45   D(17,12,13,7)        -178.6238         calculate D2E/DX2 analytically  !
 ! D46   D(17,12,13,14)          2.0146         calculate D2E/DX2 analytically  !
 ! D47   D(22,12,13,7)           1.6905         calculate D2E/DX2 analytically  !
 ! D48   D(22,12,13,14)       -177.6711         calculate D2E/DX2 analytically  !
 ! D49   D(13,12,17,16)         -2.0964         calculate D2E/DX2 analytically  !
 ! D50   D(13,12,17,21)        178.2068         calculate D2E/DX2 analytically  !
 ! D51   D(22,12,17,16)        177.5868         calculate D2E/DX2 analytically  !
 ! D52   D(22,12,17,21)         -2.11           calculate D2E/DX2 analytically  !
 ! D53   D(13,12,22,45)         -0.7526         calculate D2E/DX2 analytically  !
 ! D54   D(17,12,22,45)        179.5636         calculate D2E/DX2 analytically  !
 ! D55   D(7,13,14,15)        -179.8477         calculate D2E/DX2 analytically  !
 ! D56   D(7,13,14,18)          -0.0828         calculate D2E/DX2 analytically  !
 ! D57   D(12,13,14,15)         -0.5278         calculate D2E/DX2 analytically  !
 ! D58   D(12,13,14,18)        179.2371         calculate D2E/DX2 analytically  !
 ! D59   D(13,14,15,16)         -0.7797         calculate D2E/DX2 analytically  !
 ! D60   D(13,14,15,20)        178.6721         calculate D2E/DX2 analytically  !
 ! D61   D(18,14,15,16)        179.4571         calculate D2E/DX2 analytically  !
 ! D62   D(18,14,15,20)         -1.0912         calculate D2E/DX2 analytically  !
 ! D63   D(14,15,16,17)          0.6455         calculate D2E/DX2 analytically  !
 ! D64   D(14,15,16,19)       -179.2161         calculate D2E/DX2 analytically  !
 ! D65   D(20,15,16,17)       -178.8284         calculate D2E/DX2 analytically  !
 ! D66   D(20,15,16,19)          1.3099         calculate D2E/DX2 analytically  !
 ! D67   D(14,15,20,58)        122.8983         calculate D2E/DX2 analytically  !
 ! D68   D(14,15,20,62)       -118.3433         calculate D2E/DX2 analytically  !
 ! D69   D(14,15,20,66)          2.0508         calculate D2E/DX2 analytically  !
 ! D70   D(16,15,20,58)        -57.6498         calculate D2E/DX2 analytically  !
 ! D71   D(16,15,20,62)         61.1087         calculate D2E/DX2 analytically  !
 ! D72   D(16,15,20,66)       -178.4972         calculate D2E/DX2 analytically  !
 ! D73   D(15,16,17,12)          0.8072         calculate D2E/DX2 analytically  !
 ! D74   D(15,16,17,21)       -179.5019         calculate D2E/DX2 analytically  !
 ! D75   D(19,16,17,12)       -179.3327         calculate D2E/DX2 analytically  !
 ! D76   D(19,16,17,21)          0.3582         calculate D2E/DX2 analytically  !
 ! D77   D(12,17,21,46)         61.9516         calculate D2E/DX2 analytically  !
 ! D78   D(12,17,21,50)        -59.0898         calculate D2E/DX2 analytically  !
 ! D79   D(12,17,21,54)       -178.327          calculate D2E/DX2 analytically  !
 ! D80   D(16,17,21,46)       -117.7267         calculate D2E/DX2 analytically  !
 ! D81   D(16,17,21,50)        121.2319         calculate D2E/DX2 analytically  !
 ! D82   D(16,17,21,54)          1.9947         calculate D2E/DX2 analytically  !
 ! D83   D(15,20,58,59)         59.374          calculate D2E/DX2 analytically  !
 ! D84   D(15,20,58,60)        178.7881         calculate D2E/DX2 analytically  !
 ! D85   D(15,20,58,61)        -61.9474         calculate D2E/DX2 analytically  !
 ! D86   D(62,20,58,59)        -58.7838         calculate D2E/DX2 analytically  !
 ! D87   D(62,20,58,60)         60.6303         calculate D2E/DX2 analytically  !
 ! D88   D(62,20,58,61)        179.8947         calculate D2E/DX2 analytically  !
 ! D89   D(66,20,58,59)       -177.5248         calculate D2E/DX2 analytically  !
 ! D90   D(66,20,58,60)        -58.1108         calculate D2E/DX2 analytically  !
 ! D91   D(66,20,58,61)         61.1537         calculate D2E/DX2 analytically  !
 ! D92   D(15,20,62,63)       -178.406          calculate D2E/DX2 analytically  !
 ! D93   D(15,20,62,64)        -58.841          calculate D2E/DX2 analytically  !
 ! D94   D(15,20,62,65)         62.2869         calculate D2E/DX2 analytically  !
 ! D95   D(58,20,62,63)        -59.7434         calculate D2E/DX2 analytically  !
 ! D96   D(58,20,62,64)         59.8216         calculate D2E/DX2 analytically  !
 ! D97   D(58,20,62,65)       -179.0504         calculate D2E/DX2 analytically  !
 ! D98   D(66,20,62,63)         58.9492         calculate D2E/DX2 analytically  !
 ! D99   D(66,20,62,64)        178.5141         calculate D2E/DX2 analytically  !
 ! D100  D(66,20,62,65)        -60.3579         calculate D2E/DX2 analytically  !
 ! D101  D(15,20,66,67)        -60.9754         calculate D2E/DX2 analytically  !
 ! D102  D(15,20,66,68)         60.8842         calculate D2E/DX2 analytically  !
 ! D103  D(15,20,66,69)       -179.9837         calculate D2E/DX2 analytically  !
 ! D104  D(58,20,66,67)        178.0216         calculate D2E/DX2 analytically  !
 ! D105  D(58,20,66,68)        -60.1188         calculate D2E/DX2 analytically  !
 ! D106  D(58,20,66,69)         59.0133         calculate D2E/DX2 analytically  !
 ! D107  D(62,20,66,67)         59.0644         calculate D2E/DX2 analytically  !
 ! D108  D(62,20,66,68)       -179.076          calculate D2E/DX2 analytically  !
 ! D109  D(62,20,66,69)        -59.944          calculate D2E/DX2 analytically  !
 ! D110  D(17,21,46,47)        177.4084         calculate D2E/DX2 analytically  !
 ! D111  D(17,21,46,48)        -62.6358         calculate D2E/DX2 analytically  !
 ! D112  D(17,21,46,49)         58.4396         calculate D2E/DX2 analytically  !
 ! D113  D(50,21,46,47)        -61.717          calculate D2E/DX2 analytically  !
 ! D114  D(50,21,46,48)         58.2388         calculate D2E/DX2 analytically  !
 ! D115  D(50,21,46,49)        179.3143         calculate D2E/DX2 analytically  !
 ! D116  D(54,21,46,47)         55.9968         calculate D2E/DX2 analytically  !
 ! D117  D(54,21,46,48)        175.9527         calculate D2E/DX2 analytically  !
 ! D118  D(54,21,46,49)        -62.9719         calculate D2E/DX2 analytically  !
 ! D119  D(17,21,50,51)         62.0337         calculate D2E/DX2 analytically  !
 ! D120  D(17,21,50,52)       -178.101          calculate D2E/DX2 analytically  !
 ! D121  D(17,21,50,53)        -59.2277         calculate D2E/DX2 analytically  !
 ! D122  D(46,21,50,51)        -58.7683         calculate D2E/DX2 analytically  !
 ! D123  D(46,21,50,52)         61.0969         calculate D2E/DX2 analytically  !
 ! D124  D(46,21,50,53)        179.9702         calculate D2E/DX2 analytically  !
 ! D125  D(54,21,50,51)       -176.7618         calculate D2E/DX2 analytically  !
 ! D126  D(54,21,50,52)        -56.8966         calculate D2E/DX2 analytically  !
 ! D127  D(54,21,50,53)         61.9767         calculate D2E/DX2 analytically  !
 ! D128  D(17,21,54,55)        -61.8032         calculate D2E/DX2 analytically  !
 ! D129  D(17,21,54,56)         59.9216         calculate D2E/DX2 analytically  !
 ! D130  D(17,21,54,57)        178.9404         calculate D2E/DX2 analytically  !
 ! D131  D(46,21,54,55)         58.7142         calculate D2E/DX2 analytically  !
 ! D132  D(46,21,54,56)       -179.561          calculate D2E/DX2 analytically  !
 ! D133  D(46,21,54,57)        -60.5423         calculate D2E/DX2 analytically  !
 ! D134  D(50,21,54,55)        177.82           calculate D2E/DX2 analytically  !
 ! D135  D(50,21,54,56)        -60.4553         calculate D2E/DX2 analytically  !
 ! D136  D(50,21,54,57)         58.5635         calculate D2E/DX2 analytically  !
 ! D137  D(6,25,27,28)         179.7912         calculate D2E/DX2 analytically  !
 ! D138  D(26,25,27,28)         -0.1425         calculate D2E/DX2 analytically  !
 ! D139  D(25,27,28,29)        -67.2298         calculate D2E/DX2 analytically  !
 ! D140  D(25,27,28,30)         58.0762         calculate D2E/DX2 analytically  !
 ! D141  D(25,27,28,31)        175.7586         calculate D2E/DX2 analytically  !
 ! D142  D(27,28,29,32)       -176.1711         calculate D2E/DX2 analytically  !
 ! D143  D(27,28,29,33)         63.2466         calculate D2E/DX2 analytically  !
 ! D144  D(27,28,29,34)        -53.5861         calculate D2E/DX2 analytically  !
 ! D145  D(30,28,29,32)         57.0622         calculate D2E/DX2 analytically  !
 ! D146  D(30,28,29,33)        -63.5201         calculate D2E/DX2 analytically  !
 ! D147  D(30,28,29,34)        179.6473         calculate D2E/DX2 analytically  !
 ! D148  D(31,28,29,32)        -60.2807         calculate D2E/DX2 analytically  !
 ! D149  D(31,28,29,33)        179.1371         calculate D2E/DX2 analytically  !
 ! D150  D(31,28,29,34)         62.3044         calculate D2E/DX2 analytically  !
 ! D151  D(27,28,30,35)        176.5715         calculate D2E/DX2 analytically  !
 ! D152  D(27,28,30,36)        -63.3055         calculate D2E/DX2 analytically  !
 ! D153  D(27,28,30,37)         53.7109         calculate D2E/DX2 analytically  !
 ! D154  D(29,28,30,35)        -57.3746         calculate D2E/DX2 analytically  !
 ! D155  D(29,28,30,36)         62.7484         calculate D2E/DX2 analytically  !
 ! D156  D(29,28,30,37)        179.7649         calculate D2E/DX2 analytically  !
 ! D157  D(31,28,30,35)         59.9727         calculate D2E/DX2 analytically  !
 ! D158  D(31,28,30,36)       -179.9043         calculate D2E/DX2 analytically  !
 ! D159  D(31,28,30,37)        -62.8879         calculate D2E/DX2 analytically  !
 ! D160  D(28,29,32,38)        -56.1422         calculate D2E/DX2 analytically  !
 ! D161  D(28,29,32,39)       -179.1506         calculate D2E/DX2 analytically  !
 ! D162  D(28,29,32,40)         64.244          calculate D2E/DX2 analytically  !
 ! D163  D(33,29,32,38)         63.6467         calculate D2E/DX2 analytically  !
 ! D164  D(33,29,32,39)        -59.3617         calculate D2E/DX2 analytically  !
 ! D165  D(33,29,32,40)       -175.9671         calculate D2E/DX2 analytically  !
 ! D166  D(34,29,32,38)       -178.0317         calculate D2E/DX2 analytically  !
 ! D167  D(34,29,32,39)         58.9598         calculate D2E/DX2 analytically  !
 ! D168  D(34,29,32,40)        -57.6456         calculate D2E/DX2 analytically  !
 ! D169  D(28,30,35,38)         56.5934         calculate D2E/DX2 analytically  !
 ! D170  D(28,30,35,41)        179.194          calculate D2E/DX2 analytically  !
 ! D171  D(28,30,35,42)        -64.0176         calculate D2E/DX2 analytically  !
 ! D172  D(36,30,35,38)        -63.4642         calculate D2E/DX2 analytically  !
 ! D173  D(36,30,35,41)         59.1364         calculate D2E/DX2 analytically  !
 ! D174  D(36,30,35,42)        175.9248         calculate D2E/DX2 analytically  !
 ! D175  D(37,30,35,38)        178.5892         calculate D2E/DX2 analytically  !
 ! D176  D(37,30,35,41)        -58.8102         calculate D2E/DX2 analytically  !
 ! D177  D(37,30,35,42)         57.9782         calculate D2E/DX2 analytically  !
 ! D178  D(29,32,38,35)         55.1856         calculate D2E/DX2 analytically  !
 ! D179  D(29,32,38,43)        177.9106         calculate D2E/DX2 analytically  !
 ! D180  D(29,32,38,44)        -64.9697         calculate D2E/DX2 analytically  !
 ! D181  D(39,32,38,35)        177.9189         calculate D2E/DX2 analytically  !
 ! D182  D(39,32,38,43)        -59.3562         calculate D2E/DX2 analytically  !
 ! D183  D(39,32,38,44)         57.7635         calculate D2E/DX2 analytically  !
 ! D184  D(40,32,38,35)        -65.0375         calculate D2E/DX2 analytically  !
 ! D185  D(40,32,38,43)         57.6875         calculate D2E/DX2 analytically  !
 ! D186  D(40,32,38,44)        174.8072         calculate D2E/DX2 analytically  !
 ! D187  D(30,35,38,32)        -55.3257         calculate D2E/DX2 analytically  !
 ! D188  D(30,35,38,43)       -178.0592         calculate D2E/DX2 analytically  !
 ! D189  D(30,35,38,44)         64.8832         calculate D2E/DX2 analytically  !
 ! D190  D(41,35,38,32)       -177.5065         calculate D2E/DX2 analytically  !
 ! D191  D(41,35,38,43)         59.76           calculate D2E/DX2 analytically  !
 ! D192  D(41,35,38,44)        -57.2976         calculate D2E/DX2 analytically  !
 ! D193  D(42,35,38,32)         65.2275         calculate D2E/DX2 analytically  !
 ! D194  D(42,35,38,43)        -57.506          calculate D2E/DX2 analytically  !
 ! D195  D(42,35,38,44)       -174.5636         calculate D2E/DX2 analytically  !
 --------------------------------------------------------------------------------
 Trust Radius=3.00D-01 FncErr=5.00D-06 GrdErr=5.00D-06 EigMax=2.50D+02 EigMin=1.00D-04
 Number of steps in this run=    409 maximum allowed number of steps=    414.
 Search for a saddle point of order  1.
 GradGradGradGradGradGradGradGradGradGradGradGradGradGradGradGradGradGrad

 Leave Link  103 at Fri Dec 21 13:53:15 2018, MaxMem=  1342177280 cpu:               0.8 elap:               0.1
 (Enter /gpfs/apps/hpc/Apps/Restricted/Gaussian/Rev_A.03/g16/l202.exe)
 Symmetry turned off by external request.
 Stoichiometry    C28H37N3O(1+,2)
 Framework group  C1[X(C28H37N3O)]
 Deg. of freedom   201
 Full point group                 C1      NOp   1
                          Input orientation:                          
 ---------------------------------------------------------------------
 Center     Atomic      Atomic             Coordinates (Angstroms)
 Number     Number       Type             X           Y           Z
 ---------------------------------------------------------------------
      1          6           0       -0.424607    2.698681    0.246936
      2          6           0       -1.834895    2.828754    0.185660
      3          6           0       -2.424886    4.098846    0.090523
      4          6           0       -1.569497    5.191357    0.066722
      5          6           0       -0.164852    5.047616    0.134183
      6          6           0        0.448813    3.799258    0.226225
      7          6           0       -1.352031    0.697422    0.311466
      8          1           0       -3.499604    4.214883    0.037539
      9          1           0       -1.985482    6.188922   -0.003634
     10          1           0        0.457072    5.934987    0.115050
     11          7           0       -2.373056    1.565117    0.229857
     12          6           0       -2.977567   -1.164504    0.371220
     13          6           0       -1.583889   -0.721368    0.369574
     14          6           0       -0.560591   -1.655843    0.409136
     15          6           0       -0.848746   -3.024455    0.461911
     16          6           0       -2.215394   -3.436678    0.491161
     17          6           0       -3.284485   -2.575241    0.458200
     18          1           0        0.466302   -1.318690    0.395031
     19          1           0       -2.410822   -4.497069    0.544900
     20          6           0        0.233944   -4.089907    0.477110
     21          6           0       -4.733161   -3.059758    0.502657
     22          8           0       -3.926754   -0.291611    0.288683
     23          7           0       -0.159673    1.357110    0.324518
     24          1           0        0.798762    1.018009    0.383010
     25          6           0        1.898417    3.621363    0.297259
     26          1           0        2.498358    4.536284    0.266080
     27          7           0        2.408265    2.449815    0.389010
     28          6           0        3.871568    2.326873    0.452582
     29          6           0        4.537652    2.747910   -0.868229
     30          6           0        4.489658    3.094367    1.632758
     31          1           0        4.076322    1.261006    0.604312
     32          6           0        6.052077    2.520597   -0.807212
     33          1           0        4.327522    3.810324   -1.040859
     34          1           0        4.093558    2.190502   -1.698265
     35          6           0        6.003169    2.861186    1.697970
     36          1           0        4.295817    4.165731    1.503811
     37          1           0        4.004091    2.788318    2.563892
     38          6           0        6.680962    3.257149    0.380761
     39          1           0        6.517422    2.837187   -1.745439
     40          1           0        6.245442    1.445153   -0.706744
     41          1           0        6.429428    3.424890    2.533425
     42          1           0        6.195998    1.800126    1.899858
     43          1           0        7.754986    3.053382    0.429497
     44          1           0        6.568238    4.338537    0.232452
     45          1           0       -3.458560    0.732537    0.239904
     46          6           0       -5.457763   -2.652940   -0.800234
     47          1           0       -6.478475   -3.043175   -0.779590
     48          1           0       -5.503644   -1.570556   -0.913427
     49          1           0       -4.947155   -3.074311   -1.669598
     50          6           0       -5.453293   -2.444617    1.724046
     51          1           0       -5.491098   -1.357955    1.663365
     52          1           0       -6.476851   -2.825562    1.762728
     53          1           0       -4.948780   -2.726812    2.651619
     54          6           0       -4.801307   -4.588504    0.635955
     55          1           0       -4.342551   -5.095607   -0.217052
     56          1           0       -4.308416   -4.932997    1.548740
     57          1           0       -5.848585   -4.892902    0.683270
     58          6           0        0.061910   -4.967137    1.738421
     59          1           0       -0.914426   -5.454721    1.767608
     60          1           0        0.828377   -5.746193    1.736297
     61          1           0        0.178048   -4.371048    2.646261
     62          6           0        0.064986   -4.970960   -0.783111
     63          1           0        0.821049   -5.760096   -0.770114
     64          1           0       -0.919054   -5.442400   -0.819018
     65          1           0        0.198227   -4.379851   -1.691934
     66          6           0        1.646432   -3.492492    0.479322
     67          1           0        1.830423   -2.889548   -0.413151
     68          1           0        1.820166   -2.872466    1.362331
     69          1           0        2.378025   -4.303097    0.490103
 ---------------------------------------------------------------------
 Rotational constants (GHZ):           0.1859518           0.0706681           0.0535384
 Leave Link  202 at Fri Dec 21 13:53:15 2018, MaxMem=  1342177280 cpu:               1.3 elap:               0.1
 (Enter /gpfs/apps/hpc/Apps/Restricted/Gaussian/Rev_A.03/g16/l301.exe)
 Standard basis: 6-31G(d,p) (6D, 7F)
 Ernie: Thresh=  0.10000D-02 Tol=  0.10000D-05 Strict=F.
   665 basis functions,  1155 primitive gaussians,   665 cartesian basis functions
   117 alpha electrons      116 beta electrons
       nuclear repulsion energy      3167.6522857120 Hartrees.
 IExCor=  402 DFT=T Ex+Corr=B3LYP ExCW=0 ScaHFX=  0.200000
 ScaDFX=  0.800000  0.720000  1.000000  0.810000 ScalE2=  1.000000  1.000000
 IRadAn=      5 IRanWt=     -1 IRanGd=            0 ICorTp=0 IEmpDi=141
 NAtoms=   69 NActive=   69 NUniq=   69 SFac= 1.00D+00 NAtFMM=   60 NAOKFM=T Big=T
 Integral buffers will be    131072 words long.
 Raffenetti 2 integral format.
 Two-electron integral symmetry is turned off.
 R6Disp:  Grimme-D3(BJ) Dispersion energy=       -0.1499819878 Hartrees.
 Nuclear repulsion after empirical dispersion term =     3167.5023037242 Hartrees.
 Force inversion solution in PCM.
 Using the following non-standard input for PCM:
 radii=bondi
 dis
 rep
 cav
 --- end of non-standard input.
 Force inversion solution in PCM.
 ------------------------------------------------------------------------------
 Polarizable Continuum Model (PCM)
 =================================
 Model                : C-PCM.
 Atomic radii         : Bondi.
 Polarization charges : Total charges.
 Charge compensation  : None.
 Solution method      : Matrix inversion.
 Cavity type          : Scaled VdW (van der Waals Surface) (Alpha=1.100).
 Cavity algorithm     : GePol (No added spheres)
                        Default sphere list used, NSphG=   69.
                        Lebedev-Laikov grids with approx.  5.0 points / Ang**2.
                        Smoothing algorithm: York/Karplus (Gamma=1.0000).
                        Polarization charges: spherical gaussians, with
                                              point-specific exponents (IZeta= 3).
                        Self-potential: point-specific (ISelfS= 7).
                        Self-field    : sphere-specific E.n sum rule (ISelfD= 2).
 1st derivatives      : Analytical E(r).r(x)/FMM algorithm (CHGder, D1EAlg=3).
                        Cavity 1st derivative terms included.
 2nd derivatives      : Analytical E(r).r(xy)/FMM algorithm (CHGder, D2EAlg=3).
                        Cavity 2nd derivative terms included.
 Solvent              : Dichloromethane, Eps=   8.930000 Eps(inf)=   2.028346
 ------------------------------------------------------------------------------
 GePol: Number of generator spheres                  =      69
 GePol: Total number of spheres                      =      69
 GePol: Number of exposed spheres                    =      69 (100.00%)
 GePol: Number of points                             =    4319
 GePol: Average weight of points                     =       0.12
 GePol: Minimum weight of points                     =   0.11D-09
 GePol: Maximum weight of points                     =    0.21770
 GePol: Number of points with low weight             =     309
 GePol: Fraction of low-weight points (<1% of avg)   =       7.15%
 GePol: Cavity surface area                          =    517.572 Ang**2
 GePol: Cavity volume                                =    499.574 Ang**3
 PCM non-electrostatic energy =         0.0251278350 Hartrees.
 Nuclear repulsion after PCM non-electrostatic terms =     3167.5274315592 Hartrees.
 Leave Link  301 at Fri Dec 21 13:53:16 2018, MaxMem=  1342177280 cpu:               3.0 elap:               0.2
 (Enter /gpfs/apps/hpc/Apps/Restricted/Gaussian/Rev_A.03/g16/l302.exe)
 NPDir=0 NMtPBC=     1 NCelOv=     1 NCel=       1 NClECP=     1 NCelD=      1
         NCelK=      1 NCelE2=     1 NClLst=     1 CellRange=     0.0.
 One-electron integrals computed using PRISM.
 NBasis=   665 RedAO= T EigKep=  2.99D-04  NBF=   665
 NBsUse=   665 1.00D-06 EigRej= -1.00D+00 NBFU=   665
 Precomputing XC quadrature grid using
 IXCGrd= 4 IRadAn=           5 IRanWt=          -1 IRanGd=           0 AccXCQ= 0.00D+00.
 Generated NRdTot=       0 NPtTot=           0 NUsed=           0 NTot=          32
 NSgBfM=   647   647   647   647   647 MxSgAt=    69 MxSgA2=    69.
 Leave Link  302 at Fri Dec 21 13:53:17 2018, MaxMem=  1342177280 cpu:              16.4 elap:               1.1
 (Enter /gpfs/apps/hpc/Apps/Restricted/Gaussian/Rev_A.03/g16/l303.exe)
 DipDrv:  MaxL=1.
 Leave Link  303 at Fri Dec 21 13:53:17 2018, MaxMem=  1342177280 cpu:               2.3 elap:               0.2
 (Enter /gpfs/apps/hpc/Apps/Restricted/Gaussian/Rev_A.03/g16/l401.exe)
 ExpMin= 1.61D-01 ExpMax= 5.48D+03 ExpMxC= 8.25D+02 IAcc=3 IRadAn=         5 AccDes= 0.00D+00
 Harris functional with IExCor=  402 and IRadAn=       5 diagonalized for initial guess.
 HarFok:  IExCor=  402 AccDes= 0.00D+00 IRadAn=         5 IDoV= 1 UseB2=F ITyADJ=14
 ICtDFT=  3500011 ScaDFX=  1.000000  1.000000  1.000000  1.000000
 FoFCou: FMM=F IPFlag=           0 FMFlag=      100000 FMFlg1=        2001
         NFxFlg=           0 DoJE=T BraDBF=F KetDBF=T FulRan=T
         wScrn=  0.000000 ICntrl=       500 IOpCl=  0 I1Cent=   200000004 NGrid=           0
         NMat0=    1 NMatS0=      1 NMatT0=    0 NMatD0=    1 NMtDS0=    0 NMtDT0=    0
 Symmetry not used in FoFCou.
 Harris En= -1328.76789871044    
 JPrj=0 DoOrth=F DoCkMO=F.
 Initial guess <Sx>= 0.0000 <Sy>= 0.0000 <Sz>= 0.5000 <S**2>= 0.7500 S= 0.5000
 Leave Link  401 at Fri Dec 21 13:53:21 2018, MaxMem=  1342177280 cpu:              60.1 elap:               3.8
 (Enter /gpfs/apps/hpc/Apps/Restricted/Gaussian/Rev_A.03/g16/l502.exe)
 Two-electron integral symmetry not used.
 UHF open shell SCF:
 Using DIIS extrapolation, IDIIS=  1040.
 NGot=  1342177280 LenX=  1341276554 LenY=  1340833664
 Requested convergence on RMS density matrix=1.00D-08 within 128 cycles.
 Requested convergence on MAX density matrix=1.00D-06.
 Requested convergence on             energy=1.00D-06.
 No special actions if energy rises.
 Fock matrices will be formed incrementally for  20 cycles.

 Cycle   1  Pass 1  IDiag  1:
 FoFJK:  IHMeth= 1 ICntrl=       0 DoSepK=F KAlg= 0 I1Cent=           0 FoldK=F
 IRaf= 760000000 NMat=       1 IRICut=       1 DoRegI=T DoRafI=F ISym2E= 0 IDoP0=0 IntGTp=1.
 FoFCou: FMM=T IPFlag=           0 FMFlag=      100000 FMFlg1=        2001
         NFxFlg=           0 DoJE=F BraDBF=F KetDBF=F FulRan=T
         wScrn=  0.000000 ICntrl=         0 IOpCl=  1 I1Cent=           0 NGrid=           0
         NMat0=    1 NMatS0=      1 NMatT0=    0 NMatD0=    1 NMtDS0=    0 NMtDT0=    0
 Symmetry not used in FoFCou.
 FMM levels:  10  Number of levels for PrismC:   9
 Inv3:  Mode=1 IEnd=    55961283.
 Iteration    1 A*A^-1 deviation from unit magnitude is 9.10D-15 for   4301.
 Iteration    1 A*A^-1 deviation from orthogonality  is 9.68D-15 for   4301   1982.
 Iteration    1 A^-1*A deviation from unit magnitude is 9.10D-15 for   4301.
 Iteration    1 A^-1*A deviation from orthogonality  is 2.78D-15 for   4303   3083.
 E= -1327.98980541335    
 DIIS: error= 2.92D-02 at cycle   1 NSaved=   1.
 NSaved= 1 IEnMin= 1 EnMin= -1327.98980541335     IErMin= 1 ErrMin= 2.92D-02
 ErrMax= 2.92D-02  0.00D+00 EMaxC= 1.00D-01 BMatC= 3.05D+00 BMatP= 3.05D+00
 IDIUse=3 WtCom= 7.08D-01 WtEn= 2.92D-01
 Coeff-Com:  0.100D+01
 Coeff-En:   0.100D+01
 Coeff:      0.100D+01
 Gap=     0.169 Goal=   None    Shift=    0.000
 Gap=     0.052 Goal=   None    Shift=    0.000
 GapD=    0.052 DampG=0.500 DampE=0.500 DampFc=0.2500 IDamp=-1.
 Damping current iteration by 2.50D-01
 RMSDP=3.11D-03 MaxDP=1.37D-01              OVMax= 2.82D-01

 Cycle   2  Pass 1  IDiag  1:
 RMSU=  7.56D-04    CP:  9.85D-01
 E= -1328.28265764659     Delta-E=       -0.292852233241 Rises=F Damp=T
 DIIS: error= 1.56D-02 at cycle   2 NSaved=   2.
 NSaved= 2 IEnMin= 2 EnMin= -1328.28265764659     IErMin= 2 ErrMin= 1.56D-02
 ErrMax= 1.56D-02  0.00D+00 EMaxC= 1.00D-01 BMatC= 8.03D-01 BMatP= 3.05D+00
 IDIUse=3 WtCom= 8.44D-01 WtEn= 1.56D-01
 Coeff-Com: -0.853D+00 0.185D+01
 Coeff-En:   0.000D+00 0.100D+01
 Coeff:     -0.720D+00 0.172D+01
 Gap=     0.220 Goal=   None    Shift=    0.000
 Gap=     0.087 Goal=   None    Shift=    0.000
 RMSDP=1.15D-03 MaxDP=6.87D-02 DE=-2.93D-01 OVMax= 2.56D-01

 Cycle   3  Pass 1  IDiag  1:
 RMSU=  8.02D-04    CP:  9.55D-01  1.99D+00
 E= -1328.77656000381     Delta-E=       -0.493902357218 Rises=F Damp=F
 DIIS: error= 4.85D-03 at cycle   3 NSaved=   3.
 NSaved= 3 IEnMin= 3 EnMin= -1328.77656000381     IErMin= 3 ErrMin= 4.85D-03
 ErrMax= 4.85D-03  0.00D+00 EMaxC= 1.00D-01 BMatC= 8.78D-02 BMatP= 8.03D-01
 IDIUse=3 WtCom= 9.51D-01 WtEn= 4.85D-02
 Coeff-Com: -0.305D+00 0.675D+00 0.630D+00
 Coeff-En:   0.000D+00 0.000D+00 0.100D+01
 Coeff:     -0.291D+00 0.642D+00 0.648D+00
 Gap=     0.156 Goal=   None    Shift=    0.000
 Gap=     0.062 Goal=   None    Shift=    0.000
 RMSDP=3.90D-04 MaxDP=3.76D-02 DE=-4.94D-01 OVMax= 1.02D-01

 Cycle   4  Pass 1  IDiag  1:
 RMSU=  3.18D-04    CP:  9.58D-01  2.02D+00  7.23D-01
 E= -1328.79007801794     Delta-E=       -0.013518014124 Rises=F Damp=F
 DIIS: error= 4.12D-03 at cycle   4 NSaved=   4.
 NSaved= 4 IEnMin= 4 EnMin= -1328.79007801794     IErMin= 4 ErrMin= 4.12D-03
 ErrMax= 4.12D-03  0.00D+00 EMaxC= 1.00D-01 BMatC= 4.14D-02 BMatP= 8.78D-02
 IDIUse=3 WtCom= 9.59D-01 WtEn= 4.12D-02
 Coeff-Com: -0.429D-01 0.111D+00 0.403D+00 0.528D+00
 Coeff-En:   0.000D+00 0.000D+00 0.313D+00 0.687D+00
 Coeff:     -0.411D-01 0.107D+00 0.399D+00 0.535D+00
 Gap=     0.158 Goal=   None    Shift=    0.000
 Gap=     0.061 Goal=   None    Shift=    0.000
 RMSDP=1.71D-04 MaxDP=1.62D-02 DE=-1.35D-02 OVMax= 2.62D-02

 Cycle   5  Pass 1  IDiag  1:
 RMSU=  9.63D-05    CP:  9.57D-01  1.99D+00  8.07D-01  6.17D-01
 E= -1328.79958097446     Delta-E=       -0.009502956526 Rises=F Damp=F
 DIIS: error= 8.61D-04 at cycle   5 NSaved=   5.
 NSaved= 5 IEnMin= 5 EnMin= -1328.79958097446     IErMin= 5 ErrMin= 8.61D-04
 ErrMax= 8.61D-04  0.00D+00 EMaxC= 1.00D-01 BMatC= 2.63D-03 BMatP= 4.14D-02
 IDIUse=3 WtCom= 9.91D-01 WtEn= 8.61D-03
 Coeff-Com:  0.426D-02-0.247D-03 0.162D+00 0.281D+00 0.553D+00
 Coeff-En:   0.000D+00 0.000D+00 0.000D+00 0.000D+00 0.100D+01
 Coeff:      0.423D-02-0.245D-03 0.160D+00 0.279D+00 0.557D+00
 Gap=     0.156 Goal=   None    Shift=    0.000
 Gap=     0.064 Goal=   None    Shift=    0.000
 RMSDP=5.05D-05 MaxDP=7.31D-03 DE=-9.50D-03 OVMax= 1.64D-02

 Cycle   6  Pass 1  IDiag  1:
 RMSU=  3.67D-05    CP:  9.57D-01  1.99D+00  8.19D-01  6.56D-01  6.80D-01
 E= -1328.80018402390     Delta-E=       -0.000603049439 Rises=F Damp=F
 DIIS: error= 3.81D-04 at cycle   6 NSaved=   6.
 NSaved= 6 IEnMin= 6 EnMin= -1328.80018402390     IErMin= 6 ErrMin= 3.81D-04
 ErrMax= 3.81D-04  0.00D+00 EMaxC= 1.00D-01 BMatC= 2.63D-04 BMatP= 2.63D-03
 IDIUse=3 WtCom= 9.96D-01 WtEn= 3.81D-03
 Coeff-Com:  0.582D-02-0.899D-02 0.504D-01 0.948D-01 0.293D+00 0.565D+00
 Coeff-En:   0.000D+00 0.000D+00 0.000D+00 0.000D+00 0.000D+00 0.100D+01
 Coeff:      0.579D-02-0.895D-02 0.502D-01 0.945D-01 0.291D+00 0.567D+00
 Gap=     0.156 Goal=   None    Shift=    0.000
 Gap=     0.064 Goal=   None    Shift=    0.000
 RMSDP=1.77D-05 MaxDP=1.86D-03 DE=-6.03D-04 OVMax= 6.95D-03

 Cycle   7  Pass 1  IDiag  1:
 RMSU=  1.53D-05    CP:  9.57D-01  1.99D+00  8.18D-01  6.65D-01  7.62D-01
                    CP:  1.00D+00
 E= -1328.80026267615     Delta-E=       -0.000078652246 Rises=F Damp=F
 DIIS: error= 2.27D-04 at cycle   7 NSaved=   7.
 NSaved= 7 IEnMin= 7 EnMin= -1328.80026267615     IErMin= 7 ErrMin= 2.27D-04
 ErrMax= 2.27D-04  0.00D+00 EMaxC= 1.00D-01 BMatC= 4.98D-05 BMatP= 2.63D-04
 IDIUse=3 WtCom= 9.98D-01 WtEn= 2.27D-03
 Coeff-Com:  0.217D-02-0.442D-02-0.473D-02-0.104D-01 0.457D-01 0.285D+00
 Coeff-Com:  0.686D+00
 Coeff-En:   0.000D+00 0.000D+00 0.000D+00 0.000D+00 0.000D+00 0.000D+00
 Coeff-En:   0.100D+01
 Coeff:      0.216D-02-0.441D-02-0.472D-02-0.103D-01 0.456D-01 0.285D+00
 Coeff:      0.687D+00
 Gap=     0.157 Goal=   None    Shift=    0.000
 Gap=     0.064 Goal=   None    Shift=    0.000
 RMSDP=1.29D-05 MaxDP=1.56D-03 DE=-7.87D-05 OVMax= 8.07D-03

 Cycle   8  Pass 1  IDiag  1:
 RMSU=  8.11D-06    CP:  9.57D-01  1.99D+00  8.20D-01  6.72D-01  8.10D-01
                    CP:  1.23D+00  1.03D+00
 E= -1328.80029560489     Delta-E=       -0.000032928748 Rises=F Damp=F
 DIIS: error= 1.19D-04 at cycle   8 NSaved=   8.
 NSaved= 8 IEnMin= 8 EnMin= -1328.80029560489     IErMin= 8 ErrMin= 1.19D-04
 ErrMax= 1.19D-04  0.00D+00 EMaxC= 1.00D-01 BMatC= 1.63D-05 BMatP= 4.98D-05
 IDIUse=3 WtCom= 9.99D-01 WtEn= 1.19D-03
 Coeff-Com: -0.959D-03 0.121D-02-0.198D-01-0.428D-01-0.831D-01-0.978D-01
 Coeff-Com:  0.338D+00 0.905D+00
 Coeff-En:   0.000D+00 0.000D+00 0.000D+00 0.000D+00 0.000D+00 0.000D+00
 Coeff-En:   0.000D+00 0.100D+01
 Coeff:     -0.958D-03 0.121D-02-0.197D-01-0.428D-01-0.830D-01-0.977D-01
 Coeff:      0.338D+00 0.905D+00
 Gap=     0.157 Goal=   None    Shift=    0.000
 Gap=     0.064 Goal=   None    Shift=    0.000
 RMSDP=1.20D-05 MaxDP=1.35D-03 DE=-3.29D-05 OVMax= 8.23D-03

 Cycle   9  Pass 1  IDiag  1:
 RMSU=  4.18D-06    CP:  9.57D-01  1.99D+00  8.20D-01  6.80D-01  8.52D-01
                    CP:  1.44D+00  1.45D+00  1.30D+00
 E= -1328.80031276330     Delta-E=       -0.000017158406 Rises=F Damp=F
 DIIS: error= 5.62D-05 at cycle   9 NSaved=   9.
 NSaved= 9 IEnMin= 9 EnMin= -1328.80031276330     IErMin= 9 ErrMin= 5.62D-05
 ErrMax= 5.62D-05  0.00D+00 EMaxC= 1.00D-01 BMatC= 5.54D-06 BMatP= 1.63D-05
 IDIUse=1 WtCom= 1.00D+00 WtEn= 0.00D+00
 Coeff-Com: -0.883D-03 0.150D-02-0.101D-01-0.230D-01-0.599D-01-0.142D+00
 Coeff-Com:  0.139D-01 0.530D+00 0.691D+00
 Coeff:     -0.883D-03 0.150D-02-0.101D-01-0.230D-01-0.599D-01-0.142D+00
 Coeff:      0.139D-01 0.530D+00 0.691D+00
 Gap=     0.157 Goal=   None    Shift=    0.000
 Gap=     0.064 Goal=   None    Shift=    0.000
 RMSDP=6.08D-06 MaxDP=9.39D-04 DE=-1.72D-05 OVMax= 4.16D-03

 Cycle  10  Pass 1  IDiag  1:
 RMSU=  2.36D-06    CP:  9.57D-01  1.99D+00  8.20D-01  6.82D-01  8.71D-01
                    CP:  1.54D+00  1.62D+00  1.60D+00  9.75D-01
 E= -1328.80031735795     Delta-E=       -0.000004594652 Rises=F Damp=F
 DIIS: error= 2.37D-05 at cycle  10 NSaved=  10.
 NSaved=10 IEnMin=10 EnMin= -1328.80031735795     IErMin=10 ErrMin= 2.37D-05
 ErrMax= 2.37D-05  0.00D+00 EMaxC= 1.00D-01 BMatC= 1.31D-06 BMatP= 5.54D-06
 IDIUse=1 WtCom= 1.00D+00 WtEn= 0.00D+00
 Coeff-Com: -0.777D-04 0.263D-03 0.474D-03-0.375D-04-0.599D-02-0.422D-01
 Coeff-Com: -0.766D-01 0.129D-01 0.350D+00 0.761D+00
 Coeff:     -0.777D-04 0.263D-03 0.474D-03-0.375D-04-0.599D-02-0.422D-01
 Coeff:     -0.766D-01 0.129D-01 0.350D+00 0.761D+00
 Gap=     0.157 Goal=   None    Shift=    0.000
 Gap=     0.064 Goal=   None    Shift=    0.000
 RMSDP=2.81D-06 MaxDP=4.76D-04 DE=-4.59D-06 OVMax= 1.58D-03

 Cycle  11  Pass 1  IDiag  1:
 RMSU=  1.22D-06    CP:  9.57D-01  1.99D+00  8.20D-01  6.83D-01  8.78D-01
                    CP:  1.58D+00  1.70D+00  1.73D+00  1.26D+00  1.14D+00
 E= -1328.80031843773     Delta-E=       -0.000001079776 Rises=F Damp=F
 DIIS: error= 1.82D-05 at cycle  11 NSaved=  11.
 NSaved=11 IEnMin=11 EnMin= -1328.80031843773     IErMin=11 ErrMin= 1.82D-05
 ErrMax= 1.82D-05  0.00D+00 EMaxC= 1.00D-01 BMatC= 3.41D-07 BMatP= 1.31D-06
 IDIUse=1 WtCom= 1.00D+00 WtEn= 0.00D+00
 Coeff-Com:  0.254D-03-0.337D-03 0.387D-02 0.792D-02 0.179D-01 0.267D-01
 Coeff-Com: -0.450D-01-0.173D+00-0.210D-01 0.390D+00 0.793D+00
 Coeff:      0.254D-03-0.337D-03 0.387D-02 0.792D-02 0.179D-01 0.267D-01
 Coeff:     -0.450D-01-0.173D+00-0.210D-01 0.390D+00 0.793D+00
 Gap=     0.157 Goal=   None    Shift=    0.000
 Gap=     0.064 Goal=   None    Shift=    0.000
 RMSDP=1.54D-06 MaxDP=3.20D-04 DE=-1.08D-06 OVMax= 8.42D-04

 Cycle  12  Pass 1  IDiag  1:
 RMSU=  5.60D-07    CP:  9.57D-01  1.99D+00  8.20D-01  6.84D-01  8.80D-01
                    CP:  1.59D+00  1.73D+00  1.81D+00  1.40D+00  1.49D+00
                    CP:  1.07D+00
 E= -1328.80031877543     Delta-E=       -0.000000337701 Rises=F Damp=F
 DIIS: error= 5.96D-06 at cycle  12 NSaved=  12.
 NSaved=12 IEnMin=12 EnMin= -1328.80031877543     IErMin=12 ErrMin= 5.96D-06
 ErrMax= 5.96D-06  0.00D+00 EMaxC= 1.00D-01 BMatC= 7.11D-08 BMatP= 3.41D-07
 IDIUse=1 WtCom= 1.00D+00 WtEn= 0.00D+00
 Coeff-Com:  0.896D-04-0.174D-03 0.770D-03 0.178D-02 0.602D-02 0.184D-01
 Coeff-Com:  0.638D-02-0.471D-01-0.891D-01-0.146D+00 0.257D+00 0.993D+00
 Coeff:      0.896D-04-0.174D-03 0.770D-03 0.178D-02 0.602D-02 0.184D-01
 Coeff:      0.638D-02-0.471D-01-0.891D-01-0.146D+00 0.257D+00 0.993D+00
 Gap=     0.157 Goal=   None    Shift=    0.000
 Gap=     0.064 Goal=   None    Shift=    0.000
 RMSDP=8.80D-07 MaxDP=1.64D-04 DE=-3.38D-07 OVMax= 3.97D-04

 Cycle  13  Pass 1  IDiag  1:
 RMSU=  2.46D-07    CP:  9.57D-01  1.99D+00  8.20D-01  6.84D-01  8.81D-01
                    CP:  1.60D+00  1.75D+00  1.84D+00  1.48D+00  1.66D+00
                    CP:  1.40D+00  1.21D+00
 E= -1328.80031885583     Delta-E=       -0.000000080402 Rises=F Damp=F
 DIIS: error= 2.18D-06 at cycle  13 NSaved=  13.
 NSaved=13 IEnMin=13 EnMin= -1328.80031885583     IErMin=13 ErrMin= 2.18D-06
 ErrMax= 2.18D-06  0.00D+00 EMaxC= 1.00D-01 BMatC= 1.10D-08 BMatP= 7.11D-08
 IDIUse=1 WtCom= 1.00D+00 WtEn= 0.00D+00
 Coeff-Com: -0.140D-05-0.171D-04-0.176D-03-0.349D-03 0.945D-04 0.436D-02
 Coeff-Com:  0.812D-02 0.598D-02-0.302D-01-0.117D+00 0.162D-01 0.370D+00
 Coeff-Com:  0.743D+00
 Coeff:     -0.140D-05-0.171D-04-0.176D-03-0.349D-03 0.945D-04 0.436D-02
 Coeff:      0.812D-02 0.598D-02-0.302D-01-0.117D+00 0.162D-01 0.370D+00
 Coeff:      0.743D+00
 Gap=     0.157 Goal=   None    Shift=    0.000
 Gap=     0.064 Goal=   None    Shift=    0.000
 RMSDP=2.21D-07 MaxDP=4.14D-05 DE=-8.04D-08 OVMax= 8.76D-05

 Cycle  14  Pass 1  IDiag  1:
 RMSU=  1.29D-07    CP:  9.57D-01  1.99D+00  8.20D-01  6.84D-01  8.81D-01
                    CP:  1.60D+00  1.75D+00  1.85D+00  1.50D+00  1.69D+00
                    CP:  1.45D+00  1.40D+00  1.06D+00
 E= -1328.80031886324     Delta-E=       -0.000000007409 Rises=F Damp=F
 DIIS: error= 1.71D-06 at cycle  14 NSaved=  14.
 NSaved=14 IEnMin=14 EnMin= -1328.80031886324     IErMin=14 ErrMin= 1.71D-06
 ErrMax= 1.71D-06  0.00D+00 EMaxC= 1.00D-01 BMatC= 5.69D-09 BMatP= 1.10D-08
 IDIUse=1 WtCom= 1.00D+00 WtEn= 0.00D+00
 Coeff-Com: -0.232D-04 0.337D-04-0.311D-03-0.703D-03-0.157D-02-0.212D-02
 Coeff-Com:  0.248D-02 0.157D-01 0.459D-02-0.387D-01-0.508D-01-0.397D-01
 Coeff-Com:  0.469D+00 0.643D+00
 Coeff:     -0.232D-04 0.337D-04-0.311D-03-0.703D-03-0.157D-02-0.212D-02
 Coeff:      0.248D-02 0.157D-01 0.459D-02-0.387D-01-0.508D-01-0.397D-01
 Coeff:      0.469D+00 0.643D+00
 Gap=     0.157 Goal=   None    Shift=    0.000
 Gap=     0.064 Goal=   None    Shift=    0.000
 RMSDP=1.47D-07 MaxDP=2.06D-05 DE=-7.41D-09 OVMax= 7.37D-05

 Cycle  15  Pass 1  IDiag  1:
 RMSU=  5.91D-08    CP:  9.57D-01  1.99D+00  8.20D-01  6.84D-01  8.82D-01
                    CP:  1.60D+00  1.75D+00  1.85D+00  1.51D+00  1.71D+00
                    CP:  1.49D+00  1.47D+00  1.32D+00  8.70D-01
 E= -1328.80031886645     Delta-E=       -0.000000003205 Rises=F Damp=F
 DIIS: error= 6.44D-07 at cycle  15 NSaved=  15.
 NSaved=15 IEnMin=15 EnMin= -1328.80031886645     IErMin=15 ErrMin= 6.44D-07
 ErrMax= 6.44D-07  0.00D+00 EMaxC= 1.00D-01 BMatC= 7.84D-10 BMatP= 5.69D-09
 IDIUse=1 WtCom= 1.00D+00 WtEn= 0.00D+00
 Coeff-Com: -0.805D-05 0.160D-04-0.114D-03-0.289D-03-0.805D-03-0.189D-02
 Coeff-Com: -0.444D-03 0.663D-02 0.916D-02 0.492D-02-0.224D-01-0.996D-01
 Coeff-Com:  0.605D-01 0.286D+00 0.759D+00
 Coeff:     -0.805D-05 0.160D-04-0.114D-03-0.289D-03-0.805D-03-0.189D-02
 Coeff:     -0.444D-03 0.663D-02 0.916D-02 0.492D-02-0.224D-01-0.996D-01
 Coeff:      0.605D-01 0.286D+00 0.759D+00
 Gap=     0.157 Goal=   None    Shift=    0.000
 Gap=     0.064 Goal=   None    Shift=    0.000
 RMSDP=6.26D-08 MaxDP=8.48D-06 DE=-3.21D-09 OVMax= 3.13D-05

 Cycle  16  Pass 1  IDiag  1:
 RMSU=  3.13D-08    CP:  9.57D-01  1.99D+00  8.20D-01  6.84D-01  8.82D-01
                    CP:  1.60D+00  1.75D+00  1.86D+00  1.51D+00  1.71D+00
                    CP:  1.50D+00  1.51D+00  1.43D+00  1.09D+00  1.07D+00
 E= -1328.80031886705     Delta-E=       -0.000000000608 Rises=F Damp=F
 DIIS: error= 4.09D-07 at cycle  16 NSaved=  16.
 NSaved=16 IEnMin=16 EnMin= -1328.80031886705     IErMin=16 ErrMin= 4.09D-07
 ErrMax= 4.09D-07  0.00D+00 EMaxC= 1.00D-01 BMatC= 3.92D-10 BMatP= 7.84D-10
 IDIUse=1 WtCom= 1.00D+00 WtEn= 0.00D+00
 Coeff-Com:  0.646D-05-0.650D-05 0.523D-04 0.849D-04 0.101D-03-0.347D-03
 Coeff-Com: -0.128D-02-0.175D-02 0.410D-02 0.159D-01 0.491D-02-0.528D-01
 Coeff-Com: -0.131D+00-0.435D-01 0.517D+00 0.689D+00
 Coeff:      0.646D-05-0.650D-05 0.523D-04 0.849D-04 0.101D-03-0.347D-03
 Coeff:     -0.128D-02-0.175D-02 0.410D-02 0.159D-01 0.491D-02-0.528D-01
 Coeff:     -0.131D+00-0.435D-01 0.517D+00 0.689D+00
 Gap=     0.157 Goal=   None    Shift=    0.000
 Gap=     0.064 Goal=   None    Shift=    0.000
 RMSDP=4.45D-08 MaxDP=4.30D-06 DE=-6.08D-10 OVMax= 2.76D-05

 Cycle  17  Pass 1  IDiag  1:
 RMSU=  1.38D-08    CP:  9.57D-01  1.99D+00  8.20D-01  6.84D-01  8.82D-01
                    CP:  1.60D+00  1.75D+00  1.86D+00  1.51D+00  1.72D+00
                    CP:  1.51D+00  1.53D+00  1.50D+00  1.19D+00  1.41D+00
                    CP:  9.45D-01
 E= -1328.80031886721     Delta-E=       -0.000000000162 Rises=F Damp=F
 DIIS: error= 1.22D-07 at cycle  17 NSaved=  17.
 NSaved=17 IEnMin=17 EnMin= -1328.80031886721     IErMin=17 ErrMin= 1.22D-07
 ErrMax= 1.22D-07  0.00D+00 EMaxC= 1.00D-01 BMatC= 2.36D-11 BMatP= 3.92D-10
 IDIUse=1 WtCom= 1.00D+00 WtEn= 0.00D+00
 Coeff-Com:  0.317D-05-0.425D-05 0.251D-04 0.473D-04 0.106D-03 0.108D-03
 Coeff-Com: -0.290D-03-0.118D-02 0.105D-03 0.321D-02 0.438D-02-0.186D-02
 Coeff-Com: -0.450D-01-0.484D-01 0.427D-01 0.155D+00 0.891D+00
 Coeff:      0.317D-05-0.425D-05 0.251D-04 0.473D-04 0.106D-03 0.108D-03
 Coeff:     -0.290D-03-0.118D-02 0.105D-03 0.321D-02 0.438D-02-0.186D-02
 Coeff:     -0.450D-01-0.484D-01 0.427D-01 0.155D+00 0.891D+00
 Gap=     0.157 Goal=   None    Shift=    0.000
 Gap=     0.064 Goal=   None    Shift=    0.000
 RMSDP=1.69D-08 MaxDP=1.76D-06 DE=-1.62D-10 OVMax= 1.03D-05

 Cycle  18  Pass 1  IDiag  1:
 RMSU=  6.38D-09    CP:  9.57D-01  1.99D+00  8.20D-01  6.84D-01  8.82D-01
                    CP:  1.60D+00  1.75D+00  1.86D+00  1.51D+00  1.72D+00
                    CP:  1.51D+00  1.53D+00  1.52D+00  1.23D+00  1.51D+00
                    CP:  1.11D+00  1.23D+00
 E= -1328.80031886723     Delta-E=       -0.000000000015 Rises=F Damp=F
 DIIS: error= 8.26D-08 at cycle  18 NSaved=  18.
 NSaved=18 IEnMin=18 EnMin= -1328.80031886723     IErMin=18 ErrMin= 8.26D-08
 ErrMax= 8.26D-08  0.00D+00 EMaxC= 1.00D-01 BMatC= 1.30D-11 BMatP= 2.36D-11
 IDIUse=1 WtCom= 1.00D+00 WtEn= 0.00D+00
 Coeff-Com:  0.782D-06-0.158D-05 0.468D-05 0.960D-05 0.506D-04 0.176D-03
 Coeff-Com:  0.167D-03-0.253D-03-0.102D-02-0.233D-02 0.140D-02 0.121D-01
 Coeff-Com:  0.744D-02-0.153D-01-0.101D+00-0.907D-01 0.519D+00 0.670D+00
 Coeff:      0.782D-06-0.158D-05 0.468D-05 0.960D-05 0.506D-04 0.176D-03
 Coeff:      0.167D-03-0.253D-03-0.102D-02-0.233D-02 0.140D-02 0.121D-01
 Coeff:      0.744D-02-0.153D-01-0.101D+00-0.907D-01 0.519D+00 0.670D+00
 Gap=     0.157 Goal=   None    Shift=    0.000
 Gap=     0.064 Goal=   None    Shift=    0.000
 RMSDP=7.59D-09 MaxDP=8.65D-07 DE=-1.55D-11 OVMax= 4.89D-06

 Error on total polarization charges =  0.04513
 SCF Done:  E(UB3LYP) =  -1328.80031887     A.U. after   18 cycles
[...]
 01437,0.00038790,-0.00036502,0.00008802,0.00010367,0.00021293,0.000571
 37,0.00041939,0.00081957,-0.00000970,-0.00004635,0.00003711,0.00005424
 ,0.00015272,-0.00017012,-0.00022022,-0.00005155,-0.00051605,-0.0247634
 1,-0.12741976,0.12102114,0.02730875,0.13786305,-0.00001145,0.00000437,
 0.00000043,0.00000707,0.00003992,-0.00000558,0.00000588,-0.00002667,0.
 00000138,0.00002557,0.00001407,0.00000041,-0.00001561,0.00001506,-0.00
 000122,-0.00000882,-0.00000625,0.00000005,0.00003711,-0.00002605,0.000
 03977,-0.00000205,0.00000085,-0.00000038,-0.00000026,0.00000248,-0.000
 00002,0.00000077,0.00000146,-0.00000019,-0.00001902,-0.00001475,0.0000
 0729,0.00000668,0.00016845,-0.00005291,-0.00031586,-0.00037669,0.00000
 483,0.00017957,0.00056196,0.00080712,-0.00027695,0.00050646,0.00009898
 ,0.00022407,-0.00017241,-0.00003205,-0.00003675,-0.00000461,-0.0000023
 2,-0.00000412,-0.00068957,-0.00015995,-0.00005532,-0.00002044,0.000000
 93,-0.00007612,-0.00152010,-0.00009638,0.00001969,-0.00000857,0.000002
 89,-0.00008426,-0.00005211,-0.00000312,-0.00000817,0.00000474,0.000002
 53,-0.00003505,0.00007776,-0.00001451,0.00000222,-0.00000645,0.0000006
 1,0.00000165,0.00000475,-0.00000132,0.00000358,0.00002172,0.00000840,-
 0.00000061,-0.00001203,0.00000219,-0.00000050,0.00000272,0.00000014,-0
 .00000070,0.00000293,-0.00000420,0.00006292,0.00009111,-0.00001127,0.0
 0000015,-0.00000072,0.00000089,0.00000079,0.00000354,-0.00000033,0.000
 03390,0.00002282,-0.00003191,-0.00000083,0.00000040,0.00000160,0.00000
 070,0.00000244,0.00000159,-0.00000065,-0.00000052,0.00000148,0.0000000
 6,-0.00000045,-0.00000098,0.00000180,0.00000146,-0.00000064,-0.0000003
 4,0.00000475,0.00000066,0.00000196,0.00000159,0.00000158,-0.00000046,-
 0.00000023,-0.00000085,0.00000190,0.00000020,0.00000059,-0.00000013,0.
 00000151,0.00000054,0.00003294,0.00001830,-0.00000301,-0.00000522,-0.0
 0000263,0.00000007,-0.00000234,-0.00000037,-0.00000116,0.00000272,-0.0
 0000098,0.00000175,0.00000012,0.00000059,0.00000055,-0.00000654,-0.000
 00210,-0.00000204,0.00000218,-0.00000169,-0.00000151,-0.00000234,-0.00
 000029,0.00000201,0.00000074,0.00000011,0.00000159,-0.00001006,0.00000
 198,-0.00000211,-0.00000036,0.00000017,-0.00000068,0.00000042,-0.00000
 036,0.00000220,-0.00000014,-0.00000271,0.00000046,0.00084772,-0.000111
 96,0.00097982,-0.00006785,0.00025823,0.00008728,-0.00016855,-0.0000885
 3,0.00000933,-0.00012592,-0.00007455,0.00026744,-0.00025647,-0.0004089
 0,0.00064670,0.00002811,-0.00002230,-0.00001152,0.00014885,-0.00001277
 ,0.00020788,0.00006215,0.00012142,-0.00003832,0.03414133,0.12131704,-0
 .22788090,-0.03764741,-0.13362864,0.24409179,0.00006721,-0.00006791,0.
 00000583,-0.00007770,-0.00009458,0.00000374,-0.00001143,0.00006022,-0.
 00000328,-0.00007401,-0.00003158,-0.00000152,0.00005375,-0.00003988,0.
 00000414,0.00001176,0.00002815,0.00000036,-0.00002998,-0.00015867,-0.0
 0000766,0.00000328,-0.00000109,0.00000017,0.00000010,-0.00000297,-0.00
 000003,-0.00000089,-0.00000238,0.00000005,-0.00000547,0.00014462,-0.00
 000522,-0.00000089,-0.00009813,0.00001384,-0.00003747,0.00037785,-0.00
 000488,-0.00004379,0.00005804,-0.00002239,0.00158273,-0.00041649,-0.00
 049835,-0.00019657,-0.00004838,0.00035088,0.00017048,0.00000344,-0.000
 00384,-0.00141307,0.00146305,-0.00087527,0.00010068,-0.00000649,-0.000
 06269,-0.00394499,-0.01704590,-0.02535585,-0.00002486,0.00000410,-0.00
 004869,0.00002058,0.00008350,0.00000390,0.00003036,0.00006038,-0.00000
 171,0.00001626,0.00002534,-0.00003214,0.00002046,-0.00000431,0.0000011
 4,-0.00000352,-0.00000207,-0.00000005,-0.00001615,0.00000812,0.0000003
 5,0.00000999,-0.00001582,0.00000378,-0.00000312,0.00000241,-0.00000263
 ,-0.00000348,0.00000161,0.00000279,-0.00022046,-0.00013513,-0.00010611
 ,0.00000076,-0.00000387,0.00000267,0.00000023,0.00000108,-0.00000061,0
 .00000044,-0.00000088,-0.00000008,0.00000051,-0.00000648,-0.00000052,0
 .00000022,0.00000132,0.00000008,0.00000044,-0.00000324,0.00000025,-0.0
 0000074,0.00000042,0.00000039,-0.00000111,0.00000063,-0.00000029,-0.00
 000121,-0.00000075,0.00000072,-0.00000129,0.00000028,-0.00000012,-0.00
 000229,-0.00000291,0.00000147,-0.00000075,-0.00000054,0.00000009,0.000
 00018,0.00000081,-0.00000032,-0.00005207,-0.00006118,-0.00000156,-0.00
 000822,-0.00001299,0.00001356,-0.00000376,0.00000314,-0.00000579,-0.00
 000070,0.00000159,-0.00000084,0.00000066,-0.00000072,0.00000176,0.0000
 1182,-0.00000444,-0.00001054,-0.00000151,0.00000178,0.00000154,0.00000
 051,0.00000130,0.00000072,-0.00000019,-0.00000064,0.00000189,0.0000015
 7,0.00000223,-0.00000555,0.00000416,0.00000148,0.00000372,0.00000175,-
 0.00000090,0.00000037,-0.00000142,0.00000028,0.00000126,0.00115184,0.0
 0078927,-0.00110496,0.00000481,0.00034567,0.00000049,-0.00002047,-0.00
 006412,0.00013602,-0.00004242,0.00005145,0.00052325,-0.00596348,-0.001
 84914,0.00095211,0.00023514,-0.00011524,0.00021529,-0.00020888,-0.0013
 3597,-0.00159169,-0.00001181,0.00024661,0.00013025,-0.05154580,-0.0233
 2729,-0.02935165,-0.00012158,0.00366741,0.00375807,0.05694077,-0.00008
 990,0.00009472,-0.00000670,0.00011327,0.00010184,-0.00000484,0.0000151
 4,-0.00006845,0.00000304,0.00009858,0.00004048,0.00000253,-0.00007783,
 0.00005222,-0.00000537,-0.00001453,-0.00003953,0.,-0.00002028,0.000181
 18,0.00002750,-0.00000486,0.00000149,-0.00000063,-0.00000025,0.0000041
 2,0.00000008,0.00000155,0.00000317,-0.00000019,0.00002174,-0.00012022,
 0.00001485,0.00012643,-0.00003220,-0.00003949,0.00007564,-0.00014870,0
 .00000227,0.00025875,0.00003351,0.00028207,0.00077099,-0.00039816,0.00
 028738,-0.00023761,0.00005730,0.00007574,0.00003003,-0.00005094,0.0000
 0581,0.00119116,-0.00115852,0.00038948,0.00005650,-0.00000969,-0.00002
 268,-0.00047591,-0.00760345,-0.00897885,-0.00000188,0.00001925,-0.0000
 1058,-0.00006757,0.00008832,-0.00001068,-0.00002976,-0.00007913,0.0000
 1259,0.00000302,0.00003586,-0.00002751,-0.00002355,0.00000352,-0.00000
 023,0.00000478,0.00000312,0.,0.00001859,-0.00000980,0.00000481,-0.0000
 1129,0.00000904,-0.00000046,0.00000300,-0.00000255,0.00000549,0.000002
 27,-0.00000599,-0.00000306,-0.00019249,-0.00040431,-0.00006416,-0.0000
 0134,0.00000200,-0.00000216,-0.00000009,-0.00000035,-0.00000005,-0.000
 00066,-0.00000042,0.00000021,-0.00000254,0.00000219,0.00000221,-0.0000
 0022,-0.00000086,0.00000056,-0.00000352,-0.00000523,0.00000253,-0.0000
 0017,-0.00000151,0.00000003,0.00000162,-0.00000031,0.00000009,-0.00000
 004,-0.00000219,0.00000047,0.00000167,-0.00000018,0.00000066,-0.000001
 25,-0.00000550,0.00000119,0.00000100,0.00000024,0.00000010,-0.00000017
 ,-0.00000046,0.00000033,0.00000348,-0.00002468,-0.00000043,-0.00000526
 ,-0.00000519,0.00000964,-0.00000426,-0.00000051,-0.00000472,0.00000180
 ,0.00000059,0.00000101,0.00000070,-0.00000073,-0.00000005,-0.00000243,
 -0.00000291,-0.00001148,0.00000233,-0.00000001,-0.00000033,-0.00000356
 ,-0.00000035,0.00000425,0.00000089,-0.00000078,0.00000293,-0.00000616,
 0.00000067,-0.00000433,0.00000175,0.00000151,0.00000569,0.00000163,-0.
 00000045,-0.00000273,-0.00000481,-0.00000144,0.00000108,0.00055139,0.0
 0040014,-0.00081106,0.00004595,0.00014825,0.00017829,-0.00001432,-0.00
 004147,-0.00004844,-0.00017205,0.00006627,0.00057108,-0.00320120,-0.00
 067486,0.00069377,0.00000302,0.00037851,0.00036197,-0.00032159,-0.0001
 7510,-0.00097929,0.00009321,0.00010168,-0.00020876,-0.02399733,-0.1316
 2863,-0.12306046,0.00343250,0.01140249,0.01492321,0.02672701,0.1421658
 5,0.00000802,0.00000189,0.00000067,-0.00000171,-0.00003307,-0.00000141
 ,-0.00000445,0.00002143,-0.00000166,-0.00001903,-0.00001092,0.,0.00001
 039,-0.00001079,0.00000132,0.00000743,0.00000268,0.00000038,-0.0000357
 9,0.00002787,0.00003642,0.00000172,-0.00000079,-0.00000012,0.00000027,
 -0.00000215,0.00000015,-0.00000069,-0.00000118,-0.00000013,0.00001949,
 0.00001126,0.00000745,-0.00000017,-0.00015818,-0.00003287,0.00027408,0
 .00033339,-0.00003452,-0.00016545,-0.00088652,0.00013941,0.00031102,-0
 .00050453,0.00015289,-0.00022906,0.00016039,-0.00003509,0.00003536,0.0
 0000115,0.00000116,-0.00039632,0.00092204,-0.00065707,0.00005017,0.000
 02143,-0.00000253,0.00004684,0.00156883,-0.00014353,-0.00001812,0.0000
 0962,-0.00000054,0.00006988,0.00005449,-0.00000303,0.00000815,-0.00000
 857,0.00000623,-0.00002043,0.00009453,-0.00008369,-0.00000488,0.000007
 27,-0.00000097,-0.00000126,-0.00000462,-0.00000074,-0.00000357,-0.0000
 2219,0.00000911,-0.00000098,0.00001765,-0.00000435,0.00000146,-0.00000
 370,-0.00000341,0.00000128,-0.00000233,0.00000156,-0.00009191,-0.00005
 489,-0.00017732,0.00000082,0.00000155,0.00000084,-0.00000088,-0.000002
 39,0.00000203,0.00000074,0.00000128,0.00000024,0.00000084,0.00000198,-
 0.00000045,-0.00000067,-0.00000320,-0.00000049,-0.00000199,-0.00000132
 ,0.00000373,0.00000032,0.00000040,-0.00000075,-0.00000201,-0.00000143,
 0.00000180,0.00000116,-0.00000036,-0.00000088,-0.00000152,-0.00000146,
 -0.00000048,0.00000113,-0.00000360,0.00000216,-0.00000168,0.00000003,0
 .00000028,0.00000015,-0.00000142,0.00000058,-0.00003141,-0.00002150,-0
 .00000269,0.00000539,0.00000078,-0.00000128,0.00000175,0.00000057,0.00
 000136,-0.00000180,0.00000124,-0.00000149,-0.00000065,0.00000021,0.000
 00142,0.00000462,0.00000207,-0.00000116,-0.00000236,0.00000119,0.00000
 139,0.00000184,0.00000025,-0.00000073,0.00000004,-0.00000049,0.0000012
 7,0.00000829,-0.00000203,-0.00000218,-0.00000014,0.00000087,0.00000231
 ,0.00000041,-0.00000045,-0.00000033,-0.00000016,0.00000231,0.00000012,
 0.00023149,0.00038135,0.00063987,-0.00015380,0.00000162,0.00019850,-0.
 00002353,0.00001773,0.00000090,-0.00010272,0.00003691,0.00005024,-0.00
 086476,0.00011027,0.00093333,0.00016951,0.00007508,0.00000434,0.000062
 13,-0.00027079,0.00009608,0.00012130,0.00007079,0.00028422,-0.03130095
 ,-0.12361120,-0.22342142,-0.00360980,-0.01546036,-0.01919468,0.0350667
 0,0.13593029,0.24049024,-0.00018946,0.00023982,-0.00001826,0.00025026,
 0.00022528,-0.00000099,0.00003565,-0.00015431,0.00001108,0.00022583,0.
 00009335,0.00000439,-0.00018076,0.00012590,-0.00001413,-0.00003533,-0.
 00009953,0.00000211,-0.00007200,0.00030689,-0.00001743,-0.00001105,0.0
 0000306,-0.00000065,-0.00000025,0.00000941,-0.00000045,0.00000343,0.00
 000739,-0.00000004,0.00005423,-0.00023616,0.00000778,0.00021287,-0.000
 25943,0.00002299,0.00030990,-0.00029146,0.00000932,-0.00019002,-0.0002
 3508,0.00000722,-0.00449241,-0.00455150,0.00005372,-0.00097637,0.00176
 219,-0.00004096,-0.00039999,-0.00036282,0.00003498,0.00018440,0.000019
 72,0.00000151,0.00006892,-0.00005921,-0.00000516,-0.02186417,0.0227516
 9,-0.00030331,0.00000263,0.00017944,-0.00001828,-0.00013706,0.00024916
 ,-0.00001763,-0.00005138,-0.00019794,0.00000939,-0.00004834,-0.0000066
 6,-0.00000179,-0.00006256,0.00001322,-0.00000360,0.00001192,0.00000411
 ,0.00000023,0.00004108,-0.00002658,0.00000436,-0.00001514,0.00001904,-
 0.00000485,0.00000732,-0.00000483,0.00001103,0.00000746,-0.00000720,-0
 .00000738,0.00000755,-0.00000812,0.00000131,-0.00000132,0.00000296,-0.
 00000528,-0.00000070,-0.00000047,0.,-0.00000116,-0.00000057,-0.0000010
 2,-0.00000151,0.00000400,0.00000377,-0.00000096,-0.00000069,0.00000006
 ,-0.00000102,0.,0.00000084,-0.00000051,-0.00000172,0.00000022,0.000003
 31,-0.00000022,-0.00000058,0.00000055,-0.00000312,0.00000065,0.0000030
 9,0.00000003,0.00000073,0.00000073,-0.00000235,-0.00000014,0.00000156,
 0.00000020,0.,-0.00000027,0.00000002,0.,-0.00000173,-0.00006663,0.0000
 0471,-0.00004364,-0.00003179,0.00005453,-0.00002378,0.00000189,-0.0000
 2667,0.00000610,0.00000165,0.00000090,0.00000477,-0.00000203,-0.000005
 94,-0.00004299,-0.00003833,-0.00004645,0.00000700,0.00000129,-0.000001
 60,-0.00002378,0.00000519,0.00002564,0.00000478,-0.00000092,0.00000646
 ,-0.00003033,0.00001891,-0.00000170,0.00000387,0.00000014,0.00000811,0
 .00000512,-0.00000042,-0.00000831,-0.00001786,-0.00001065,0.00000151,0
 .00065187,0.00146421,-0.00062146,0.00035517,-0.00019011,-0.00026095,0.
 00023038,-0.00081664,0.00061843,-0.00000539,-0.00011317,0.00008369,0.0
 0074628,0.00141616,0.00060316,0.00023570,-0.00071658,-0.00055115,0.000
 33120,-0.00018970,0.00026354,-0.00000652,-0.00011391,-0.00008221,-0.16
 566568,0.13585901,-0.00185922,0.00363796,-0.00468842,-0.00039621,0.003
 65410,-0.00467072,0.00057046,0.18328847,0.00005594,-0.00005599,0.00000
 457,-0.00006586,-0.00008892,0.00000206,-0.00001439,0.00006099,-0.00000
 421,-0.00007685,-0.00003530,-0.00000132,0.00005604,-0.00004385,0.00000
 469,0.00001280,0.00002958,-0.00000066,-0.00001859,-0.00007487,0.000004
 62,0.00000401,-0.00000117,0.00000026,0.00000012,-0.00000402,0.00000015
 ,-0.00000119,-0.00000315,0.00000005,-0.00000112,0.00008600,-0.00000360
 ,-0.00006796,-0.00017719,0.00000664,0.00015550,0.00046673,-0.00002110,
 -0.00012399,-0.00092946,0.00005605,-0.00258167,-0.00095545,0.00001126,
 -0.00067084,0.00064444,0.00000843,-0.00011840,-0.00002781,0.00000883,0
 .00034066,0.00049160,-0.00003089,0.00003338,0.00006347,-0.00000727,-0.
 00927583,0.00836119,-0.00014884,-0.00003094,0.00003640,-0.00000846,0.0
 0009318,0.00002966,0.00000120,0.00001922,0.00004561,-0.00000214,0.0000
 2755,0.00003867,0.00000075,0.00002073,-0.00000053,0.00000096,-0.000004
 37,-0.00000427,0.00000015,-0.00002091,0.00000246,-0.00000141,0.0000130
 9,-0.00000867,0.00000231,-0.00000213,0.00000265,-0.00000487,-0.0000026
 9,0.00000361,0.00000323,0.00000154,-0.00000089,-0.00000022,0.00000252,
 -0.00000581,0.00000309,-0.00000065,0.00000076,0.00000030,0.00000071,-0
 .00000079,-0.00000085,0.00000243,-0.00000542,-0.00000139,-0.00000026,0
 .00000062,-0.00000036,0.00000034,-0.00000037,0.00000080,-0.00000053,0.
 00000160,-0.00000040,-0.00000233,0.00000027,0.00000045,-0.00000074,0.0
 0000113,-0.00000079,-0.00000217,0.00000025,-0.00000045,-0.00000056,0.0
 0000125,0.,-0.00000214,-0.00000071,0.00000002,0.00000028,0.00000103,0.
 00000004,-0.00003652,-0.00001061,-0.00000047,-0.00000236,-0.00000384,0
 .00000432,0.00000012,0.00000145,-0.00000221,-0.00000267,0.00000114,-0.
 00000184,-0.00000034,-0.00000032,-0.00000071,-0.00000028,-0.00000312,-
 0.00000238,-0.00000271,0.00000146,0.00000164,0.00000041,0.00000129,0.0
 0000136,-0.00000040,-0.00000005,0.00000094,0.00000622,0.00000246,-0.00
 000030,-0.00000012,-0.00000113,-0.00000017,0.00000013,-0.00000114,0.00
 000056,0.00000047,0.00000103,-0.00000001,-0.00053111,0.00051579,-0.000
 07073,0.00003820,0.00025398,-0.00016304,-0.00012289,-0.00004861,0.0000
 3516,0.00004010,-0.00003421,0.00005591,-0.00045154,0.00054992,0.000082
 09,-0.00005959,-0.00009478,-0.00005710,0.00004865,0.00024233,0.0001619
 4,0.00003534,-0.00003084,-0.00005559,0.13846665,-0.20249203,0.00201764
 ,0.01064804,-0.01247520,-0.00090320,0.01079851,-0.01269371,0.00119179,
 -0.14662524,0.21837335,-0.00000050,0.00000167,0.00000112,0.00000132,0.
 00000198,-0.00000448,0.00000067,-0.00000197,-0.00000036,0.00000245,0.0
 0000134,0.00000004,-0.00000188,0.00000178,-0.00000003,-0.00000041,-0.0
 0000133,-0.00000056,-0.00000075,-0.00000360,0.00002902,-0.00000015,0.0
 0000004,-0.00000007,0.,0.00000017,0.00000021,0.00000003,0.00000015,0.0
 0000006,0.00000013,0.00000172,0.00000544,0.00000233,0.00000223,-0.0000
 3752,-0.00002061,-0.00001463,0.00009108,-0.00001780,0.00005755,0.00025
 428,0.00000269,0.00002952,0.00035926,0.00000412,0.00001739,0.00030038,
 0.00000083,-0.00000603,-0.00003173,-0.00000344,-0.00004660,-0.00037771
 ,0.00000014,-0.00000206,0.00003462,0.00003274,0.00006087,-0.00158655,0
 .00000030,-0.00000206,-0.00005721,-0.00000808,0.00000461,-0.00000820,0
 .00000064,0.00000039,0.00000498,-0.00000185,-0.00000217,-0.00000850,-0
 .00000111,0.00000011,-0.00000033,0.00000022,0.00000007,-0.00000037,0.0
 0000077,-0.00000026,0.00000260,-0.00000048,0.00000054,-0.00000053,0.00
 000003,-0.00000049,-0.00000010,0.00000028,0.00000005,-0.00000037,-0.00
 000018,-0.00000073,-0.00000021,-0.00000025,0.00000062,0.00000002,0.000
 00010,-0.00000007,0.00000006,-0.00000009,0.00000033,0.00000047,0.00000
 008,-0.00000052,0.00000028,-0.00000016,0.,0.,0.00000008,-0.00000018,0.
 00000030,0.00000007,-0.00000002,0.00000020,0.00000019,0.00000018,-0.00
 000024,0.00000002,0.00000038,0.00000055,-0.00000001,-0.00000014,-0.000
 00017,0.00000007,-0.00000017,0.00000040,0.00000001,0.00000001,0.000000
 11,-0.00000002,-0.00000004,-0.00000023,-0.00000080,-0.00000422,-0.0000
 0191,-0.00001403,-0.00000609,0.00000392,-0.00000296,0.00000096,-0.0000
 0415,0.00000085,0.00000063,0.00000048,0.00000033,-0.00000033,0.0000003
 0,0.00001228,0.00000455,0.00000020,-0.00000048,-0.00000046,0.00000048,
 0.00000189,-0.00000122,-0.00000275,-0.00000009,0.00000021,0.00000059,-
 0.00000081,0.00000101,0.00000353,0.00000013,0.00000018,-0.00000031,0.0
 0000024,-0.00000043,-0.00000056,-0.00000034,-0.00000036,-0.00000037,0.
 00071271,-0.00032208,-0.00001620,-0.00011388,-0.00005955,-0.00006737,0
 .00034882,0.00029501,0.00009342,0.00004590,-0.00002149,-0.00001422,-0.
 00066513,0.00035479,0.00000267,-0.00028557,-0.00031798,0.00005126,0.00
 011650,0.00004951,-0.00006375,-0.00003866,0.00002033,-0.00002958,-0.00
 190784,0.00199014,-0.04674475,-0.01799985,0.01958909,0.00027026,0.0179
 0319,-0.01949556,0.00073797,0.00189500,-0.00217727,0.04681081\\-0.0000
 0396,-0.00000080,0.00000683,-0.00000357,-0.00000223,0.00001036,-0.0000
 0511,-0.00000184,0.00001404,-0.00000613,-0.00000079,0.00001438,-0.0000
 0689,0.00000092,0.00001082,-0.00000391,0.00000032,0.00000738,-0.000001
 47,-0.00000150,0.00000490,-0.00000556,-0.00000304,0.00001654,-0.000007
 62,-0.00000138,0.00001729,-0.00000715,0.00000090,0.00001148,-0.0000023
 3,-0.00000198,0.00000880,0.00000099,-0.00000282,0.00000460,0.00000025,
 -0.00000181,0.00000264,0.00000176,-0.00000045,-0.00000162,0.00000333,-
 0.00000106,-0.00000365,0.00000400,-0.00000230,-0.00000161,0.00000201,-
 0.00000350,0.00000273,0.00000078,0.00000031,-0.00000311,0.00000468,-0.
 00000337,-0.00000312,0.00000422,-0.00000029,-0.00000778,0.00000389,-0.
 00000543,0.00000495,0.00000003,-0.00000446,0.00000858,-0.00000138,0.00
 000066,0.00000358,-0.00000130,0.00000075,0.00000089,-0.00000432,0.0000
 0193,0.00000360,-0.00000530,0.00000295,0.00000425,-0.00000296,0.000002
 63,0.00000025,-0.00000236,0.00000387,-0.00000285,-0.00000601,0.0000074
 5,-0.00000440,-0.00000117,0.00000253,-0.00000317,-0.00000122,0.0000038
 3,-0.00000587,-0.00000571,0.00000851,-0.00000710,-0.00000737,0.0000071
 4,-0.00000117,-0.00000699,0.00000862,-0.00000386,-0.00000016,0.0000034
 5,-0.00000636,-0.00000217,0.00000212,-0.00000041,0.00000151,-0.0000002
 4,-0.00000249,-0.00000319,0.00000689,-0.00000768,-0.00000785,0.0000111
 9,-0.00000808,-0.00000417,0.00000893,-0.00001016,0.00000066,0.00000231
 ,-0.00000684,0.00000109,0.00000384,-0.00000942,-0.00000366,0.00000816,
 -0.00001016,-0.00000525,0.00000720,-0.00000501,-0.00000128,-0.00000323
 ,0.00000951,-0.00000080,-0.00000355,0.00000634,0.00000096,-0.00000420,
 0.00000866,-0.00000142,-0.00000340,0.00000933,-0.00000143,-0.00000105,
 0.00000541,0.00000506,-0.00000857,0.00000830,0.00000380,-0.00000828,0.
 00000988,0.00000606,-0.00000957,0.00000894,0.00000743,-0.00000967,0.00
 000556,0.00000558,-0.00000566,0.00000213,0.00000386,-0.00000348,-0.000
 00035,0.00000736,-0.00000670,-0.00000017,0.00000508,-0.00000691,0.0000
 0351,0.00000841,-0.00000225,-0.00000906,0.00000826,-0.00000387,-0.0000
 0831,0.00000858,-0.00000174,-0.00001277,0.00000917,-0.00000458,-0.0000
 0879,0.00000207,0.00000258,-0.00000993,0.00000338,0.00000305,-0.000012
 71,0.00000314,0.00000143,-0.00000841,-0.00000017,0.00000422,-0.0000085
 0,0.00000343,0.00000177,-0.00001032,0.00000102,0.00000341,-0.00000895,
 0.00000502,-0.00000009,-0.00000909,0.00000451,0.00000221,-0.00001319\\
 \@


 ALTHOUGH J.J. COULD DIAGNOSE THE FAULTS OF AN
 APPARATUS WITH UNCANNY ACCURACY, IT WAS JUST AS
 WELL NOT TO LET HIM HANDLE IT.
   -- GEORGE THOMPSON, ABOUT HIS FATHER
 Job cpu time:       0 days 14 hours  2 minutes 32.6 seconds.
 Elapsed time:       0 days  0 hours 52 minutes 52.9 seconds.
 File lengths (MBytes):  RWF=   6148 Int=      0 D2E=      0 Chk=     84 Scr=      8
 Normal termination of Gaussian 16 at Fri Dec 21 15:40:17 2018.
