 Entering Gaussian System, Link 0=g16
 Initial command:
 /gpfs/apps/hpc/Apps/Restricted/Gaussian/Rev_A.03/g16/l1.exe "/gpfs/scratch60/fas/hammes_schiffer/jg2487/c25n09/Gau-30863.inp" -scrdir="/gpfs/scratch60/fas/hammes_schiffer/jg2487/c25n09/"
 Entering Link 1 = /gpfs/apps/hpc/Apps/Restricted/Gaussian/Rev_A.03/g16/l1.exe PID=     30864.
  
 Copyright (c) 1988,1990,1992,1993,1995,1998,2003,2009,2016,
            Gaussian, Inc.  All Rights Reserved.
  
 This is part of the Gaussian(R) 16 program.  It is based on
 the Gaussian(R) 09 system (copyright 2009, Gaussian, Inc.),
 the Gaussian(R) 03 system (copyright 2003, Gaussian, Inc.),
 the Gaussian(R) 98 system (copyright 1998, Gaussian, Inc.),
 the Gaussian(R) 94 system (copyright 1995, Gaussian, Inc.),
 the Gaussian 92(TM) system (copyright 1992, Gaussian, Inc.),
 the Gaussian 90(TM) system (copyright 1990, Gaussian, Inc.),
 the Gaussian 88(TM) system (copyright 1988, Gaussian, Inc.),
 the Gaussian 86(TM) system (copyright 1986, Carnegie Mellon
 University), and the Gaussian 82(TM) system (copyright 1983,
 Carnegie Mellon University). Gaussian is a federally registered
 trademark of Gaussian, Inc.
  
 This software contains proprietary and confidential information,
 including trade secrets, belonging to Gaussian, Inc.
  
 This software is provided under written license and may be
 used, copied, transmitted, or stored only in accord with that
 written license.
  
 The following legend is applicable only to US Government
 contracts under FAR:
  
                    RESTRICTED RIGHTS LEGEND
  
 Use, reproduction and disclosure by the US Government is
 subject to restrictions as set forth in subparagraphs (a)
 and (c) of the Commercial Computer Software - Restricted
 Rights clause in FAR 52.227-19.
  
 Gaussian, Inc.
 340 Quinnipiac St., Bldg. 40, Wallingford CT 06492
  
  
 ---------------------------------------------------------------
 Warning -- This program may not be used in any manner that
 competes with the business of Gaussian, Inc. or will provide
 assistance to any competitor of Gaussian, Inc.  The licensee
 of this program is prohibited from giving any competitor of
 Gaussian, Inc. access to this program.  By using this program,
 the user acknowledges that Gaussian, Inc. is engaged in the
 business of creating and licensing software in the field of
 computational chemistry and represents and warrants to the
 licensee that it is not a competitor of Gaussian, Inc. and that
 it will not use this program in any manner prohibited above.
 ---------------------------------------------------------------
  

 Cite this work as:
 Gaussian 16, Revision A.03,
 M. J. Frisch, G. W. Trucks, H. B. Schlegel, G. E. Scuseria, 
 M. A. Robb, J. R. Cheeseman, G. Scalmani, V. Barone, 
 G. A. Petersson, H. Nakatsuji, X. Li, M. Caricato, A. V. Marenich, 
 J. Bloino, B. G. Janesko, R. Gomperts, B. Mennucci, H. P. Hratchian, 
 J. V. Ortiz, A. F. Izmaylov, J. L. Sonnenberg, D. Williams-Young, 
 F. Ding, F. Lipparini, F. Egidi, J. Goings, B. Peng, A. Petrone, 
 T. Henderson, D. Ranasinghe, V. G. Zakrzewski, J. Gao, N. Rega, 
 G. Zheng, W. Liang, M. Hada, M. Ehara, K. Toyota, R. Fukuda, 
 J. Hasegawa, M. Ishida, T. Nakajima, Y. Honda, O. Kitao, H. Nakai, 
 T. Vreven, K. Throssell, J. A. Montgomery, Jr., J. E. Peralta, 
 F. Ogliaro, M. J. Bearpark, J. J. Heyd, E. N. Brothers, K. N. Kudin, 
 V. N. Staroverov, T. A. Keith, R. Kobayashi, J. Normand, 
 K. Raghavachari, A. P. Rendell, J. C. Burant, S. S. Iyengar, 
 J. Tomasi, M. Cossi, J. M. Millam, M. Klene, C. Adamo, R. Cammi, 
 J. W. Ochterski, R. L. Martin, K. Morokuma, O. Farkas, 
 J. B. Foresman, and D. J. Fox, Gaussian, Inc., Wallingford CT, 2016.
 
 ******************************************
 Gaussian 16:  ES64L-G16RevA.03 25-Dec-2016
                20-Dec-2018 
 ******************************************
 %chk=cyclohexyl-monoBIP-TS1.chk
 %mem=10GB
 %nprocshared=16
 Will use up to   16 processors via shared memory.
 ----------------------------------------------------------------------
 #p opt=(calcfc,tight,ts,noeigentest) freq=internalmodes b3lyp/6-31g(d,
 p) scrf=(cpcm,solvent=dichloromethane,read) nosymm empiricaldispersion
 =gd3bj int=grid=ultrafine
 ----------------------------------------------------------------------
 1/5=1,7=10,10=4,11=1,18=20,26=6,38=1,40=2/1,3;
 2/9=110,12=2,15=1,17=6,18=5,40=1/2;
 3/5=1,6=6,7=101,11=2,25=1,30=1,70=2103,71=2,72=9,74=-5,75=-5,124=41,140=1/1,2,3;
 4//1;
 5/5=2,38=5,53=9/2;
 8/6=4,10=90,11=11/1;
 11/6=1,8=1,9=11,15=111,16=1,31=1/1,2,10;
 10/6=1,13=1,31=1/2;
 6/7=2,8=2,9=2,10=2,28=1/1;
 7/10=1,18=20,25=1,30=1/1,2,3,16;
 1/5=1,7=10,10=4,11=1,18=20,26=6/3(2);
 2/9=110,15=1/2;
 99//99;
 2/9=110,15=1/2;
 3/5=1,6=6,7=101,11=2,25=1,30=1,70=2105,71=1,72=9,74=-5,75=-5,124=41/1,2,3;
 4/5=5,16=3,69=1/1;
 5/5=2,38=5,53=9/2;
 7/30=1/1,2,3,16;
 1/5=1,7=10,11=1,18=20,26=6/3(-5);
 2/9=110,15=1/2;
 6/7=2,8=2,9=2,10=2,19=2,28=1/1;
 99/9=1/99;
 Leave Link    1 at Thu Dec 20 18:56:29 2018, MaxMem=  1342177280 cpu:               8.8 elap:               0.6
 (Enter /gpfs/apps/hpc/Apps/Restricted/Gaussian/Rev_A.03/g16/l101.exe)
 ----------------------------------------------------------------------
 cyclohexylimine monoBIP oxidized, optimize to transition state of firs
 t proton transferred
 ----------------------------------------------------------------------
 Symbolic Z-matrix:
 Charge =  1 Multiplicity = 2
 C                    -0.42419   2.67174   0.27773 
 C                    -1.83568   2.79279   0.23762 
 C                    -2.43393   4.05878   0.14155 
 C                    -1.58508   5.1559    0.09357 
 C                    -0.17868   5.02067   0.13608 
 C                     0.44283   3.77617   0.22939 
 C                    -1.33669   0.66604   0.36926 
 H                    -3.51007   4.16887   0.10552 
 H                    -2.00793   6.15044   0.02131 
 H                     0.4382    5.91089   0.09589 
 N                    -2.36559   1.52551   0.29775 
 C                    -2.95818  -1.18915   0.41953 
 C                    -1.56604  -0.75275   0.42968 
 C                    -0.55906  -1.70281   0.4788 
 C                    -0.86681  -3.07205   0.52101 
 C                    -2.23064  -3.48478   0.52577 
 C                    -3.27348  -2.59449   0.48095 
 H                     0.47865  -1.39239   0.47917 
 H                    -2.44452  -4.54684   0.56929 
 C                     0.21415  -4.10109   0.53956 
 C                    -4.70983  -3.00981   0.48526 
 O                    -3.92255  -0.33374   0.35053 
 N                    -0.14933   1.33216   0.36148 
 H                     0.81229   0.99913   0.40377 
 C                     1.89445   3.60335   0.27084 
 H                     2.49114   4.51934   0.21674 
 N                     2.40907   2.43412   0.36601 
 C                     3.87325   2.31464   0.40553 
 C                     4.52199   2.74125  -0.92174 
 C                     4.50315   3.07876   1.58164 
 H                     4.08305   1.24906   0.5508 
 C                     6.0376    2.51637  -0.87844 
 H                     4.30877   3.80379  -1.08903 
 H                     4.06885   2.18494  -1.74773 
 C                     6.01756   2.84743   1.62885 
 H                     4.30564   4.15022   1.45818 
 H                     4.0272    2.76875   2.51651 
 C                     6.67827   3.25016   0.30508 
 H                     6.49228   2.83729  -1.82043 
 H                     6.23415   1.44087  -0.78416 
 H                     6.45276   3.40831   2.46156 
 H                     6.21432   1.78578   1.82385 
 H                     7.7534    3.04979   0.33976 
 H                     6.56051   4.33168   0.162 
 H                    -3.45551   0.69607   0.30998 
 C                    -5.41214  -2.56041  -0.8095 
 H                    -6.1074   -3.31303  -1.11783 
 H                    -5.93441  -1.64352  -0.63219 
 H                    -4.68257  -2.41243  -1.57809 
 C                    -5.46557  -2.3515    1.65449 
 H                    -5.9034   -1.43281   1.32401 
 H                    -6.2356   -3.01048   1.99757 
 H                    -4.7828   -2.15382   2.45427 
 C                    -4.82842  -4.54011   0.6106 
 H                    -4.34724  -5.00473  -0.22456 
 H                    -4.35875  -4.86121   1.5168 
 H                    -5.86168  -4.81765   0.62665 
 C                    -0.03803  -5.13861   1.64932 
 H                    -0.75486  -5.85684   1.30989 
 H                     0.87904  -5.63542   1.88819 
 H                    -0.41349  -4.64444   2.52094 
 C                     0.21767  -4.87722  -0.79055 
 H                     1.13887  -5.41263  -0.88865 
 H                    -0.59938  -5.56801  -0.80257 
 H                     0.11595  -4.19029  -1.6046 
 C                     1.60279  -3.46602   0.73948 
 H                     1.83407  -2.84288  -0.09903 
 H                     1.60005  -2.87617   1.63221 
 H                     2.33909  -4.23777   0.82417 
 
 ITRead=  0  0  0  0  0  0  0  0  0  0  0  0  0  0  0  0  0  0  0  0
 ITRead=  0  0  0  0  0  0  0  0  0  0  0  0  0  0  0  0  0  0  0  0
 ITRead=  0  0  0  0  0  0  0  0  0  0  0  0  0  0  0  0  0  0  0  0
 ITRead=  0  0  0  0  0  0  0  0  0
 MicOpt= -1 -1 -1 -1 -1 -1 -1 -1 -1 -1 -1 -1 -1 -1 -1 -1 -1 -1 -1 -1
 MicOpt= -1 -1 -1 -1 -1 -1 -1 -1 -1 -1 -1 -1 -1 -1 -1 -1 -1 -1 -1 -1
 MicOpt= -1 -1 -1 -1 -1 -1 -1 -1 -1 -1 -1 -1 -1 -1 -1 -1 -1 -1 -1 -1
 MicOpt= -1 -1 -1 -1 -1 -1 -1 -1 -1
 NAtoms=     69 NQM=       69 NQMF=       0 NMMI=      0 NMMIF=      0
                NMic=       0 NMicF=      0.
                    Isotopes and Nuclear Properties:
 (Nuclear quadrupole moments (NQMom) in fm**2, nuclear magnetic moments (NMagM)
  in nuclear magnetons)

  Atom         1           2           3           4           5           6           7           8           9          10
 IAtWgt=          12          12          12          12          12          12          12           1           1           1
 AtmWgt=  12.0000000  12.0000000  12.0000000  12.0000000  12.0000000  12.0000000  12.0000000   1.0078250   1.0078250   1.0078250
 NucSpn=           0           0           0           0           0           0           0           1           1           1
 AtZEff=  -0.0000000  -0.0000000  -0.0000000  -0.0000000  -0.0000000  -0.0000000  -0.0000000  -0.0000000  -0.0000000  -0.0000000
 NQMom=    0.0000000   0.0000000   0.0000000   0.0000000   0.0000000   0.0000000   0.0000000   0.0000000   0.0000000   0.0000000
 NMagM=    0.0000000   0.0000000   0.0000000   0.0000000   0.0000000   0.0000000   0.0000000   2.7928460   2.7928460   2.7928460
 AtZNuc=   6.0000000   6.0000000   6.0000000   6.0000000   6.0000000   6.0000000   6.0000000   1.0000000   1.0000000   1.0000000

  Atom        11          12          13          14          15          16          17          18          19          20
 IAtWgt=          14          12          12          12          12          12          12           1           1          12
 AtmWgt=  14.0030740  12.0000000  12.0000000  12.0000000  12.0000000  12.0000000  12.0000000   1.0078250   1.0078250  12.0000000
 NucSpn=           2           0           0           0           0           0           0           1           1           0
 AtZEff=  -0.0000000  -0.0000000  -0.0000000  -0.0000000  -0.0000000  -0.0000000  -0.0000000  -0.0000000  -0.0000000  -0.0000000
 NQMom=    2.0440000   0.0000000   0.0000000   0.0000000   0.0000000   0.0000000   0.0000000   0.0000000   0.0000000   0.0000000
 NMagM=    0.4037610   0.0000000   0.0000000   0.0000000   0.0000000   0.0000000   0.0000000   2.7928460   2.7928460   0.0000000
 AtZNuc=   7.0000000   6.0000000   6.0000000   6.0000000   6.0000000   6.0000000   6.0000000   1.0000000   1.0000000   6.0000000

  Atom        21          22          23          24          25          26          27          28          29          30
 IAtWgt=          12          16          14           1          12           1          14          12          12          12
 AtmWgt=  12.0000000  15.9949146  14.0030740   1.0078250  12.0000000   1.0078250  14.0030740  12.0000000  12.0000000  12.0000000
 NucSpn=           0           0           2           1           0           1           2           0           0           0
 AtZEff=  -0.0000000  -0.0000000  -0.0000000  -0.0000000  -0.0000000  -0.0000000  -0.0000000  -0.0000000  -0.0000000  -0.0000000
 NQMom=    0.0000000   0.0000000   2.0440000   0.0000000   0.0000000   0.0000000   2.0440000   0.0000000   0.0000000   0.0000000
 NMagM=    0.0000000   0.0000000   0.4037610   2.7928460   0.0000000   2.7928460   0.4037610   0.0000000   0.0000000   0.0000000
 AtZNuc=   6.0000000   8.0000000   7.0000000   1.0000000   6.0000000   1.0000000   7.0000000   6.0000000   6.0000000   6.0000000

  Atom        31          32          33          34          35          36          37          38          39          40
 IAtWgt=           1          12           1           1          12           1           1          12           1           1
 AtmWgt=   1.0078250  12.0000000   1.0078250   1.0078250  12.0000000   1.0078250   1.0078250  12.0000000   1.0078250   1.0078250
 NucSpn=           1           0           1           1           0           1           1           0           1           1
 AtZEff=  -0.0000000  -0.0000000  -0.0000000  -0.0000000  -0.0000000  -0.0000000  -0.0000000  -0.0000000  -0.0000000  -0.0000000
 NQMom=    0.0000000   0.0000000   0.0000000   0.0000000   0.0000000   0.0000000   0.0000000   0.0000000   0.0000000   0.0000000
 NMagM=    2.7928460   0.0000000   2.7928460   2.7928460   0.0000000   2.7928460   2.7928460   0.0000000   2.7928460   2.7928460
 AtZNuc=   1.0000000   6.0000000   1.0000000   1.0000000   6.0000000   1.0000000   1.0000000   6.0000000   1.0000000   1.0000000

  Atom        41          42          43          44          45          46          47          48          49          50
 IAtWgt=           1           1           1           1           1          12           1           1           1          12
 AtmWgt=   1.0078250   1.0078250   1.0078250   1.0078250   1.0078250  12.0000000   1.0078250   1.0078250   1.0078250  12.0000000
 NucSpn=           1           1           1           1           1           0           1           1           1           0
 AtZEff=  -0.0000000  -0.0000000  -0.0000000  -0.0000000  -0.0000000  -0.0000000  -0.0000000  -0.0000000  -0.0000000  -0.0000000
 NQMom=    0.0000000   0.0000000   0.0000000   0.0000000   0.0000000   0.0000000   0.0000000   0.0000000   0.0000000   0.0000000
 NMagM=    2.7928460   2.7928460   2.7928460   2.7928460   2.7928460   0.0000000   2.7928460   2.7928460   2.7928460   0.0000000
 AtZNuc=   1.0000000   1.0000000   1.0000000   1.0000000   1.0000000   6.0000000   1.0000000   1.0000000   1.0000000   6.0000000

  Atom        51          52          53          54          55          56          57          58          59          60
 IAtWgt=           1           1           1          12           1           1           1          12           1           1
 AtmWgt=   1.0078250   1.0078250   1.0078250  12.0000000   1.0078250   1.0078250   1.0078250  12.0000000   1.0078250   1.0078250
 NucSpn=           1           1           1           0           1           1           1           0           1           1
 AtZEff=  -0.0000000  -0.0000000  -0.0000000  -0.0000000  -0.0000000  -0.0000000  -0.0000000  -0.0000000  -0.0000000  -0.0000000
 NQMom=    0.0000000   0.0000000   0.0000000   0.0000000   0.0000000   0.0000000   0.0000000   0.0000000   0.0000000   0.0000000
 NMagM=    2.7928460   2.7928460   2.7928460   0.0000000   2.7928460   2.7928460   2.7928460   0.0000000   2.7928460   2.7928460
 AtZNuc=   1.0000000   1.0000000   1.0000000   6.0000000   1.0000000   1.0000000   1.0000000   6.0000000   1.0000000   1.0000000

  Atom        61          62          63          64          65          66          67          68          69
 IAtWgt=           1          12           1           1           1          12           1           1           1
 AtmWgt=   1.0078250  12.0000000   1.0078250   1.0078250   1.0078250  12.0000000   1.0078250   1.0078250   1.0078250
 NucSpn=           1           0           1           1           1           0           1           1           1
 AtZEff=  -0.0000000  -0.0000000  -0.0000000  -0.0000000  -0.0000000  -0.0000000  -0.0000000  -0.0000000  -0.0000000
 NQMom=    0.0000000   0.0000000   0.0000000   0.0000000   0.0000000   0.0000000   0.0000000   0.0000000   0.0000000
 NMagM=    2.7928460   0.0000000   2.7928460   2.7928460   2.7928460   0.0000000   2.7928460   2.7928460   2.7928460
 AtZNuc=   1.0000000   6.0000000   1.0000000   1.0000000   1.0000000   6.0000000   1.0000000   1.0000000   1.0000000
 Leave Link  101 at Thu Dec 20 18:56:30 2018, MaxMem=  1342177280 cpu:               6.8 elap:               0.6
 (Enter /gpfs/apps/hpc/Apps/Restricted/Gaussian/Rev_A.03/g16/l103.exe)

 GradGradGradGradGradGradGradGradGradGradGradGradGradGradGradGradGradGrad
 Berny optimization.
 Initialization pass.
                           ----------------------------
                           !    Initial Parameters    !
                           ! (Angstroms and Degrees)  !
 --------------------------                            --------------------------
 ! Name  Definition              Value          Derivative Info.                !
 --------------------------------------------------------------------------------
 ! R1    R(1,2)                  1.4172         calculate D2E/DX2 analytically  !
 ! R2    R(1,6)                  1.4049         calculate D2E/DX2 analytically  !
 ! R3    R(1,23)                 1.3701         calculate D2E/DX2 analytically  !
 ! R4    R(2,3)                  1.4035         calculate D2E/DX2 analytically  !
 ! R5    R(2,11)                 1.3749         calculate D2E/DX2 analytically  !
 ! R6    R(3,4)                  1.388          calculate D2E/DX2 analytically  !
 ! R7    R(3,8)                  1.0823         calculate D2E/DX2 analytically  !
 ! R8    R(4,5)                  1.4135         calculate D2E/DX2 analytically  !
 ! R9    R(4,9)                  1.0831         calculate D2E/DX2 analytically  !
 ! R10   R(5,6)                  1.3942         calculate D2E/DX2 analytically  !
 ! R11   R(5,10)                 1.0838         calculate D2E/DX2 analytically  !
 ! R12   R(6,25)                 1.4625         calculate D2E/DX2 analytically  !
 ! R13   R(7,11)                 1.3426         calculate D2E/DX2 analytically  !
 ! R14   R(7,13)                 1.4385         calculate D2E/DX2 analytically  !
 ! R15   R(7,23)                 1.3615         calculate D2E/DX2 analytically  !
 ! R16   R(12,13)                1.459          calculate D2E/DX2 analytically  !
 ! R17   R(12,17)                1.4416         calculate D2E/DX2 analytically  !
 ! R18   R(12,22)                1.2909         calculate D2E/DX2 analytically  !
 ! R19   R(13,14)                1.3853         calculate D2E/DX2 analytically  !
 ! R20   R(14,15)                1.404          calculate D2E/DX2 analytically  !
 ! R21   R(14,18)                1.0831         calculate D2E/DX2 analytically  !
 ! R22   R(15,16)                1.4249         calculate D2E/DX2 analytically  !
 ! R23   R(15,20)                1.4926         calculate D2E/DX2 analytically  !
 ! R24   R(16,17)                1.3719         calculate D2E/DX2 analytically  !
 ! R25   R(16,19)                1.0842         calculate D2E/DX2 analytically  !
 ! R26   R(17,21)                1.4952         calculate D2E/DX2 analytically  !
 ! R27   R(20,58)                1.54           calculate D2E/DX2 analytically  !
 ! R28   R(20,62)                1.54           calculate D2E/DX2 analytically  !
 ! R29   R(20,66)                1.54           calculate D2E/DX2 analytically  !
 ! R30   R(21,46)                1.54           calculate D2E/DX2 analytically  !
 ! R31   R(21,50)                1.54           calculate D2E/DX2 analytically  !
 ! R32   R(21,54)                1.54           calculate D2E/DX2 analytically  !
 ! R33   R(22,45)                1.1315         calculate D2E/DX2 analytically  !
 ! R34   R(23,24)                1.0185         calculate D2E/DX2 analytically  !
 ! R35   R(25,26)                1.0945         calculate D2E/DX2 analytically  !
 ! R36   R(25,27)                1.281          calculate D2E/DX2 analytically  !
 ! R37   R(27,28)                1.4696         calculate D2E/DX2 analytically  !
 ! R38   R(28,29)                1.5377         calculate D2E/DX2 analytically  !
 ! R39   R(28,30)                1.5375         calculate D2E/DX2 analytically  !
 ! R40   R(28,31)                1.0957         calculate D2E/DX2 analytically  !
 ! R41   R(29,32)                1.5328         calculate D2E/DX2 analytically  !
 ! R42   R(29,33)                1.0966         calculate D2E/DX2 analytically  !
 ! R43   R(29,34)                1.0941         calculate D2E/DX2 analytically  !
 ! R44   R(30,35)                1.5327         calculate D2E/DX2 analytically  !
 ! R45   R(30,36)                1.0965         calculate D2E/DX2 analytically  !
 ! R46   R(30,37)                1.0939         calculate D2E/DX2 analytically  !
 ! R47   R(32,38)                1.5328         calculate D2E/DX2 analytically  !
 ! R48   R(32,39)                1.0941         calculate D2E/DX2 analytically  !
 ! R49   R(32,40)                1.0974         calculate D2E/DX2 analytically  !
 ! R50   R(35,38)                1.5333         calculate D2E/DX2 analytically  !
 ! R51   R(35,41)                1.0943         calculate D2E/DX2 analytically  !
 ! R52   R(35,42)                1.0972         calculate D2E/DX2 analytically  !
 ! R53   R(38,43)                1.0942         calculate D2E/DX2 analytically  !
 ! R54   R(38,44)                1.0973         calculate D2E/DX2 analytically  !
 ! R55   R(46,47)                1.07           calculate D2E/DX2 analytically  !
 ! R56   R(46,48)                1.07           calculate D2E/DX2 analytically  !
 ! R57   R(46,49)                1.07           calculate D2E/DX2 analytically  !
 ! R58   R(50,51)                1.07           calculate D2E/DX2 analytically  !
 ! R59   R(50,52)                1.07           calculate D2E/DX2 analytically  !
 ! R60   R(50,53)                1.07           calculate D2E/DX2 analytically  !
 ! R61   R(54,55)                1.07           calculate D2E/DX2 analytically  !
 ! R62   R(54,56)                1.07           calculate D2E/DX2 analytically  !
 ! R63   R(54,57)                1.07           calculate D2E/DX2 analytically  !
 ! R64   R(58,59)                1.07           calculate D2E/DX2 analytically  !
 ! R65   R(58,60)                1.07           calculate D2E/DX2 analytically  !
 ! R66   R(58,61)                1.07           calculate D2E/DX2 analytically  !
 ! R67   R(62,63)                1.07           calculate D2E/DX2 analytically  !
 ! R68   R(62,64)                1.07           calculate D2E/DX2 analytically  !
 ! R69   R(62,65)                1.07           calculate D2E/DX2 analytically  !
 ! R70   R(66,67)                1.07           calculate D2E/DX2 analytically  !
 ! R71   R(66,68)                1.07           calculate D2E/DX2 analytically  !
 ! R72   R(66,69)                1.07           calculate D2E/DX2 analytically  !
 ! A1    A(2,1,6)              123.1279         calculate D2E/DX2 analytically  !
 ! A2    A(2,1,23)             106.5617         calculate D2E/DX2 analytically  !
 ! A3    A(6,1,23)             130.3098         calculate D2E/DX2 analytically  !
 ! A4    A(1,2,3)              120.2317         calculate D2E/DX2 analytically  !
 ! A5    A(1,2,11)             107.6912         calculate D2E/DX2 analytically  !
 ! A6    A(3,2,11)             132.0752         calculate D2E/DX2 analytically  !
 ! A7    A(2,3,4)              117.0436         calculate D2E/DX2 analytically  !
 ! A8    A(2,3,8)              121.1864         calculate D2E/DX2 analytically  !
 ! A9    A(4,3,8)              121.7699         calculate D2E/DX2 analytically  !
 ! A10   A(3,4,5)              122.1291         calculate D2E/DX2 analytically  !
 ! A11   A(3,4,9)              119.2977         calculate D2E/DX2 analytically  !
 ! A12   A(5,4,9)              118.5732         calculate D2E/DX2 analytically  !
 ! A13   A(4,5,6)              122.0694         calculate D2E/DX2 analytically  !
 ! A14   A(4,5,10)             119.1184         calculate D2E/DX2 analytically  !
 ! A15   A(6,5,10)             118.8122         calculate D2E/DX2 analytically  !
 ! A16   A(1,6,5)              115.398          calculate D2E/DX2 analytically  !
 ! A17   A(1,6,25)             121.2441         calculate D2E/DX2 analytically  !
 ! A18   A(5,6,25)             123.3574         calculate D2E/DX2 analytically  !
 ! A19   A(11,7,13)            120.7608         calculate D2E/DX2 analytically  !
 ! A20   A(11,7,23)            110.7841         calculate D2E/DX2 analytically  !
 ! A21   A(13,7,23)            128.4526         calculate D2E/DX2 analytically  !
 ! A22   A(2,11,7)             107.2784         calculate D2E/DX2 analytically  !
 ! A23   A(13,12,17)           119.9998         calculate D2E/DX2 analytically  !
 ! A24   A(13,12,22)           120.9963         calculate D2E/DX2 analytically  !
 ! A25   A(17,12,22)           119.0032         calculate D2E/DX2 analytically  !
 ! A26   A(7,13,12)            116.5432         calculate D2E/DX2 analytically  !
 ! A27   A(7,13,14)            124.1953         calculate D2E/DX2 analytically  !
 ! A28   A(12,13,14)           119.2564         calculate D2E/DX2 analytically  !
 ! A29   A(13,14,15)           120.7009         calculate D2E/DX2 analytically  !
 ! A30   A(13,14,18)           119.992          calculate D2E/DX2 analytically  !
 ! A31   A(15,14,18)           119.3062         calculate D2E/DX2 analytically  !
 ! A32   A(14,15,16)           119.4964         calculate D2E/DX2 analytically  !
 ! A33   A(14,15,20)           120.93           calculate D2E/DX2 analytically  !
 ! A34   A(16,15,20)           119.5667         calculate D2E/DX2 analytically  !
 ! A35   A(15,16,17)           122.6476         calculate D2E/DX2 analytically  !
 ! A36   A(15,16,19)           118.2073         calculate D2E/DX2 analytically  !
 ! A37   A(17,16,19)           119.1449         calculate D2E/DX2 analytically  !
 ! A38   A(12,17,16)           117.8891         calculate D2E/DX2 analytically  !
 ! A39   A(12,17,21)           118.7518         calculate D2E/DX2 analytically  !
 ! A40   A(16,17,21)           123.3583         calculate D2E/DX2 analytically  !
 ! A41   A(15,20,58)           110.7842         calculate D2E/DX2 analytically  !
 ! A42   A(15,20,62)           109.7786         calculate D2E/DX2 analytically  !
 ! A43   A(15,20,66)           111.7369         calculate D2E/DX2 analytically  !
 ! A44   A(58,20,62)           106.4538         calculate D2E/DX2 analytically  !
 ! A45   A(58,20,66)           109.3865         calculate D2E/DX2 analytically  !
 ! A46   A(62,20,66)           108.536          calculate D2E/DX2 analytically  !
 ! A47   A(17,21,46)           110.7697         calculate D2E/DX2 analytically  !
 ! A48   A(17,21,50)           110.7856         calculate D2E/DX2 analytically  !
 ! A49   A(17,21,54)           110.5013         calculate D2E/DX2 analytically  !
 ! A50   A(46,21,50)           106.8454         calculate D2E/DX2 analytically  !
 ! A51   A(46,21,54)           108.8623         calculate D2E/DX2 analytically  !
 ! A52   A(50,21,54)           108.9775         calculate D2E/DX2 analytically  !
 ! A53   A(12,22,45)           107.2564         calculate D2E/DX2 analytically  !
 ! A54   A(1,23,7)             107.6843         calculate D2E/DX2 analytically  !
 ! A55   A(1,23,24)            120.7738         calculate D2E/DX2 analytically  !
 ! A56   A(7,23,24)            131.5418         calculate D2E/DX2 analytically  !
 ! A57   A(6,25,26)            116.156          calculate D2E/DX2 analytically  !
 ! A58   A(6,25,27)            120.5782         calculate D2E/DX2 analytically  !
 ! A59   A(26,25,27)           123.2658         calculate D2E/DX2 analytically  !
 ! A60   A(25,27,28)           118.4543         calculate D2E/DX2 analytically  !
 ! A61   A(27,28,29)           111.9981         calculate D2E/DX2 analytically  !
 ! A62   A(27,28,30)           112.8519         calculate D2E/DX2 analytically  !
 ! A63   A(27,28,31)           105.8668         calculate D2E/DX2 analytically  !
 ! A64   A(29,28,30)           110.4593         calculate D2E/DX2 analytically  !
 ! A65   A(29,28,31)           107.6661         calculate D2E/DX2 analytically  !
 ! A66   A(30,28,31)           107.6654         calculate D2E/DX2 analytically  !
 ! A67   A(28,29,32)           110.6144         calculate D2E/DX2 analytically  !
 ! A68   A(28,29,33)           108.5709         calculate D2E/DX2 analytically  !
 ! A69   A(28,29,34)           109.6235         calculate D2E/DX2 analytically  !
 ! A70   A(32,29,33)           109.7998         calculate D2E/DX2 analytically  !
 ! A71   A(32,29,34)           110.8699         calculate D2E/DX2 analytically  !
 ! A72   A(33,29,34)           107.2753         calculate D2E/DX2 analytically  !
 ! A73   A(28,30,35)           110.6925         calculate D2E/DX2 analytically  !
 ! A74   A(28,30,36)           109.0092         calculate D2E/DX2 analytically  !
 ! A75   A(28,30,37)           109.5509         calculate D2E/DX2 analytically  !
 ! A76   A(35,30,36)           109.2044         calculate D2E/DX2 analytically  !
 ! A77   A(35,30,37)           111.1496         calculate D2E/DX2 analytically  !
 ! A78   A(36,30,37)           107.1443         calculate D2E/DX2 analytically  !
 ! A79   A(29,32,38)           111.3981         calculate D2E/DX2 analytically  !
 ! A80   A(29,32,39)           110.0937         calculate D2E/DX2 analytically  !
 ! A81   A(29,32,40)           108.8633         calculate D2E/DX2 analytically  !
 ! A82   A(38,32,39)           110.5271         calculate D2E/DX2 analytically  !
 ! A83   A(38,32,40)           109.1458         calculate D2E/DX2 analytically  !
 ! A84   A(39,32,40)           106.6791         calculate D2E/DX2 analytically  !
 ! A85   A(30,35,38)           111.0709         calculate D2E/DX2 analytically  !
 ! A86   A(30,35,41)           109.8185         calculate D2E/DX2 analytically  !
 ! A87   A(30,35,42)           109.1902         calculate D2E/DX2 analytically  !
 ! A88   A(38,35,41)           110.5471         calculate D2E/DX2 analytically  !
 ! A89   A(38,35,42)           109.2874         calculate D2E/DX2 analytically  !
 ! A90   A(41,35,42)           106.8218         calculate D2E/DX2 analytically  !
 ! A91   A(32,38,35)           111.1462         calculate D2E/DX2 analytically  !
 ! A92   A(32,38,43)           110.3341         calculate D2E/DX2 analytically  !
 ! A93   A(32,38,44)           109.0442         calculate D2E/DX2 analytically  !
 ! A94   A(35,38,43)           110.3609         calculate D2E/DX2 analytically  !
 ! A95   A(35,38,44)           108.978          calculate D2E/DX2 analytically  !
 ! A96   A(43,38,44)           106.8626         calculate D2E/DX2 analytically  !
 ! A97   A(21,46,47)           109.4712         calculate D2E/DX2 analytically  !
 ! A98   A(21,46,48)           109.4712         calculate D2E/DX2 analytically  !
 ! A99   A(21,46,49)           109.4712         calculate D2E/DX2 analytically  !
 ! A100  A(47,46,48)           109.4713         calculate D2E/DX2 analytically  !
 ! A101  A(47,46,49)           109.4712         calculate D2E/DX2 analytically  !
 ! A102  A(48,46,49)           109.4712         calculate D2E/DX2 analytically  !
 ! A103  A(21,50,51)           109.4712         calculate D2E/DX2 analytically  !
 ! A104  A(21,50,52)           109.4712         calculate D2E/DX2 analytically  !
 ! A105  A(21,50,53)           109.4712         calculate D2E/DX2 analytically  !
 ! A106  A(51,50,52)           109.4713         calculate D2E/DX2 analytically  !
 ! A107  A(51,50,53)           109.4712         calculate D2E/DX2 analytically  !
 ! A108  A(52,50,53)           109.4712         calculate D2E/DX2 analytically  !
 ! A109  A(21,54,55)           109.4712         calculate D2E/DX2 analytically  !
 ! A110  A(21,54,56)           109.4712         calculate D2E/DX2 analytically  !
 ! A111  A(21,54,57)           109.4712         calculate D2E/DX2 analytically  !
 ! A112  A(55,54,56)           109.4713         calculate D2E/DX2 analytically  !
 ! A113  A(55,54,57)           109.4712         calculate D2E/DX2 analytically  !
 ! A114  A(56,54,57)           109.4712         calculate D2E/DX2 analytically  !
 ! A115  A(20,58,59)           109.4712         calculate D2E/DX2 analytically  !
 ! A116  A(20,58,60)           109.4712         calculate D2E/DX2 analytically  !
 ! A117  A(20,58,61)           109.4712         calculate D2E/DX2 analytically  !
 ! A118  A(59,58,60)           109.4713         calculate D2E/DX2 analytically  !
 ! A119  A(59,58,61)           109.4712         calculate D2E/DX2 analytically  !
 ! A120  A(60,58,61)           109.4712         calculate D2E/DX2 analytically  !
 ! A121  A(20,62,63)           109.4712         calculate D2E/DX2 analytically  !
 ! A122  A(20,62,64)           109.4712         calculate D2E/DX2 analytically  !
 ! A123  A(20,62,65)           109.4712         calculate D2E/DX2 analytically  !
 ! A124  A(63,62,64)           109.4713         calculate D2E/DX2 analytically  !
 ! A125  A(63,62,65)           109.4712         calculate D2E/DX2 analytically  !
 ! A126  A(64,62,65)           109.4712         calculate D2E/DX2 analytically  !
 ! A127  A(20,66,67)           109.4712         calculate D2E/DX2 analytically  !
 ! A128  A(20,66,68)           109.4712         calculate D2E/DX2 analytically  !
 ! A129  A(20,66,69)           109.4712         calculate D2E/DX2 analytically  !
 ! A130  A(67,66,68)           109.4713         calculate D2E/DX2 analytically  !
 ! A131  A(67,66,69)           109.4712         calculate D2E/DX2 analytically  !
 ! A132  A(68,66,69)           109.4712         calculate D2E/DX2 analytically  !
 ! D1    D(6,1,2,3)              0.1821         calculate D2E/DX2 analytically  !
 ! D2    D(6,1,2,11)           179.7342         calculate D2E/DX2 analytically  !
 ! D3    D(23,1,2,3)          -179.5764         calculate D2E/DX2 analytically  !
 ! D4    D(23,1,2,11)           -0.0243         calculate D2E/DX2 analytically  !
 ! D5    D(2,1,6,5)             -0.0858         calculate D2E/DX2 analytically  !
 ! D6    D(2,1,6,25)          -179.8726         calculate D2E/DX2 analytically  !
 ! D7    D(23,1,6,5)           179.6107         calculate D2E/DX2 analytically  !
 ! D8    D(23,1,6,25)           -0.1761         calculate D2E/DX2 analytically  !
 ! D9    D(2,1,23,7)             0.1227         calculate D2E/DX2 analytically  !
 ! D10   D(2,1,23,24)         -179.9666         calculate D2E/DX2 analytically  !
 ! D11   D(6,1,23,7)          -179.6121         calculate D2E/DX2 analytically  !
 ! D12   D(6,1,23,24)            0.2986         calculate D2E/DX2 analytically  !
 ! D13   D(1,2,3,4)             -0.1876         calculate D2E/DX2 analytically  !
 ! D14   D(1,2,3,8)            179.7356         calculate D2E/DX2 analytically  !
 ! D15   D(11,2,3,4)          -179.6127         calculate D2E/DX2 analytically  !
 ! D16   D(11,2,3,8)             0.3105         calculate D2E/DX2 analytically  !
 ! D17   D(1,2,11,7)            -0.0847         calculate D2E/DX2 analytically  !
 ! D18   D(3,2,11,7)           179.3939         calculate D2E/DX2 analytically  !
 ! D19   D(2,3,4,5)              0.1142         calculate D2E/DX2 analytically  !
 ! D20   D(2,3,4,9)           -179.8792         calculate D2E/DX2 analytically  !
 ! D21   D(8,3,4,5)           -179.8084         calculate D2E/DX2 analytically  !
 ! D22   D(8,3,4,9)              0.1981         calculate D2E/DX2 analytically  !
 ! D23   D(3,4,5,6)             -0.0247         calculate D2E/DX2 analytically  !
 ! D24   D(3,4,5,10)          -179.971          calculate D2E/DX2 analytically  !
 ! D25   D(9,4,5,6)            179.9688         calculate D2E/DX2 analytically  !
 ! D26   D(9,4,5,10)             0.0225         calculate D2E/DX2 analytically  !
 ! D27   D(4,5,6,1)              0.0072         calculate D2E/DX2 analytically  !
 ! D28   D(4,5,6,25)           179.7889         calculate D2E/DX2 analytically  !
 ! D29   D(10,5,6,1)           179.9536         calculate D2E/DX2 analytically  !
 ! D30   D(10,5,6,25)           -0.2646         calculate D2E/DX2 analytically  !
 ! D31   D(1,6,25,26)          179.3367         calculate D2E/DX2 analytically  !
 ! D32   D(1,6,25,27)           -0.6944         calculate D2E/DX2 analytically  !
 ! D33   D(5,6,25,26)           -0.4327         calculate D2E/DX2 analytically  !
 ! D34   D(5,6,25,27)          179.5362         calculate D2E/DX2 analytically  !
 ! D35   D(13,7,11,2)         -179.3079         calculate D2E/DX2 analytically  !
 ! D36   D(23,7,11,2)            0.1663         calculate D2E/DX2 analytically  !
 ! D37   D(11,7,13,12)          -0.4724         calculate D2E/DX2 analytically  !
 ! D38   D(11,7,13,14)         178.6999         calculate D2E/DX2 analytically  !
 ! D39   D(23,7,13,12)        -179.8447         calculate D2E/DX2 analytically  !
 ! D40   D(23,7,13,14)          -0.6724         calculate D2E/DX2 analytically  !
 ! D41   D(11,7,23,1)           -0.1831         calculate D2E/DX2 analytically  !
 ! D42   D(11,7,23,24)         179.9194         calculate D2E/DX2 analytically  !
 ! D43   D(13,7,23,1)          179.24           calculate D2E/DX2 analytically  !
 ! D44   D(13,7,23,24)          -0.6575         calculate D2E/DX2 analytically  !
 ! D45   D(17,12,13,7)        -179.8399         calculate D2E/DX2 analytically  !
 ! D46   D(17,12,13,14)          0.9449         calculate D2E/DX2 analytically  !
 ! D47   D(22,12,13,7)           0.4447         calculate D2E/DX2 analytically  !
 ! D48   D(22,12,13,14)       -178.7706         calculate D2E/DX2 analytically  !
 ! D49   D(13,12,17,16)         -1.0454         calculate D2E/DX2 analytically  !
 ! D50   D(13,12,17,21)        179.2805         calculate D2E/DX2 analytically  !
 ! D51   D(22,12,17,16)        178.6757         calculate D2E/DX2 analytically  !
 ! D52   D(22,12,17,21)         -0.9984         calculate D2E/DX2 analytically  !
 ! D53   D(13,12,22,45)         -0.1761         calculate D2E/DX2 analytically  !
 ! D54   D(17,12,22,45)       -179.8943         calculate D2E/DX2 analytically  !
 ! D55   D(7,13,14,15)        -179.2677         calculate D2E/DX2 analytically  !
 ! D56   D(7,13,14,18)           0.3796         calculate D2E/DX2 analytically  !
 ! D57   D(12,13,14,15)         -0.1165         calculate D2E/DX2 analytically  !
 ! D58   D(12,13,14,18)        179.5308         calculate D2E/DX2 analytically  !
 ! D59   D(13,14,15,16)         -0.5848         calculate D2E/DX2 analytically  !
 ! D60   D(13,14,15,20)        178.4575         calculate D2E/DX2 analytically  !
 ! D61   D(18,14,15,16)        179.7654         calculate D2E/DX2 analytically  !
 ! D62   D(18,14,15,20)         -1.1922         calculate D2E/DX2 analytically  !
 ! D63   D(14,15,16,17)          0.4742         calculate D2E/DX2 analytically  !
 ! D64   D(14,15,16,19)       -179.3633         calculate D2E/DX2 analytically  !
 ! D65   D(20,15,16,17)       -178.5814         calculate D2E/DX2 analytically  !
 ! D66   D(20,15,16,19)          1.5812         calculate D2E/DX2 analytically  !
 ! D67   D(14,15,20,58)        131.5751         calculate D2E/DX2 analytically  !
 ! D68   D(14,15,20,62)       -111.1386         calculate D2E/DX2 analytically  !
 ! D69   D(14,15,20,66)          9.3297         calculate D2E/DX2 analytically  !
 ! D70   D(16,15,20,58)        -49.3832         calculate D2E/DX2 analytically  !
 ! D71   D(16,15,20,62)         67.9031         calculate D2E/DX2 analytically  !
 ! D72   D(16,15,20,66)       -171.6286         calculate D2E/DX2 analytically  !
 ! D73   D(15,16,17,12)          0.3458         calculate D2E/DX2 analytically  !
 ! D74   D(15,16,17,21)       -179.9963         calculate D2E/DX2 analytically  !
 ! D75   D(19,16,17,12)       -179.8182         calculate D2E/DX2 analytically  !
 ! D76   D(19,16,17,21)         -0.1603         calculate D2E/DX2 analytically  !
 ! D77   D(12,17,21,46)         61.5007         calculate D2E/DX2 analytically  !
 ! D78   D(12,17,21,50)        -56.889          calculate D2E/DX2 analytically  !
 ! D79   D(12,17,21,54)       -177.7718         calculate D2E/DX2 analytically  !
 ! D80   D(16,17,21,46)       -118.1544         calculate D2E/DX2 analytically  !
 ! D81   D(16,17,21,50)        123.4559         calculate D2E/DX2 analytically  !
 ! D82   D(16,17,21,54)          2.5731         calculate D2E/DX2 analytically  !
 ! D83   D(15,20,58,59)         80.5565         calculate D2E/DX2 analytically  !
 ! D84   D(15,20,58,60)       -159.4434         calculate D2E/DX2 analytically  !
 ! D85   D(15,20,58,61)        -39.4434         calculate D2E/DX2 analytically  !
 ! D86   D(62,20,58,59)        -38.7505         calculate D2E/DX2 analytically  !
 ! D87   D(62,20,58,60)         81.2495         calculate D2E/DX2 analytically  !
 ! D88   D(62,20,58,61)       -158.7505         calculate D2E/DX2 analytically  !
 ! D89   D(66,20,58,59)       -155.8365         calculate D2E/DX2 analytically  !
 ! D90   D(66,20,58,60)        -35.8364         calculate D2E/DX2 analytically  !
 ! D91   D(66,20,58,61)         84.1635         calculate D2E/DX2 analytically  !
 ! D92   D(15,20,62,63)        164.4141         calculate D2E/DX2 analytically  !
 ! D93   D(15,20,62,64)        -75.5859         calculate D2E/DX2 analytically  !
 ! D94   D(15,20,62,65)         44.4141         calculate D2E/DX2 analytically  !
 ! D95   D(58,20,62,63)        -75.6256         calculate D2E/DX2 analytically  !
 ! D96   D(58,20,62,64)         44.3745         calculate D2E/DX2 analytically  !
 ! D97   D(58,20,62,65)        164.3745         calculate D2E/DX2 analytically  !
 ! D98   D(66,20,62,63)         42.0249         calculate D2E/DX2 analytically  !
 ! D99   D(66,20,62,64)        162.0249         calculate D2E/DX2 analytically  !
 ! D100  D(66,20,62,65)        -77.9751         calculate D2E/DX2 analytically  !
 ! D101  D(15,20,66,67)        -64.4173         calculate D2E/DX2 analytically  !
 ! D102  D(15,20,66,68)         55.5827         calculate D2E/DX2 analytically  !
 ! D103  D(15,20,66,69)        175.5827         calculate D2E/DX2 analytically  !
 ! D104  D(58,20,66,67)        172.5395         calculate D2E/DX2 analytically  !
 ! D105  D(58,20,66,68)        -67.4605         calculate D2E/DX2 analytically  !
 ! D106  D(58,20,66,69)         52.5395         calculate D2E/DX2 analytically  !
 ! D107  D(62,20,66,67)         56.7743         calculate D2E/DX2 analytically  !
 ! D108  D(62,20,66,68)        176.7743         calculate D2E/DX2 analytically  !
 ! D109  D(62,20,66,69)        -63.2257         calculate D2E/DX2 analytically  !
 ! D110  D(17,21,46,47)        142.6256         calculate D2E/DX2 analytically  !
 ! D111  D(17,21,46,48)        -97.3744         calculate D2E/DX2 analytically  !
 ! D112  D(17,21,46,49)         22.6256         calculate D2E/DX2 analytically  !
 ! D113  D(50,21,46,47)        -96.6182         calculate D2E/DX2 analytically  !
 ! D114  D(50,21,46,48)         23.3818         calculate D2E/DX2 analytically  !
 ! D115  D(50,21,46,49)        143.3818         calculate D2E/DX2 analytically  !
 ! D116  D(54,21,46,47)         20.9305         calculate D2E/DX2 analytically  !
 ! D117  D(54,21,46,48)        140.9305         calculate D2E/DX2 analytically  !
 ! D118  D(54,21,46,49)        -99.0695         calculate D2E/DX2 analytically  !
 ! D119  D(17,21,50,51)         92.3026         calculate D2E/DX2 analytically  !
 ! D120  D(17,21,50,52)       -147.6974         calculate D2E/DX2 analytically  !
 ! D121  D(17,21,50,53)        -27.6974         calculate D2E/DX2 analytically  !
 ! D122  D(46,21,50,51)        -28.4435         calculate D2E/DX2 analytically  !
 ! D123  D(46,21,50,52)         91.5566         calculate D2E/DX2 analytically  !
 ! D124  D(46,21,50,53)       -148.4435         calculate D2E/DX2 analytically  !
 ! D125  D(54,21,50,51)       -145.9163         calculate D2E/DX2 analytically  !
 ! D126  D(54,21,50,52)        -25.9163         calculate D2E/DX2 analytically  !
 ! D127  D(54,21,50,53)         94.0837         calculate D2E/DX2 analytically  !
 ! D128  D(17,21,54,55)        -60.8332         calculate D2E/DX2 analytically  !
 ! D129  D(17,21,54,56)         59.1668         calculate D2E/DX2 analytically  !
 ! D130  D(17,21,54,57)        179.1668         calculate D2E/DX2 analytically  !
 ! D131  D(46,21,54,55)         61.025          calculate D2E/DX2 analytically  !
 ! D132  D(46,21,54,56)       -178.975          calculate D2E/DX2 analytically  !
 ! D133  D(46,21,54,57)        -58.975          calculate D2E/DX2 analytically  !
 ! D134  D(50,21,54,55)        177.2135         calculate D2E/DX2 analytically  !
 ! D135  D(50,21,54,56)        -62.7865         calculate D2E/DX2 analytically  !
 ! D136  D(50,21,54,57)         57.2135         calculate D2E/DX2 analytically  !
 ! D137  D(6,25,27,28)        -179.9256         calculate D2E/DX2 analytically  !
 ! D138  D(26,25,27,28)          0.0411         calculate D2E/DX2 analytically  !
 ! D139  D(25,27,28,29)        -66.402          calculate D2E/DX2 analytically  !
 ! D140  D(25,27,28,30)         59.0027         calculate D2E/DX2 analytically  !
 ! D141  D(25,27,28,31)        176.5274         calculate D2E/DX2 analytically  !
 ! D142  D(27,28,29,32)       -176.2312         calculate D2E/DX2 analytically  !
 ! D143  D(27,28,29,33)         63.2271         calculate D2E/DX2 analytically  !
 ! D144  D(27,28,29,34)        -53.6696         calculate D2E/DX2 analytically  !
 ! D145  D(30,28,29,32)         57.0591         calculate D2E/DX2 analytically  !
 ! D146  D(30,28,29,33)        -63.4826         calculate D2E/DX2 analytically  !
 ! D147  D(30,28,29,34)        179.6207         calculate D2E/DX2 analytically  !
 ! D148  D(31,28,29,32)        -60.2467         calculate D2E/DX2 analytically  !
 ! D149  D(31,28,29,33)        179.2116         calculate D2E/DX2 analytically  !
 ! D150  D(31,28,29,34)         62.3149         calculate D2E/DX2 analytically  !
 ! D151  D(27,28,30,35)        176.3426         calculate D2E/DX2 analytically  !
 ! D152  D(27,28,30,36)        -63.523          calculate D2E/DX2 analytically  !
 ! D153  D(27,28,30,37)         53.4261         calculate D2E/DX2 analytically  !
 ! D154  D(29,28,30,35)        -57.4243         calculate D2E/DX2 analytically  !
 ! D155  D(29,28,30,36)         62.7101         calculate D2E/DX2 analytically  !
 ! D156  D(29,28,30,37)        179.6591         calculate D2E/DX2 analytically  !
 ! D157  D(31,28,30,35)         59.8819         calculate D2E/DX2 analytically  !
 ! D158  D(31,28,30,36)       -179.9837         calculate D2E/DX2 analytically  !
 ! D159  D(31,28,30,37)        -63.0347         calculate D2E/DX2 analytically  !
 ! D160  D(28,29,32,38)        -56.1234         calculate D2E/DX2 analytically  !
 ! D161  D(28,29,32,39)       -179.1051         calculate D2E/DX2 analytically  !
 ! D162  D(28,29,32,40)         64.283          calculate D2E/DX2 analytically  !
 ! D163  D(33,29,32,38)         63.6828         calculate D2E/DX2 analytically  !
 ! D164  D(33,29,32,39)        -59.2988         calculate D2E/DX2 analytically  !
 ! D165  D(33,29,32,40)       -175.9108         calculate D2E/DX2 analytically  !
 ! D166  D(34,29,32,38)       -177.9548         calculate D2E/DX2 analytically  !
 ! D167  D(34,29,32,39)         59.0635         calculate D2E/DX2 analytically  !
 ! D168  D(34,29,32,40)        -57.5485         calculate D2E/DX2 analytically  !
 ! D169  D(28,30,35,38)         56.6129         calculate D2E/DX2 analytically  !
 ! D170  D(28,30,35,41)        179.2052         calculate D2E/DX2 analytically  !
 ! D171  D(28,30,35,42)        -63.9775         calculate D2E/DX2 analytically  !
 ! D172  D(36,30,35,38)        -63.4048         calculate D2E/DX2 analytically  !
 ! D173  D(36,30,35,41)         59.1876         calculate D2E/DX2 analytically  !
 ! D174  D(36,30,35,42)        176.0048         calculate D2E/DX2 analytically  !
 ! D175  D(37,30,35,38)        178.5968         calculate D2E/DX2 analytically  !
 ! D176  D(37,30,35,41)        -58.8108         calculate D2E/DX2 analytically  !
 ! D177  D(37,30,35,42)         58.0064         calculate D2E/DX2 analytically  !
 ! D178  D(29,32,38,35)         55.2665         calculate D2E/DX2 analytically  !
 ! D179  D(29,32,38,43)        178.0309         calculate D2E/DX2 analytically  !
 ! D180  D(29,32,38,44)        -64.8918         calculate D2E/DX2 analytically  !
 ! D181  D(39,32,38,35)        177.9998         calculate D2E/DX2 analytically  !
 ! D182  D(39,32,38,43)        -59.2357         calculate D2E/DX2 analytically  !
 ! D183  D(39,32,38,44)         57.8415         calculate D2E/DX2 analytically  !
 ! D184  D(40,32,38,35)        -64.9735         calculate D2E/DX2 analytically  !
 ! D185  D(40,32,38,43)         57.7909         calculate D2E/DX2 analytically  !
 ! D186  D(40,32,38,44)        174.8682         calculate D2E/DX2 analytically  !
 ! D187  D(30,35,38,32)        -55.3996         calculate D2E/DX2 analytically  !
 ! D188  D(30,35,38,43)       -178.1487         calculate D2E/DX2 analytically  !
 ! D189  D(30,35,38,44)         64.7979         calculate D2E/DX2 analytically  !
 ! D190  D(41,35,38,32)       -177.5697         calculate D2E/DX2 analytically  !
 ! D191  D(41,35,38,43)         59.6813         calculate D2E/DX2 analytically  !
 ! D192  D(41,35,38,44)        -57.3721         calculate D2E/DX2 analytically  !
 ! D193  D(42,35,38,32)         65.1333         calculate D2E/DX2 analytically  !
 ! D194  D(42,35,38,43)        -57.6157         calculate D2E/DX2 analytically  !
 ! D195  D(42,35,38,44)       -174.6691         calculate D2E/DX2 analytically  !
 --------------------------------------------------------------------------------
 Trust Radius=3.00D-01 FncErr=5.00D-06 GrdErr=5.00D-06 EigMax=2.50D+02 EigMin=1.00D-04
 Number of steps in this run=    409 maximum allowed number of steps=    414.
 Search for a saddle point of order  1.
 GradGradGradGradGradGradGradGradGradGradGradGradGradGradGradGradGradGrad

 Leave Link  103 at Thu Dec 20 18:56:30 2018, MaxMem=  1342177280 cpu:               0.5 elap:               0.1
 (Enter /gpfs/apps/hpc/Apps/Restricted/Gaussian/Rev_A.03/g16/l202.exe)
 Symmetry turned off by external request.
 Stoichiometry    C28H37N3O(1+,2)
 Framework group  C1[X(C28H37N3O)]
 Deg. of freedom   201
 Full point group                 C1      NOp   1
                          Input orientation:                          
 ---------------------------------------------------------------------
 Center     Atomic      Atomic             Coordinates (Angstroms)
 Number     Number       Type             X           Y           Z
 ---------------------------------------------------------------------
      1          6           0       -0.424191    2.671740    0.277732
      2          6           0       -1.835682    2.792786    0.237620
      3          6           0       -2.433932    4.058781    0.141547
      4          6           0       -1.585080    5.155900    0.093569
      5          6           0       -0.178679    5.020674    0.136079
      6          6           0        0.442832    3.776169    0.229386
      7          6           0       -1.336685    0.666036    0.369264
      8          1           0       -3.510066    4.168869    0.105523
      9          1           0       -2.007926    6.150438    0.021308
     10          1           0        0.438200    5.910889    0.095889
     11          7           0       -2.365591    1.525508    0.297750
     12          6           0       -2.958184   -1.189148    0.419530
     13          6           0       -1.566044   -0.752745    0.429680
     14          6           0       -0.559056   -1.702807    0.478795
     15          6           0       -0.866807   -3.072047    0.521013
     16          6           0       -2.230640   -3.484783    0.525765
     17          6           0       -3.273484   -2.594493    0.480952
     18          1           0        0.478651   -1.392386    0.479165
     19          1           0       -2.444521   -4.546836    0.569291
     20          6           0        0.214153   -4.101092    0.539564
     21          6           0       -4.709834   -3.009811    0.485260
     22          8           0       -3.922550   -0.333742    0.350531
     23          7           0       -0.149329    1.332159    0.361478
     24          1           0        0.812288    0.999127    0.403774
     25          6           0        1.894450    3.603352    0.270844
     26          1           0        2.491136    4.519343    0.216736
     27          7           0        2.409067    2.434119    0.366008
     28          6           0        3.873253    2.314636    0.405526
     29          6           0        4.521994    2.741246   -0.921736
     30          6           0        4.503154    3.078759    1.581638
     31          1           0        4.083049    1.249059    0.550802
     32          6           0        6.037601    2.516367   -0.878442
     33          1           0        4.308768    3.803787   -1.089031
     34          1           0        4.068849    2.184945   -1.747731
     35          6           0        6.017559    2.847426    1.628849
     36          1           0        4.305639    4.150225    1.458179
     37          1           0        4.027201    2.768750    2.516512
     38          6           0        6.678272    3.250156    0.305078
     39          1           0        6.492278    2.837287   -1.820427
     40          1           0        6.234149    1.440867   -0.784161
     41          1           0        6.452761    3.408314    2.461564
     42          1           0        6.214318    1.785780    1.823851
     43          1           0        7.753399    3.049790    0.339762
     44          1           0        6.560505    4.331682    0.161998
     45          1           0       -3.455509    0.696067    0.309977
     46          6           0       -5.412137   -2.560408   -0.809501
     47          1           0       -6.107396   -3.313035   -1.117833
     48          1           0       -5.934411   -1.643517   -0.632185
     49          1           0       -4.682569   -2.412425   -1.578092
     50          6           0       -5.465569   -2.351501    1.654487
     51          1           0       -5.903400   -1.432811    1.324012
     52          1           0       -6.235597   -3.010478    1.997569
     53          1           0       -4.782799   -2.153815    2.454265
     54          6           0       -4.828424   -4.540113    0.610604
     55          1           0       -4.347244   -5.004735   -0.224557
     56          1           0       -4.358746   -4.861212    1.516804
     57          1           0       -5.861677   -4.817655    0.626654
     58          6           0       -0.038030   -5.138610    1.649320
     59          1           0       -0.754856   -5.856838    1.309894
     60          1           0        0.879041   -5.635422    1.888188
     61          1           0       -0.413495   -4.644443    2.520943
     62          6           0        0.217667   -4.877224   -0.790551
     63          1           0        1.138872   -5.412629   -0.888651
     64          1           0       -0.599379   -5.568014   -0.802575
     65          1           0        0.115950   -4.190288   -1.604599
     66          6           0        1.602792   -3.466022    0.739483
     67          1           0        1.834068   -2.842875   -0.099027
     68          1           0        1.600052   -2.876171    1.632214
     69          1           0        2.339089   -4.237770    0.824167
 ---------------------------------------------------------------------
 Rotational constants (GHZ):           0.1866784           0.0710998           0.0537712
 Leave Link  202 at Thu Dec 20 18:56:30 2018, MaxMem=  1342177280 cpu:               1.0 elap:               0.1
 (Enter /gpfs/apps/hpc/Apps/Restricted/Gaussian/Rev_A.03/g16/l301.exe)
 Standard basis: 6-31G(d,p) (6D, 7F)
 Ernie: Thresh=  0.10000D-02 Tol=  0.10000D-05 Strict=F.
   665 basis functions,  1155 primitive gaussians,   665 cartesian basis functions
   117 alpha electrons      116 beta electrons
       nuclear repulsion energy      3178.4414522897 Hartrees.
 IExCor=  402 DFT=T Ex+Corr=B3LYP ExCW=0 ScaHFX=  0.200000
 ScaDFX=  0.800000  0.720000  1.000000  0.810000 ScalE2=  1.000000  1.000000
 IRadAn=      5 IRanWt=     -1 IRanGd=            0 ICorTp=0 IEmpDi=141
 NAtoms=   69 NActive=   69 NUniq=   69 SFac= 1.00D+00 NAtFMM=   60 NAOKFM=T Big=T
 Integral buffers will be    131072 words long.
 Raffenetti 2 integral format.
 Two-electron integral symmetry is turned off.
 R6Disp:  Grimme-D3(BJ) Dispersion energy=       -0.1510863924 Hartrees.
 Nuclear repulsion after empirical dispersion term =     3178.2903658974 Hartrees.
 Force inversion solution in PCM.
 Using the following non-standard input for PCM:
 radii=bondi
 dis
 rep
 cav
 --- end of non-standard input.
 Force inversion solution in PCM.
 ------------------------------------------------------------------------------
 Polarizable Continuum Model (PCM)
 =================================
 Model                : C-PCM.
 Atomic radii         : Bondi.
 Polarization charges : Total charges.
 Charge compensation  : None.
 Solution method      : Matrix inversion.
 Cavity type          : Scaled VdW (van der Waals Surface) (Alpha=1.100).
 Cavity algorithm     : GePol (No added spheres)
                        Default sphere list used, NSphG=   69.
                        Lebedev-Laikov grids with approx.  5.0 points / Ang**2.
                        Smoothing algorithm: York/Karplus (Gamma=1.0000).
                        Polarization charges: spherical gaussians, with
                                              point-specific exponents (IZeta= 3).
                        Self-potential: point-specific (ISelfS= 7).
                        Self-field    : sphere-specific E.n sum rule (ISelfD= 2).
 1st derivatives      : Analytical E(r).r(x)/FMM algorithm (CHGder, D1EAlg=3).
                        Cavity 1st derivative terms included.
 2nd derivatives      : Analytical E(r).r(xy)/FMM algorithm (CHGder, D2EAlg=3).
                        Cavity 2nd derivative terms included.
 Solvent              : Dichloromethane, Eps=   8.930000 Eps(inf)=   2.028346
 ------------------------------------------------------------------------------
 GePol: Number of generator spheres                  =      69
 GePol: Total number of spheres                      =      69
 GePol: Number of exposed spheres                    =      69 (100.00%)
 GePol: Number of points                             =    4310
 GePol: Average weight of points                     =       0.12
 GePol: Minimum weight of points                     =   0.41D-10
 GePol: Maximum weight of points                     =    0.21770
 GePol: Number of points with low weight             =     305
 GePol: Fraction of low-weight points (<1% of avg)   =       7.08%
 GePol: Cavity surface area                          =    510.256 Ang**2
 GePol: Cavity volume                                =    496.177 Ang**3
 PCM non-electrostatic energy =         0.0241973161 Hartrees.
 Nuclear repulsion after PCM non-electrostatic terms =     3178.3145632135 Hartrees.
 Leave Link  301 at Thu Dec 20 18:56:31 2018, MaxMem=  1342177280 cpu:               4.0 elap:               0.3
 (Enter /gpfs/apps/hpc/Apps/Restricted/Gaussian/Rev_A.03/g16/l302.exe)
 NPDir=0 NMtPBC=     1 NCelOv=     1 NCel=       1 NClECP=     1 NCelD=      1
         NCelK=      1 NCelE2=     1 NClLst=     1 CellRange=     0.0.
 One-electron integrals computed using PRISM.
 NBasis=   665 RedAO= T EigKep=  2.99D-04  NBF=   665
 NBsUse=   665 1.00D-06 EigRej= -1.00D+00 NBFU=   665
 Precomputing XC quadrature grid using
 IXCGrd= 4 IRadAn=           5 IRanWt=          -1 IRanGd=           0 AccXCQ= 0.00D+00.
 Generated NRdTot=       0 NPtTot=           0 NUsed=           0 NTot=          32
 NSgBfM=   647   647   647   647   647 MxSgAt=    69 MxSgA2=    69.
 Leave Link  302 at Thu Dec 20 18:56:32 2018, MaxMem=  1342177280 cpu:              25.0 elap:               1.7
 (Enter /gpfs/apps/hpc/Apps/Restricted/Gaussian/Rev_A.03/g16/l303.exe)
 DipDrv:  MaxL=1.
 Leave Link  303 at Thu Dec 20 18:56:32 2018, MaxMem=  1342177280 cpu:               1.9 elap:               0.2
 (Enter /gpfs/apps/hpc/Apps/Restricted/Gaussian/Rev_A.03/g16/l401.exe)
 ExpMin= 1.61D-01 ExpMax= 5.48D+03 ExpMxC= 8.25D+02 IAcc=3 IRadAn=         5 AccDes= 0.00D+00
 Harris functional with IExCor=  402 and IRadAn=       5 diagonalized for initial guess.
 HarFok:  IExCor=  402 AccDes= 0.00D+00 IRadAn=         5 IDoV= 1 UseB2=F ITyADJ=14
 ICtDFT=  3500011 ScaDFX=  1.000000  1.000000  1.000000  1.000000
 FoFCou: FMM=F IPFlag=           0 FMFlag=      100000 FMFlg1=        2001
         NFxFlg=           0 DoJE=T BraDBF=F KetDBF=T FulRan=T
         wScrn=  0.000000 ICntrl=       500 IOpCl=  0 I1Cent=   200000004 NGrid=           0
         NMat0=    1 NMatS0=      1 NMatT0=    0 NMatD0=    1 NMtDS0=    0 NMtDT0=    0
 Symmetry not used in FoFCou.
 Harris En= -1328.77907543729    
 JPrj=0 DoOrth=F DoCkMO=F.
 Initial guess <Sx>= 0.0000 <Sy>= 0.0000 <Sz>= 0.5000 <S**2>= 0.7500 S= 0.5000
 Leave Link  401 at Thu Dec 20 18:56:38 2018, MaxMem=  1342177280 cpu:              91.1 elap:               5.8
 (Enter /gpfs/apps/hpc/Apps/Restricted/Gaussian/Rev_A.03/g16/l502.exe)
 Two-electron integral symmetry not used.
 UHF open shell SCF:
 Using DIIS extrapolation, IDIIS=  1040.
 NGot=  1342177280 LenX=  1341276554 LenY=  1340833664
 Requested convergence on RMS density matrix=1.00D-08 within 128 cycles.
 Requested convergence on MAX density matrix=1.00D-06.
 Requested convergence on             energy=1.00D-06.
 No special actions if energy rises.
 Fock matrices will be formed incrementally for  20 cycles.

 Cycle   1  Pass 1  IDiag  1:
 FoFJK:  IHMeth= 1 ICntrl=       0 DoSepK=F KAlg= 0 I1Cent=           0 FoldK=F
 IRaf= 760000000 NMat=       1 IRICut=       1 DoRegI=T DoRafI=F ISym2E= 0 IDoP0=0 IntGTp=1.
 FoFCou: FMM=T IPFlag=           0 FMFlag=      100000 FMFlg1=        2001
         NFxFlg=           0 DoJE=F BraDBF=F KetDBF=F FulRan=T
         wScrn=  0.000000 ICntrl=         0 IOpCl=  1 I1Cent=           0 NGrid=           0
         NMat0=    1 NMatS0=      1 NMatT0=    0 NMatD0=    1 NMtDS0=    0 NMtDT0=    0
 Symmetry not used in FoFCou.
 FMM levels:  10  Number of levels for PrismC:   9
 Inv3:  Mode=1 IEnd=    55728300.
 Iteration    1 A*A^-1 deviation from unit magnitude is 7.99D-15 for   3235.
 Iteration    1 A*A^-1 deviation from orthogonality  is 2.99D-15 for   3226   1319.
 Iteration    1 A^-1*A deviation from unit magnitude is 7.99D-15 for   3235.
 Iteration    1 A^-1*A deviation from orthogonality  is 2.42D-15 for   4063    832.
 E= -1327.93683587118    
 DIIS: error= 3.20D-02 at cycle   1 NSaved=   1.
 NSaved= 1 IEnMin= 1 EnMin= -1327.93683587118     IErMin= 1 ErrMin= 3.20D-02
 ErrMax= 3.20D-02  0.00D+00 EMaxC= 1.00D-01 BMatC= 3.17D+00 BMatP= 3.17D+00
 IDIUse=3 WtCom= 6.80D-01 WtEn= 3.20D-01
 Coeff-Com:  0.100D+01
 Coeff-En:   0.100D+01
 Coeff:      0.100D+01
 Gap=     0.166 Goal=   None    Shift=    0.000
 Gap=     0.052 Goal=   None    Shift=    0.000
 GapD=    0.052 DampG=0.500 DampE=0.500 DampFc=0.2500 IDamp=-1.
 Damping current iteration by 2.50D-01
 RMSDP=3.20D-03 MaxDP=1.37D-01              OVMax= 3.73D-01

 Cycle   2  Pass 1  IDiag  1:
 RMSU=  7.76D-04    CP:  9.84D-01
 E= -1328.24058078354     Delta-E=       -0.303744912353 Rises=F Damp=T
 DIIS: error= 1.74D-02 at cycle   2 NSaved=   2.
 NSaved= 2 IEnMin= 2 EnMin= -1328.24058078354     IErMin= 2 ErrMin= 1.74D-02
 ErrMax= 1.74D-02  0.00D+00 EMaxC= 1.00D-01 BMatC= 8.36D-01 BMatP= 3.17D+00
 IDIUse=3 WtCom= 8.26D-01 WtEn= 1.74D-01
 Coeff-Com: -0.860D+00 0.186D+01
 Coeff-En:   0.000D+00 0.100D+01
 Coeff:     -0.710D+00 0.171D+01
 Gap=     0.221 Goal=   None    Shift=    0.000
 Gap=     0.088 Goal=   None    Shift=    0.000
 RMSDP=1.18D-03 MaxDP=6.94D-02 DE=-3.04D-01 OVMax= 2.79D-01

 Cycle   3  Pass 1  IDiag  1:
 RMSU=  8.10D-04    CP:  9.53D-01  2.00D+00
 E= -1328.75396845721     Delta-E=       -0.513387673678 Rises=F Damp=F
 DIIS: error= 4.77D-03 at cycle   3 NSaved=   3.
 NSaved= 3 IEnMin= 3 EnMin= -1328.75396845721     IErMin= 3 ErrMin= 4.77D-03
 ErrMax= 4.77D-03  0.00D+00 EMaxC= 1.00D-01 BMatC= 9.18D-02 BMatP= 8.36D-01
 IDIUse=3 WtCom= 9.52D-01 WtEn= 4.77D-02
 Coeff-Com: -0.299D+00 0.672D+00 0.627D+00
 Coeff-En:   0.000D+00 0.000D+00 0.100D+01
 Coeff:     -0.285D+00 0.640D+00 0.645D+00
 Gap=     0.155 Goal=   None    Shift=    0.000
 Gap=     0.062 Goal=   None    Shift=    0.000
 RMSDP=3.93D-04 MaxDP=3.79D-02 DE=-5.13D-01 OVMax= 9.37D-02

 Cycle   4  Pass 1  IDiag  1:
 RMSU=  3.24D-04    CP:  9.56D-01  2.01D+00  7.30D-01
 E= -1328.76856422925     Delta-E=       -0.014595772035 Rises=F Damp=F
 DIIS: error= 3.57D-03 at cycle   4 NSaved=   4.
 NSaved= 4 IEnMin= 4 EnMin= -1328.76856422925     IErMin= 4 ErrMin= 3.57D-03
 ErrMax= 3.57D-03  0.00D+00 EMaxC= 1.00D-01 BMatC= 4.15D-02 BMatP= 9.18D-02
 IDIUse=3 WtCom= 9.64D-01 WtEn= 3.57D-02
 Coeff-Com: -0.350D-01 0.102D+00 0.399D+00 0.534D+00
 Coeff-En:   0.000D+00 0.000D+00 0.298D+00 0.702D+00
 Coeff:     -0.338D-01 0.984D-01 0.396D+00 0.540D+00
 Gap=     0.157 Goal=   None    Shift=    0.000
 Gap=     0.062 Goal=   None    Shift=    0.000
 RMSDP=1.70D-04 MaxDP=1.79D-02 DE=-1.46D-02 OVMax= 2.18D-02

 Cycle   5  Pass 1  IDiag  1:
 RMSU=  1.01D-04    CP:  9.56D-01  1.98D+00  8.11D-01  6.34D-01
 E= -1328.77782908368     Delta-E=       -0.009264854431 Rises=F Damp=F
 DIIS: error= 8.98D-04 at cycle   5 NSaved=   5.
 NSaved= 5 IEnMin= 5 EnMin= -1328.77782908368     IErMin= 5 ErrMin= 8.98D-04
 ErrMax= 8.98D-04  0.00D+00 EMaxC= 1.00D-01 BMatC= 2.80D-03 BMatP= 4.15D-02
 IDIUse=3 WtCom= 9.91D-01 WtEn= 8.98D-03
 Coeff-Com:  0.799D-02-0.505D-02 0.161D+00 0.285D+00 0.551D+00
 Coeff-En:   0.000D+00 0.000D+00 0.000D+00 0.000D+00 0.100D+01
 Coeff:      0.792D-02-0.500D-02 0.159D+00 0.283D+00 0.555D+00
 Gap=     0.156 Goal=   None    Shift=    0.000
 Gap=     0.065 Goal=   None    Shift=    0.000
 RMSDP=5.22D-05 MaxDP=8.03D-03 DE=-9.26D-03 OVMax= 1.57D-02

 Cycle   6  Pass 1  IDiag  1:
 RMSU=  3.91D-05    CP:  9.56D-01  1.98D+00  8.23D-01  6.73D-01  6.99D-01
 E= -1328.77846612392     Delta-E=       -0.000637040238 Rises=F Damp=F
 DIIS: error= 3.84D-04 at cycle   6 NSaved=   6.
 NSaved= 6 IEnMin= 6 EnMin= -1328.77846612392     IErMin= 6 ErrMin= 3.84D-04
 ErrMax= 3.84D-04  0.00D+00 EMaxC= 1.00D-01 BMatC= 2.89D-04 BMatP= 2.80D-03
 IDIUse=3 WtCom= 9.96D-01 WtEn= 3.84D-03
 Coeff-Com:  0.728D-02-0.110D-01 0.499D-01 0.948D-01 0.293D+00 0.566D+00
 Coeff-En:   0.000D+00 0.000D+00 0.000D+00 0.000D+00 0.000D+00 0.100D+01
 Coeff:      0.726D-02-0.109D-01 0.497D-01 0.945D-01 0.291D+00 0.568D+00
 Gap=     0.156 Goal=   None    Shift=    0.000
 Gap=     0.065 Goal=   None    Shift=    0.000
 RMSDP=1.90D-05 MaxDP=2.00D-03 DE=-6.37D-04 OVMax= 7.47D-03

 Cycle   7  Pass 1  IDiag  1:
 RMSU=  1.64D-05    CP:  9.56D-01  1.98D+00  8.23D-01  6.84D-01  7.83D-01
                    CP:  1.02D+00
 E= -1328.77855412677     Delta-E=       -0.000088002851 Rises=F Damp=F
 DIIS: error= 2.39D-04 at cycle   7 NSaved=   7.
 NSaved= 7 IEnMin= 7 EnMin= -1328.77855412677     IErMin= 7 ErrMin= 2.39D-04
 ErrMax= 2.39D-04  0.00D+00 EMaxC= 1.00D-01 BMatC= 5.65D-05 BMatP= 2.89D-04
 IDIUse=3 WtCom= 9.98D-01 WtEn= 2.39D-03
 Coeff-Com:  0.232D-02-0.473D-02-0.583D-02-0.137D-01 0.432D-01 0.289D+00
 Coeff-Com:  0.690D+00
 Coeff-En:   0.000D+00 0.000D+00 0.000D+00 0.000D+00 0.000D+00 0.000D+00
 Coeff-En:   0.100D+01
 Coeff:      0.231D-02-0.472D-02-0.582D-02-0.136D-01 0.431D-01 0.288D+00
 Coeff:      0.690D+00
 Gap=     0.156 Goal=   None    Shift=    0.000
 Gap=     0.065 Goal=   None    Shift=    0.000
 RMSDP=1.41D-05 MaxDP=1.67D-03 DE=-8.80D-05 OVMax= 8.71D-03

 Cycle   8  Pass 1  IDiag  1:
 RMSU=  8.43D-06    CP:  9.56D-01  1.98D+00  8.25D-01  6.92D-01  8.37D-01
                    CP:  1.26D+00  1.04D+00
 E= -1328.77859207890     Delta-E=       -0.000037952136 Rises=F Damp=F
 DIIS: error= 1.31D-04 at cycle   8 NSaved=   8.
 NSaved= 8 IEnMin= 8 EnMin= -1328.77859207890     IErMin= 8 ErrMin= 1.31D-04
 ErrMax= 1.31D-04  0.00D+00 EMaxC= 1.00D-01 BMatC= 1.74D-05 BMatP= 5.65D-05
 IDIUse=3 WtCom= 9.99D-01 WtEn= 1.31D-03
 Coeff-Com: -0.136D-02 0.178D-02-0.196D-01-0.442D-01-0.831D-01-0.944D-01
 Coeff-Com:  0.330D+00 0.911D+00
 Coeff-En:   0.000D+00 0.000D+00 0.000D+00 0.000D+00 0.000D+00 0.000D+00
 Coeff-En:   0.000D+00 0.100D+01
 Coeff:     -0.136D-02 0.177D-02-0.196D-01-0.441D-01-0.830D-01-0.943D-01
 Coeff:      0.330D+00 0.911D+00
 Gap=     0.156 Goal=   None    Shift=    0.000
 Gap=     0.065 Goal=   None    Shift=    0.000
 RMSDP=1.30D-05 MaxDP=1.35D-03 DE=-3.80D-05 OVMax= 8.94D-03

 Cycle   9  Pass 1  IDiag  1:
 RMSU=  4.37D-06    CP:  9.56D-01  1.98D+00  8.25D-01  7.01D-01  8.84D-01
                    CP:  1.47D+00  1.45D+00  1.30D+00
 E= -1328.77861112941     Delta-E=       -0.000019050502 Rises=F Damp=F
 DIIS: error= 5.86D-05 at cycle   9 NSaved=   9.
 NSaved= 9 IEnMin= 9 EnMin= -1328.77861112941     IErMin= 9 ErrMin= 5.86D-05
 ErrMax= 5.86D-05  0.00D+00 EMaxC= 1.00D-01 BMatC= 5.79D-06 BMatP= 1.74D-05
 IDIUse=1 WtCom= 1.00D+00 WtEn= 0.00D+00
 Coeff-Com: -0.104D-02 0.172D-02-0.931D-02-0.223D-01-0.564D-01-0.133D+00
 Coeff-Com:  0.117D-01 0.517D+00 0.692D+00
 Coeff:     -0.104D-02 0.172D-02-0.931D-02-0.223D-01-0.564D-01-0.133D+00
 Coeff:      0.117D-01 0.517D+00 0.692D+00
 Gap=     0.156 Goal=   None    Shift=    0.000
 Gap=     0.065 Goal=   None    Shift=    0.000
 RMSDP=6.25D-06 MaxDP=1.01D-03 DE=-1.91D-05 OVMax= 4.27D-03

 Cycle  10  Pass 1  IDiag  1:
 RMSU=  2.51D-06    CP:  9.56D-01  1.99D+00  8.25D-01  7.04D-01  9.04D-01
                    CP:  1.57D+00  1.61D+00  1.59D+00  9.86D-01
 E= -1328.77861591981     Delta-E=       -0.000004790404 Rises=F Damp=F
 DIIS: error= 2.73D-05 at cycle  10 NSaved=  10.
 NSaved=10 IEnMin=10 EnMin= -1328.77861591981     IErMin=10 ErrMin= 2.73D-05
 ErrMax= 2.73D-05  0.00D+00 EMaxC= 1.00D-01 BMatC= 1.45D-06 BMatP= 5.79D-06
 IDIUse=1 WtCom= 1.00D+00 WtEn= 0.00D+00
 Coeff-Com: -0.273D-04 0.187D-03 0.875D-03 0.786D-03-0.403D-02-0.391D-01
 Coeff-Com: -0.783D-01-0.233D-02 0.355D+00 0.767D+00
 Coeff:     -0.273D-04 0.187D-03 0.875D-03 0.786D-03-0.403D-02-0.391D-01
 Coeff:     -0.783D-01-0.233D-02 0.355D+00 0.767D+00
 Gap=     0.156 Goal=   None    Shift=    0.000
 Gap=     0.065 Goal=   None    Shift=    0.000
 RMSDP=3.01D-06 MaxDP=5.24D-04 DE=-4.79D-06 OVMax= 1.65D-03

 Cycle  11  Pass 1  IDiag  1:
 RMSU=  1.27D-06    CP:  9.56D-01  1.99D+00  8.26D-01  7.05D-01  9.12D-01
                    CP:  1.60D+00  1.68D+00  1.73D+00  1.27D+00  1.13D+00
 E= -1328.77861709701     Delta-E=       -0.000001177202 Rises=F Damp=F
 DIIS: error= 1.80D-05 at cycle  11 NSaved=  11.
 NSaved=11 IEnMin=11 EnMin= -1328.77861709701     IErMin=11 ErrMin= 1.80D-05
 ErrMax= 1.80D-05  0.00D+00 EMaxC= 1.00D-01 BMatC= 3.61D-07 BMatP= 1.45D-06
 IDIUse=1 WtCom= 1.00D+00 WtEn= 0.00D+00
 Coeff-Com:  0.351D-03-0.470D-03 0.394D-02 0.827D-02 0.183D-01 0.266D-01
 Coeff-Com: -0.440D-01-0.178D+00-0.193D-01 0.390D+00 0.795D+00
 Coeff:      0.351D-03-0.470D-03 0.394D-02 0.827D-02 0.183D-01 0.266D-01
 Coeff:     -0.440D-01-0.178D+00-0.193D-01 0.390D+00 0.795D+00
 Gap=     0.156 Goal=   None    Shift=    0.000
 Gap=     0.065 Goal=   None    Shift=    0.000
 RMSDP=1.55D-06 MaxDP=3.22D-04 DE=-1.18D-06 OVMax= 8.13D-04

 Cycle  12  Pass 1  IDiag  1:
 RMSU=  5.67D-07    CP:  9.56D-01  1.99D+00  8.25D-01  7.05D-01  9.14D-01
                    CP:  1.62D+00  1.71D+00  1.80D+00  1.42D+00  1.47D+00
                    CP:  1.06D+00
 E= -1328.77861743612     Delta-E=       -0.000000339104 Rises=F Damp=F
 DIIS: error= 7.50D-06 at cycle  12 NSaved=  12.
 NSaved=12 IEnMin=12 EnMin= -1328.77861743612     IErMin=12 ErrMin= 7.50D-06
 ErrMax= 7.50D-06  0.00D+00 EMaxC= 1.00D-01 BMatC= 7.03D-08 BMatP= 3.61D-07
 IDIUse=1 WtCom= 1.00D+00 WtEn= 0.00D+00
 Coeff-Com:  0.102D-03-0.188D-03 0.690D-03 0.162D-02 0.542D-02 0.168D-01
 Coeff-Com:  0.573D-02-0.442D-01-0.832D-01-0.131D+00 0.257D+00 0.971D+00
 Coeff:      0.102D-03-0.188D-03 0.690D-03 0.162D-02 0.542D-02 0.168D-01
 Coeff:      0.573D-02-0.442D-01-0.832D-01-0.131D+00 0.257D+00 0.971D+00
 Gap=     0.156 Goal=   None    Shift=    0.000
 Gap=     0.065 Goal=   None    Shift=    0.000
 RMSDP=8.32D-07 MaxDP=1.53D-04 DE=-3.39D-07 OVMax= 3.62D-04

 Cycle  13  Pass 1  IDiag  1:
 RMSU=  2.41D-07    CP:  9.56D-01  1.99D+00  8.25D-01  7.06D-01  9.15D-01
                    CP:  1.62D+00  1.72D+00  1.83D+00  1.50D+00  1.62D+00
                    CP:  1.35D+00  1.19D+00
 E= -1328.77861750929     Delta-E=       -0.000000073172 Rises=F Damp=F
 DIIS: error= 2.37D-06 at cycle  13 NSaved=  13.
 NSaved=13 IEnMin=13 EnMin= -1328.77861750929     IErMin=13 ErrMin= 2.37D-06
 ErrMax= 2.37D-06  0.00D+00 EMaxC= 1.00D-01 BMatC= 9.67D-09 BMatP= 7.03D-08
 IDIUse=1 WtCom= 1.00D+00 WtEn= 0.00D+00
 Coeff-Com: -0.833D-05-0.420D-05-0.215D-03-0.457D-03-0.249D-03 0.336D-02
 Coeff-Com:  0.704D-02 0.793D-02-0.259D-01-0.106D+00 0.147D-01 0.333D+00
 Coeff-Com:  0.766D+00
 Coeff:     -0.833D-05-0.420D-05-0.215D-03-0.457D-03-0.249D-03 0.336D-02
 Coeff:      0.704D-02 0.793D-02-0.259D-01-0.106D+00 0.147D-01 0.333D+00
 Coeff:      0.766D+00
 Gap=     0.156 Goal=   None    Shift=    0.000
 Gap=     0.065 Goal=   None    Shift=    0.000
 RMSDP=2.09D-07 MaxDP=3.68D-05 DE=-7.32D-08 OVMax= 8.39D-05

 Cycle  14  Pass 1  IDiag  1:
 RMSU=  1.19D-07    CP:  9.56D-01  1.99D+00  8.25D-01  7.06D-01  9.15D-01
                    CP:  1.62D+00  1.73D+00  1.84D+00  1.51D+00  1.65D+00
                    CP:  1.40D+00  1.36D+00  1.09D+00
 E= -1328.77861751600     Delta-E=       -0.000000006713 Rises=F Damp=F
 DIIS: error= 1.50D-06 at cycle  14 NSaved=  14.
 NSaved=14 IEnMin=14 EnMin= -1328.77861751600     IErMin=14 ErrMin= 1.50D-06
 ErrMax= 1.50D-06  0.00D+00 EMaxC= 1.00D-01 BMatC= 4.54D-09 BMatP= 9.67D-09
 IDIUse=1 WtCom= 1.00D+00 WtEn= 0.00D+00
 Coeff-Com: -0.277D-04 0.405D-04-0.293D-03-0.680D-03-0.152D-02-0.209D-02
 Coeff-Com:  0.196D-02 0.153D-01 0.502D-02-0.343D-01-0.468D-01-0.498D-01
 Coeff-Com:  0.449D+00 0.664D+00
 Coeff:     -0.277D-04 0.405D-04-0.293D-03-0.680D-03-0.152D-02-0.209D-02
 Coeff:      0.196D-02 0.153D-01 0.502D-02-0.343D-01-0.468D-01-0.498D-01
 Coeff:      0.449D+00 0.664D+00
 Gap=     0.156 Goal=   None    Shift=    0.000
 Gap=     0.065 Goal=   None    Shift=    0.000
 RMSDP=1.36D-07 MaxDP=1.75D-05 DE=-6.71D-09 OVMax= 6.91D-05

 Cycle  15  Pass 1  IDiag  1:
 RMSU=  5.78D-08    CP:  9.56D-01  1.99D+00  8.25D-01  7.06D-01  9.15D-01
                    CP:  1.63D+00  1.73D+00  1.84D+00  1.52D+00  1.66D+00
                    CP:  1.44D+00  1.42D+00  1.33D+00  8.96D-01
 E= -1328.77861751865     Delta-E=       -0.000000002644 Rises=F Damp=F
 DIIS: error= 7.21D-07 at cycle  15 NSaved=  15.
 NSaved=15 IEnMin=15 EnMin= -1328.77861751865     IErMin=15 ErrMin= 7.21D-07
 ErrMax= 7.21D-07  0.00D+00 EMaxC= 1.00D-01 BMatC= 7.35D-10 BMatP= 4.54D-09
 IDIUse=1 WtCom= 1.00D+00 WtEn= 0.00D+00
 Coeff-Com: -0.779D-05 0.151D-04-0.922D-04-0.245D-03-0.678D-03-0.161D-02
 Coeff-Com: -0.426D-03 0.603D-02 0.820D-02 0.434D-02-0.204D-01-0.965D-01
 Coeff-Com:  0.451D-01 0.305D+00 0.752D+00
 Coeff:     -0.779D-05 0.151D-04-0.922D-04-0.245D-03-0.678D-03-0.161D-02
 Coeff:     -0.426D-03 0.603D-02 0.820D-02 0.434D-02-0.204D-01-0.965D-01
 Coeff:      0.451D-01 0.305D+00 0.752D+00
 Gap=     0.156 Goal=   None    Shift=    0.000
 Gap=     0.065 Goal=   None    Shift=    0.000
 RMSDP=5.91D-08 MaxDP=7.69D-06 DE=-2.64D-09 OVMax= 2.98D-05

 Cycle  16  Pass 1  IDiag  1:
 RMSU=  3.10D-08    CP:  9.56D-01  1.99D+00  8.25D-01  7.06D-01  9.15D-01
                    CP:  1.63D+00  1.73D+00  1.84D+00  1.52D+00  1.66D+00
                    CP:  1.44D+00  1.46D+00  1.44D+00  1.13D+00  1.06D+00
 E= -1328.77861751910     Delta-E=       -0.000000000457 Rises=F Damp=F
 DIIS: error= 4.30D-07 at cycle  16 NSaved=  16.
 NSaved=16 IEnMin=16 EnMin= -1328.77861751910     IErMin=16 ErrMin= 4.30D-07
 ErrMax= 4.30D-07  0.00D+00 EMaxC= 1.00D-01 BMatC= 3.73D-10 BMatP= 7.35D-10
 IDIUse=1 WtCom= 1.00D+00 WtEn= 0.00D+00
 Coeff-Com:  0.743D-05-0.815D-05 0.486D-04 0.813D-04 0.971D-04-0.319D-03
 Coeff-Com: -0.110D-02-0.148D-02 0.374D-02 0.139D-01 0.331D-02-0.515D-01
 Coeff-Com: -0.128D+00-0.160D-01 0.524D+00 0.653D+00
 Coeff:      0.743D-05-0.815D-05 0.486D-04 0.813D-04 0.971D-04-0.319D-03
 Coeff:     -0.110D-02-0.148D-02 0.374D-02 0.139D-01 0.331D-02-0.515D-01
 Coeff:     -0.128D+00-0.160D-01 0.524D+00 0.653D+00
 Gap=     0.156 Goal=   None    Shift=    0.000
 Gap=     0.065 Goal=   None    Shift=    0.000
 RMSDP=4.23D-08 MaxDP=4.65D-06 DE=-4.57D-10 OVMax= 2.70D-05

 Cycle  17  Pass 1  IDiag  1:
 RMSU=  1.40D-08    CP:  9.56D-01  1.99D+00  8.25D-01  7.06D-01  9.16D-01
                    CP:  1.63D+00  1.73D+00  1.84D+00  1.52D+00  1.67D+00
                    CP:  1.45D+00  1.47D+00  1.50D+00  1.24D+00  1.38D+00
                    CP:  9.33D-01
 E= -1328.77861751932     Delta-E=       -0.000000000220 Rises=F Damp=F
 DIIS: error= 1.28D-07 at cycle  17 NSaved=  17.
 NSaved=17 IEnMin=17 EnMin= -1328.77861751932     IErMin=17 ErrMin= 1.28D-07
 ErrMax= 1.28D-07  0.00D+00 EMaxC= 1.00D-01 BMatC= 2.73D-11 BMatP= 3.73D-10
 IDIUse=1 WtCom= 1.00D+00 WtEn= 0.00D+00
 Coeff-Com:  0.391D-05-0.526D-05 0.250D-04 0.472D-04 0.102D-03 0.883D-04
 Coeff-Com: -0.286D-03-0.116D-02 0.175D-03 0.327D-02 0.426D-02-0.305D-02
 Coeff-Com: -0.485D-01-0.485D-01 0.552D-01 0.179D+00 0.859D+00
 Coeff:      0.391D-05-0.526D-05 0.250D-04 0.472D-04 0.102D-03 0.883D-04
 Coeff:     -0.286D-03-0.116D-02 0.175D-03 0.327D-02 0.426D-02-0.305D-02
 Coeff:     -0.485D-01-0.485D-01 0.552D-01 0.179D+00 0.859D+00
 Gap=     0.156 Goal=   None    Shift=    0.000
 Gap=     0.065 Goal=   None    Shift=    0.000
 RMSDP=1.76D-08 MaxDP=2.02D-06 DE=-2.20D-10 OVMax= 1.11D-05

 Cycle  18  Pass 1  IDiag  1:
 RMSU=  6.61D-09    CP:  9.56D-01  1.99D+00  8.25D-01  7.06D-01  9.16D-01
                    CP:  1.63D+00  1.73D+00  1.84D+00  1.52D+00  1.67D+00
                    CP:  1.45D+00  1.48D+00  1.53D+00  1.28D+00  1.48D+00
                    CP:  1.11D+00  1.22D+00
 E= -1328.77861751940     Delta-E=       -0.000000000076 Rises=F Damp=F
 DIIS: error= 8.96D-08 at cycle  18 NSaved=  18.
 NSaved=18 IEnMin=18 EnMin= -1328.77861751940     IErMin=18 ErrMin= 8.96D-08
 ErrMax= 8.96D-08  0.00D+00 EMaxC= 1.00D-01 BMatC= 1.27D-11 BMatP= 2.73D-11
 IDIUse=1 WtCom= 1.00D+00 WtEn= 0.00D+00
 Coeff-Com:  0.887D-06-0.166D-05 0.392D-05 0.692D-05 0.447D-04 0.166D-03
 Coeff-Com:  0.169D-03-0.224D-03-0.984D-03-0.230D-02 0.157D-02 0.123D-01
 Coeff-Com:  0.910D-02-0.200D-01-0.111D+00-0.890D-01 0.482D+00 0.718D+00
 Coeff:      0.887D-06-0.166D-05 0.392D-05 0.692D-05 0.447D-04 0.166D-03
 Coeff:      0.169D-03-0.224D-03-0.984D-03-0.230D-02 0.157D-02 0.123D-01
 Coeff:      0.910D-02-0.200D-01-0.111D+00-0.890D-01 0.482D+00 0.718D+00
 Gap=     0.156 Goal=   None    Shift=    0.000
 Gap=     0.065 Goal=   None    Shift=    0.000
 RMSDP=8.62D-09 MaxDP=1.25D-06 DE=-7.64D-11 OVMax= 5.92D-06

 Cycle  19  Pass 1  IDiag  1:
 RMSU=  3.19D-09    CP:  9.56D-01  1.99D+00  8.25D-01  7.06D-01  9.16D-01
                    CP:  1.63D+00  1.73D+00  1.84D+00  1.53D+00  1.67D+00
                    CP:  1.45D+00  1.48D+00  1.54D+00  1.30D+00  1.54D+00
                    CP:  1.21D+00  1.53D+00  1.01D+00
 E= -1328.77861751935     Delta-E=        0.000000000048 Rises=F Damp=F
 DIIS: error= 5.07D-08 at cycle  19 NSaved=  19.
 NSaved=19 IEnMin=18 EnMin= -1328.77861751940     IErMin=19 ErrMin= 5.07D-08
 ErrMax= 5.07D-08  0.00D+00 EMaxC= 1.00D-01 BMatC= 2.85D-12 BMatP= 1.27D-11
 IDIUse=1 WtCom= 1.00D+00 WtEn= 0.00D+00
 Coeff-Com: -0.482D-06 0.476D-06-0.488D-05-0.116D-04-0.949D-05 0.357D-04
 Coeff-Com:  0.141D-03 0.223D-03-0.432D-03-0.174D-02-0.333D-03 0.533D-02
 Coeff-Com:  0.149D-01 0.286D-02-0.599D-01-0.801D-01-0.139D-01 0.327D+00
 Coeff-Com:  0.806D+00
 Coeff:     -0.482D-06 0.476D-06-0.488D-05-0.116D-04-0.949D-05 0.357D-04
 Coeff:      0.141D-03 0.223D-03-0.432D-03-0.174D-02-0.333D-03 0.533D-02
 Coeff:      0.149D-01 0.286D-02-0.599D-01-0.801D-01-0.139D-01 0.327D+00
 Coeff:      0.806D+00
 Gap=     0.156 Goal=   None    Shift=    0.000
 Gap=     0.065 Goal=   None    Shift=    0.000
 RMSDP=4.83D-09 MaxDP=6.10D-07 DE= 4.82D-11 OVMax= 3.15D-06

 Error on total polarization charges =  0.04463
 SCF Done:  E(UB3LYP) =  -1328.77861752     A.U. after   19 cycles
            NFock= 19  Conv=0.48D-08     -V/T= 2.0090
 <Sx>= 0.0000 <Sy>= 0.0000 <Sz>= 0.5000 <S**2>= 0.7631 S= 0.5065
 <L.S>= 0.000000000000E+00
 KE= 1.316868080273D+03 PE=-9.409129523560D+03 EE= 3.585168262554D+03
 Annihilation of the first spin contaminant:
 S**2 before annihilation     0.7631,   after     0.7501
 Leave Link  502 at Thu Dec 20 19:02:39 2018, MaxMem=  1342177280 cpu:            5673.3 elap:             360.4
 (Enter /gpfs/apps/hpc/Apps/Restricted/Gaussian/Rev_A.03/g16/l801.exe)
 DoSCS=F DFT=T ScalE2(SS,OS)=  1.000000  1.000000
 Range of M.O.s used for correlation:     1   665
 NBasis=   665 NAE=   117 NBE=   116 NFC=     0 NFV=     0
 NROrb=    665 NOA=   117 NOB=   116 NVA=   548 NVB=   549

 **** Warning!!: The smallest beta delta epsilon is  0.65285027D-01

 Leave Link  801 at Thu Dec 20 19:02:39 2018, MaxMem=  1342177280 cpu:               4.9 elap:               0.4
 (Enter /gpfs/apps/hpc/Apps/Restricted/Gaussian/Rev_A.03/g16/l1101.exe)
 Using compressed storage, NAtomX=    69.
 Will process     70 centers per pass.
 R6Disp: Adding Grimme-D3(BJ) dispersion energy 1st derivatives to the gradient.
 Leave Link 1101 at Thu Dec 20 19:02:42 2018, MaxMem=  1342177280 cpu:              41.5 elap:               2.8
 (Enter /gpfs/apps/hpc/Apps/Restricted/Gaussian/Rev_A.03/g16/l1102.exe)
 Symmetrizing basis deriv contribution to polar:
 IMax=3 JMax=2 DiffMx= 0.00D+00
 Leave Link 1102 at Thu Dec 20 19:02:42 2018, MaxMem=  1342177280 cpu:               2.2 elap:               0.2
 (Enter /gpfs/apps/hpc/Apps/Restricted/Gaussian/Rev_A.03/g16/l1110.exe)
 Forming Gx(P) for the SCF density, NAtomX=    69.
 Integral derivatives from FoFJK, PRISM(SPDF).
 Do as many integral derivatives as possible in FoFJK.
 G2DrvN: MDV=    1342172176.
 G2DrvN: will do    35 centers at a time, making    2 passes.
 G2DrvN:  IPasSy=1 do centers    0 through   34.
 Calling FoFCou, ICntrl=  3107 FMM=T I1Cent=   0 AccDes= 0.00D+00.
 FoFJK:  IHMeth= 1 ICntrl=    3107 DoSepK=F KAlg= 0 I1Cent=           0 FoldK=F
 IRaf=         0 NMat=       1 IRICut=       1 DoRegI=T DoRafI=F ISym2E= 0 IDoP0=0 IntGTp=1.
 FoFCou: FMM=T IPFlag=           0 FMFlag=      100000 FMFlg1=        2001
         NFxFlg=           0 DoJE=F BraDBF=F KetDBF=F FulRan=T
         wScrn=  0.000000 ICntrl=      3107 IOpCl=  1 I1Cent=           0 NGrid=           0
         NMat0=    1 NMatS0=      1 NMatT0=    0 NMatD0=    1 NMtDS0=    0 NMtDT0=    0
 Symmetry not used in FoFCou.
 FMM levels:  10  Number of levels for PrismC:   9
 G2DrvN:  IPasSy=1 do centers   35 through   69.
 Calling FoFCou, ICntrl=  3107 FMM=T I1Cent=   0 AccDes= 0.00D+00.
