 Entering Gaussian System, Link 0=g16
 Initial command:
 /gpfs/apps/hpc/Apps/Restricted/Gaussian/g16/Rev_B.01-AVX/g16/l1.exe "/gpfs/scratch60/fas/hammes_schiffer/jg2487/c45n01/Gau-300596.inp" -scrdir="/gpfs/scratch60/fas/hammes_schiffer/jg2487/c45n01/"
 Entering Link 1 = /gpfs/apps/hpc/Apps/Restricted/Gaussian/g16/Rev_B.01-AVX/g16/l1.exe PID=    300597.
  
 Copyright (c) 1988-2017, Gaussian, Inc.  All Rights Reserved.
  
 This is part of the Gaussian(R) 16 program.  It is based on
 the Gaussian(R) 09 system (copyright 2009, Gaussian, Inc.),
 the Gaussian(R) 03 system (copyright 2003, Gaussian, Inc.),
 the Gaussian(R) 98 system (copyright 1998, Gaussian, Inc.),
 the Gaussian(R) 94 system (copyright 1995, Gaussian, Inc.),
 the Gaussian 92(TM) system (copyright 1992, Gaussian, Inc.),
 the Gaussian 90(TM) system (copyright 1990, Gaussian, Inc.),
 the Gaussian 88(TM) system (copyright 1988, Gaussian, Inc.),
 the Gaussian 86(TM) system (copyright 1986, Carnegie Mellon
 University), and the Gaussian 82(TM) system (copyright 1983,
 Carnegie Mellon University). Gaussian is a federally registered
 trademark of Gaussian, Inc.
  
 This software contains proprietary and confidential information,
 including trade secrets, belonging to Gaussian, Inc.
  
 This software is provided under written license and may be
 used, copied, transmitted, or stored only in accord with that
 written license.
  
 The following legend is applicable only to US Government
 contracts under FAR:
  
                    RESTRICTED RIGHTS LEGEND
  
 Use, reproduction and disclosure by the US Government is
 subject to restrictions as set forth in subparagraphs (a)
 and (c) of the Commercial Computer Software - Restricted
 Rights clause in FAR 52.227-19.
  
 Gaussian, Inc.
 340 Quinnipiac St., Bldg. 40, Wallingford CT 06492
  
  
 ---------------------------------------------------------------
 Warning -- This program may not be used in any manner that
 competes with the business of Gaussian, Inc. or will provide
 assistance to any competitor of Gaussian, Inc.  The licensee
 of this program is prohibited from giving any competitor of
 Gaussian, Inc. access to this program.  By using this program,
 the user acknowledges that Gaussian, Inc. is engaged in the
 business of creating and licensing software in the field of
 computational chemistry and represents and warrants to the
 licensee that it is not a competitor of Gaussian, Inc. and that
 it will not use this program in any manner prohibited above.
 ---------------------------------------------------------------
  

 Cite this work as:
 Gaussian 16, Revision B.01,
 M. J. Frisch, G. W. Trucks, H. B. Schlegel, G. E. Scuseria, 
 M. A. Robb, J. R. Cheeseman, G. Scalmani, V. Barone, 
 G. A. Petersson, H. Nakatsuji, X. Li, M. Caricato, A. V. Marenich, 
 J. Bloino, B. G. Janesko, R. Gomperts, B. Mennucci, H. P. Hratchian, 
 J. V. Ortiz, A. F. Izmaylov, J. L. Sonnenberg, D. Williams-Young, 
 F. Ding, F. Lipparini, F. Egidi, J. Goings, B. Peng, A. Petrone, 
 T. Henderson, D. Ranasinghe, V. G. Zakrzewski, J. Gao, N. Rega, 
 G. Zheng, W. Liang, M. Hada, M. Ehara, K. Toyota, R. Fukuda, 
 J. Hasegawa, M. Ishida, T. Nakajima, Y. Honda, O. Kitao, H. Nakai, 
 T. Vreven, K. Throssell, J. A. Montgomery, Jr., J. E. Peralta, 
 F. Ogliaro, M. J. Bearpark, J. J. Heyd, E. N. Brothers, K. N. Kudin, 
 V. N. Staroverov, T. A. Keith, R. Kobayashi, J. Normand, 
 K. Raghavachari, A. P. Rendell, J. C. Burant, S. S. Iyengar, 
 J. Tomasi, M. Cossi, J. M. Millam, M. Klene, C. Adamo, R. Cammi, 
 J. W. Ochterski, R. L. Martin, K. Morokuma, O. Farkas, 
 J. B. Foresman, and D. J. Fox, Gaussian, Inc., Wallingford CT, 2016.
 
 ******************************************
 Gaussian 16:  ES64L-G16RevB.01 20-Dec-2017
                13-Feb-2019 
 ******************************************
 %chk=amide-monoBIP-E2PTz.chk
 %mem=10GB
 %nprocshared=16
 Will use up to   16 processors via shared memory.
 ----------------------------------------------------------------
 #p freq(ReadFC,InternalModes) Geom(AllCheck) NoSymm scale=0.9631
 ----------------------------------------------------------------
 1/18=20,29=7,38=1,114=963100/1,3;
 2/9=110,12=2,15=1,40=1/2;
 7/8=21,25=11,30=1/16;
 99/5=2/99;
 Leave Link    1 at Wed Feb 13 10:02:30 2019, MaxMem=  1342177280 cpu:               8.8 elap:               0.6
 (Enter /gpfs/apps/hpc/Apps/Restricted/Gaussian/g16/Rev_B.01-AVX/g16/l101.exe)
 Structure from the checkpoint file:  "amide-monoBIP-E2PTz.chk"
 ----------------------------------------------------------------------
 Simple amide-monoBIP E2PT optimization, final proton on amide nitrogen
 ----------------------------------------------------------------------
 Charge =  1 Multiplicity = 2
 Redundant internal coordinates found in file.  (old form).
 C,0,-0.4689405989,2.6386371577,0.4507353928
 C,0,-1.8602496412,2.9239417478,0.3220822063
 C,0,-2.3616829923,4.2151176566,0.2104549017
 C,0,-1.437140549,5.2623163422,0.2268298841
 C,0,-0.0670410122,5.0235312139,0.3530755974
 C,0,0.4525797958,3.7201279349,0.4702517538
 C,0,-1.4902996546,0.7468335199,0.4433027122
 H,0,-3.4234412567,4.4017529304,0.1090012468
 H,0,-1.7880227952,6.2826107795,0.140932822
 H,0,0.59463746,5.8800659736,0.3615107908
 N,0,-2.4677469014,1.6937350919,0.3248898419
 C,0,-3.1298089688,-1.1891317835,0.3536711794
 C,0,-1.7547634152,-0.6814840821,0.4536690391
 C,0,-0.6917647533,-1.5584479283,0.5340140168
 C,0,-0.8852995264,-2.9531670294,0.5270816687
 C,0,-2.2050095563,-3.4515021997,0.4381223926
 C,0,-3.3218890284,-2.6445415251,0.3534740023
 H,0,0.3088177379,-1.149963633,0.5956600388
 H,0,-2.3408014122,-4.5214642458,0.4345827025
 C,0,0.33098688,-3.8685050712,0.5884728483
 C,0,-4.7309296014,-3.2268553335,0.2590930896
 O,0,-4.1012025319,-0.3922043944,0.2665281433
 N,0,-0.2671480353,1.289897248,0.5251639005
 C,0,1.8654920492,3.4497029847,0.6059741901
 C,0,1.2042139269,-3.5962037308,-0.6571312786
 H,0,1.5175750828,-2.5510408555,-0.7010253469
 H,0,2.1007696562,-4.2207264888,-0.6198290787
 H,0,0.6592554556,-3.8316006172,-1.5746467939
 C,0,1.148680624,-3.5424775292,1.8568220432
 H,0,0.5622007783,-3.7292743194,2.7596341682
 H,0,2.0377583889,-4.1776414826,1.8878801077
 H,0,1.4765132219,-2.5008300537,1.8675111524
 C,0,-0.0477022557,-5.3549479938,0.6131402216
 H,0,-0.6499445951,-5.6041914488,1.4906979011
 H,0,-0.6024409638,-5.6451972245,-0.2828415591
 H,0,0.863134069,-5.9563532077,0.6510227858
 C,0,-5.3864610616,-2.793171123,-1.0715479556
 H,0,-6.3904999605,-3.2215217154,-1.1356572984
 H,0,-5.4642564809,-1.7093949749,-1.1418150746
 H,0,-4.8065933827,-3.159156076,-1.9231427408
 C,0,-5.5793530046,-2.7290287898,1.4513811962
 H,0,-5.686010526,-1.6458502234,1.4315381504
 H,0,-6.5732098527,-3.182756271,1.4056418952
 H,0,-5.1156618182,-3.017470033,2.3985101877
 C,0,-4.7133614955,-4.7633310044,0.2978380744
 H,0,-4.1500991043,-5.1840574022,-0.5392156124
 H,0,-4.2803773353,-5.1399355687,1.2281967606
 H,0,-5.739564604,-5.1307431728,0.2306227728
 O,0,2.4451184986,2.402181021,0.7196803422
 N,0,2.7748698278,4.6977020536,0.6121922521
 H,0,2.6505613122,5.2832402493,-0.218718978
 H,0,3.7418758358,4.3641439497,0.630981565
 H,0,-3.4483693881,1.4393500469,0.2546890528
 H,0,2.6199641591,5.278684321,1.441720546
 Recover connectivity data from disk.
 ITRead=  0  0  0  0  0  0  0  0  0  0  0  0  0  0  0  0  0  0  0  0
 ITRead=  0  0  0  0  0  0  0  0  0  0  0  0  0  0  0  0  0  0  0  0
 ITRead=  0  0  0  0  0  0  0  0  0  0  0  0  0  0
 MicOpt= -1 -1 -1 -1 -1 -1 -1 -1 -1 -1 -1 -1 -1 -1 -1 -1 -1 -1 -1 -1
 MicOpt= -1 -1 -1 -1 -1 -1 -1 -1 -1 -1 -1 -1 -1 -1 -1 -1 -1 -1 -1 -1
 MicOpt= -1 -1 -1 -1 -1 -1 -1 -1 -1 -1 -1 -1 -1 -1
 NAtoms=     54 NQM=       54 NQMF=       0 NMMI=      0 NMMIF=      0
                NMic=       0 NMicF=      0.
                    Isotopes and Nuclear Properties:
 (Nuclear quadrupole moments (NQMom) in fm**2, nuclear magnetic moments (NMagM)
  in nuclear magnetons)

  Atom         1           2           3           4           5           6           7           8           9          10
 IAtWgt=          12          12          12          12          12          12          12           1           1           1
 AtmWgt=  12.0000000  12.0000000  12.0000000  12.0000000  12.0000000  12.0000000  12.0000000   1.0078250   1.0078250   1.0078250
 NucSpn=           0           0           0           0           0           0           0           1           1           1
 AtZEff=   3.6000000   3.6000000   3.6000000   3.6000000   3.6000000   3.6000000   3.6000000   1.0000000   1.0000000   1.0000000
 NQMom=    0.0000000   0.0000000   0.0000000   0.0000000   0.0000000   0.0000000   0.0000000   0.0000000   0.0000000   0.0000000
 NMagM=    0.0000000   0.0000000   0.0000000   0.0000000   0.0000000   0.0000000   0.0000000   2.7928460   2.7928460   2.7928460
 AtZNuc=   6.0000000   6.0000000   6.0000000   6.0000000   6.0000000   6.0000000   6.0000000   1.0000000   1.0000000   1.0000000

  Atom        11          12          13          14          15          16          17          18          19          20
 IAtWgt=          14          12          12          12          12          12          12           1           1          12
 AtmWgt=  14.0030740  12.0000000  12.0000000  12.0000000  12.0000000  12.0000000  12.0000000   1.0078250   1.0078250  12.0000000
 NucSpn=           2           0           0           0           0           0           0           1           1           0
 AtZEff=   4.5500000   3.6000000   3.6000000   3.6000000   3.6000000   3.6000000   3.6000000   1.0000000   1.0000000   3.6000000
 NQMom=    2.0440000   0.0000000   0.0000000   0.0000000   0.0000000   0.0000000   0.0000000   0.0000000   0.0000000   0.0000000
 NMagM=    0.4037610   0.0000000   0.0000000   0.0000000   0.0000000   0.0000000   0.0000000   2.7928460   2.7928460   0.0000000
 AtZNuc=   7.0000000   6.0000000   6.0000000   6.0000000   6.0000000   6.0000000   6.0000000   1.0000000   1.0000000   6.0000000

  Atom        21          22          23          24          25          26          27          28          29          30
 IAtWgt=          12          16          14          12          12           1           1           1          12           1
 AtmWgt=  12.0000000  15.9949146  14.0030740  12.0000000  12.0000000   1.0078250   1.0078250   1.0078250  12.0000000   1.0078250
 NucSpn=           0           0           2           0           0           1           1           1           0           1
 AtZEff=   3.6000000   5.6000000   4.5500000   3.6000000   3.6000000   1.0000000   1.0000000   1.0000000   3.6000000   1.0000000
 NQMom=    0.0000000   0.0000000   2.0440000   0.0000000   0.0000000   0.0000000   0.0000000   0.0000000   0.0000000   0.0000000
 NMagM=    0.0000000   0.0000000   0.4037610   0.0000000   0.0000000   2.7928460   2.7928460   2.7928460   0.0000000   2.7928460
 AtZNuc=   6.0000000   8.0000000   7.0000000   6.0000000   6.0000000   1.0000000   1.0000000   1.0000000   6.0000000   1.0000000

  Atom        31          32          33          34          35          36          37          38          39          40
 IAtWgt=           1           1          12           1           1           1          12           1           1           1
 AtmWgt=   1.0078250   1.0078250  12.0000000   1.0078250   1.0078250   1.0078250  12.0000000   1.0078250   1.0078250   1.0078250
 NucSpn=           1           1           0           1           1           1           0           1           1           1
 AtZEff=   1.0000000   1.0000000   3.6000000   1.0000000   1.0000000   1.0000000   3.6000000   1.0000000   1.0000000   1.0000000
 NQMom=    0.0000000   0.0000000   0.0000000   0.0000000   0.0000000   0.0000000   0.0000000   0.0000000   0.0000000   0.0000000
 NMagM=    2.7928460   2.7928460   0.0000000   2.7928460   2.7928460   2.7928460   0.0000000   2.7928460   2.7928460   2.7928460
 AtZNuc=   1.0000000   1.0000000   6.0000000   1.0000000   1.0000000   1.0000000   6.0000000   1.0000000   1.0000000   1.0000000

  Atom        41          42          43          44          45          46          47          48          49          50
 IAtWgt=          12           1           1           1          12           1           1           1          16          14
 AtmWgt=  12.0000000   1.0078250   1.0078250   1.0078250  12.0000000   1.0078250   1.0078250   1.0078250  15.9949146  14.0030740
 NucSpn=           0           1           1           1           0           1           1           1           0           2
 AtZEff=   3.6000000   1.0000000   1.0000000   1.0000000   3.6000000   1.0000000   1.0000000   1.0000000   5.6000000   4.5500000
 NQMom=    0.0000000   0.0000000   0.0000000   0.0000000   0.0000000   0.0000000   0.0000000   0.0000000   0.0000000   2.0440000
 NMagM=    0.0000000   2.7928460   2.7928460   2.7928460   0.0000000   2.7928460   2.7928460   2.7928460   0.0000000   0.4037610
 AtZNuc=   6.0000000   1.0000000   1.0000000   1.0000000   6.0000000   1.0000000   1.0000000   1.0000000   8.0000000   7.0000000

  Atom        51          52          53          54
 IAtWgt=           1           1           1           1
 AtmWgt=   1.0078250   1.0078250   1.0078250   1.0078250
 NucSpn=           1           1           1           1
 AtZEff=   1.0000000   1.0000000   1.0000000   1.0000000
 NQMom=    0.0000000   0.0000000   0.0000000   0.0000000
 NMagM=    2.7928460   2.7928460   2.7928460   2.7928460
 AtZNuc=   1.0000000   1.0000000   1.0000000   1.0000000
 Leave Link  101 at Wed Feb 13 10:02:30 2019, MaxMem=  1342177280 cpu:               5.7 elap:               0.4
 (Enter /gpfs/apps/hpc/Apps/Restricted/Gaussian/g16/Rev_B.01-AVX/g16/l103.exe)

 GradGradGradGradGradGradGradGradGradGradGradGradGradGradGradGradGradGrad
 Berny optimization.
 Initialization pass.
                           ----------------------------
                           !    Initial Parameters    !
                           ! (Angstroms and Degrees)  !
 --------------------------                            --------------------------
 ! Name  Definition              Value          Derivative Info.                !
 --------------------------------------------------------------------------------
 ! R1    R(1,2)                  1.4261         estimate D2E/DX2                !
 ! R2    R(1,6)                  1.421          estimate D2E/DX2                !
 ! R3    R(1,23)                 1.3658         estimate D2E/DX2                !
 ! R4    R(2,3)                  1.3896         estimate D2E/DX2                !
 ! R5    R(2,11)                 1.372          estimate D2E/DX2                !
 ! R6    R(3,4)                  1.397          estimate D2E/DX2                !
 ! R7    R(3,8)                  1.0828         estimate D2E/DX2                !
 ! R8    R(4,5)                  1.3965         estimate D2E/DX2                !
 ! R9    R(4,9)                  1.0824         estimate D2E/DX2                !
 ! R10   R(5,6)                  1.408          estimate D2E/DX2                !
 ! R11   R(5,10)                 1.0824         estimate D2E/DX2                !
 ! R12   R(6,24)                 1.4449         estimate D2E/DX2                !
 ! R13   R(7,11)                 1.366          estimate D2E/DX2                !
 ! R14   R(7,13)                 1.4526         estimate D2E/DX2                !
 ! R15   R(7,23)                 1.3408         estimate D2E/DX2                !
 ! R16   R(11,53)                1.0155         estimate D2E/DX2                !
 ! R17   R(12,13)                1.4692         estimate D2E/DX2                !
 ! R18   R(12,17)                1.468          estimate D2E/DX2                !
 ! R19   R(12,22)                1.2595         estimate D2E/DX2                !
 ! R20   R(13,14)                1.3804         estimate D2E/DX2                !
 ! R21   R(14,15)                1.4081         estimate D2E/DX2                !
 ! R22   R(14,18)                1.0825         estimate D2E/DX2                !
 ! R23   R(15,16)                1.4135         estimate D2E/DX2                !
 ! R24   R(15,20)                1.5235         estimate D2E/DX2                !
 ! R25   R(16,17)                1.3805         estimate D2E/DX2                !
 ! R26   R(16,19)                1.0786         estimate D2E/DX2                !
 ! R27   R(17,21)                1.5275         estimate D2E/DX2                !
 ! R28   R(20,25)                1.5454         estimate D2E/DX2                !
 ! R29   R(20,29)                1.5439         estimate D2E/DX2                !
 ! R30   R(20,33)                1.5341         estimate D2E/DX2                !
 ! R31   R(21,37)                1.5454         estimate D2E/DX2                !
 ! R32   R(21,41)                1.5457         estimate D2E/DX2                !
 ! R33   R(21,45)                1.5371         estimate D2E/DX2                !
 ! R34   R(24,49)                1.2026         estimate D2E/DX2                !
 ! R35   R(24,50)                1.5442         estimate D2E/DX2                !
 ! R36   R(25,26)                1.092          estimate D2E/DX2                !
 ! R37   R(25,27)                1.0933         estimate D2E/DX2                !
 ! R38   R(25,28)                1.0928         estimate D2E/DX2                !
 ! R39   R(29,30)                1.0927         estimate D2E/DX2                !
 ! R40   R(29,31)                1.0931         estimate D2E/DX2                !
 ! R41   R(29,32)                1.0921         estimate D2E/DX2                !
 ! R42   R(33,34)                1.0931         estimate D2E/DX2                !
 ! R43   R(33,35)                1.0931         estimate D2E/DX2                !
 ! R44   R(33,36)                1.0921         estimate D2E/DX2                !
 ! R45   R(37,38)                1.0935         estimate D2E/DX2                !
 ! R46   R(37,39)                1.0888         estimate D2E/DX2                !
 ! R47   R(37,40)                1.0933         estimate D2E/DX2                !
 ! R48   R(41,42)                1.0886         estimate D2E/DX2                !
 ! R49   R(41,43)                1.0935         estimate D2E/DX2                !
 ! R50   R(41,44)                1.0933         estimate D2E/DX2                !
 ! R51   R(45,46)                1.0931         estimate D2E/DX2                !
 ! R52   R(45,47)                1.0931         estimate D2E/DX2                !
 ! R53   R(45,48)                1.0921         estimate D2E/DX2                !
 ! R54   R(50,51)                1.0241         estimate D2E/DX2                !
 ! R55   R(50,52)                1.0231         estimate D2E/DX2                !
 ! R56   R(50,54)                1.0245         estimate D2E/DX2                !
 ! A1    A(2,1,6)              118.7946         estimate D2E/DX2                !
 ! A2    A(2,1,23)             110.2813         estimate D2E/DX2                !
 ! A3    A(6,1,23)             130.9214         estimate D2E/DX2                !
 ! A4    A(1,2,3)              123.0372         estimate D2E/DX2                !
 ! A5    A(1,2,11)             104.6202         estimate D2E/DX2                !
 ! A6    A(3,2,11)             132.3384         estimate D2E/DX2                !
 ! A7    A(2,3,4)              117.1774         estimate D2E/DX2                !
 ! A8    A(2,3,8)              121.4337         estimate D2E/DX2                !
 ! A9    A(4,3,8)              121.3879         estimate D2E/DX2                !
 ! A10   A(3,4,5)              121.4788         estimate D2E/DX2                !
 ! A11   A(3,4,9)              119.4154         estimate D2E/DX2                !
 ! A12   A(5,4,9)              119.1058         estimate D2E/DX2                !
 ! A13   A(4,5,6)              121.862          estimate D2E/DX2                !
 ! A14   A(4,5,10)             117.721          estimate D2E/DX2                !
 ! A15   A(6,5,10)             120.4168         estimate D2E/DX2                !
 ! A16   A(1,6,5)              117.6491         estimate D2E/DX2                !
 ! A17   A(1,6,24)             119.5367         estimate D2E/DX2                !
 ! A18   A(5,6,24)             122.8141         estimate D2E/DX2                !
 ! A19   A(11,7,13)            123.499          estimate D2E/DX2                !
 ! A20   A(11,7,23)            112.1659         estimate D2E/DX2                !
 ! A21   A(13,7,23)            124.3261         estimate D2E/DX2                !
 ! A22   A(2,11,7)             107.751          estimate D2E/DX2                !
 ! A23   A(2,11,53)            130.6945         estimate D2E/DX2                !
 ! A24   A(7,11,53)            121.5543         estimate D2E/DX2                !
 ! A25   A(13,12,17)           117.7123         estimate D2E/DX2                !
 ! A26   A(13,12,22)           120.526          estimate D2E/DX2                !
 ! A27   A(17,12,22)           121.7612         estimate D2E/DX2                !
 ! A28   A(7,13,12)            120.6411         estimate D2E/DX2                !
 ! A29   A(7,13,14)            119.0049         estimate D2E/DX2                !
 ! A30   A(12,13,14)           120.3432         estimate D2E/DX2                !
 ! A31   A(13,14,15)           121.5428         estimate D2E/DX2                !
 ! A32   A(13,14,18)           118.3837         estimate D2E/DX2                !
 ! A33   A(15,14,18)           120.0719         estimate D2E/DX2                !
 ! A34   A(14,15,16)           118.545          estimate D2E/DX2                !
 ! A35   A(14,15,20)           119.0246         estimate D2E/DX2                !
 ! A36   A(16,15,20)           122.4197         estimate D2E/DX2                !
 ! A37   A(15,16,17)           123.5833         estimate D2E/DX2                !
 ! A38   A(15,16,19)           117.873          estimate D2E/DX2                !
 ! A39   A(17,16,19)           118.5436         estimate D2E/DX2                !
 ! A40   A(12,17,16)           118.2717         estimate D2E/DX2                !
 ! A41   A(12,17,21)           119.9095         estimate D2E/DX2                !
 ! A42   A(16,17,21)           121.8187         estimate D2E/DX2                !
 ! A43   A(15,20,25)           108.2265         estimate D2E/DX2                !
 ! A44   A(15,20,29)           109.212          estimate D2E/DX2                !
 ! A45   A(15,20,33)           112.6889         estimate D2E/DX2                !
 ! A46   A(25,20,29)           109.0069         estimate D2E/DX2                !
 ! A47   A(25,20,33)           108.8546         estimate D2E/DX2                !
 ! A48   A(29,20,33)           108.7921         estimate D2E/DX2                !
 ! A49   A(17,21,37)           109.7238         estimate D2E/DX2                !
 ! A50   A(17,21,41)           109.6257         estimate D2E/DX2                !
 ! A51   A(17,21,45)           111.6517         estimate D2E/DX2                !
 ! A52   A(37,21,41)           109.9342         estimate D2E/DX2                !
 ! A53   A(37,21,45)           107.8824         estimate D2E/DX2                !
 ! A54   A(41,21,45)           107.9856         estimate D2E/DX2                !
 ! A55   A(1,23,7)             105.1808         estimate D2E/DX2                !
 ! A56   A(6,24,49)            130.031          estimate D2E/DX2                !
 ! A57   A(6,24,50)            115.1489         estimate D2E/DX2                !
 ! A58   A(49,24,50)           114.8195         estimate D2E/DX2                !
 ! A59   A(20,25,26)           111.2962         estimate D2E/DX2                !
 ! A60   A(20,25,27)           109.5865         estimate D2E/DX2                !
 ! A61   A(20,25,28)           110.9156         estimate D2E/DX2                !
 ! A62   A(26,25,27)           108.2271         estimate D2E/DX2                !
 ! A63   A(26,25,28)           108.392          estimate D2E/DX2                !
 ! A64   A(27,25,28)           108.3336         estimate D2E/DX2                !
 ! A65   A(20,29,30)           111.0023         estimate D2E/DX2                !
 ! A66   A(20,29,31)           109.3547         estimate D2E/DX2                !
 ! A67   A(20,29,32)           111.6203         estimate D2E/DX2                !
 ! A68   A(30,29,31)           108.2854         estimate D2E/DX2                !
 ! A69   A(30,29,32)           108.4273         estimate D2E/DX2                !
 ! A70   A(31,29,32)           108.047          estimate D2E/DX2                !
 ! A71   A(20,33,34)           111.705          estimate D2E/DX2                !
 ! A72   A(20,33,35)           111.6777         estimate D2E/DX2                !
 ! A73   A(20,33,36)           109.1624         estimate D2E/DX2                !
 ! A74   A(34,33,35)           108.5362         estimate D2E/DX2                !
 ! A75   A(34,33,36)           107.8229         estimate D2E/DX2                !
 ! A76   A(35,33,36)           107.7867         estimate D2E/DX2                !
 ! A77   A(21,37,38)           109.2705         estimate D2E/DX2                !
 ! A78   A(21,37,39)           111.4191         estimate D2E/DX2                !
 ! A79   A(21,37,40)           110.5932         estimate D2E/DX2                !
 ! A80   A(38,37,39)           108.6947         estimate D2E/DX2                !
 ! A81   A(38,37,40)           108.0706         estimate D2E/DX2                !
 ! A82   A(39,37,40)           108.712          estimate D2E/DX2                !
 ! A83   A(21,41,42)           111.1116         estimate D2E/DX2                !
 ! A84   A(21,41,43)           109.4495         estimate D2E/DX2                !
 ! A85   A(21,41,44)           110.5159         estimate D2E/DX2                !
 ! A86   A(42,41,43)           108.848          estimate D2E/DX2                !
 ! A87   A(42,41,44)           108.6547         estimate D2E/DX2                !
 ! A88   A(43,41,44)           108.1948         estimate D2E/DX2                !
 ! A89   A(21,45,46)           111.7972         estimate D2E/DX2                !
 ! A90   A(21,45,47)           111.7389         estimate D2E/DX2                !
 ! A91   A(21,45,48)           108.9061         estimate D2E/DX2                !
 ! A92   A(46,45,47)           108.3625         estimate D2E/DX2                !
 ! A93   A(46,45,48)           107.9134         estimate D2E/DX2                !
 ! A94   A(47,45,48)           107.9803         estimate D2E/DX2                !
 ! A95   A(24,50,51)           112.7898         estimate D2E/DX2                !
 ! A96   A(24,50,52)           107.0497         estimate D2E/DX2                !
 ! A97   A(24,50,54)           111.8714         estimate D2E/DX2                !
 ! A98   A(51,50,52)           108.4242         estimate D2E/DX2                !
 ! A99   A(51,50,54)           108.3221         estimate D2E/DX2                !
 ! A100  A(52,50,54)           108.2354         estimate D2E/DX2                !
 ! D1    D(6,1,2,3)              0.1865         estimate D2E/DX2                !
 ! D2    D(6,1,2,11)           179.5243         estimate D2E/DX2                !
 ! D3    D(23,1,2,3)          -179.2866         estimate D2E/DX2                !
 ! D4    D(23,1,2,11)            0.0512         estimate D2E/DX2                !
 ! D5    D(2,1,6,5)             -0.3309         estimate D2E/DX2                !
 ! D6    D(2,1,6,24)           179.7246         estimate D2E/DX2                !
 ! D7    D(23,1,6,5)           179.015          estimate D2E/DX2                !
 ! D8    D(23,1,6,24)           -0.9294         estimate D2E/DX2                !
 ! D9    D(2,1,23,7)             0.1156         estimate D2E/DX2                !
 ! D10   D(6,1,23,7)          -179.2733         estimate D2E/DX2                !
 ! D11   D(1,2,3,4)              0.0549         estimate D2E/DX2                !
 ! D12   D(1,2,3,8)            179.6926         estimate D2E/DX2                !
 ! D13   D(11,2,3,4)          -179.0782         estimate D2E/DX2                !
 ! D14   D(11,2,3,8)             0.5595         estimate D2E/DX2                !
 ! D15   D(1,2,11,7)            -0.196          estimate D2E/DX2                !
 ! D16   D(1,2,11,53)          179.9521         estimate D2E/DX2                !
 ! D17   D(3,2,11,7)           179.053          estimate D2E/DX2                !
 ! D18   D(3,2,11,53)           -0.799          estimate D2E/DX2                !
 ! D19   D(2,3,4,5)             -0.1445         estimate D2E/DX2                !
 ! D20   D(2,3,4,9)            179.9195         estimate D2E/DX2                !
 ! D21   D(8,3,4,5)           -179.7823         estimate D2E/DX2                !
 ! D22   D(8,3,4,9)              0.2817         estimate D2E/DX2                !
 ! D23   D(3,4,5,6)             -0.0107         estimate D2E/DX2                !
 ! D24   D(3,4,5,10)          -179.8326         estimate D2E/DX2                !
 ! D25   D(9,4,5,6)            179.9255         estimate D2E/DX2                !
 ! D26   D(9,4,5,10)             0.1036         estimate D2E/DX2                !
 ! D27   D(4,5,6,1)              0.2524         estimate D2E/DX2                !
 ! D28   D(4,5,6,24)          -179.8052         estimate D2E/DX2                !
 ! D29   D(10,5,6,1)          -179.9304         estimate D2E/DX2                !
 ! D30   D(10,5,6,24)            0.012          estimate D2E/DX2                !
 ! D31   D(1,6,24,49)           -0.4116         estimate D2E/DX2                !
 ! D32   D(1,6,24,50)          179.8726         estimate D2E/DX2                !
 ! D33   D(5,6,24,49)          179.647          estimate D2E/DX2                !
 ! D34   D(5,6,24,50)           -0.0689         estimate D2E/DX2                !
 ! D35   D(13,7,11,2)         -178.6639         estimate D2E/DX2                !
 ! D36   D(13,7,11,53)           1.2043         estimate D2E/DX2                !
 ! D37   D(23,7,11,2)            0.2883         estimate D2E/DX2                !
 ! D38   D(23,7,11,53)        -179.8434         estimate D2E/DX2                !
 ! D39   D(11,7,13,12)          -0.9143         estimate D2E/DX2                !
 ! D40   D(11,7,13,14)         177.894          estimate D2E/DX2                !
 ! D41   D(23,7,13,12)        -179.7393         estimate D2E/DX2                !
 ! D42   D(23,7,13,14)          -0.931          estimate D2E/DX2                !
 ! D43   D(11,7,23,1)           -0.2477         estimate D2E/DX2                !
 ! D44   D(13,7,23,1)          178.6944         estimate D2E/DX2                !
 ! D45   D(17,12,13,7)         179.2521         estimate D2E/DX2                !
 ! D46   D(17,12,13,14)          0.4597         estimate D2E/DX2                !
 ! D47   D(22,12,13,7)          -0.4843         estimate D2E/DX2                !
 ! D48   D(22,12,13,14)       -179.2767         estimate D2E/DX2                !
 ! D49   D(13,12,17,16)         -0.4089         estimate D2E/DX2                !
 ! D50   D(13,12,17,21)        179.6777         estimate D2E/DX2                !
 ! D51   D(22,12,17,16)        179.324          estimate D2E/DX2                !
 ! D52   D(22,12,17,21)         -0.5894         estimate D2E/DX2                !
 ! D53   D(7,13,14,15)        -179.0011         estimate D2E/DX2                !
 ! D54   D(7,13,14,18)           0.5265         estimate D2E/DX2                !
 ! D55   D(12,13,14,15)         -0.1892         estimate D2E/DX2                !
 ! D56   D(12,13,14,18)        179.3384         estimate D2E/DX2                !
 ! D57   D(13,14,15,16)         -0.1349         estimate D2E/DX2                !
 ! D58   D(13,14,15,20)        178.7084         estimate D2E/DX2                !
 ! D59   D(18,14,15,16)       -179.6547         estimate D2E/DX2                !
 ! D60   D(18,14,15,20)         -0.8113         estimate D2E/DX2                !
 ! D61   D(14,15,16,17)          0.1828         estimate D2E/DX2                !
 ! D62   D(14,15,16,19)       -179.9459         estimate D2E/DX2                !
 ! D63   D(20,15,16,17)       -178.6191         estimate D2E/DX2                !
 ! D64   D(20,15,16,19)          1.2522         estimate D2E/DX2                !
 ! D65   D(14,15,20,25)        -61.2109         estimate D2E/DX2                !
 ! D66   D(14,15,20,29)         57.3348         estimate D2E/DX2                !
 ! D67   D(14,15,20,33)        178.3615         estimate D2E/DX2                !
 ! D68   D(16,15,20,25)        117.5855         estimate D2E/DX2                !
 ! D69   D(16,15,20,29)       -123.8688         estimate D2E/DX2                !
 ! D70   D(16,15,20,33)         -2.8422         estimate D2E/DX2                !
 ! D71   D(15,16,17,12)          0.0979         estimate D2E/DX2                !
 ! D72   D(15,16,17,21)       -179.9904         estimate D2E/DX2                !
 ! D73   D(19,16,17,12)       -179.7726         estimate D2E/DX2                !
 ! D74   D(19,16,17,21)          0.1391         estimate D2E/DX2                !
 ! D75   D(12,17,21,37)         61.3775         estimate D2E/DX2                !
 ! D76   D(12,17,21,41)        -59.4445         estimate D2E/DX2                !
 ! D77   D(12,17,21,45)       -179.0656         estimate D2E/DX2                !
 ! D78   D(16,17,21,37)       -118.5328         estimate D2E/DX2                !
 ! D79   D(16,17,21,41)        120.6452         estimate D2E/DX2                !
 ! D80   D(16,17,21,45)          1.0241         estimate D2E/DX2                !
 ! D81   D(15,20,25,26)         58.5932         estimate D2E/DX2                !
 ! D82   D(15,20,25,27)        178.2647         estimate D2E/DX2                !
 ! D83   D(15,20,25,28)        -62.1708         estimate D2E/DX2                !
 ! D84   D(29,20,25,26)        -60.0828         estimate D2E/DX2                !
 ! D85   D(29,20,25,27)         59.5887         estimate D2E/DX2                !
 ! D86   D(29,20,25,28)        179.1532         estimate D2E/DX2                !
 ! D87   D(33,20,25,26)       -178.6155         estimate D2E/DX2                !
 ! D88   D(33,20,25,27)        -58.944          estimate D2E/DX2                !
 ! D89   D(33,20,25,28)         60.6205         estimate D2E/DX2                !
 ! D90   D(15,20,29,30)         62.252          estimate D2E/DX2                !
 ! D91   D(15,20,29,31)       -178.3375         estimate D2E/DX2                !
 ! D92   D(15,20,29,32)        -58.8375         estimate D2E/DX2                !
 ! D93   D(25,20,29,30)       -179.6906         estimate D2E/DX2                !
 ! D94   D(25,20,29,31)        -60.2801         estimate D2E/DX2                !
 ! D95   D(25,20,29,32)         59.2199         estimate D2E/DX2                !
 ! D96   D(33,20,29,30)        -61.1186         estimate D2E/DX2                !
 ! D97   D(33,20,29,31)         58.2919         estimate D2E/DX2                !
 ! D98   D(33,20,29,32)        177.7918         estimate D2E/DX2                !
 ! D99   D(15,20,33,34)        -61.185          estimate D2E/DX2                !
 ! D100  D(15,20,33,35)         60.5794         estimate D2E/DX2                !
 ! D101  D(15,20,33,36)        179.6663         estimate D2E/DX2                !
 ! D102  D(25,20,33,34)        178.7487         estimate D2E/DX2                !
 ! D103  D(25,20,33,35)        -59.487          estimate D2E/DX2                !
 ! D104  D(25,20,33,36)         59.5999         estimate D2E/DX2                !
 ! D105  D(29,20,33,34)         60.081          estimate D2E/DX2                !
 ! D106  D(29,20,33,35)       -178.1546         estimate D2E/DX2                !
 ! D107  D(29,20,33,36)        -59.0677         estimate D2E/DX2                !
 ! D108  D(17,21,37,38)        179.4706         estimate D2E/DX2                !
 ! D109  D(17,21,37,39)        -60.4044         estimate D2E/DX2                !
 ! D110  D(17,21,37,40)         60.6286         estimate D2E/DX2                !
 ! D111  D(41,21,37,38)        -59.8941         estimate D2E/DX2                !
 ! D112  D(41,21,37,39)         60.2309         estimate D2E/DX2                !
 ! D113  D(41,21,37,40)       -178.736          estimate D2E/DX2                !
 ! D114  D(45,21,37,38)         57.6316         estimate D2E/DX2                !
 ! D115  D(45,21,37,39)        177.7567         estimate D2E/DX2                !
 ! D116  D(45,21,37,40)        -61.2103         estimate D2E/DX2                !
 ! D117  D(17,21,41,42)         62.2753         estimate D2E/DX2                !
 ! D118  D(17,21,41,43)       -177.4861         estimate D2E/DX2                !
 ! D119  D(17,21,41,44)        -58.4269         estimate D2E/DX2                !
 ! D120  D(37,21,41,42)        -58.4192         estimate D2E/DX2                !
 ! D121  D(37,21,41,43)         61.8194         estimate D2E/DX2                !
 ! D122  D(37,21,41,44)       -179.1214         estimate D2E/DX2                !
 ! D123  D(45,21,41,42)       -175.8808         estimate D2E/DX2                !
 ! D124  D(45,21,41,43)        -55.6421         estimate D2E/DX2                !
 ! D125  D(45,21,41,44)         63.417          estimate D2E/DX2                !
 ! D126  D(17,21,45,46)        -61.0087         estimate D2E/DX2                !
 ! D127  D(17,21,45,47)         60.6409         estimate D2E/DX2                !
 ! D128  D(17,21,45,48)        179.8396         estimate D2E/DX2                !
 ! D129  D(37,21,45,46)         59.6299         estimate D2E/DX2                !
 ! D130  D(37,21,45,47)       -178.7205         estimate D2E/DX2                !
 ! D131  D(37,21,45,48)        -59.5218         estimate D2E/DX2                !
 ! D132  D(41,21,45,46)        178.4067         estimate D2E/DX2                !
 ! D133  D(41,21,45,47)        -59.9437         estimate D2E/DX2                !
 ! D134  D(41,21,45,48)         59.255          estimate D2E/DX2                !
 ! D135  D(6,24,50,51)         -56.0114         estimate D2E/DX2                !
 ! D136  D(6,24,50,52)        -175.1827         estimate D2E/DX2                !
 ! D137  D(6,24,50,54)          66.4058         estimate D2E/DX2                !
 ! D138  D(49,24,50,51)        124.2283         estimate D2E/DX2                !
 ! D139  D(49,24,50,52)          5.057          estimate D2E/DX2                !
 ! D140  D(49,24,50,54)       -113.3544         estimate D2E/DX2                !
 --------------------------------------------------------------------------------
 Trust Radius=3.00D-01 FncErr=1.00D-07 GrdErr=1.00D-07 EigMax=2.50D+02 EigMin=1.00D-04
 Number of steps in this run=    306 maximum allowed number of steps=    324.
 GradGradGradGradGradGradGradGradGradGradGradGradGradGradGradGradGradGrad

 Leave Link  103 at Wed Feb 13 10:02:30 2019, MaxMem=  1342177280 cpu:               0.7 elap:               0.1
 (Enter /gpfs/apps/hpc/Apps/Restricted/Gaussian/g16/Rev_B.01-AVX/g16/l202.exe)
 Symmetry turned off by external request.
 Stoichiometry    C22H27N3O2(1+,2)
 Framework group  C1[X(C22H27N3O2)]
 Deg. of freedom   156
 Full point group                 C1      NOp   1
                          Input orientation:                          
 ---------------------------------------------------------------------
 Center     Atomic      Atomic             Coordinates (Angstroms)
 Number     Number       Type             X           Y           Z
 ---------------------------------------------------------------------
      1          6           0       -0.468941    2.638637    0.450735
      2          6           0       -1.860250    2.923942    0.322082
      3          6           0       -2.361683    4.215118    0.210455
      4          6           0       -1.437141    5.262316    0.226830
      5          6           0       -0.067041    5.023531    0.353076
      6          6           0        0.452580    3.720128    0.470252
      7          6           0       -1.490300    0.746834    0.443303
      8          1           0       -3.423441    4.401753    0.109001
      9          1           0       -1.788023    6.282611    0.140933
     10          1           0        0.594637    5.880066    0.361511
     11          7           0       -2.467747    1.693735    0.324890
     12          6           0       -3.129809   -1.189132    0.353671
     13          6           0       -1.754763   -0.681484    0.453669
     14          6           0       -0.691765   -1.558448    0.534014
     15          6           0       -0.885300   -2.953167    0.527082
     16          6           0       -2.205010   -3.451502    0.438122
     17          6           0       -3.321889   -2.644542    0.353474
     18          1           0        0.308818   -1.149964    0.595660
     19          1           0       -2.340801   -4.521464    0.434583
     20          6           0        0.330987   -3.868505    0.588473
     21          6           0       -4.730930   -3.226855    0.259093
     22          8           0       -4.101203   -0.392204    0.266528
     23          7           0       -0.267148    1.289897    0.525164
     24          6           0        1.865492    3.449703    0.605974
     25          6           0        1.204214   -3.596204   -0.657131
     26          1           0        1.517575   -2.551041   -0.701025
     27          1           0        2.100770   -4.220726   -0.619829
     28          1           0        0.659255   -3.831601   -1.574647
     29          6           0        1.148681   -3.542478    1.856822
     30          1           0        0.562201   -3.729274    2.759634
     31          1           0        2.037758   -4.177641    1.887880
     32          1           0        1.476513   -2.500830    1.867511
     33          6           0       -0.047702   -5.354948    0.613140
     34          1           0       -0.649945   -5.604191    1.490698
     35          1           0       -0.602441   -5.645197   -0.282842
     36          1           0        0.863134   -5.956353    0.651023
     37          6           0       -5.386461   -2.793171   -1.071548
     38          1           0       -6.390500   -3.221522   -1.135657
     39          1           0       -5.464256   -1.709395   -1.141815
     40          1           0       -4.806593   -3.159156   -1.923143
     41          6           0       -5.579353   -2.729029    1.451381
     42          1           0       -5.686011   -1.645850    1.431538
     43          1           0       -6.573210   -3.182756    1.405642
     44          1           0       -5.115662   -3.017470    2.398510
     45          6           0       -4.713361   -4.763331    0.297838
     46          1           0       -4.150099   -5.184057   -0.539216
     47          1           0       -4.280377   -5.139936    1.228197
     48          1           0       -5.739565   -5.130743    0.230623
     49          8           0        2.445118    2.402181    0.719680
     50          7           0        2.774870    4.697702    0.612192
     51          1           0        2.650561    5.283240   -0.218719
     52          1           0        3.741876    4.364144    0.630982
     53          1           0       -3.448369    1.439350    0.254689
     54          1           0        2.619964    5.278684    1.441721
 ---------------------------------------------------------------------
 Rotational constants (GHZ):           0.2902079           0.1077687           0.0814621
 Leave Link  202 at Wed Feb 13 10:02:31 2019, MaxMem=  1342177280 cpu:               1.9 elap:               0.2
 (Enter /gpfs/apps/hpc/Apps/Restricted/Gaussian/g16/Rev_B.01-AVX/g16/l716.exe)
 Electric field and nuclear coordinate derivatives read from checkpoint file.
 Dipole        = 2.47044599D+00 7.15925702D+00 8.78995232D-01
 Polarizability= 4.63529997D+02 4.02483661D+01 6.33328576D+02
                 1.93466763D+01-9.70175864D+00 1.92164760D+02
 Full mass-weighted force constant matrix:
 Low frequencies ---   -5.9093   -0.0014    0.0011    0.0026   13.1263   20.9990
 Low frequencies ---   34.1159   40.6178   52.5459
 Diagonal vibrational polarizability:
      115.3413972      66.6838849     285.4407423
 Harmonic frequencies (cm**-1), IR intensities (KM/Mole), Raman scattering
 activities (A**4/AMU), depolarization ratios for plane and unpolarized
 incident light, reduced masses (AMU), force constants (mDyne/A),
 and normal coordinates:
                      1                      2                      3
                      A                      A                      A
 Frequencies --     32.2801                39.0038                52.1373
 Red. masses --      4.1041                 3.3190                 3.9401
 Frc consts  --      0.0025                 0.0030                 0.0063
 IR Inten    --      2.3629                 0.6729                 5.2989
  Atom  AN      X      Y      Z        X      Y      Z        X      Y      Z
     1   6    -0.00   0.00  -0.01     0.00   0.00   0.02    -0.01  -0.00   0.01
     2   6     0.01   0.00  -0.08    -0.00   0.00   0.07    -0.01   0.02   0.00
     3   6     0.02   0.01  -0.10    -0.01   0.00   0.12     0.02   0.02  -0.06
     4   6     0.02   0.00  -0.07    -0.01   0.01   0.13     0.05   0.00  -0.10
     5   6     0.01   0.00   0.00    -0.01   0.01   0.08     0.05  -0.02  -0.09
     6   6     0.00  -0.00   0.03     0.00   0.00   0.02     0.01  -0.03  -0.03
     7   6    -0.00   0.00  -0.06     0.00  -0.00  -0.01    -0.04   0.01   0.08
     8   1     0.02   0.01  -0.15    -0.01   0.00   0.15     0.03   0.05  -0.06
     9   1     0.03   0.00  -0.09    -0.02   0.01   0.17     0.07   0.01  -0.15
    10   1     0.01   0.00   0.03    -0.01   0.00   0.08     0.06  -0.03  -0.13
    11   7     0.00   0.01  -0.10    -0.00   0.00   0.05    -0.03   0.03   0.05
    12   6    -0.00   0.00  -0.06     0.00   0.00  -0.04    -0.04   0.00   0.10
    13   6    -0.00   0.00  -0.06     0.00  -0.00  -0.02    -0.04   0.02   0.10
    14   6     0.00   0.01  -0.06     0.00  -0.00  -0.00    -0.03   0.03   0.07
    15   6     0.00   0.01  -0.04    -0.00   0.00   0.01    -0.01   0.03   0.02
    16   6     0.00   0.00   0.01    -0.00   0.00   0.03     0.00   0.01   0.03
    17   6    -0.00   0.00   0.02    -0.00   0.00   0.00    -0.01  -0.00   0.06
    18   1     0.00   0.01  -0.07     0.00  -0.00   0.00    -0.03   0.04   0.06
    19   1     0.00   0.00   0.05    -0.00   0.00   0.06     0.02   0.01  -0.02
    20   6     0.01   0.01  -0.07    -0.01  -0.01   0.01     0.02   0.06  -0.04
    21   6    -0.01  -0.01   0.10    -0.00  -0.00  -0.01     0.00  -0.03  -0.01
    22   8     0.00   0.00  -0.12     0.01   0.00  -0.11    -0.04  -0.01   0.13
    23   7    -0.01   0.00  -0.00     0.01  -0.00  -0.02    -0.04  -0.00   0.07
    24   6    -0.01  -0.01   0.12     0.01   0.01  -0.05     0.01  -0.06  -0.01
    25   6    -0.01   0.03  -0.08    -0.02  -0.02  -0.00     0.03   0.20   0.00
    26   1    -0.01   0.03  -0.07    -0.02  -0.03  -0.02     0.02   0.21   0.11
    27   1    -0.01   0.03  -0.10    -0.02  -0.03  -0.01     0.04   0.21  -0.05
    28   1    -0.02   0.04  -0.08    -0.03  -0.03   0.01     0.05   0.28  -0.03
    29   6     0.02   0.01  -0.08     0.01   0.00  -0.00    -0.02  -0.02   0.00
    30   1     0.04  -0.01  -0.07     0.02   0.02   0.01    -0.03  -0.12  -0.02
    31   1     0.03   0.01  -0.10     0.01  -0.00  -0.01     0.01   0.01  -0.03
    32   1     0.02   0.01  -0.08     0.02   0.00  -0.02    -0.06  -0.01   0.10
    33   6     0.01   0.01  -0.08    -0.01  -0.00   0.03     0.06   0.05  -0.18
    34   1     0.04  -0.00  -0.07    -0.00   0.01   0.04     0.07  -0.05  -0.21
    35   1    -0.01   0.02  -0.07    -0.03  -0.01   0.04     0.07   0.12  -0.21
    36   1     0.01   0.01  -0.11    -0.02  -0.01   0.03     0.08   0.07  -0.23
    37   6    -0.04  -0.12   0.08     0.09  -0.16  -0.10     0.10  -0.07  -0.08
    38   1    -0.03  -0.16   0.13     0.10  -0.17  -0.13     0.10  -0.07  -0.14
    39   1    -0.08  -0.13   0.00     0.08  -0.16  -0.23     0.11  -0.08  -0.12
    40   1    -0.05  -0.17   0.09     0.15  -0.24  -0.02     0.16  -0.10  -0.02
    41   6     0.02   0.09   0.08    -0.09   0.13  -0.13    -0.10  -0.01  -0.10
    42   1     0.04   0.09   0.01    -0.08   0.13  -0.25    -0.13  -0.02  -0.15
    43   1     0.01   0.11   0.11    -0.09   0.13  -0.16    -0.08  -0.04  -0.15
    44   1     0.02   0.13   0.09    -0.17   0.23  -0.06    -0.16   0.04  -0.05
    45   6    -0.00  -0.01   0.23    -0.01  -0.00   0.18     0.02  -0.03   0.04
    46   1    -0.03  -0.08   0.25     0.03  -0.11   0.26     0.07  -0.05   0.08
    47   1     0.04   0.08   0.25    -0.04   0.12   0.25    -0.02   0.01   0.07
    48   1    -0.00  -0.02   0.31    -0.00  -0.01   0.19     0.03  -0.04   0.00
    49   8    -0.03  -0.02   0.15     0.02   0.01  -0.10    -0.02  -0.07   0.03
    50   7    -0.00  -0.02   0.18     0.00   0.01  -0.07     0.04  -0.09  -0.04
    51   1     0.15  -0.10   0.10    -0.11   0.09  -0.00     0.09  -0.13  -0.08
    52   1    -0.01  -0.03   0.37     0.01   0.01  -0.22     0.03  -0.11   0.02
    53   1     0.01   0.01  -0.15    -0.00   0.00   0.05    -0.03   0.04   0.05
    54   1    -0.14   0.06   0.09     0.11  -0.07   0.00     0.02  -0.03  -0.08
                      4                      5                      6
                      A                      A                      A
 Frequencies --     54.0277                58.5065                83.3609
 Red. masses --      2.9765                 4.6882                 3.4257
 Frc consts  --      0.0051                 0.0095                 0.0140
 IR Inten    --      0.7326                 6.7368                24.5053
  Atom  AN      X      Y      Z        X      Y      Z        X      Y      Z
     1   6    -0.00   0.00   0.01    -0.02  -0.00  -0.01    -0.01  -0.00   0.06
     2   6    -0.00   0.01  -0.01    -0.02   0.04   0.02    -0.00   0.00   0.03
     3   6     0.01   0.01  -0.04     0.03   0.06   0.07     0.01   0.00   0.00
     4   6     0.01   0.00  -0.05     0.07   0.03   0.10     0.01  -0.00  -0.01
     5   6     0.01  -0.00  -0.03     0.07  -0.02   0.07     0.01  -0.01  -0.01
     6   6     0.00  -0.00  -0.00     0.02  -0.04   0.01     0.00  -0.01   0.03
     7   6    -0.01   0.01   0.03    -0.07   0.03  -0.06    -0.01   0.00   0.03
     8   1     0.01   0.01  -0.05     0.04   0.11   0.09     0.01   0.01  -0.01
     9   1     0.02   0.00  -0.08     0.10   0.04   0.14     0.02   0.00  -0.03
    10   1     0.01  -0.00  -0.04     0.09  -0.04   0.08     0.02  -0.02  -0.02
    11   7    -0.01   0.01   0.01    -0.05   0.05  -0.02    -0.01   0.01   0.02
    12   6    -0.01   0.00   0.05    -0.05  -0.00  -0.06    -0.01  -0.00  -0.05
    13   6    -0.01   0.01   0.04    -0.07   0.03  -0.07    -0.01   0.00   0.00
    14   6    -0.00   0.01   0.03    -0.04   0.06  -0.05    -0.01   0.01   0.01
    15   6     0.00   0.01   0.03    -0.00   0.05  -0.01    -0.00   0.01  -0.01
    16   6     0.00   0.01   0.03     0.01   0.02  -0.02     0.00   0.00  -0.03
    17   6    -0.00   0.00   0.03    -0.01  -0.01  -0.04    -0.00  -0.00  -0.04
    18   1    -0.01   0.02   0.02    -0.06   0.09  -0.05    -0.01   0.01   0.04
    19   1     0.01   0.01   0.02     0.04   0.01   0.01     0.01   0.00  -0.03
    20   6     0.00   0.01  -0.01     0.03   0.10   0.04     0.00   0.02  -0.01
    21   6     0.01  -0.01  -0.03     0.00  -0.05  -0.00    -0.00  -0.01  -0.01
    22   8    -0.01   0.00   0.07    -0.06  -0.02  -0.07    -0.00  -0.00  -0.10
    23   7    -0.01   0.00   0.03    -0.06  -0.01  -0.06    -0.01  -0.00   0.07
    24   6    -0.00  -0.01   0.03     0.01  -0.12  -0.02     0.00  -0.01   0.04
    25   6    -0.14  -0.11  -0.14     0.03   0.08   0.03    -0.01   0.01  -0.02
    26   1    -0.16  -0.11  -0.28    -0.04   0.09  -0.03    -0.02   0.02  -0.03
    27   1    -0.13  -0.09  -0.17     0.07   0.14   0.08    -0.00   0.02  -0.02
    28   1    -0.23  -0.21  -0.06     0.05  -0.02   0.04    -0.02  -0.00  -0.01
    29   6     0.16   0.10  -0.14     0.01   0.20   0.03     0.02   0.03  -0.02
    30   1     0.26   0.20  -0.05     0.02   0.22   0.04     0.02   0.04  -0.01
    31   1     0.14   0.08  -0.19     0.04   0.24   0.06     0.01   0.03  -0.02
    32   1     0.20   0.09  -0.28    -0.03   0.22  -0.02     0.02   0.03  -0.03
    33   6    -0.01   0.01   0.16     0.09   0.09   0.12     0.01   0.01   0.01
    34   1     0.05   0.10   0.22     0.09   0.12   0.12     0.02   0.02   0.01
    35   1    -0.07  -0.08   0.22     0.11   0.03   0.13     0.01   0.00   0.01
    36   1    -0.01   0.01   0.15     0.11   0.13   0.15     0.02   0.02   0.01
    37   6     0.07  -0.00  -0.06    -0.07  -0.05   0.03    -0.06  -0.02   0.02
    38   1     0.07   0.01  -0.10    -0.06  -0.08   0.07    -0.05  -0.03   0.05
    39   1     0.08  -0.00  -0.06    -0.11  -0.05   0.06    -0.07  -0.02   0.02
    40   1     0.10  -0.01  -0.03    -0.10  -0.02   0.00    -0.08  -0.01  -0.00
    41   6    -0.05  -0.02  -0.06     0.05  -0.10   0.05     0.04  -0.01   0.03
    42   1    -0.07  -0.02  -0.08     0.03  -0.10   0.08     0.05  -0.01   0.04
    43   1    -0.04  -0.03  -0.10     0.05  -0.11   0.08     0.04   0.00   0.06
    44   1    -0.08   0.00  -0.04     0.09  -0.12   0.02     0.07  -0.02   0.01
    45   6     0.01  -0.01  -0.03     0.05  -0.05  -0.04     0.01  -0.01  -0.00
    46   1     0.05  -0.00  -0.01     0.03  -0.01  -0.07    -0.02  -0.00  -0.02
    47   1    -0.02  -0.01  -0.02     0.09  -0.06  -0.06     0.04  -0.01  -0.02
    48   1     0.02  -0.01  -0.07     0.06  -0.08  -0.01     0.01  -0.01   0.03
    49   8    -0.01  -0.01   0.05    -0.04  -0.15  -0.10    -0.02   0.00   0.27
    50   7     0.00  -0.02   0.03     0.07  -0.17   0.03     0.03  -0.02  -0.25
    51   1     0.06  -0.06  -0.00     0.14  -0.16   0.03    -0.31   0.09  -0.12
    52   1     0.00  -0.02   0.10     0.05  -0.22   0.07     0.03  -0.04  -0.68
    53   1    -0.01   0.01   0.01    -0.06   0.09  -0.01    -0.00   0.01  -0.02
    54   1    -0.04   0.02  -0.01     0.07  -0.16   0.03     0.39  -0.13  -0.10
                      7                      8                      9
                      A                      A                      A
 Frequencies --    104.7103               119.8281               126.1770
 Red. masses --      5.3772                 2.6665                 4.0835
 Frc consts  --      0.0347                 0.0226                 0.0383
 IR Inten    --      3.9505                 0.7729                 2.9806
  Atom  AN      X      Y      Z        X      Y      Z        X      Y      Z
     1   6     0.01  -0.00  -0.08    -0.01   0.01   0.02    -0.04  -0.00  -0.07
     2   6     0.01   0.00  -0.07    -0.02   0.01   0.10    -0.05  -0.03   0.00
     3   6     0.00   0.01   0.02    -0.02   0.01   0.07    -0.07  -0.03   0.08
     4   6    -0.00   0.01   0.09    -0.01   0.00  -0.06    -0.07  -0.02   0.06
     5   6    -0.00   0.01   0.07    -0.00   0.01  -0.12    -0.06  -0.00  -0.01
     6   6     0.00   0.00  -0.01    -0.00   0.01  -0.06    -0.05  -0.00  -0.06
     7   6     0.01  -0.00  -0.14     0.00   0.01   0.07     0.01  -0.02  -0.06
     8   1     0.00   0.01   0.04    -0.02   0.01   0.13    -0.07  -0.03   0.15
     9   1    -0.01   0.01   0.16    -0.01  -0.00  -0.11    -0.09  -0.02   0.12
    10   1    -0.00   0.00   0.14    -0.01   0.01  -0.21    -0.08   0.01  -0.01
    11   7     0.01  -0.00  -0.12    -0.01   0.01   0.16    -0.02  -0.04   0.00
    12   6    -0.01   0.00   0.09     0.01   0.01  -0.01     0.06  -0.00  -0.01
    13   6     0.01  -0.00  -0.12     0.01   0.01   0.00     0.05  -0.01  -0.02
    14   6     0.01  -0.01  -0.22     0.02   0.00  -0.06     0.04  -0.01   0.01
    15   6     0.00  -0.01  -0.12     0.02   0.00  -0.10     0.03  -0.01   0.06
    16   6    -0.00  -0.00  -0.02     0.02   0.01  -0.13     0.02  -0.01   0.10
    17   6    -0.01  -0.00   0.06     0.01   0.01  -0.07     0.04   0.01   0.05
    18   1     0.02  -0.01  -0.34     0.02   0.00  -0.04     0.05  -0.02  -0.01
    19   1    -0.00  -0.00   0.00     0.02   0.01  -0.17     0.01  -0.01   0.15
    20   6     0.00  -0.00  -0.02     0.00  -0.02  -0.02     0.05  -0.00   0.02
    21   6    -0.01  -0.01   0.03     0.01   0.01  -0.02     0.01   0.09   0.01
    22   8    -0.03   0.00   0.31     0.01   0.01   0.03     0.06  -0.00  -0.06
    23   7     0.01  -0.00  -0.14     0.00   0.02   0.01    -0.00   0.00  -0.11
    24   6    -0.00   0.01   0.04    -0.01  -0.01  -0.01    -0.07  -0.07  -0.00
    25   6     0.09  -0.07   0.03     0.08  -0.10   0.02     0.02   0.04   0.00
    26   1     0.08  -0.07  -0.01     0.06  -0.09  -0.04     0.04   0.04   0.05
    27   1     0.10  -0.05   0.14     0.08  -0.07   0.12     0.01   0.02  -0.05
    28   1     0.17  -0.14   0.00     0.14  -0.18   0.00    -0.01   0.09   0.01
    29   6    -0.10   0.08   0.02    -0.07   0.03   0.02     0.08  -0.03   0.00
    30   1    -0.16   0.11  -0.01    -0.14   0.11  -0.01     0.13  -0.09   0.02
    31   1    -0.09   0.09   0.12    -0.10  -0.02   0.11     0.11   0.00  -0.06
    32   1    -0.12   0.08  -0.01    -0.01   0.01  -0.03     0.04  -0.02   0.03
    33   6     0.00  -0.00   0.04    -0.03  -0.01   0.04     0.06  -0.01  -0.02
    34   1    -0.03   0.04   0.02    -0.08   0.05   0.02     0.09  -0.04  -0.01
    35   1     0.03  -0.04   0.03     0.02  -0.05   0.02     0.04   0.02  -0.01
    36   1    -0.00  -0.00   0.10    -0.04  -0.02   0.12     0.07  -0.00  -0.06
    37   6     0.09  -0.01  -0.02    -0.03  -0.04  -0.02     0.09   0.18   0.00
    38   1     0.08   0.01  -0.08    -0.02  -0.05   0.02     0.06   0.25  -0.05
    39   1     0.11  -0.01  -0.04    -0.04  -0.05  -0.05     0.18   0.18   0.04
    40   1     0.13  -0.04   0.03    -0.04  -0.07  -0.02     0.10   0.16   0.01
    41   6    -0.09  -0.01  -0.03     0.04   0.04  -0.01     0.01   0.12  -0.00
    42   1    -0.13  -0.01  -0.07     0.03   0.04  -0.04     0.06   0.12   0.01
    43   1    -0.08  -0.04  -0.09     0.04   0.03   0.03    -0.01   0.17  -0.04
    44   1    -0.15   0.03   0.00     0.07   0.08  -0.01    -0.03   0.09   0.01
    45   6    -0.00  -0.01   0.05     0.02   0.01   0.04    -0.07   0.09  -0.02
    46   1     0.02  -0.02   0.07    -0.03  -0.03   0.03    -0.04   0.09   0.00
    47   1    -0.04   0.01   0.07     0.07   0.05   0.04    -0.15   0.05  -0.01
    48   1    -0.00  -0.01   0.02     0.01   0.00   0.11    -0.09   0.14  -0.10
    49   8    -0.01   0.01   0.16    -0.04  -0.01   0.05    -0.15  -0.10   0.09
    50   7     0.01   0.00  -0.04     0.01  -0.03  -0.01     0.01  -0.13  -0.04
    51   1    -0.16   0.10   0.06     0.28  -0.25  -0.21     0.20  -0.29  -0.18
    52   1     0.01  -0.01  -0.27    -0.01  -0.04   0.38    -0.02  -0.19   0.19
    53   1     0.00   0.01  -0.04    -0.01   0.00   0.17    -0.01  -0.07   0.04
    54   1     0.20  -0.10   0.07    -0.26   0.21  -0.22    -0.11   0.04  -0.18
                     10                     11                     12
                      A                      A                      A
 Frequencies --    136.4752               142.4153               169.5945
 Red. masses --      3.7022                 4.5805                 1.7890
 Frc consts  --      0.0406                 0.0547                 0.0303
 IR Inten    --      1.1403                 6.6654                24.2574
  Atom  AN      X      Y      Z        X      Y      Z        X      Y      Z
     1   6    -0.01  -0.05   0.09     0.06  -0.06  -0.09    -0.01  -0.00  -0.08
     2   6    -0.00  -0.06   0.01     0.05  -0.04   0.05    -0.01   0.00   0.02
     3   6    -0.01  -0.07  -0.08     0.03  -0.04   0.12    -0.01   0.01   0.03
     4   6    -0.02  -0.06  -0.07     0.03  -0.04   0.03     0.01   0.00  -0.05
     5   6    -0.03  -0.05   0.01     0.04  -0.05  -0.09     0.01  -0.01  -0.08
     6   6    -0.02  -0.04   0.07     0.06  -0.04  -0.12    -0.00  -0.01  -0.09
     7   6     0.00  -0.05   0.06     0.02  -0.04  -0.03    -0.01   0.00   0.01
     8   1    -0.00  -0.09  -0.16     0.02  -0.05   0.25    -0.01   0.02   0.09
     9   1    -0.02  -0.07  -0.13     0.03  -0.04   0.07     0.01   0.00  -0.05
    10   1    -0.03  -0.05   0.01     0.03  -0.04  -0.13     0.03  -0.03  -0.08
    11   7     0.01  -0.06   0.00     0.03  -0.03   0.09    -0.02   0.01   0.09
    12   6     0.01  -0.02   0.01    -0.04  -0.03  -0.02     0.01   0.00   0.00
    13   6     0.00  -0.04   0.01    -0.04  -0.03  -0.02     0.00   0.00   0.02
    14   6    -0.01  -0.04  -0.05    -0.06  -0.04  -0.01     0.01   0.01   0.03
    15   6    -0.00  -0.04  -0.08    -0.05  -0.03   0.04     0.01   0.01   0.00
    16   6    -0.01  -0.04  -0.08    -0.05  -0.04   0.06     0.01   0.01  -0.03
    17   6    -0.00  -0.02  -0.03    -0.05  -0.04   0.01     0.01   0.01  -0.02
    18   1    -0.01  -0.04  -0.06    -0.05  -0.04  -0.03     0.00   0.01   0.06
    19   1    -0.01  -0.05  -0.12    -0.05  -0.05   0.09     0.01   0.01  -0.05
    20   6     0.06   0.04  -0.02     0.00   0.05   0.02     0.01  -0.00   0.00
    21   6    -0.04   0.07  -0.00    -0.06  -0.02  -0.00     0.01   0.01  -0.00
    22   8     0.01  -0.02   0.03    -0.04  -0.02  -0.05     0.01   0.00   0.00
    23   7    -0.00  -0.04   0.13     0.05  -0.07  -0.15    -0.00  -0.00  -0.09
    24   6    -0.00  -0.02   0.00     0.07   0.06  -0.00    -0.01  -0.02  -0.01
    25   6     0.08   0.05  -0.00    -0.05   0.13  -0.00     0.00  -0.01  -0.00
    26   1    -0.04   0.08  -0.07    -0.11   0.15   0.02     0.01  -0.01   0.00
    27   1     0.15   0.15   0.08    -0.01   0.19  -0.05    -0.00  -0.02  -0.01
    28   1     0.15  -0.08  -0.01    -0.06   0.13   0.00    -0.00  -0.00   0.00
    29   6     0.00   0.15  -0.01     0.02   0.10  -0.01     0.01  -0.02  -0.00
    30   1    -0.02   0.20  -0.02     0.06   0.05   0.01     0.01  -0.00   0.00
    31   1     0.02   0.18   0.06     0.07   0.17  -0.04     0.00  -0.03  -0.00
    32   1    -0.02   0.16  -0.07    -0.06   0.13  -0.01     0.04  -0.02  -0.00
    33   6     0.15   0.02   0.04     0.11   0.02   0.01    -0.01   0.00  -0.00
    34   1     0.14   0.02   0.03     0.15  -0.02   0.03    -0.02   0.01  -0.01
    35   1     0.19  -0.05   0.04     0.10   0.00   0.03    -0.00   0.00  -0.01
    36   1     0.19   0.07   0.09     0.15   0.08  -0.02    -0.01  -0.01   0.00
    37   6    -0.02   0.10  -0.00    -0.06  -0.00  -0.00    -0.01   0.00   0.00
    38   1    -0.05   0.17   0.01    -0.06  -0.00  -0.00    -0.01   0.01   0.02
    39   1     0.05   0.10  -0.01    -0.06  -0.00   0.01    -0.00   0.00  -0.01
    40   1    -0.05   0.06  -0.00    -0.06   0.00  -0.01    -0.02  -0.01  -0.00
    41   6    -0.02   0.14  -0.01    -0.08  -0.03  -0.01     0.03   0.02   0.00
    42   1     0.02   0.14  -0.04    -0.06  -0.03   0.00     0.03   0.02  -0.01
    43   1    -0.03   0.17   0.01    -0.08  -0.01  -0.04     0.03   0.02   0.03
    44   1    -0.02   0.15  -0.00    -0.10  -0.05  -0.01     0.05   0.04  -0.00
    45   6    -0.14   0.07   0.04    -0.08  -0.03  -0.03     0.01   0.01   0.01
    46   1    -0.18   0.01   0.04    -0.07  -0.02  -0.02    -0.01   0.00   0.01
    47   1    -0.14   0.07   0.04    -0.11  -0.05  -0.02     0.02   0.02   0.01
    48   1    -0.17   0.13   0.07    -0.09  -0.01  -0.06     0.01   0.01   0.03
    49   8     0.03  -0.01  -0.09     0.14   0.11   0.13    -0.02  -0.02   0.02
    50   7    -0.04   0.01   0.02    -0.03   0.14   0.02    -0.02  -0.02   0.12
    51   1    -0.19   0.13   0.13     0.11  -0.00  -0.10    -0.32   0.34   0.41
    52   1    -0.03   0.04  -0.17    -0.01   0.22   0.28    -0.01  -0.01  -0.34
    53   1     0.01  -0.07  -0.05     0.02  -0.01   0.15    -0.02   0.01   0.13
    54   1     0.07  -0.12   0.13    -0.26   0.25  -0.11     0.26  -0.37   0.42
                     13                     14                     15
                      A                      A                      A
 Frequencies --    180.8444               212.5624               233.9779
 Red. masses --      3.7238                 1.3041                 3.6537
 Frc consts  --      0.0718                 0.0347                 0.1179
 IR Inten    --      1.3935                 0.8607                 7.7992
  Atom  AN      X      Y      Z        X      Y      Z        X      Y      Z
     1   6     0.01  -0.01  -0.08     0.00  -0.00  -0.04     0.04  -0.06   0.01
     2   6     0.01  -0.02  -0.10     0.00  -0.00  -0.04     0.03  -0.10   0.02
     3   6    -0.01  -0.02  -0.01     0.00   0.00  -0.00    -0.04  -0.15  -0.01
     4   6    -0.03  -0.01   0.09    -0.00   0.00   0.04    -0.08  -0.11  -0.02
     5   6    -0.02   0.00   0.07    -0.00   0.00   0.02    -0.07  -0.06   0.01
     6   6    -0.00   0.00  -0.03     0.00  -0.00  -0.02    -0.01  -0.03   0.02
     7   6     0.02  -0.01  -0.03    -0.00  -0.00   0.01     0.09  -0.05   0.00
     8   1    -0.01  -0.03   0.02    -0.00   0.00   0.02    -0.05  -0.21  -0.03
     9   1    -0.04  -0.01   0.19    -0.00   0.00   0.08    -0.12  -0.13  -0.04
    10   1    -0.04   0.02   0.14    -0.00   0.00   0.05    -0.11  -0.03   0.01
    11   7     0.02  -0.02  -0.10     0.00  -0.00  -0.02     0.07  -0.10   0.02
    12   6     0.01   0.01   0.03    -0.00  -0.00   0.02     0.01   0.07  -0.00
    13   6     0.01  -0.01   0.07    -0.01   0.00   0.06     0.04   0.01  -0.02
    14   6    -0.01  -0.01   0.19    -0.01   0.00   0.08     0.03   0.02  -0.03
    15   6    -0.00  -0.00   0.05    -0.00   0.00  -0.00    -0.01   0.06   0.00
    16   6     0.01   0.00  -0.18     0.00  -0.00  -0.01    -0.02   0.09   0.03
    17   6     0.00   0.01  -0.14    -0.00  -0.00   0.03    -0.01   0.09   0.01
    18   1    -0.01  -0.00   0.31    -0.01   0.00   0.12     0.03   0.02  -0.06
    19   1     0.01   0.00  -0.34     0.01  -0.00  -0.05    -0.02   0.10   0.07
    20   6     0.01   0.01   0.04    -0.00   0.00  -0.03    -0.05   0.06  -0.00
    21   6    -0.01   0.02  -0.07     0.00  -0.00   0.02     0.03   0.03  -0.00
    22   8     0.00   0.02   0.15    -0.00  -0.00  -0.04     0.03   0.10   0.01
    23   7     0.02  -0.01  -0.05    -0.00  -0.00  -0.02     0.09  -0.05  -0.00
    24   6    -0.00   0.00  -0.00     0.00   0.00  -0.01    -0.01  -0.03   0.01
    25   6    -0.05   0.06   0.01     0.02  -0.02  -0.01    -0.07   0.09  -0.01
    26   1    -0.03   0.06   0.06    -0.26   0.06  -0.20     0.01   0.07   0.07
    27   1    -0.06   0.04  -0.07     0.19   0.24   0.18    -0.12   0.01  -0.10
    28   1    -0.10   0.13   0.03     0.15  -0.35  -0.00    -0.13   0.22  -0.01
    29   6     0.07  -0.03   0.01    -0.03   0.01  -0.01    -0.07   0.09   0.00
    30   1     0.12  -0.06   0.04    -0.19   0.41  -0.03    -0.14   0.26  -0.01
    31   1     0.07  -0.02  -0.06    -0.24  -0.27   0.23    -0.15  -0.02   0.12
    32   1     0.07  -0.03   0.04     0.29  -0.09  -0.21     0.06   0.05  -0.09
    33   6     0.03   0.00   0.03     0.00  -0.00  -0.04    -0.10   0.08  -0.00
    34   1    -0.01  -0.00   0.00     0.05  -0.03  -0.01    -0.09   0.11   0.01
    35   1     0.08  -0.01   0.00    -0.05   0.02  -0.01    -0.13   0.11   0.01
    36   1     0.04   0.02   0.07     0.01   0.00  -0.11    -0.12   0.04  -0.02
    37   6    -0.13  -0.07  -0.04     0.03   0.02   0.01    -0.02  -0.03   0.00
    38   1    -0.15  -0.06   0.10     0.04  -0.00  -0.03     0.07  -0.24  -0.05
    39   1    -0.13  -0.08  -0.13     0.01   0.02   0.04    -0.26  -0.04   0.05
    40   1    -0.23  -0.15  -0.07     0.06   0.05   0.02     0.08   0.14  -0.00
    41   6     0.08   0.09  -0.03    -0.02  -0.01   0.01    -0.01  -0.01  -0.01
    42   1     0.01   0.07  -0.12     0.01  -0.01   0.03    -0.03  -0.01  -0.00
    43   1     0.11   0.02   0.12    -0.02   0.01  -0.03     0.00  -0.03  -0.03
    44   1     0.20   0.20  -0.05    -0.05  -0.05   0.01    -0.01  -0.01  -0.01
    45   6    -0.02   0.02   0.04     0.00  -0.00   0.00     0.16   0.04  -0.01
    46   1    -0.11  -0.05   0.01    -0.01   0.01  -0.01     0.15   0.10  -0.05
    47   1     0.08   0.09   0.02     0.02  -0.01  -0.01     0.26   0.07  -0.04
    48   1    -0.03   0.02   0.17     0.00  -0.00   0.02     0.19  -0.06   0.06
    49   8    -0.02  -0.00   0.03     0.00   0.00   0.01    -0.01  -0.04  -0.01
    50   7     0.01  -0.01  -0.03     0.00   0.00  -0.00    -0.01  -0.04   0.00
    51   1     0.09  -0.09  -0.10     0.01  -0.01  -0.01    -0.04  -0.03   0.01
    52   1     0.00  -0.03   0.09     0.00   0.00   0.02    -0.01  -0.03  -0.02
    53   1     0.02  -0.03  -0.03    -0.00   0.00  -0.01     0.08  -0.15   0.02
    54   1    -0.05   0.07  -0.10    -0.01   0.01  -0.01    -0.00  -0.05   0.01
                     16                     17                     18
                      A                      A                      A
 Frequencies --    236.4179               245.7286               259.2934
 Red. masses --      3.4453                 1.5363                 1.6226
 Frc consts  --      0.1135                 0.0547                 0.0643
 IR Inten    --     10.5735                 0.4787                 1.4418
  Atom  AN      X      Y      Z        X      Y      Z        X      Y      Z
     1   6    -0.04  -0.07  -0.02    -0.01  -0.00   0.04    -0.01  -0.00   0.01
     2   6    -0.04  -0.02  -0.03    -0.01   0.00   0.04    -0.01   0.01   0.01
     3   6     0.01  -0.00   0.02     0.00   0.00   0.00     0.00   0.01   0.00
     4   6     0.06  -0.04   0.05     0.01  -0.00  -0.03     0.02   0.00  -0.01
     5   6     0.04  -0.11   0.01     0.00  -0.01  -0.01     0.01  -0.01  -0.00
     6   6     0.01  -0.12  -0.01    -0.00  -0.01   0.03    -0.00  -0.02   0.01
     7   6    -0.10  -0.01  -0.01    -0.00  -0.00  -0.02    -0.02   0.00  -0.01
     8   1     0.02   0.05   0.04     0.00   0.00  -0.01     0.01   0.02  -0.00
     9   1     0.11  -0.02   0.09     0.01  -0.01  -0.07     0.03   0.00  -0.02
    10   1     0.06  -0.13   0.01     0.01  -0.01  -0.03     0.02  -0.02  -0.01
    11   7    -0.07   0.00  -0.04    -0.01   0.00   0.01    -0.02   0.01  -0.00
    12   6    -0.03   0.00   0.00     0.01  -0.00  -0.03     0.00  -0.00  -0.01
    13   6    -0.06   0.01   0.02     0.00  -0.00  -0.06     0.01  -0.00  -0.02
    14   6    -0.02   0.05   0.03     0.00   0.00  -0.05     0.02   0.01  -0.01
    15   6     0.02   0.06  -0.02    -0.01   0.00   0.04     0.03   0.02   0.01
    16   6     0.04   0.04  -0.06    -0.00  -0.00   0.09     0.01   0.02   0.05
    17   6     0.03   0.01  -0.00     0.01  -0.00  -0.04    -0.01  -0.00  -0.00
    18   1    -0.04   0.09   0.06     0.01  -0.01  -0.07     0.03   0.01  -0.01
    19   1     0.04   0.04  -0.11    -0.01  -0.00   0.18     0.01   0.02   0.08
    20   6    -0.01   0.03  -0.01    -0.02   0.00   0.02     0.04   0.00   0.00
    21   6     0.06   0.02   0.02     0.02  -0.00  -0.04    -0.03   0.00  -0.01
    22   8    -0.05  -0.02  -0.02    -0.00  -0.00   0.06     0.00  -0.00   0.02
    23   7    -0.08  -0.06   0.01    -0.01  -0.00  -0.00    -0.02  -0.00  -0.00
    24   6     0.01  -0.07  -0.00    -0.00  -0.01   0.01    -0.00  -0.01   0.00
    25   6     0.02  -0.02  -0.00    -0.05   0.04   0.00     0.10  -0.02   0.04
    26   1     0.25  -0.09   0.11    -0.21   0.08  -0.08     0.37  -0.09   0.22
    27   1    -0.12  -0.23  -0.08     0.04   0.18   0.04    -0.06  -0.26  -0.05
    28   1    -0.04   0.20  -0.02    -0.03  -0.11   0.02     0.06   0.26  -0.01
    29   6    -0.01   0.01  -0.01    -0.01  -0.01   0.02     0.10  -0.02  -0.02
    30   1    -0.01   0.01  -0.01    -0.06   0.15   0.01     0.03   0.34   0.00
    31   1    -0.02  -0.01  -0.01    -0.10  -0.13   0.10    -0.10  -0.29   0.11
    32   1     0.01   0.00  -0.00     0.13  -0.05  -0.07     0.41  -0.12  -0.23
    33   6    -0.10   0.06   0.00    -0.02   0.00  -0.02    -0.01   0.02  -0.01
    34   1    -0.19   0.13  -0.04     0.07  -0.05   0.03    -0.00   0.02  -0.01
    35   1    -0.05   0.07  -0.04    -0.10   0.05   0.02    -0.04   0.05  -0.01
    36   1    -0.15  -0.01   0.10    -0.01   0.00  -0.14    -0.03  -0.02  -0.04
    37   6     0.15   0.07  -0.01    -0.01  -0.03  -0.03    -0.11  -0.01   0.02
    38   1     0.11   0.19  -0.07    -0.13   0.25   0.15    -0.10  -0.05   0.09
    39   1     0.30   0.08  -0.02     0.29  -0.02  -0.20    -0.16  -0.02   0.02
    40   1     0.17   0.00   0.03    -0.19  -0.32  -0.03    -0.16   0.01  -0.02
    41   6     0.10   0.04   0.04     0.10   0.03   0.00    -0.07   0.01  -0.04
    42   1     0.11   0.04   0.05    -0.03   0.02  -0.12    -0.11   0.00  -0.08
    43   1     0.10   0.05   0.10     0.15  -0.10   0.20    -0.06  -0.03  -0.06
    44   1     0.15   0.04   0.02     0.26   0.20  -0.03    -0.10   0.06  -0.01
    45   6     0.03   0.03   0.03    -0.00  -0.00  -0.02    -0.02   0.01  -0.02
    46   1     0.02   0.01   0.03     0.15  -0.02   0.09     0.03   0.02   0.01
    47   1     0.04   0.04   0.03    -0.18   0.00   0.07    -0.07   0.00   0.00
    48   1     0.03   0.04   0.05     0.01   0.01  -0.20    -0.01  -0.00  -0.08
    49   8     0.13   0.00   0.02     0.01  -0.00  -0.00     0.02  -0.00  -0.00
    50   7    -0.13   0.05  -0.02    -0.01   0.00  -0.00    -0.02   0.01  -0.00
    51   1    -0.14  -0.03  -0.08    -0.02  -0.00  -0.00    -0.03  -0.01  -0.01
    52   1    -0.09   0.18   0.07    -0.01   0.02  -0.00    -0.02   0.03   0.00
    53   1    -0.08   0.03  -0.04    -0.01   0.00   0.01    -0.02   0.01  -0.00
    54   1    -0.27   0.09  -0.08    -0.02   0.01  -0.00    -0.04   0.01  -0.01
                     19                     20                     21
                      A                      A                      A
 Frequencies --    260.8877               273.5823               282.8051
 Red. masses --      1.5901                 1.6637                 4.4284
 Frc consts  --      0.0638                 0.0734                 0.2087
 IR Inten    --      6.0657                 1.5413                 1.4977
  Atom  AN      X      Y      Z        X      Y      Z        X      Y      Z
     1   6     0.02   0.02  -0.02    -0.02   0.01   0.04    -0.01   0.01   0.04
     2   6     0.02   0.00  -0.01    -0.02   0.02   0.05     0.01   0.00  -0.07
     3   6    -0.00  -0.00  -0.01     0.01   0.03   0.01    -0.01   0.03   0.20
     4   6    -0.02   0.02   0.00     0.03   0.02  -0.04    -0.00   0.02   0.13
     5   6    -0.02   0.04   0.01     0.02   0.00  -0.01     0.03  -0.00  -0.22
     6   6     0.00   0.04  -0.01    -0.01  -0.00   0.04     0.01  -0.00  -0.16
     7   6     0.02   0.00   0.02    -0.02   0.01  -0.05     0.01   0.00   0.04
     8   1    -0.00  -0.02  -0.01     0.02   0.05  -0.02    -0.03   0.04   0.41
     9   1    -0.04   0.01   0.01     0.05   0.02  -0.10    -0.01   0.03   0.27
    10   1    -0.02   0.05   0.03     0.04  -0.01  -0.03     0.05  -0.02  -0.42
    11   7     0.02  -0.00   0.01    -0.02   0.02   0.01     0.03  -0.01  -0.22
    12   6     0.01  -0.02   0.01     0.02  -0.02  -0.03     0.02  -0.00   0.00
    13   6     0.00  -0.01   0.03     0.01  -0.01  -0.07     0.02  -0.00   0.00
    14   6    -0.01  -0.02   0.01    -0.00  -0.02  -0.02     0.01  -0.02  -0.04
    15   6    -0.02  -0.02  -0.02    -0.01  -0.03   0.02    -0.01  -0.02  -0.00
    16   6    -0.01  -0.04  -0.04    -0.00  -0.03  -0.01    -0.01  -0.02   0.04
    17   6     0.00  -0.03   0.01     0.01  -0.02  -0.03     0.01  -0.00  -0.00
    18   1    -0.00  -0.04   0.02     0.00  -0.04   0.00     0.02  -0.04  -0.09
    19   1    -0.00  -0.04  -0.07    -0.01  -0.03  -0.01    -0.01  -0.02   0.08
    20   6    -0.02   0.01  -0.01    -0.01  -0.02   0.03    -0.01  -0.01  -0.00
    21   6     0.00  -0.03   0.01     0.01   0.01  -0.01     0.00   0.01  -0.01
    22   8     0.00  -0.03  -0.03     0.01  -0.02   0.06     0.03   0.01   0.02
    23   7     0.03   0.01  -0.00    -0.02   0.01  -0.03    -0.01   0.02   0.26
    24   6     0.00   0.03  -0.00    -0.00  -0.01   0.01    -0.01  -0.01  -0.08
    25   6    -0.04   0.03  -0.02    -0.08   0.05   0.00    -0.04   0.00  -0.02
    26   1     0.27  -0.06   0.20    -0.09   0.05   0.05     0.02  -0.01   0.02
    27   1    -0.23  -0.25  -0.23    -0.08   0.05  -0.10    -0.08  -0.05  -0.09
    28   1    -0.18   0.40  -0.03    -0.15   0.11   0.02    -0.09   0.08  -0.01
    29   6    -0.07   0.06  -0.00    -0.00  -0.03   0.03    -0.05   0.02   0.01
    30   1    -0.17   0.30  -0.02    -0.07   0.16   0.02    -0.10   0.08  -0.01
    31   1    -0.17  -0.08   0.17    -0.12  -0.19   0.13    -0.07   0.00   0.09
    32   1     0.10   0.01  -0.13     0.18  -0.09  -0.07    -0.03   0.02  -0.02
    33   6     0.00   0.00   0.01     0.04  -0.03   0.01     0.04  -0.03   0.00
    34   1    -0.04   0.02  -0.01     0.11  -0.09   0.05     0.10  -0.06   0.03
    35   1     0.05  -0.03  -0.01    -0.01  -0.04   0.05     0.01  -0.04   0.03
    36   1     0.01   0.02   0.07     0.07   0.01  -0.07     0.07   0.01  -0.05
    37   6     0.07   0.00  -0.01     0.04   0.01  -0.02    -0.02  -0.02  -0.01
    38   1    -0.01   0.19   0.01     0.19  -0.30  -0.23     0.02  -0.12  -0.03
    39   1     0.29   0.01  -0.07    -0.30  -0.01   0.13    -0.14  -0.02   0.02
    40   1     0.01  -0.16   0.02     0.26   0.32  -0.01     0.02   0.07  -0.01
    41   6     0.03  -0.03   0.03     0.05   0.03   0.01     0.02   0.02  -0.01
    42   1     0.06  -0.03   0.07     0.18   0.04   0.09    -0.01   0.02  -0.05
    43   1     0.02  -0.00   0.04     0.00   0.15  -0.04     0.03  -0.01   0.04
    44   1     0.04  -0.07   0.01     0.01  -0.10  -0.01     0.05   0.07  -0.01
    45   6    -0.06  -0.03   0.01    -0.02   0.00   0.02     0.02   0.01  -0.01
    46   1    -0.04  -0.06   0.03    -0.19  -0.03  -0.08     0.03   0.02  -0.01
    47   1    -0.12  -0.05   0.03     0.17   0.02  -0.06     0.01   0.00  -0.01
    48   1    -0.07   0.02  -0.03    -0.04   0.02   0.24     0.02  -0.00  -0.03
    49   8    -0.04   0.01  -0.00     0.01  -0.00  -0.01    -0.02  -0.01   0.02
    50   7     0.06  -0.01   0.01    -0.02   0.01  -0.01    -0.03  -0.00   0.05
    51   1     0.09   0.01   0.02    -0.03  -0.01  -0.02    -0.04   0.11   0.13
    52   1     0.04  -0.07  -0.01    -0.02   0.03  -0.01    -0.02   0.02   0.01
    53   1     0.02  -0.00   0.01    -0.02   0.03   0.01     0.03  -0.02  -0.25
    54   1     0.11  -0.02   0.02    -0.03   0.02  -0.02    -0.05  -0.12   0.13
                     22                     23                     24
                      A                      A                      A
 Frequencies --    297.6234               304.9882               318.0166
 Red. masses --      1.7156                 1.9903                 1.7095
 Frc consts  --      0.0895                 0.1091                 0.1019
 IR Inten    --      1.6201                 5.3362                 3.1520
  Atom  AN      X      Y      Z        X      Y      Z        X      Y      Z
     1   6    -0.01   0.00  -0.06    -0.02   0.00   0.00    -0.00  -0.00  -0.05
     2   6    -0.01   0.01  -0.04    -0.02   0.02   0.01    -0.00   0.00  -0.04
     3   6     0.01   0.02  -0.06     0.01   0.03  -0.01     0.01   0.01  -0.04
     4   6     0.02   0.01   0.02     0.04   0.01  -0.01     0.02   0.01   0.03
     5   6     0.01   0.00   0.06     0.03  -0.01   0.01     0.01  -0.00   0.04
     6   6    -0.00  -0.01  -0.01    -0.01  -0.02   0.02    -0.00  -0.01  -0.03
     7   6    -0.02   0.01   0.05    -0.00   0.01  -0.02    -0.00   0.01   0.05
     8   1     0.02   0.03  -0.08     0.02   0.06  -0.02     0.01   0.02  -0.05
     9   1     0.03   0.02   0.05     0.06   0.02  -0.02     0.02   0.01   0.08
    10   1     0.01  -0.00   0.13     0.04  -0.02   0.01     0.01  -0.01   0.09
    11   7    -0.02   0.01   0.05    -0.01   0.01   0.00    -0.00   0.01   0.03
    12   6     0.01  -0.00   0.04     0.03   0.02   0.00     0.02   0.01   0.02
    13   6    -0.00  -0.00   0.07     0.03   0.00  -0.00     0.02   0.00   0.05
    14   6    -0.00  -0.01  -0.01     0.02  -0.01   0.02     0.02   0.00  -0.03
[...]
 ! A32   A(13,14,18)            -0.0242                  1.5                    !
 ! A33   A(15,14,18)            -0.0325                  2.1                    !
 ! A34   A(14,15,16)            -0.0269                  1.7                    !
 ! A35   A(14,15,20)             0.029                   1.8                    !
 --------------------------------------------------------------------------------
                           ----------------------------
                           ! Normal Mode   151        !
 --------------------------                            --------------------------
 ! Name  Definition              Value          Relative Weight (%)             !
 --------------------------------------------------------------------------------
 ! R4    R(2,3)                 -0.0311                  1.4                    !
 ! R6    R(3,4)                 -0.0625                  2.9                    !
 ! R7    R(3,8)                  0.6846                 31.3                    !
 ! R8    R(4,5)                 -0.0462                  2.1                    !
 ! R9    R(4,9)                  0.7442                 34.1                    !
 ! R10   R(5,6)                 -0.0161                  0.7                    !
 ! R11   R(5,10)                 0.3958                 18.1                    !
 ! A4    A(1,2,3)               -0.0177                  0.8                    !
 ! A6    A(3,2,11)               0.0196                  0.9                    !
 ! A7    A(2,3,4)                0.0165                  0.8                    !
 ! A8    A(2,3,8)               -0.0191                  0.9                    !
 ! A14   A(4,5,10)               0.0147                  0.7                    !
 ! A15   A(6,5,10)              -0.0157                  0.7                    !
 --------------------------------------------------------------------------------
                           ----------------------------
                           ! Normal Mode   152        !
 --------------------------                            --------------------------
 ! Name  Definition              Value          Relative Weight (%)             !
 --------------------------------------------------------------------------------
 ! R23   R(15,16)                0.0417                  2.7                    !
 ! R25   R(16,17)                0.0434                  2.8                    !
 ! R26   R(16,19)               -1.0812                 68.8                    !
 ! R42   R(33,34)               -0.0124                  0.8                    !
 ! R43   R(33,35)               -0.0137                  0.9                    !
 ! R51   R(45,46)               -0.0119                  0.8                    !
 ! R52   R(45,47)               -0.0177                  1.1                    !
 ! A34   A(14,15,16)             0.0278                  1.8                    !
 ! A36   A(16,15,20)            -0.029                   1.8                    !
 ! A37   A(15,16,17)            -0.0568                  3.6                    !
 ! A38   A(15,16,19)             0.0263                  1.7                    !
 ! A39   A(17,16,19)             0.0305                  1.9                    !
 ! A40   A(12,17,16)             0.028                   1.8                    !
 ! A42   A(16,17,21)            -0.0295                  1.9                    !
 --------------------------------------------------------------------------------
                           ----------------------------
                           ! Normal Mode   153        !
 --------------------------                            --------------------------
 ! Name  Definition              Value          Relative Weight (%)             !
 --------------------------------------------------------------------------------
 ! R35   R(24,50)               -0.036                   1.8                    !
 ! R54   R(50,51)                0.5928                 30.1                    !
 ! R55   R(50,52)                0.6255                 31.7                    !
 ! R56   R(50,54)                0.5519                 28.0                    !
 --------------------------------------------------------------------------------
                           ----------------------------
                           ! Normal Mode   154        !
 --------------------------                            --------------------------
 ! Name  Definition              Value          Relative Weight (%)             !
 --------------------------------------------------------------------------------
 ! R54   R(50,51)               -0.591                  26.5                    !
 ! R55   R(50,52)                0.8548                 38.3                    !
 ! R56   R(50,54)               -0.3286                 14.7                    !
 ! A58   A(49,24,50)             0.0281                  1.3                    !
 ! A95   A(24,50,51)             0.0284                  1.3                    !
 ! A96   A(24,50,52)            -0.044                   2.0                    !
 ! A99   A(51,50,54)             0.0427                  1.9                    !
 ! A100  A(52,50,54)            -0.0288                  1.3                    !
 ! D135  D(6,24,50,51)          -0.039                   1.8                    !
 ! D137  D(6,24,50,54)           0.0484                  2.2                    !
 ! D138  D(49,24,50,51)         -0.0413                  1.9                    !
 ! D140  D(49,24,50,54)          0.0461                  2.1                    !
 --------------------------------------------------------------------------------
                           ----------------------------
                           ! Normal Mode   155        !
 --------------------------                            --------------------------
 ! Name  Definition              Value          Relative Weight (%)             !
 --------------------------------------------------------------------------------
 ! R54   R(50,51)               -0.6623                 31.7                    !
 ! R55   R(50,52)               -0.1295                  6.2                    !
 ! R56   R(50,54)                0.8542                 40.9                    !
 ! A95   A(24,50,51)             0.0368                  1.8                    !
 ! A97   A(24,50,54)            -0.0438                  2.1                    !
 ! A98   A(51,50,52)             0.0394                  1.9                    !
 ! A100  A(52,50,54)            -0.032                   1.5                    !
 ! D32   D(1,6,24,50)           -0.0302                  1.4                    !
 ! D34   D(5,6,24,50)           -0.0303                  1.5                    !
 ! D135  D(6,24,50,51)           0.0428                  2.0                    !
 ! D136  D(6,24,50,52)          -0.0319                  1.5                    !
 ! D137  D(6,24,50,54)           0.0275                  1.3                    !
 ! D139  D(49,24,50,52)         -0.0575                  2.7                    !
 --------------------------------------------------------------------------------
                           ----------------------------
                           ! Normal Mode   156        !
 --------------------------                            --------------------------
 ! Name  Definition              Value          Relative Weight (%)             !
 --------------------------------------------------------------------------------
 ! R5    R(2,11)                 0.0489                  3.4                    !
 ! R13   R(7,11)                 0.043                   3.0                    !
 ! R16   R(11,53)               -1.0716                 75.1                    !
 ! A5    A(1,2,11)               0.0232                  1.6                    !
 ! A6    A(3,2,11)              -0.0244                  1.7                    !
 ! A19   A(11,7,13)             -0.0245                  1.7                    !
 ! A20   A(11,7,23)              0.024                   1.7                    !
 ! A22   A(2,11,7)              -0.048                   3.4                    !
 ! A23   A(2,11,53)              0.053                   3.7                    !
 --------------------------------------------------------------------------------
 Max01P=     47 Av01P=   24.09 Stan. Dev.=    7.94
 Max05P=      9 Av05P=    1.57 Stan. Dev.=    2.43
 Max10P=      6 Av10P=    0.58 Stan. Dev.=    1.21
 MaxNDP=     90 AvNDP=   65.50 Stan. Dev.=   16.05
 -------------------------------------------------------------------
 Center     Atomic                   Forces (Hartrees/Bohr)
 Number     Number              X              Y              Z
 -------------------------------------------------------------------
      1        6           0.000001701   -0.000000054   -0.000002226
      2        6           0.000001064   -0.000000090   -0.000001180
      3        6           0.000001697    0.000000014   -0.000002024
      4        6           0.000002357   -0.000000010   -0.000002955
      5        6           0.000002078   -0.000000324   -0.000003793
      6        6           0.000001545   -0.000001003   -0.000003443
      7        6           0.000000797   -0.000000333   -0.000000448
      8        1           0.000001713    0.000000577   -0.000001272
      9        1           0.000002366   -0.000000027   -0.000003242
     10        1           0.000002399   -0.000000837   -0.000004540
     11        7           0.000000758    0.000000956   -0.000001518
     12        6          -0.000000329    0.000000717    0.000001153
     13        6           0.000000147    0.000000052    0.000000027
     14        6          -0.000000050   -0.000000250   -0.000000159
     15        6          -0.000000576   -0.000000087    0.000000646
     16        6          -0.000001008    0.000000292    0.000001773
     17        6          -0.000000602    0.000000541    0.000002060
     18        1          -0.000000010   -0.000000532   -0.000000984
     19        1          -0.000001327    0.000000408    0.000002357
     20        6          -0.000001054   -0.000000620    0.000000305
     21        6          -0.000000960    0.000001167    0.000003057
     22        8          -0.000000103    0.000000800    0.000001583
     23        7           0.000000788    0.000000011   -0.000001835
     24        6           0.000001741   -0.000000730   -0.000004040
     25        6          -0.000001695   -0.000001475   -0.000000359
     26        1          -0.000001348   -0.000001605   -0.000001090
     27        1          -0.000001899   -0.000001790   -0.000000624
     28        1          -0.000002341   -0.000001720    0.000000079
     29        6           0.000000023   -0.000000221   -0.000000314
     30        1           0.000000448    0.000000401    0.000000087
     31        1          -0.000000276   -0.000000554   -0.000000646
     32        1           0.000000330   -0.000000354   -0.000001085
     33        6          -0.000001489   -0.000000439    0.000001241
     34        1          -0.000001049    0.000000237    0.000001785
     35        1          -0.000002144   -0.000000699    0.000001758
     36        1          -0.000001703   -0.000000716    0.000000990
     37        6          -0.000001677    0.000000598    0.000003555
     38        1          -0.000001840    0.000001067    0.000004295
     39        1          -0.000001286    0.000000699    0.000002994
     40        1          -0.000002324    0.000000074    0.000003221
     41        6           0.000000030    0.000001989    0.000003567
     42        1           0.000000383    0.000002074    0.000003104
     43        1          -0.000000221    0.000002342    0.000004397
     44        1           0.000000489    0.000002318    0.000003388
     45        6          -0.000001490    0.000001050    0.000003959
     46        1          -0.000002200    0.000000584    0.000003828
     47        1          -0.000001077    0.000001363    0.000003875
     48        1          -0.000001666    0.000001498    0.000004844
     49        8           0.000001607   -0.000001465   -0.000004117
     50        7           0.000001699   -0.000001315   -0.000005801
     51        1           0.000001871   -0.000001863   -0.000005266
     52        1           0.000001985   -0.000001894   -0.000005670
     53        1           0.000000679    0.000000304    0.000000560
     54        1           0.000003050   -0.000001127   -0.000005855
 -------------------------------------------------------------------
 Cartesian Forces:  Max     0.000005855 RMS     0.000001977
 FormGI is forming the generalized inverse of G from B-inverse, IUseBI=4.
 GSVD:  received Info=                   1 from GESDD.
 Leave Link  716 at Wed Feb 13 10:02:31 2019, MaxMem=  1342177280 cpu:               5.2 elap:               0.4
 (Enter /gpfs/apps/hpc/Apps/Restricted/Gaussian/g16/Rev_B.01-AVX/g16/l9999.exe)

 ----------------------------------------------------------------------

 Electric dipole moment (input orientation):
 (Debye = 10**-18 statcoulomb cm , SI units = C m)
                  (au)            (Debye)         (10**-30 SI)
   Tot        0.762435D+01      0.193792D+02      0.646419D+02
   x          0.247045D+01      0.627925D+01      0.209453D+02
   y          0.715926D+01      0.181970D+02      0.606987D+02
   z          0.878995D+00      0.223418D+01      0.745243D+01

 Dipole polarizability, Alpha (input orientation).
 (esu units = cm**3 , SI units = C**2 m**2 J**-1)
 Alpha(0;0):
               (au)            (10**-24 esu)      (10**-40 SI)
   iso        0.429674D+03      0.636712D+02      0.708437D+02
   aniso      0.393463D+03      0.583052D+02      0.648733D+02
   xx         0.463530D+03      0.686881D+02      0.764258D+02
   yx         0.402484D+02      0.596419D+01      0.663606D+01
   yy         0.633329D+03      0.938496D+02      0.104422D+03
   zx         0.193467D+02      0.286688D+01      0.318984D+01
   zy        -0.970176D+01     -0.143765D+01     -0.159960D+01
   zz         0.192165D+03      0.284759D+02      0.316837D+02

 ----------------------------------------------------------------------

 Dipole orientation:
     6         -2.43902145          0.48619603          4.49319410
     6         -4.88901735          1.54464998          4.11951179
     6         -6.34467076          2.51221768          6.07928826
     6         -5.31189128          2.42097035          8.50716543
     6         -2.92071036          1.39613268          8.94988296
     6         -1.43101715          0.40450368          6.98075487
     6         -3.20759545          0.27723056          0.50927307
     1         -8.19631853          3.31346689          5.73823512
     1         -6.38593495          3.15806549         10.08406559
     1         -2.23475671          1.37903087         10.87675224
     7         -5.29646869          1.36598771          1.56520507
     6         -4.96124235          0.51531761         -3.94941841
     6         -2.93032756         -0.17008992         -2.18488220
     6         -0.70774980         -1.20772314         -3.07262269
     6         -0.31579198         -1.64761686         -5.66749725
     6         -2.26354142         -1.00663812         -7.37922144
     6         -4.53963078          0.03870410         -6.64962748
     1          0.75675087         -1.67127657         -1.72169006
     1         -1.94223504         -1.35379568         -9.36173475
     6          2.20057740         -2.74582792         -6.53360056
     6         -6.59368647          0.70212044         -8.56624683
     8         -6.98158410          1.48611413         -3.14908902
     7         -1.44385041         -0.28367316          2.23969580
     6          1.04396046         -0.67174261          7.39560836
     6          4.31771496         -0.87796993         -5.78709985
     1          4.34220647         -0.54799927         -3.75019800
     1          6.15158594         -1.65351558         -6.33818806
     1          4.06799363          0.93789677         -6.73837603
     6          2.65563481         -5.28896617         -5.17807260
     1          1.19517612         -6.66254297         -5.67195298
     1          4.48601391         -6.05378813         -5.75398229
     1          2.67328948         -5.06470232         -3.12665602
     6          2.30351879         -3.18264226         -9.39772207
     1          0.86373370         -4.52799389        -10.01756454
     1          2.05214775         -1.42165224        -10.44762820
     1          4.14956275         -3.95743086         -9.89891873
     6         -7.12465741          3.57285344         -8.48798082
     1         -8.58332499          4.03469759         -9.87681828
     1         -7.77351858          4.16655414         -6.62781645
     1         -5.42190578          4.64019026         -8.96787501
     6         -9.03273849         -0.77913593         -7.94262125
     1         -9.76157389         -0.26026765         -6.09020430
     1        -10.47214183         -0.36518065         -9.36625204
     1         -8.67021427         -2.81296647         -7.96417937
     6         -5.79524525          0.01624488        -11.27344969
     1         -4.10160220          1.04467548        -11.85747952
     1         -5.42956735         -2.00688839        -11.47390517
     1         -7.32136774          0.51914328        -12.56840293
     8          2.50658488         -1.58688239          5.91651526
     7          1.95348213         -0.65768149         10.16829772
     1          1.94760246          1.11254363         10.95016684
     1          3.76928838         -1.32154514         10.17261624
     1         -6.80100498          1.89541679          0.49807200
     1          0.88086992         -1.81985468         11.28509524

 Electric dipole moment (dipole orientation):
 (Debye = 10**-18 statcoulomb cm , SI units = C m)
                  (au)            (Debye)         (10**-30 SI)
   Tot        0.762435D+01      0.193792D+02      0.646419D+02
   x          0.000000D+00      0.000000D+00      0.000000D+00
   y          0.000000D+00      0.000000D+00      0.000000D+00
   z          0.762435D+01      0.193792D+02      0.646419D+02

 Dipole polarizability, Alpha (dipole orientation).
 (esu units = cm**3 , SI units = C**2 m**2 J**-1)
 Alpha(0;0):
               (au)            (10**-24 esu)      (10**-40 SI)
   iso        0.429674D+03      0.636712D+02      0.708437D+02
   aniso      0.393463D+03      0.583052D+02      0.648733D+02
   xx         0.414711D+03      0.614539D+02      0.683767D+02
   yx        -0.982074D+02     -0.145528D+02     -0.161922D+02
   yy         0.240838D+03      0.356885D+02      0.397088D+02
   zx         0.564914D+00      0.837116D-01      0.931417D-01
   zy         0.570137D+02      0.844856D+01      0.940029D+01
   zz         0.633474D+03      0.938712D+02      0.104446D+03

 ----------------------------------------------------------------------

 This type of calculation cannot be archived.


 IF I AM NOT FOR MYSELF, WHO WILL BE?
 BUT IF I AM ONLY FOR MYSELF, WHAT AM I?
 THOUGH A SEEKER SINCE MY BIRTH,
 HERE IS ALL I'VE LEARNED ON EARTH,
 THIS IS THE GIST OF WHAT I KNOW:
 GIVE ADVICE AND BUY A FOE.

 PRESSED FOR RULES AND VERITIES,
 ALL I RECOLLECT ARE THESE:
 FEED A COLD TO STARVE A FEVER,
 ARGUE WITH NO TRUE-BELIEVER.
 THINK-TOO-LONG IS NEVER-ACT,
 SCRATCH A MYTH AND FIND A FACT.

 STITCH IN TIME SAVES TWENTY STITCHES,
 GIVE THE RICH TO PLEASE THEM, RICHES.
 GIVE TO LOVE YOU HEARTH AND HALL,
 BUT DO NOT GIVE ADVICE AT ALL.

                                  -- HILLEL
 Job cpu time:       0 days  0 hours  0 minutes 23.5 seconds.
 Elapsed time:       0 days  0 hours  0 minutes  1.8 seconds.
 File lengths (MBytes):  RWF=     72 Int=      0 D2E=      0 Chk=     56 Scr=      8
 Normal termination of Gaussian 16 at Wed Feb 13 10:02:31 2019.
