 Entering Gaussian System, Link 0=g16
 Initial command:
 /gpfs/apps/hpc/Apps/Restricted/Gaussian/Rev_A.03/g16/l1.exe "/gpfs/scratch60/fas/hammes_schiffer/jg2487/c25n01/Gau-11130.inp" -scrdir="/gpfs/scratch60/fas/hammes_schiffer/jg2487/c25n01/"
 Entering Link 1 = /gpfs/apps/hpc/Apps/Restricted/Gaussian/Rev_A.03/g16/l1.exe PID=     11131.
  
 Copyright (c) 1988,1990,1992,1993,1995,1998,2003,2009,2016,
            Gaussian, Inc.  All Rights Reserved.
  
 This is part of the Gaussian(R) 16 program.  It is based on
 the Gaussian(R) 09 system (copyright 2009, Gaussian, Inc.),
 the Gaussian(R) 03 system (copyright 2003, Gaussian, Inc.),
 the Gaussian(R) 98 system (copyright 1998, Gaussian, Inc.),
 the Gaussian(R) 94 system (copyright 1995, Gaussian, Inc.),
 the Gaussian 92(TM) system (copyright 1992, Gaussian, Inc.),
 the Gaussian 90(TM) system (copyright 1990, Gaussian, Inc.),
 the Gaussian 88(TM) system (copyright 1988, Gaussian, Inc.),
 the Gaussian 86(TM) system (copyright 1986, Carnegie Mellon
 University), and the Gaussian 82(TM) system (copyright 1983,
 Carnegie Mellon University). Gaussian is a federally registered
 trademark of Gaussian, Inc.
  
 This software contains proprietary and confidential information,
 including trade secrets, belonging to Gaussian, Inc.
  
 This software is provided under written license and may be
 used, copied, transmitted, or stored only in accord with that
 written license.
  
 The following legend is applicable only to US Government
 contracts under FAR:
  
                    RESTRICTED RIGHTS LEGEND
  
 Use, reproduction and disclosure by the US Government is
 subject to restrictions as set forth in subparagraphs (a)
 and (c) of the Commercial Computer Software - Restricted
 Rights clause in FAR 52.227-19.
  
 Gaussian, Inc.
 340 Quinnipiac St., Bldg. 40, Wallingford CT 06492
  
  
 ---------------------------------------------------------------
 Warning -- This program may not be used in any manner that
 competes with the business of Gaussian, Inc. or will provide
 assistance to any competitor of Gaussian, Inc.  The licensee
 of this program is prohibited from giving any competitor of
 Gaussian, Inc. access to this program.  By using this program,
 the user acknowledges that Gaussian, Inc. is engaged in the
 business of creating and licensing software in the field of
 computational chemistry and represents and warrants to the
 licensee that it is not a competitor of Gaussian, Inc. and that
 it will not use this program in any manner prohibited above.
 ---------------------------------------------------------------
  

 Cite this work as:
 Gaussian 16, Revision A.03,
 M. J. Frisch, G. W. Trucks, H. B. Schlegel, G. E. Scuseria, 
 M. A. Robb, J. R. Cheeseman, G. Scalmani, V. Barone, 
 G. A. Petersson, H. Nakatsuji, X. Li, M. Caricato, A. V. Marenich, 
 J. Bloino, B. G. Janesko, R. Gomperts, B. Mennucci, H. P. Hratchian, 
 J. V. Ortiz, A. F. Izmaylov, J. L. Sonnenberg, D. Williams-Young, 
 F. Ding, F. Lipparini, F. Egidi, J. Goings, B. Peng, A. Petrone, 
 T. Henderson, D. Ranasinghe, V. G. Zakrzewski, J. Gao, N. Rega, 
 G. Zheng, W. Liang, M. Hada, M. Ehara, K. Toyota, R. Fukuda, 
 J. Hasegawa, M. Ishida, T. Nakajima, Y. Honda, O. Kitao, H. Nakai, 
 T. Vreven, K. Throssell, J. A. Montgomery, Jr., J. E. Peralta, 
 F. Ogliaro, M. J. Bearpark, J. J. Heyd, E. N. Brothers, K. N. Kudin, 
 V. N. Staroverov, T. A. Keith, R. Kobayashi, J. Normand, 
 K. Raghavachari, A. P. Rendell, J. C. Burant, S. S. Iyengar, 
 J. Tomasi, M. Cossi, J. M. Millam, M. Klene, C. Adamo, R. Cammi, 
 J. W. Ochterski, R. L. Martin, K. Morokuma, O. Farkas, 
 J. B. Foresman, and D. J. Fox, Gaussian, Inc., Wallingford CT, 2016.
 
 ******************************************
 Gaussian 16:  ES64L-G16RevA.03 25-Dec-2016
                20-Dec-2018 
 ******************************************
 %chk=cyclohexyl-diBIP-neutral.chk
 %mem=10GB
 %nprocshared=16
 Will use up to   16 processors via shared memory.
 ----------------------------------------------------------------------
 #p opt=tight freq=internalmodes b3lyp/6-31g(d,p) scrf=(cpcm,solvent=di
 chloromethane,read) nosymm empiricaldispersion=gd3bj int=grid=ultrafin
 e
 ----------------------------------------------------------------------
 1/7=10,18=20,19=15,26=6,38=1,40=2/1,3;
 2/9=110,12=2,15=1,17=6,18=5,40=1/2;
 3/5=1,6=6,7=101,11=2,25=1,30=1,70=2103,71=1,72=9,74=-5,75=-5,124=41/1,2,3;
 4//1;
 5/5=2,38=5,53=9/2;
 6/7=2,8=2,9=2,10=2,28=1/1;
 7/30=1/1,2,3,16;
 1/7=10,18=20,19=15,26=6/3(2);
 2/9=110,15=1/2;
 99//99;
 2/9=110,15=1/2;
 3/5=1,6=6,7=101,11=2,25=1,30=1,70=2105,71=1,72=9,74=-5,75=-5,124=41/1,2,3;
 4/5=5,16=3,69=1/1;
 5/5=2,38=5,53=9/2;
 7/30=1/1,2,3,16;
 1/7=10,18=20,19=15,26=6/3(-5);
 2/9=110,15=1/2;
 6/7=2,8=2,9=2,10=2,19=2,28=1/1;
 99/9=1/99;
 Leave Link    1 at Thu Dec 20 18:56:29 2018, MaxMem=  1342177280 cpu:               7.8 elap:               0.5
 (Enter /gpfs/apps/hpc/Apps/Restricted/Gaussian/Rev_A.03/g16/l101.exe)
 ------------------------------------------
 cyclohexylimine diBIP neutral optimization
 ------------------------------------------
 Symbolic Z-matrix:
 Charge =  0 Multiplicity = 1
 C                     1.59067   1.13871   0.16293 
 C                     0.37304   1.85685   0.14755 
 C                     0.39195   3.25423   0.05531 
 C                     1.63114   3.8866   -0.03037 
 C                     2.83148   3.15699  -0.02124 
 C                     2.84634   1.75944   0.07737 
 C                    -0.1378   -0.24166   0.28699 
 H                    -0.53115   3.82092   0.04623 
 H                     1.6739    4.96663  -0.10627 
 H                     3.7768    3.68425  -0.09212 
 C                    -2.30339  -1.4268    0.30473 
 C                    -3.11507  -2.58317   0.34572 
 C                    -2.52488  -3.84458   0.47078 
 C                    -1.13329  -3.90495   0.54664 
 C                    -0.33631  -2.7512    0.49333 
 C                    -0.90248  -1.47473   0.36783 
 C                    -4.44575  -0.87148   0.15129 
 H                    -3.1317   -4.74093   0.5058 
 H                    -0.64922  -4.86902   0.6473 
 H                     0.74077  -2.85324   0.55622 
 N                    -0.68897   0.96951   0.22591 
 C                    -6.89946  -0.72477  -0.13351 
 C                    -5.65026  -0.07221   0.00648 
 C                    -5.60107   1.33207  -0.00836 
 C                    -6.75045   2.09816  -0.16896 
 C                    -7.97247   1.4236   -0.319 
 C                    -8.07202   0.03408  -0.30216 
 H                    -4.6452    1.8309    0.11275 
 H                    -8.88214   2.00371  -0.44419 
 C                    -6.6824    3.60537  -0.18789 
 C                    -9.39283  -0.66903  -0.4495 
 O                    -7.01921  -2.07101  -0.11363 
 H                    -6.10752  -2.45242   0.02625 
 N                    -3.17065  -0.3669    0.18646 
 N                    -4.44424  -2.20328   0.24626 
 H                    -2.84785   0.59248   0.12775 
 N                     1.23589  -0.18367   0.25546 
 H                     1.92242  -0.9284    0.26656 
 C                     4.09066   0.99861   0.08464 
 H                     5.00689   1.59296  -0.00532 
 N                     4.10627  -0.28011   0.18439 
 C                     5.42468  -0.93761   0.16025 
 C                     6.14088  -0.72536  -1.18399 
 C                     6.32364  -0.49868   1.3286 
 H                     5.23532  -2.01124   0.2735 
 C                     7.49544  -1.44076  -1.21787 
 H                     6.29235   0.35124  -1.32847 
 H                     5.49734  -1.07188  -1.99857 
 C                     7.67682  -1.21752   1.29188 
 H                     6.48607   0.58324   1.26145 
 H                     5.80883  -0.68955   2.27526 
 C                     8.38707  -1.00601  -0.04973 
 H                     7.99265  -1.24448  -2.17325 
 H                     7.33355  -2.52442  -1.16067 
 H                     8.30344  -0.86634   2.11793 
 H                     7.51897  -2.29219   1.44905 
 H                     9.33285  -1.55642  -0.06943 
 H                     8.63398   0.05728  -0.16285 
 C                    -5.94457   4.11652  -1.43926 
 H                    -6.3511    5.06212  -1.73163 
 H                    -4.9036    4.22869  -1.2186 
 H                    -6.06638   3.41391  -2.23701 
 C                    -5.92132   4.14587   1.03695 
 H                    -4.86806   4.06559   0.86636 
 H                    -6.1801    5.17227   1.19325 
 H                    -6.187     3.5753    1.90226 
 C                    -8.09354   4.22202  -0.18725 
 H                    -8.61012   3.93152  -1.07812 
 H                    -8.63432   3.87436   0.66808 
 H                    -8.01666   5.28865  -0.15127 
 C                    -9.35437  -1.69725  -1.59531 
 H                    -9.13415  -2.66601  -1.19795 
 H                    -10.3051  -1.72056  -2.08568 
 H                    -8.59712  -1.41958  -2.29843 
 C                    -9.75551  -1.44692   0.82915 
 H                    -10.81566  -1.42363   0.97219 
 H                    -9.43076  -2.46194   0.73332 
 H                    -9.27212  -0.99569   1.67035 
 C                    -10.51734   0.34395  -0.73402 
 H                    -10.60853   1.01715   0.09266 
 H                    -10.28377   0.89662  -1.61997 
 H                    -11.44104  -0.17809  -0.87243 
 
 ITRead=  0  0  0  0  0  0  0  0  0  0  0  0  0  0  0  0  0  0  0  0
 ITRead=  0  0  0  0  0  0  0  0  0  0  0  0  0  0  0  0  0  0  0  0
 ITRead=  0  0  0  0  0  0  0  0  0  0  0  0  0  0  0  0  0  0  0  0
 ITRead=  0  0  0  0  0  0  0  0  0  0  0  0  0  0  0  0  0  0  0  0
 ITRead=  0  0
 MicOpt= -1 -1 -1 -1 -1 -1 -1 -1 -1 -1 -1 -1 -1 -1 -1 -1 -1 -1 -1 -1
 MicOpt= -1 -1 -1 -1 -1 -1 -1 -1 -1 -1 -1 -1 -1 -1 -1 -1 -1 -1 -1 -1
 MicOpt= -1 -1 -1 -1 -1 -1 -1 -1 -1 -1 -1 -1 -1 -1 -1 -1 -1 -1 -1 -1
 MicOpt= -1 -1 -1 -1 -1 -1 -1 -1 -1 -1 -1 -1 -1 -1 -1 -1 -1 -1 -1 -1
 MicOpt= -1 -1
 NAtoms=     82 NQM=       82 NQMF=       0 NMMI=      0 NMMIF=      0
                NMic=       0 NMicF=      0.
                    Isotopes and Nuclear Properties:
 (Nuclear quadrupole moments (NQMom) in fm**2, nuclear magnetic moments (NMagM)
  in nuclear magnetons)

  Atom         1           2           3           4           5           6           7           8           9          10
 IAtWgt=          12          12          12          12          12          12          12           1           1           1
 AtmWgt=  12.0000000  12.0000000  12.0000000  12.0000000  12.0000000  12.0000000  12.0000000   1.0078250   1.0078250   1.0078250
 NucSpn=           0           0           0           0           0           0           0           1           1           1
 AtZEff=  -0.0000000  -0.0000000  -0.0000000  -0.0000000  -0.0000000  -0.0000000  -0.0000000  -0.0000000  -0.0000000  -0.0000000
 NQMom=    0.0000000   0.0000000   0.0000000   0.0000000   0.0000000   0.0000000   0.0000000   0.0000000   0.0000000   0.0000000
 NMagM=    0.0000000   0.0000000   0.0000000   0.0000000   0.0000000   0.0000000   0.0000000   2.7928460   2.7928460   2.7928460
 AtZNuc=   6.0000000   6.0000000   6.0000000   6.0000000   6.0000000   6.0000000   6.0000000   1.0000000   1.0000000   1.0000000

  Atom        11          12          13          14          15          16          17          18          19          20
 IAtWgt=          12          12          12          12          12          12          12           1           1           1
 AtmWgt=  12.0000000  12.0000000  12.0000000  12.0000000  12.0000000  12.0000000  12.0000000   1.0078250   1.0078250   1.0078250
 NucSpn=           0           0           0           0           0           0           0           1           1           1
 AtZEff=  -0.0000000  -0.0000000  -0.0000000  -0.0000000  -0.0000000  -0.0000000  -0.0000000  -0.0000000  -0.0000000  -0.0000000
 NQMom=    0.0000000   0.0000000   0.0000000   0.0000000   0.0000000   0.0000000   0.0000000   0.0000000   0.0000000   0.0000000
 NMagM=    0.0000000   0.0000000   0.0000000   0.0000000   0.0000000   0.0000000   0.0000000   2.7928460   2.7928460   2.7928460
 AtZNuc=   6.0000000   6.0000000   6.0000000   6.0000000   6.0000000   6.0000000   6.0000000   1.0000000   1.0000000   1.0000000

  Atom        21          22          23          24          25          26          27          28          29          30
 IAtWgt=          14          12          12          12          12          12          12           1           1          12
 AtmWgt=  14.0030740  12.0000000  12.0000000  12.0000000  12.0000000  12.0000000  12.0000000   1.0078250   1.0078250  12.0000000
 NucSpn=           2           0           0           0           0           0           0           1           1           0
 AtZEff=  -0.0000000  -0.0000000  -0.0000000  -0.0000000  -0.0000000  -0.0000000  -0.0000000  -0.0000000  -0.0000000  -0.0000000
 NQMom=    2.0440000   0.0000000   0.0000000   0.0000000   0.0000000   0.0000000   0.0000000   0.0000000   0.0000000   0.0000000
 NMagM=    0.4037610   0.0000000   0.0000000   0.0000000   0.0000000   0.0000000   0.0000000   2.7928460   2.7928460   0.0000000
 AtZNuc=   7.0000000   6.0000000   6.0000000   6.0000000   6.0000000   6.0000000   6.0000000   1.0000000   1.0000000   6.0000000

  Atom        31          32          33          34          35          36          37          38          39          40
 IAtWgt=          12          16           1          14          14           1          14           1          12           1
 AtmWgt=  12.0000000  15.9949146   1.0078250  14.0030740  14.0030740   1.0078250  14.0030740   1.0078250  12.0000000   1.0078250
 NucSpn=           0           0           1           2           2           1           2           1           0           1
 AtZEff=  -0.0000000  -0.0000000  -0.0000000  -0.0000000  -0.0000000  -0.0000000  -0.0000000  -0.0000000  -0.0000000  -0.0000000
 NQMom=    0.0000000   0.0000000   0.0000000   2.0440000   2.0440000   0.0000000   2.0440000   0.0000000   0.0000000   0.0000000
 NMagM=    0.0000000   0.0000000   2.7928460   0.4037610   0.4037610   2.7928460   0.4037610   2.7928460   0.0000000   2.7928460
 AtZNuc=   6.0000000   8.0000000   1.0000000   7.0000000   7.0000000   1.0000000   7.0000000   1.0000000   6.0000000   1.0000000

  Atom        41          42          43          44          45          46          47          48          49          50
 IAtWgt=          14          12          12          12           1          12           1           1          12           1
 AtmWgt=  14.0030740  12.0000000  12.0000000  12.0000000   1.0078250  12.0000000   1.0078250   1.0078250  12.0000000   1.0078250
 NucSpn=           2           0           0           0           1           0           1           1           0           1
 AtZEff=  -0.0000000  -0.0000000  -0.0000000  -0.0000000  -0.0000000  -0.0000000  -0.0000000  -0.0000000  -0.0000000  -0.0000000
 NQMom=    2.0440000   0.0000000   0.0000000   0.0000000   0.0000000   0.0000000   0.0000000   0.0000000   0.0000000   0.0000000
 NMagM=    0.4037610   0.0000000   0.0000000   0.0000000   2.7928460   0.0000000   2.7928460   2.7928460   0.0000000   2.7928460
 AtZNuc=   7.0000000   6.0000000   6.0000000   6.0000000   1.0000000   6.0000000   1.0000000   1.0000000   6.0000000   1.0000000

  Atom        51          52          53          54          55          56          57          58          59          60
 IAtWgt=           1          12           1           1           1           1           1           1          12           1
 AtmWgt=   1.0078250  12.0000000   1.0078250   1.0078250   1.0078250   1.0078250   1.0078250   1.0078250  12.0000000   1.0078250
 NucSpn=           1           0           1           1           1           1           1           1           0           1
 AtZEff=  -0.0000000  -0.0000000  -0.0000000  -0.0000000  -0.0000000  -0.0000000  -0.0000000  -0.0000000  -0.0000000  -0.0000000
 NQMom=    0.0000000   0.0000000   0.0000000   0.0000000   0.0000000   0.0000000   0.0000000   0.0000000   0.0000000   0.0000000
 NMagM=    2.7928460   0.0000000   2.7928460   2.7928460   2.7928460   2.7928460   2.7928460   2.7928460   0.0000000   2.7928460
 AtZNuc=   1.0000000   6.0000000   1.0000000   1.0000000   1.0000000   1.0000000   1.0000000   1.0000000   6.0000000   1.0000000

  Atom        61          62          63          64          65          66          67          68          69          70
 IAtWgt=           1           1          12           1           1           1          12           1           1           1
 AtmWgt=   1.0078250   1.0078250  12.0000000   1.0078250   1.0078250   1.0078250  12.0000000   1.0078250   1.0078250   1.0078250
 NucSpn=           1           1           0           1           1           1           0           1           1           1
 AtZEff=  -0.0000000  -0.0000000  -0.0000000  -0.0000000  -0.0000000  -0.0000000  -0.0000000  -0.0000000  -0.0000000  -0.0000000
 NQMom=    0.0000000   0.0000000   0.0000000   0.0000000   0.0000000   0.0000000   0.0000000   0.0000000   0.0000000   0.0000000
 NMagM=    2.7928460   2.7928460   0.0000000   2.7928460   2.7928460   2.7928460   0.0000000   2.7928460   2.7928460   2.7928460
 AtZNuc=   1.0000000   1.0000000   6.0000000   1.0000000   1.0000000   1.0000000   6.0000000   1.0000000   1.0000000   1.0000000

  Atom        71          72          73          74          75          76          77          78          79          80
 IAtWgt=          12           1           1           1          12           1           1           1          12           1
 AtmWgt=  12.0000000   1.0078250   1.0078250   1.0078250  12.0000000   1.0078250   1.0078250   1.0078250  12.0000000   1.0078250
 NucSpn=           0           1           1           1           0           1           1           1           0           1
 AtZEff=  -0.0000000  -0.0000000  -0.0000000  -0.0000000  -0.0000000  -0.0000000  -0.0000000  -0.0000000  -0.0000000  -0.0000000
 NQMom=    0.0000000   0.0000000   0.0000000   0.0000000   0.0000000   0.0000000   0.0000000   0.0000000   0.0000000   0.0000000
 NMagM=    0.0000000   2.7928460   2.7928460   2.7928460   0.0000000   2.7928460   2.7928460   2.7928460   0.0000000   2.7928460
 AtZNuc=   6.0000000   1.0000000   1.0000000   1.0000000   6.0000000   1.0000000   1.0000000   1.0000000   6.0000000   1.0000000

  Atom        81          82
 IAtWgt=           1           1
 AtmWgt=   1.0078250   1.0078250
 NucSpn=           1           1
 AtZEff=  -0.0000000  -0.0000000
 NQMom=    0.0000000   0.0000000
 NMagM=    2.7928460   2.7928460
 AtZNuc=   1.0000000   1.0000000
 Leave Link  101 at Thu Dec 20 18:56:30 2018, MaxMem=  1342177280 cpu:               4.5 elap:               0.3
 (Enter /gpfs/apps/hpc/Apps/Restricted/Gaussian/Rev_A.03/g16/l103.exe)

 GradGradGradGradGradGradGradGradGradGradGradGradGradGradGradGradGradGrad
 Berny optimization.
 Initialization pass.
                           ----------------------------
                           !    Initial Parameters    !
                           ! (Angstroms and Degrees)  !
 --------------------------                            --------------------------
 ! Name  Definition              Value          Derivative Info.                !
 --------------------------------------------------------------------------------
 ! R1    R(1,2)                  1.4137         estimate D2E/DX2                !
 ! R2    R(1,6)                  1.4033         estimate D2E/DX2                !
 ! R3    R(1,37)                 1.3723         estimate D2E/DX2                !
 ! R4    R(2,3)                  1.4005         estimate D2E/DX2                !
 ! R5    R(2,21)                 1.3861         estimate D2E/DX2                !
 ! R6    R(3,4)                  1.3939         estimate D2E/DX2                !
 ! R7    R(3,8)                  1.0832         estimate D2E/DX2                !
 ! R8    R(4,5)                  1.4047         estimate D2E/DX2                !
 ! R9    R(4,9)                  1.0835         estimate D2E/DX2                !
 ! R10   R(5,6)                  1.4011         estimate D2E/DX2                !
 ! R11   R(5,10)                 1.0847         estimate D2E/DX2                !
 ! R12   R(6,39)                 1.4585         estimate D2E/DX2                !
 ! R13   R(7,16)                 1.4532         estimate D2E/DX2                !
 ! R14   R(7,21)                 1.3321         estimate D2E/DX2                !
 ! R15   R(7,37)                 1.3753         estimate D2E/DX2                !
 ! R16   R(11,12)                1.4134         estimate D2E/DX2                !
 ! R17   R(11,16)                1.4032         estimate D2E/DX2                !
 ! R18   R(11,34)                1.3746         estimate D2E/DX2                !
 ! R19   R(12,13)                1.3983         estimate D2E/DX2                !
 ! R20   R(12,35)                1.386          estimate D2E/DX2                !
 ! R21   R(13,14)                1.395          estimate D2E/DX2                !
 ! R22   R(13,18)                1.083          estimate D2E/DX2                !
 ! R23   R(14,15)                1.4033         estimate D2E/DX2                !
 ! R24   R(14,19)                1.0835         estimate D2E/DX2                !
 ! R25   R(15,16)                1.402          estimate D2E/DX2                !
 ! R26   R(15,20)                1.0837         estimate D2E/DX2                !
 ! R27   R(17,23)                1.4528         estimate D2E/DX2                !
 ! R28   R(17,34)                1.3718         estimate D2E/DX2                !
 ! R29   R(17,35)                1.3352         estimate D2E/DX2                !
 ! R30   R(22,23)                1.4163         estimate D2E/DX2                !
 ! R31   R(22,27)                1.4068         estimate D2E/DX2                !
 ! R32   R(22,32)                1.3517         estimate D2E/DX2                !
 ! R33   R(23,24)                1.4052         estimate D2E/DX2                !
 ! R34   R(24,25)                1.3906         estimate D2E/DX2                !
 ! R35   R(24,28)                1.085          estimate D2E/DX2                !
 ! R36   R(25,26)                1.4039         estimate D2E/DX2                !
 ! R37   R(25,30)                1.5089         estimate D2E/DX2                !
 ! R38   R(26,27)                1.3932         estimate D2E/DX2                !
 ! R39   R(26,29)                1.0861         estimate D2E/DX2                !
 ! R40   R(27,31)                1.5035         estimate D2E/DX2                !
 ! R41   R(30,59)                1.54           estimate D2E/DX2                !
 ! R42   R(30,63)                1.54           estimate D2E/DX2                !
 ! R43   R(30,67)                1.54           estimate D2E/DX2                !
 ! R44   R(31,71)                1.54           estimate D2E/DX2                !
 ! R45   R(31,75)                1.54           estimate D2E/DX2                !
 ! R46   R(31,79)                1.54           estimate D2E/DX2                !
 ! R47   R(32,33)                0.9981         estimate D2E/DX2                !
 ! R48   R(34,36)                1.0139         estimate D2E/DX2                !
 ! R49   R(37,38)                1.013          estimate D2E/DX2                !
 ! R50   R(39,40)                1.0958         estimate D2E/DX2                !
 ! R51   R(39,41)                1.2827         estimate D2E/DX2                !
 ! R52   R(41,42)                1.4735         estimate D2E/DX2                !
 ! R53   R(42,43)                1.5379         estimate D2E/DX2                !
 ! R54   R(42,44)                1.5381         estimate D2E/DX2                !
 ! R55   R(42,45)                1.0961         estimate D2E/DX2                !
 ! R56   R(43,46)                1.5322         estimate D2E/DX2                !
 ! R57   R(43,47)                1.0968         estimate D2E/DX2                !
 ! R58   R(43,48)                1.0944         estimate D2E/DX2                !
 ! R59   R(44,49)                1.5327         estimate D2E/DX2                !
 ! R60   R(44,50)                1.0961         estimate D2E/DX2                !
 ! R61   R(44,51)                1.0944         estimate D2E/DX2                !
 ! R62   R(46,52)                1.5325         estimate D2E/DX2                !
 ! R63   R(46,53)                1.0948         estimate D2E/DX2                !
 ! R64   R(46,54)                1.0972         estimate D2E/DX2                !
 ! R65   R(49,52)                1.5327         estimate D2E/DX2                !
 ! R66   R(49,55)                1.0947         estimate D2E/DX2                !
 ! R67   R(49,56)                1.0975         estimate D2E/DX2                !
 ! R68   R(52,57)                1.0945         estimate D2E/DX2                !
 ! R69   R(52,58)                1.0974         estimate D2E/DX2                !
 ! R70   R(59,60)                1.07           estimate D2E/DX2                !
 ! R71   R(59,61)                1.07           estimate D2E/DX2                !
 ! R72   R(59,62)                1.07           estimate D2E/DX2                !
 ! R73   R(63,64)                1.07           estimate D2E/DX2                !
 ! R74   R(63,65)                1.07           estimate D2E/DX2                !
 ! R75   R(63,66)                1.07           estimate D2E/DX2                !
 ! R76   R(67,68)                1.07           estimate D2E/DX2                !
 ! R77   R(67,69)                1.07           estimate D2E/DX2                !
 ! R78   R(67,70)                1.07           estimate D2E/DX2                !
 ! R79   R(71,72)                1.07           estimate D2E/DX2                !
 ! R80   R(71,73)                1.07           estimate D2E/DX2                !
 ! R81   R(71,74)                1.07           estimate D2E/DX2                !
 ! R82   R(75,76)                1.07           estimate D2E/DX2                !
 ! R83   R(75,77)                1.07           estimate D2E/DX2                !
 ! R84   R(75,78)                1.07           estimate D2E/DX2                !
 ! R85   R(79,80)                1.07           estimate D2E/DX2                !
 ! R86   R(79,81)                1.07           estimate D2E/DX2                !
 ! R87   R(79,82)                1.07           estimate D2E/DX2                !
 ! A1    A(2,1,6)              123.046          estimate D2E/DX2                !
 ! A2    A(2,1,37)             105.5202         estimate D2E/DX2                !
 ! A3    A(6,1,37)             131.4286         estimate D2E/DX2                !
 ! A4    A(1,2,3)              119.7307         estimate D2E/DX2                !
 ! A5    A(1,2,21)             109.5171         estimate D2E/DX2                !
 ! A6    A(3,2,21)             130.7511         estimate D2E/DX2                !
 ! A7    A(2,3,4)              117.9509         estimate D2E/DX2                !
 ! A8    A(2,3,8)              120.7322         estimate D2E/DX2                !
 ! A9    A(4,3,8)              121.3163         estimate D2E/DX2                !
 ! A10   A(3,4,5)              121.5767         estimate D2E/DX2                !
 ! A11   A(3,4,9)              119.4467         estimate D2E/DX2                !
 ! A12   A(5,4,9)              118.9766         estimate D2E/DX2                !
 ! A13   A(4,5,6)              121.8439         estimate D2E/DX2                !
 ! A14   A(4,5,10)             119.4579         estimate D2E/DX2                !
 ! A15   A(6,5,10)             118.6982         estimate D2E/DX2                !
 ! A16   A(1,6,5)              115.8492         estimate D2E/DX2                !
 ! A17   A(1,6,39)             122.1634         estimate D2E/DX2                !
 ! A18   A(5,6,39)             121.9869         estimate D2E/DX2                !
 ! A19   A(16,7,21)            123.8025         estimate D2E/DX2                !
 ! A20   A(16,7,37)            124.2399         estimate D2E/DX2                !
 ! A21   A(21,7,37)            111.9563         estimate D2E/DX2                !
 ! A22   A(12,11,16)           122.9635         estimate D2E/DX2                !
 ! A23   A(12,11,34)           105.7251         estimate D2E/DX2                !
 ! A24   A(16,11,34)           131.3089         estimate D2E/DX2                !
 ! A25   A(11,12,13)           119.8862         estimate D2E/DX2                !
 ! A26   A(11,12,35)           108.9293         estimate D2E/DX2                !
 ! A27   A(13,12,35)           131.1844         estimate D2E/DX2                !
 ! A28   A(12,13,14)           117.7083         estimate D2E/DX2                !
 ! A29   A(12,13,18)           120.8667         estimate D2E/DX2                !
 ! A30   A(14,13,18)           121.4249         estimate D2E/DX2                !
 ! A31   A(13,14,15)           121.9332         estimate D2E/DX2                !
 ! A32   A(13,14,19)           119.2917         estimate D2E/DX2                !
 ! A33   A(15,14,19)           118.775          estimate D2E/DX2                !
 ! A34   A(14,15,16)           121.5072         estimate D2E/DX2                !
 ! A35   A(14,15,20)           119.0024         estimate D2E/DX2                !
 ! A36   A(16,15,20)           119.4896         estimate D2E/DX2                !
 ! A37   A(7,16,11)            119.5962         estimate D2E/DX2                !
 ! A38   A(7,16,15)            124.4041         estimate D2E/DX2                !
 ! A39   A(11,16,15)           115.9959         estimate D2E/DX2                !
 ! A40   A(23,17,34)           124.8096         estimate D2E/DX2                !
 ! A41   A(23,17,35)           123.8347         estimate D2E/DX2                !
 ! A42   A(34,17,35)           111.3478         estimate D2E/DX2                !
 ! A43   A(2,21,7)             105.5231         estimate D2E/DX2                !
 ! A44   A(23,22,27)           119.8975         estimate D2E/DX2                !
 ! A45   A(23,22,32)           122.3831         estimate D2E/DX2                !
 ! A46   A(27,22,32)           117.7194         estimate D2E/DX2                !
 ! A47   A(17,23,22)           119.1848         estimate D2E/DX2                !
 ! A48   A(17,23,24)           121.4547         estimate D2E/DX2                !
 ! A49   A(22,23,24)           119.3586         estimate D2E/DX2                !
 ! A50   A(23,24,25)           121.5218         estimate D2E/DX2                !
 ! A51   A(23,24,28)           119.2821         estimate D2E/DX2                !
 ! A52   A(25,24,28)           119.1955         estimate D2E/DX2                !
 ! A53   A(24,25,26)           117.8466         estimate D2E/DX2                !
 ! A54   A(24,25,30)           120.9621         estimate D2E/DX2                !
 ! A55   A(26,25,30)           121.1906         estimate D2E/DX2                !
 ! A56   A(25,26,27)           122.6929         estimate D2E/DX2                !
 ! A57   A(25,26,29)           118.9943         estimate D2E/DX2                !
 ! A58   A(27,26,29)           118.3101         estimate D2E/DX2                !
 ! A59   A(22,27,26)           118.6773         estimate D2E/DX2                !
 ! A60   A(22,27,31)           119.4517         estimate D2E/DX2                !
 ! A61   A(26,27,31)           121.8697         estimate D2E/DX2                !
 ! A62   A(25,30,59)           111.3063         estimate D2E/DX2                !
 ! A63   A(25,30,63)           111.2787         estimate D2E/DX2                !
 ! A64   A(25,30,67)           111.0175         estimate D2E/DX2                !
 ! A65   A(59,30,63)           107.0384         estimate D2E/DX2                !
 ! A66   A(59,30,67)           107.8451         estimate D2E/DX2                !
 ! A67   A(63,30,67)           108.179          estimate D2E/DX2                !
 ! A68   A(27,31,71)           111.2965         estimate D2E/DX2                !
 ! A69   A(27,31,75)           111.2069         estimate D2E/DX2                !
 ! A70   A(27,31,79)           110.6076         estimate D2E/DX2                !
 ! A71   A(71,31,75)           106.6418         estimate D2E/DX2                !
 ! A72   A(71,31,79)           108.6605         estimate D2E/DX2                !
 ! A73   A(75,31,79)           108.2821         estimate D2E/DX2                !
 ! A74   A(22,32,33)           107.5611         estimate D2E/DX2                !
 ! A75   A(11,34,17)           107.7605         estimate D2E/DX2                !
 ! A76   A(11,34,36)           122.2553         estimate D2E/DX2                !
 ! A77   A(17,34,36)           129.9787         estimate D2E/DX2                !
 ! A78   A(12,35,17)           106.2364         estimate D2E/DX2                !
 ! A79   A(1,37,7)             107.4826         estimate D2E/DX2                !
 ! A80   A(1,37,38)            122.2761         estimate D2E/DX2                !
 ! A81   A(7,37,38)            130.2195         estimate D2E/DX2                !
 ! A82   A(6,39,40)            115.4664         estimate D2E/DX2                !
 ! A83   A(6,39,41)            122.0595         estimate D2E/DX2                !
 ! A84   A(40,39,41)           122.4735         estimate D2E/DX2                !
 ! A85   A(39,41,42)           117.0301         estimate D2E/DX2                !
 ! A86   A(41,42,43)           111.6813         estimate D2E/DX2                !
 ! A87   A(41,42,44)           112.53           estimate D2E/DX2                !
 ! A88   A(41,42,45)           106.3092         estimate D2E/DX2                !
 ! A89   A(43,42,44)           110.6331         estimate D2E/DX2                !
 ! A90   A(43,42,45)           107.8161         estimate D2E/DX2                !
 ! A91   A(44,42,45)           107.5787         estimate D2E/DX2                !
 ! A92   A(42,43,46)           111.506          estimate D2E/DX2                !
 ! A93   A(42,43,47)           108.3579         estimate D2E/DX2                !
 ! A94   A(42,43,48)           109.4537         estimate D2E/DX2                !
 ! A95   A(46,43,47)           109.4702         estimate D2E/DX2                !
 ! A96   A(46,43,48)           110.8265         estimate D2E/DX2                !
 ! A97   A(47,43,48)           107.0951         estimate D2E/DX2                !
 ! A98   A(42,44,49)           111.3436         estimate D2E/DX2                !
 ! A99   A(42,44,50)           108.769          estimate D2E/DX2                !
 ! A100  A(42,44,51)           109.4123         estimate D2E/DX2                !
 ! A101  A(49,44,50)           109.3071         estimate D2E/DX2                !
 ! A102  A(49,44,51)           110.7468         estimate D2E/DX2                !
 ! A103  A(50,44,51)           107.1496         estimate D2E/DX2                !
 ! A104  A(43,46,52)           111.41           estimate D2E/DX2                !
 ! A105  A(43,46,53)           109.6997         estimate D2E/DX2                !
 ! A106  A(43,46,54)           109.2421         estimate D2E/DX2                !
 ! A107  A(52,46,53)           110.4928         estimate D2E/DX2                !
 ! A108  A(52,46,54)           109.0444         estimate D2E/DX2                !
 ! A109  A(53,46,54)           106.8331         estimate D2E/DX2                !
 ! A110  A(44,49,52)           111.4306         estimate D2E/DX2                !
 ! A111  A(44,49,55)           109.6843         estimate D2E/DX2                !
 ! A112  A(44,49,56)           109.1979         estimate D2E/DX2                !
 ! A113  A(52,49,55)           110.5476         estimate D2E/DX2                !
 ! A114  A(52,49,56)           109.0949         estimate D2E/DX2                !
 ! A115  A(55,49,56)           106.7622         estimate D2E/DX2                !
 ! A116  A(46,52,49)           111.0049         estimate D2E/DX2                !
 ! A117  A(46,52,57)           110.2662         estimate D2E/DX2                !
 ! A118  A(46,52,58)           109.0986         estimate D2E/DX2                !
 ! A119  A(49,52,57)           110.2924         estimate D2E/DX2                !
 ! A120  A(49,52,58)           109.1595         estimate D2E/DX2                !
 ! A121  A(57,52,58)           106.9173         estimate D2E/DX2                !
 ! A122  A(30,59,60)           109.4712         estimate D2E/DX2                !
 ! A123  A(30,59,61)           109.4712         estimate D2E/DX2                !
 ! A124  A(30,59,62)           109.4712         estimate D2E/DX2                !
 ! A125  A(60,59,61)           109.4713         estimate D2E/DX2                !
 ! A126  A(60,59,62)           109.4712         estimate D2E/DX2                !
 ! A127  A(61,59,62)           109.4712         estimate D2E/DX2                !
 ! A128  A(30,63,64)           109.4712         estimate D2E/DX2                !
 ! A129  A(30,63,65)           109.4712         estimate D2E/DX2                !
 ! A130  A(30,63,66)           109.4712         estimate D2E/DX2                !
 ! A131  A(64,63,65)           109.4713         estimate D2E/DX2                !
 ! A132  A(64,63,66)           109.4712         estimate D2E/DX2                !
 ! A133  A(65,63,66)           109.4712         estimate D2E/DX2                !
 ! A134  A(30,67,68)           109.4712         estimate D2E/DX2                !
 ! A135  A(30,67,69)           109.4712         estimate D2E/DX2                !
 ! A136  A(30,67,70)           109.4712         estimate D2E/DX2                !
 ! A137  A(68,67,69)           109.4713         estimate D2E/DX2                !
 ! A138  A(68,67,70)           109.4712         estimate D2E/DX2                !
 ! A139  A(69,67,70)           109.4712         estimate D2E/DX2                !
 ! A140  A(31,71,72)           109.4712         estimate D2E/DX2                !
 ! A141  A(31,71,73)           109.4712         estimate D2E/DX2                !
 ! A142  A(31,71,74)           109.4712         estimate D2E/DX2                !
 ! A143  A(72,71,73)           109.4713         estimate D2E/DX2                !
 ! A144  A(72,71,74)           109.4712         estimate D2E/DX2                !
 ! A145  A(73,71,74)           109.4712         estimate D2E/DX2                !
 ! A146  A(31,75,76)           109.4712         estimate D2E/DX2                !
 ! A147  A(31,75,77)           109.4712         estimate D2E/DX2                !
 ! A148  A(31,75,78)           109.4712         estimate D2E/DX2                !
 ! A149  A(76,75,77)           109.4713         estimate D2E/DX2                !
 ! A150  A(76,75,78)           109.4712         estimate D2E/DX2                !
 ! A151  A(77,75,78)           109.4712         estimate D2E/DX2                !
 ! A152  A(31,79,80)           109.4712         estimate D2E/DX2                !
 ! A153  A(31,79,81)           109.4712         estimate D2E/DX2                !
 ! A154  A(31,79,82)           109.4712         estimate D2E/DX2                !
 ! A155  A(80,79,81)           109.4713         estimate D2E/DX2                !
 ! A156  A(80,79,82)           109.4712         estimate D2E/DX2                !
 ! A157  A(81,79,82)           109.4712         estimate D2E/DX2                !
 ! D1    D(6,1,2,3)             -0.5848         estimate D2E/DX2                !
 ! D2    D(6,1,2,21)           179.082          estimate D2E/DX2                !
 ! D3    D(37,1,2,3)          -179.8466         estimate D2E/DX2                !
 ! D4    D(37,1,2,21)           -0.1799         estimate D2E/DX2                !
 ! D5    D(2,1,6,5)              0.2282         estimate D2E/DX2                !
 ! D6    D(2,1,6,39)          -179.5165         estimate D2E/DX2                !
 ! D7    D(37,1,6,5)           179.2796         estimate D2E/DX2                !
 ! D8    D(37,1,6,39)           -0.4651         estimate D2E/DX2                !
 ! D9    D(2,1,37,7)             0.2662         estimate D2E/DX2                !
 ! D10   D(2,1,37,38)          178.7253         estimate D2E/DX2                !
 ! D11   D(6,1,37,7)          -178.9086         estimate D2E/DX2                !
 ! D12   D(6,1,37,38)           -0.4494         estimate D2E/DX2                !
 ! D13   D(1,2,3,4)              0.5491         estimate D2E/DX2                !
 ! D14   D(1,2,3,8)           -179.7524         estimate D2E/DX2                !
 ! D15   D(21,2,3,4)          -179.0362         estimate D2E/DX2                !
 ! D16   D(21,2,3,8)             0.6622         estimate D2E/DX2                !
 ! D17   D(1,2,21,7)             0.0182         estimate D2E/DX2                !
 ! D18   D(3,2,21,7)           179.6362         estimate D2E/DX2                !
 ! D19   D(2,3,4,5)             -0.2            estimate D2E/DX2                !
 ! D20   D(2,3,4,9)            179.7822         estimate D2E/DX2                !
 ! D21   D(8,3,4,5)           -179.8967         estimate D2E/DX2                !
 ! D22   D(8,3,4,9)              0.0856         estimate D2E/DX2                !
 ! D23   D(3,4,5,6)             -0.1525         estimate D2E/DX2                !
 ! D24   D(3,4,5,10)           179.8526         estimate D2E/DX2                !
 ! D25   D(9,4,5,6)            179.8652         estimate D2E/DX2                !
 ! D26   D(9,4,5,10)            -0.1297         estimate D2E/DX2                !
 ! D27   D(4,5,6,1)              0.1383         estimate D2E/DX2                !
 ! D28   D(4,5,6,39)           179.8836         estimate D2E/DX2                !
 ! D29   D(10,5,6,1)          -179.8667         estimate D2E/DX2                !
 ! D30   D(10,5,6,39)           -0.1215         estimate D2E/DX2                !
 ! D31   D(1,6,39,40)          178.9568         estimate D2E/DX2                !
 ! D32   D(1,6,39,41)           -0.7755         estimate D2E/DX2                !
 ! D33   D(5,6,39,40)           -0.7723         estimate D2E/DX2                !
 ! D34   D(5,6,39,41)          179.4953         estimate D2E/DX2                !
 ! D35   D(21,7,16,11)           3.7567         estimate D2E/DX2                !
 ! D36   D(21,7,16,15)        -176.987          estimate D2E/DX2                !
 ! D37   D(37,7,16,11)        -175.7945         estimate D2E/DX2                !
 ! D38   D(37,7,16,15)           3.4619         estimate D2E/DX2                !
 ! D39   D(16,7,21,2)         -179.4438         estimate D2E/DX2                !
 ! D40   D(37,7,21,2)            0.1561         estimate D2E/DX2                !
 ! D41   D(16,7,37,1)          179.3232         estimate D2E/DX2                !
 ! D42   D(16,7,37,38)           1.0293         estimate D2E/DX2                !
 ! D43   D(21,7,37,1)           -0.2747         estimate D2E/DX2                !
 ! D44   D(21,7,37,38)        -178.5686         estimate D2E/DX2                !
 ! D45   D(16,11,12,13)          0.8104         estimate D2E/DX2                !
 ! D46   D(16,11,12,35)       -179.229          estimate D2E/DX2                !
 ! D47   D(34,11,12,13)       -179.6968         estimate D2E/DX2                !
 ! D48   D(34,11,12,35)          0.2638         estimate D2E/DX2                !
 ! D49   D(12,11,16,7)         178.5163         estimate D2E/DX2                !
 ! D50   D(12,11,16,15)         -0.8011         estimate D2E/DX2                !
 ! D51   D(34,11,16,7)          -0.8338         estimate D2E/DX2                !
 ! D52   D(34,11,16,15)        179.8488         estimate D2E/DX2                !
 ! D53   D(12,11,34,17)         -0.3025         estimate D2E/DX2                !
 ! D54   D(12,11,34,36)       -179.5245         estimate D2E/DX2                !
 ! D55   D(16,11,34,17)        179.131          estimate D2E/DX2                !
 ! D56   D(16,11,34,36)         -0.091          estimate D2E/DX2                !
 ! D57   D(11,12,13,14)         -0.2017         estimate D2E/DX2                !
 ! D58   D(11,12,13,18)        179.8749         estimate D2E/DX2                !
 ! D59   D(35,12,13,14)        179.8479         estimate D2E/DX2                !
 ! D60   D(35,12,13,18)         -0.0756         estimate D2E/DX2                !
 ! D61   D(11,12,35,17)         -0.1197         estimate D2E/DX2                !
 ! D62   D(13,12,35,17)        179.8349         estimate D2E/DX2                !
 ! D63   D(12,13,14,15)         -0.3566         estimate D2E/DX2                !
 ! D64   D(12,13,14,19)        179.7954         estimate D2E/DX2                !
 ! D65   D(18,13,14,15)        179.5664         estimate D2E/DX2                !
 ! D66   D(18,13,14,19)         -0.2816         estimate D2E/DX2                !
 ! D67   D(13,14,15,16)          0.3488         estimate D2E/DX2                !
 ! D68   D(13,14,15,20)       -179.9805         estimate D2E/DX2                !
 ! D69   D(19,14,15,16)       -179.8025         estimate D2E/DX2                !
 ! D70   D(19,14,15,20)         -0.1318         estimate D2E/DX2                !
 ! D71   D(14,15,16,7)        -179.055          estimate D2E/DX2                !
 ! D72   D(14,15,16,11)          0.2256         estimate D2E/DX2                !
 ! D73   D(20,15,16,7)           1.2759         estimate D2E/DX2                !
 ! D74   D(20,15,16,11)       -179.4435         estimate D2E/DX2                !
 ! D75   D(34,17,23,22)        174.492          estimate D2E/DX2                !
 ! D76   D(34,17,23,24)         -4.9924         estimate D2E/DX2                !
 ! D77   D(35,17,23,22)         -4.3986         estimate D2E/DX2                !
 ! D78   D(35,17,23,24)        176.1171         estimate D2E/DX2                !
 ! D79   D(23,17,34,11)       -178.766          estimate D2E/DX2                !
 ! D80   D(23,17,34,36)          0.3755         estimate D2E/DX2                !
 ! D81   D(35,17,34,11)          0.2446         estimate D2E/DX2                !
 ! D82   D(35,17,34,36)        179.386          estimate D2E/DX2                !
 ! D83   D(23,17,35,12)        178.9473         estimate D2E/DX2                !
 ! D84   D(34,17,35,12)         -0.0747         estimate D2E/DX2                !
 ! D85   D(27,22,23,17)       -178.7021         estimate D2E/DX2                !
 ! D86   D(27,22,23,24)          0.7933         estimate D2E/DX2                !
 ! D87   D(32,22,23,17)          1.2199         estimate D2E/DX2                !
 ! D88   D(32,22,23,24)       -179.2848         estimate D2E/DX2                !
 ! D89   D(23,22,27,26)         -0.3874         estimate D2E/DX2                !
 ! D90   D(23,22,27,31)       -179.9863         estimate D2E/DX2                !
 ! D91   D(32,22,27,26)        179.6871         estimate D2E/DX2                !
 ! D92   D(32,22,27,31)          0.0882         estimate D2E/DX2                !
 ! D93   D(23,22,32,33)          0.9235         estimate D2E/DX2                !
 ! D94   D(27,22,32,33)       -179.1529         estimate D2E/DX2                !
 ! D95   D(17,23,24,25)        178.9256         estimate D2E/DX2                !
 ! D96   D(17,23,24,28)         -1.3575         estimate D2E/DX2                !
 ! D97   D(22,23,24,25)         -0.5579         estimate D2E/DX2                !
 ! D98   D(22,23,24,28)        179.159          estimate D2E/DX2                !
 ! D99   D(23,24,25,26)         -0.0819         estimate D2E/DX2                !
 ! D100  D(23,24,25,30)       -179.7814         estimate D2E/DX2                !
 ! D101  D(28,24,25,26)       -179.7991         estimate D2E/DX2                !
 ! D102  D(28,24,25,30)          0.5014         estimate D2E/DX2                !
 ! D103  D(24,25,26,27)          0.5091         estimate D2E/DX2                !
 ! D104  D(24,25,26,29)        179.9074         estimate D2E/DX2                !
 ! D105  D(30,25,26,27)       -179.7921         estimate D2E/DX2                !
 ! D106  D(30,25,26,29)         -0.3938         estimate D2E/DX2                !
 ! D107  D(24,25,30,59)         67.4604         estimate D2E/DX2                !
 ! D108  D(24,25,30,63)        -51.8415         estimate D2E/DX2                !
 ! D109  D(24,25,30,67)       -172.3929         estimate D2E/DX2                !
 ! D110  D(26,25,30,59)       -112.229          estimate D2E/DX2                !
 ! D111  D(26,25,30,63)        128.4691         estimate D2E/DX2                !
 ! D112  D(26,25,30,67)          7.9178         estimate D2E/DX2                !
 ! D113  D(25,26,27,22)         -0.2734         estimate D2E/DX2                !
 ! D114  D(25,26,27,31)        179.3153         estimate D2E/DX2                !
 ! D115  D(29,26,27,22)       -179.6756         estimate D2E/DX2                !
 ! D116  D(29,26,27,31)         -0.0869         estimate D2E/DX2                !
 ! D117  D(22,27,31,71)        -54.5677         estimate D2E/DX2                !
 ! D118  D(22,27,31,75)         64.1803         estimate D2E/DX2                !
 ! D119  D(22,27,31,79)       -175.4626         estimate D2E/DX2                !
 ! D120  D(26,27,31,71)        125.8467         estimate D2E/DX2                !
 ! D121  D(26,27,31,75)       -115.4054         estimate D2E/DX2                !
 ! D122  D(26,27,31,79)          4.9518         estimate D2E/DX2                !
 ! D123  D(25,30,59,60)        148.3764         estimate D2E/DX2                !
 ! D124  D(25,30,59,61)        -91.6236         estimate D2E/DX2                !
 ! D125  D(25,30,59,62)         28.3764         estimate D2E/DX2                !
 ! D126  D(63,30,59,60)        -89.825          estimate D2E/DX2                !
 ! D127  D(63,30,59,61)         30.175          estimate D2E/DX2                !
 ! D128  D(63,30,59,62)        150.175          estimate D2E/DX2                !
 ! D129  D(67,30,59,60)         26.3723         estimate D2E/DX2                !
 ! D130  D(67,30,59,61)        146.3723         estimate D2E/DX2                !
 ! D131  D(67,30,59,62)        -93.6277         estimate D2E/DX2                !
 ! D132  D(25,30,63,64)         80.2008         estimate D2E/DX2                !
 ! D133  D(25,30,63,65)       -159.7992         estimate D2E/DX2                !
 ! D134  D(25,30,63,66)        -39.7992         estimate D2E/DX2                !
 ! D135  D(59,30,63,64)        -41.6151         estimate D2E/DX2                !
 ! D136  D(59,30,63,65)         78.3849         estimate D2E/DX2                !
 ! D137  D(59,30,63,66)       -161.6151         estimate D2E/DX2                !
 ! D138  D(67,30,63,64)       -157.5906         estimate D2E/DX2                !
 ! D139  D(67,30,63,65)        -37.5906         estimate D2E/DX2                !
 ! D140  D(67,30,63,66)         82.4094         estimate D2E/DX2                !
 ! D141  D(25,30,67,68)        -62.8147         estimate D2E/DX2                !
 ! D142  D(25,30,67,69)         57.1853         estimate D2E/DX2                !
 ! D143  D(25,30,67,70)        177.1853         estimate D2E/DX2                !
 ! D144  D(59,30,67,68)         59.3677         estimate D2E/DX2                !
 ! D145  D(59,30,67,69)        179.3677         estimate D2E/DX2                !
 ! D146  D(59,30,67,70)        -60.6323         estimate D2E/DX2                !
 ! D147  D(63,30,67,68)        174.8169         estimate D2E/DX2                !
 ! D148  D(63,30,67,69)        -65.1831         estimate D2E/DX2                !
 ! D149  D(63,30,67,70)         54.8169         estimate D2E/DX2                !
 ! D150  D(27,31,71,72)         95.5618         estimate D2E/DX2                !
 ! D151  D(27,31,71,73)       -144.4382         estimate D2E/DX2                !
 ! D152  D(27,31,71,74)        -24.4382         estimate D2E/DX2                !
 ! D153  D(75,31,71,72)        -25.8873         estimate D2E/DX2                !
 ! D154  D(75,31,71,73)         94.1127         estimate D2E/DX2                !
 ! D155  D(75,31,71,74)       -145.8873         estimate D2E/DX2                !
 ! D156  D(79,31,71,72)       -142.408          estimate D2E/DX2                !
 ! D157  D(79,31,71,73)        -22.408          estimate D2E/DX2                !
 ! D158  D(79,31,71,74)         97.592          estimate D2E/DX2                !
 ! D159  D(27,31,75,76)        145.7474         estimate D2E/DX2                !
 ! D160  D(27,31,75,77)        -94.2526         estimate D2E/DX2                !
 ! D161  D(27,31,75,78)         25.7474         estimate D2E/DX2                !
 ! D162  D(71,31,75,76)        -92.7467         estimate D2E/DX2                !
 ! D163  D(71,31,75,77)         27.2534         estimate D2E/DX2                !
 ! D164  D(71,31,75,78)        147.2533         estimate D2E/DX2                !
 ! D165  D(79,31,75,76)         24.0259         estimate D2E/DX2                !
 ! D166  D(79,31,75,77)        144.026          estimate D2E/DX2                !
 ! D167  D(79,31,75,78)        -95.9741         estimate D2E/DX2                !
 ! D168  D(27,31,79,80)        -62.1408         estimate D2E/DX2                !
 ! D169  D(27,31,79,81)         57.8592         estimate D2E/DX2                !
 ! D170  D(27,31,79,82)        177.8592         estimate D2E/DX2                !
 ! D171  D(71,31,79,80)        175.4107         estimate D2E/DX2                !
 ! D172  D(71,31,79,81)        -64.5893         estimate D2E/DX2                !
 ! D173  D(71,31,79,82)         55.4107         estimate D2E/DX2                !
 ! D174  D(75,31,79,80)         59.9483         estimate D2E/DX2                !
 ! D175  D(75,31,79,81)        179.9484         estimate D2E/DX2                !
 ! D176  D(75,31,79,82)        -60.0516         estimate D2E/DX2                !
 ! D177  D(6,39,41,42)         179.1231         estimate D2E/DX2                !
 ! D178  D(40,39,41,42)         -0.5905         estimate D2E/DX2                !
 ! D179  D(39,41,42,43)        -63.6192         estimate D2E/DX2                !
 ! D180  D(39,41,42,44)         61.5131         estimate D2E/DX2                !
 ! D181  D(39,41,42,45)        179.033          estimate D2E/DX2                !
 ! D182  D(41,42,43,46)       -178.534          estimate D2E/DX2                !
 ! D183  D(41,42,43,47)         60.9205         estimate D2E/DX2                !
 ! D184  D(41,42,43,48)        -55.5465         estimate D2E/DX2                !
 ! D185  D(44,42,43,46)         55.2877         estimate D2E/DX2                !
 ! D186  D(44,42,43,47)        -65.2579         estimate D2E/DX2                !
 ! D187  D(44,42,43,48)        178.2752         estimate D2E/DX2                !
 ! D188  D(45,42,43,46)        -62.0982         estimate D2E/DX2                !
 ! D189  D(45,42,43,47)        177.3562         estimate D2E/DX2                !
 ! D190  D(45,42,43,48)         60.8893         estimate D2E/DX2                !
 ! D191  D(41,42,44,49)        178.95           estimate D2E/DX2                !
 ! D192  D(41,42,44,50)        -60.539          estimate D2E/DX2                !
 ! D193  D(41,42,44,51)         56.2016         estimate D2E/DX2                !
 ! D194  D(43,42,44,49)        -55.3472         estimate D2E/DX2                !
 ! D195  D(43,42,44,50)         65.1638         estimate D2E/DX2                !
 ! D196  D(43,42,44,51)       -178.0956         estimate D2E/DX2                !
 ! D197  D(45,42,44,49)         62.1845         estimate D2E/DX2                !
 ! D198  D(45,42,44,50)       -177.3045         estimate D2E/DX2                !
 ! D199  D(45,42,44,51)        -60.5639         estimate D2E/DX2                !
 ! D200  D(42,43,46,52)        -55.5502         estimate D2E/DX2                !
 ! D201  D(42,43,46,53)       -178.2206         estimate D2E/DX2                !
 ! D202  D(42,43,46,54)         64.9866         estimate D2E/DX2                !
 ! D203  D(47,43,46,52)         64.341          estimate D2E/DX2                !
 ! D204  D(47,43,46,53)        -58.3294         estimate D2E/DX2                !
 ! D205  D(47,43,46,54)       -175.1223         estimate D2E/DX2                !
 ! D206  D(48,43,46,52)       -177.7502         estimate D2E/DX2                !
 ! D207  D(48,43,46,53)         59.5794         estimate D2E/DX2                !
 ! D208  D(48,43,46,54)        -57.2135         estimate D2E/DX2                !
 ! D209  D(42,44,49,52)         55.7745         estimate D2E/DX2                !
 ! D210  D(42,44,49,55)        178.5176         estimate D2E/DX2                !
 ! D211  D(42,44,49,56)        -64.8093         estimate D2E/DX2                !
 ! D212  D(50,44,49,52)        -64.4194         estimate D2E/DX2                !
 ! D213  D(50,44,49,55)         58.3237         estimate D2E/DX2                !
 ! D214  D(50,44,49,56)        174.9968         estimate D2E/DX2                !
 ! D215  D(51,44,49,52)        177.7531         estimate D2E/DX2                !
 ! D216  D(51,44,49,55)        -59.5038         estimate D2E/DX2                !
 ! D217  D(51,44,49,56)         57.1693         estimate D2E/DX2                !
 ! D218  D(43,46,52,49)         55.2472         estimate D2E/DX2                !
 ! D219  D(43,46,52,57)        177.7803         estimate D2E/DX2                !
 ! D220  D(43,46,52,58)        -65.0832         estimate D2E/DX2                !
 ! D221  D(53,46,52,49)        177.4611         estimate D2E/DX2                !
 ! D222  D(53,46,52,57)        -60.0058         estimate D2E/DX2                !
 ! D223  D(53,46,52,58)         57.1307         estimate D2E/DX2                !
 ! D224  D(54,46,52,49)        -65.4056         estimate D2E/DX2                !
 ! D225  D(54,46,52,57)         57.1275         estimate D2E/DX2                !
 ! D226  D(54,46,52,58)        174.264          estimate D2E/DX2                !
 ! D227  D(44,49,52,46)        -55.4107         estimate D2E/DX2                !
 ! D228  D(44,49,52,57)       -177.9286         estimate D2E/DX2                !
 ! D229  D(44,49,52,58)         64.8835         estimate D2E/DX2                !
 ! D230  D(55,49,52,46)       -177.6575         estimate D2E/DX2                !
 ! D231  D(55,49,52,57)         59.8246         estimate D2E/DX2                !
 ! D232  D(55,49,52,58)        -57.3632         estimate D2E/DX2                !
 ! D233  D(56,49,52,46)         65.2334         estimate D2E/DX2                !
 ! D234  D(56,49,52,57)        -57.2844         estimate D2E/DX2                !
 ! D235  D(56,49,52,58)       -174.4723         estimate D2E/DX2                !
 --------------------------------------------------------------------------------
 Trust Radius=3.00D-01 FncErr=5.00D-06 GrdErr=5.00D-06 EigMax=2.50D+02 EigMin=1.00D-04
 Number of steps in this run=    489 maximum allowed number of steps=    492.
 GradGradGradGradGradGradGradGradGradGradGradGradGradGradGradGradGradGrad

 Leave Link  103 at Thu Dec 20 18:56:30 2018, MaxMem=  1342177280 cpu:               0.5 elap:               0.1
 (Enter /gpfs/apps/hpc/Apps/Restricted/Gaussian/Rev_A.03/g16/l202.exe)
 Symmetry turned off by external request.
 Stoichiometry    C35H41N5O
 Framework group  C1[X(C35H41N5O)]
 Deg. of freedom   240
 Full point group                 C1      NOp   1
                          Input orientation:                          
 ---------------------------------------------------------------------
 Center     Atomic      Atomic             Coordinates (Angstroms)
 Number     Number       Type             X           Y           Z
 ---------------------------------------------------------------------
      1          6           0        1.590666    1.138707    0.162928
      2          6           0        0.373043    1.856852    0.147552
      3          6           0        0.391952    3.254227    0.055313
      4          6           0        1.631138    3.886602   -0.030373
      5          6           0        2.831480    3.156985   -0.021237
      6          6           0        2.846340    1.759436    0.077371
      7          6           0       -0.137795   -0.241657    0.286994
      8          1           0       -0.531151    3.820922    0.046229
      9          1           0        1.673901    4.966625   -0.106266
     10          1           0        3.776802    3.684248   -0.092119
     11          6           0       -2.303392   -1.426802    0.304732
     12          6           0       -3.115067   -2.583172    0.345717
     13          6           0       -2.524882   -3.844579    0.470779
     14          6           0       -1.133291   -3.904945    0.546641
     15          6           0       -0.336307   -2.751198    0.493326
     16          6           0       -0.902478   -1.474733    0.367831
     17          6           0       -4.445752   -0.871484    0.151286
     18          1           0       -3.131703   -4.740933    0.505804
     19          1           0       -0.649223   -4.869020    0.647304
     20          1           0        0.740769   -2.853236    0.556223
     21          7           0       -0.688965    0.969508    0.225907
     22          6           0       -6.899459   -0.724773   -0.133511
     23          6           0       -5.650259   -0.072205    0.006475
     24          6           0       -5.601070    1.332070   -0.008362
     25          6           0       -6.750450    2.098156   -0.168960
     26          6           0       -7.972471    1.423602   -0.319002
     27          6           0       -8.072020    0.034075   -0.302159
     28          1           0       -4.645204    1.830895    0.112751
     29          1           0       -8.882137    2.003705   -0.444193
     30          6           0       -6.682397    3.605367   -0.187885
     31          6           0       -9.392835   -0.669028   -0.449497
     32          8           0       -7.019214   -2.071011   -0.113630
     33          1           0       -6.107519   -2.452421    0.026247
     34          7           0       -3.170652   -0.366896    0.186456
     35          7           0       -4.444236   -2.203276    0.246256
     36          1           0       -2.847845    0.592478    0.127749
     37          7           0        1.235890   -0.183667    0.255459
     38          1           0        1.922418   -0.928399    0.266557
     39          6           0        4.090660    0.998606    0.084638
     40          1           0        5.006887    1.592960   -0.005315
     41          7           0        4.106268   -0.280107    0.184392
     42          6           0        5.424676   -0.937608    0.160254
     43          6           0        6.140885   -0.725357   -1.183987
     44          6           0        6.323637   -0.498676    1.328597
     45          1           0        5.235319   -2.011242    0.273501
     46          6           0        7.495435   -1.440759   -1.217865
     47          1           0        6.292352    0.351242   -1.328472
     48          1           0        5.497344   -1.071879   -1.998569
     49          6           0        7.676817   -1.217522    1.291879
     50          1           0        6.486073    0.583240    1.261445
     51          1           0        5.808828   -0.689550    2.275262
     52          6           0        8.387072   -1.006007   -0.049727
     53          1           0        7.992645   -1.244482   -2.173245
     54          1           0        7.333551   -2.524421   -1.160669
     55          1           0        8.303442   -0.866336    2.117926
     56          1           0        7.518966   -2.292188    1.449048
     57          1           0        9.332846   -1.556423   -0.069434
     58          1           0        8.633979    0.057283   -0.162847
     59          6           0       -5.944574    4.116519   -1.439260
     60          1           0       -6.351100    5.062117   -1.731632
     61          1           0       -4.903598    4.228685   -1.218604
     62          1           0       -6.066379    3.413906   -2.237006
     63          6           0       -5.921322    4.145870    1.036950
     64          1           0       -4.868064    4.065586    0.866357
     65          1           0       -6.180104    5.172272    1.193253
     66          1           0       -6.186998    3.575297    1.902261
     67          6           0       -8.093544    4.222023   -0.187252
     68          1           0       -8.610125    3.931518   -1.078123
     69          1           0       -8.634321    3.874355    0.668077
     70          1           0       -8.016658    5.288650   -0.151269
     71          6           0       -9.354366   -1.697245   -1.595311
     72          1           0       -9.134151   -2.666010   -1.197946
     73          1           0      -10.305101   -1.720560   -2.085677
     74          1           0       -8.597117   -1.419575   -2.298428
     75          6           0       -9.755515   -1.446925    0.829151
     76          1           0      -10.815655   -1.423629    0.972190
     77          1           0       -9.430764   -2.461939    0.733323
     78          1           0       -9.272117   -0.995692    1.670350
     79          6           0      -10.517342    0.343954   -0.734018
     80          1           0      -10.608526    1.017150    0.092657
     81          1           0      -10.283774    0.896623   -1.619966
     82          1           0      -11.441038   -0.178087   -0.872433
 ---------------------------------------------------------------------
 Rotational constants (GHZ):           0.1785066           0.0305014           0.0266848
 Leave Link  202 at Thu Dec 20 18:56:30 2018, MaxMem=  1342177280 cpu:               0.2 elap:               0.0
 (Enter /gpfs/apps/hpc/Apps/Restricted/Gaussian/Rev_A.03/g16/l301.exe)
 Standard basis: 6-31G(d,p) (6D, 7F)
 Ernie: Thresh=  0.10000D-02 Tol=  0.10000D-05 Strict=F.
   820 basis functions,  1435 primitive gaussians,   820 cartesian basis functions
   147 alpha electrons      147 beta electrons
       nuclear repulsion energy      4417.7927232274 Hartrees.
 IExCor=  402 DFT=T Ex+Corr=B3LYP ExCW=0 ScaHFX=  0.200000
 ScaDFX=  0.800000  0.720000  1.000000  0.810000 ScalE2=  1.000000  1.000000
 IRadAn=      5 IRanWt=     -1 IRanGd=            0 ICorTp=0 IEmpDi=141
 NAtoms=   82 NActive=   82 NUniq=   82 SFac= 1.00D+00 NAtFMM=   60 NAOKFM=T Big=T
 Integral buffers will be    131072 words long.
 Raffenetti 2 integral format.
 Two-electron integral symmetry is turned off.
 R6Disp:  Grimme-D3(BJ) Dispersion energy=       -0.1866754961 Hartrees.
 Nuclear repulsion after empirical dispersion term =     4417.6060477313 Hartrees.
 Using the following non-standard input for PCM:
 radii=bondi
 dis
 rep
 cav
 --- end of non-standard input.
 ------------------------------------------------------------------------------
 Polarizable Continuum Model (PCM)
 =================================
 Model                : C-PCM.
 Atomic radii         : Bondi.
 Polarization charges : Total charges.
 Charge compensation  : None.
 Solution method      : On-the-fly selection.
 Cavity type          : Scaled VdW (van der Waals Surface) (Alpha=1.100).
 Cavity algorithm     : GePol (No added spheres)
                        Default sphere list used, NSphG=   82.
                        Lebedev-Laikov grids with approx.  5.0 points / Ang**2.
                        Smoothing algorithm: York/Karplus (Gamma=1.0000).
                        Polarization charges: spherical gaussians, with
                                              point-specific exponents (IZeta= 3).
                        Self-potential: point-specific (ISelfS= 7).
                        Self-field    : sphere-specific E.n sum rule (ISelfD= 2).
 1st derivatives      : Analytical E(r).r(x)/FMM algorithm (CHGder, D1EAlg=3).
                        Cavity 1st derivative terms included.
 Solvent              : Dichloromethane, Eps=   8.930000 Eps(inf)=   2.028346
 ------------------------------------------------------------------------------
 GePol: Number of generator spheres                  =      82
 GePol: Total number of spheres                      =      82
 GePol: Number of exposed spheres                    =      82 (100.00%)
 GePol: Number of points                             =    5176
 GePol: Average weight of points                     =       0.12
 GePol: Minimum weight of points                     =   0.17D-10
 GePol: Maximum weight of points                     =    0.21770
 GePol: Number of points with low weight             =     337
 GePol: Fraction of low-weight points (<1% of avg)   =       6.51%
 GePol: Cavity surface area                          =    617.371 Ang**2
 GePol: Cavity volume                                =    605.986 Ang**3
 PCM non-electrostatic energy =         0.0272218276 Hartrees.
 Nuclear repulsion after PCM non-electrostatic terms =     4417.6332695589 Hartrees.
 Leave Link  301 at Thu Dec 20 18:56:30 2018, MaxMem=  1342177280 cpu:               5.5 elap:               0.4
 (Enter /gpfs/apps/hpc/Apps/Restricted/Gaussian/Rev_A.03/g16/l302.exe)
 NPDir=0 NMtPBC=     1 NCelOv=     1 NCel=       1 NClECP=     1 NCelD=      1
         NCelK=      1 NCelE2=     1 NClLst=     1 CellRange=     0.0.
 One-electron integrals computed using PRISM.
 NBasis=   820 RedAO= T EigKep=  2.73D-04  NBF=   820
 NBsUse=   820 1.00D-06 EigRej= -1.00D+00 NBFU=   820
 Precomputing XC quadrature grid using
 IXCGrd= 4 IRadAn=           5 IRanWt=          -1 IRanGd=           0 AccXCQ= 0.00D+00.
 Generated NRdTot=       0 NPtTot=           0 NUsed=           0 NTot=          32
 NSgBfM=   750   750   750   750   750 MxSgAt=    82 MxSgA2=    82.
 Leave Link  302 at Thu Dec 20 18:56:32 2018, MaxMem=  1342177280 cpu:              34.5 elap:               2.2
 (Enter /gpfs/apps/hpc/Apps/Restricted/Gaussian/Rev_A.03/g16/l303.exe)
 DipDrv:  MaxL=1.
 Leave Link  303 at Thu Dec 20 18:56:33 2018, MaxMem=  1342177280 cpu:               1.7 elap:               0.2
 (Enter /gpfs/apps/hpc/Apps/Restricted/Gaussian/Rev_A.03/g16/l401.exe)
 ExpMin= 1.61D-01 ExpMax= 5.48D+03 ExpMxC= 8.25D+02 IAcc=3 IRadAn=         5 AccDes= 0.00D+00
 Harris functional with IExCor=  402 and IRadAn=       5 diagonalized for initial guess.
 HarFok:  IExCor=  402 AccDes= 0.00D+00 IRadAn=         5 IDoV= 1 UseB2=F ITyADJ=14
 ICtDFT=  3500011 ScaDFX=  1.000000  1.000000  1.000000  1.000000
 FoFCou: FMM=F IPFlag=           0 FMFlag=      100000 FMFlg1=        2001
         NFxFlg=           0 DoJE=T BraDBF=F KetDBF=T FulRan=T
         wScrn=  0.000000 ICntrl=       500 IOpCl=  0 I1Cent=   200000004 NGrid=           0
         NMat0=    1 NMatS0=      1 NMatT0=    0 NMatD0=    1 NMtDS0=    0 NMtDT0=    0
 Symmetry not used in FoFCou.
 Harris En= -1707.74793806438    
 JPrj=0 DoOrth=F DoCkMO=F.
 Leave Link  401 at Thu Dec 20 18:56:39 2018, MaxMem=  1342177280 cpu:             107.0 elap:               6.8
 (Enter /gpfs/apps/hpc/Apps/Restricted/Gaussian/Rev_A.03/g16/l502.exe)
 Two-electron integral symmetry not used.
 Closed shell SCF:
 Using DIIS extrapolation, IDIIS=  1040.
 NGot=  1342177280 LenX=  1340812546 LenY=  1340139326
 Requested convergence on RMS density matrix=1.00D-08 within 128 cycles.
 Requested convergence on MAX density matrix=1.00D-06.
 Requested convergence on             energy=1.00D-06.
 No special actions if energy rises.
 Fock matrices will be formed incrementally for  20 cycles.

 Cycle   1  Pass 1  IDiag  1:
 FoFJK:  IHMeth= 1 ICntrl=       0 DoSepK=F KAlg= 0 I1Cent=           0 FoldK=F
 IRaf= 630000000 NMat=       1 IRICut=       1 DoRegI=T DoRafI=F ISym2E= 0 IDoP0=0 IntGTp=1.
 FoFCou: FMM=T IPFlag=           0 FMFlag=      100000 FMFlg1=        2001
         NFxFlg=           0 DoJE=F BraDBF=F KetDBF=F FulRan=T
         wScrn=  0.000000 ICntrl=         0 IOpCl=  0 I1Cent=           0 NGrid=           0
         NMat0=    1 NMatS0=      1 NMatT0=    0 NMatD0=    1 NMtDS0=    0 NMtDT0=    0
 Symmetry not used in FoFCou.
 FMM levels:  10  Number of levels for PrismC:   9
 Inv3:  Mode=1 IEnd=    80372928.
 Iteration    1 A*A^-1 deviation from unit magnitude is 8.10D-15 for   1989.
 Iteration    1 A*A^-1 deviation from orthogonality  is 4.81D-15 for   1967    934.
 Iteration    1 A^-1*A deviation from unit magnitude is 8.10D-15 for   5173.
 Iteration    1 A^-1*A deviation from orthogonality  is 1.88D-15 for   5173   5141.
 E= -1706.66867471825    
 DIIS: error= 3.29D-02 at cycle   1 NSaved=   1.
 NSaved= 1 IEnMin= 1 EnMin= -1706.66867471825     IErMin= 1 ErrMin= 3.29D-02
 ErrMax= 3.29D-02  0.00D+00 EMaxC= 1.00D-01 BMatC= 9.89D-01 BMatP= 9.89D-01
 IDIUse=3 WtCom= 6.71D-01 WtEn= 3.29D-01
 Coeff-Com:  0.100D+01
 Coeff-En:   0.100D+01
 Coeff:      0.100D+01
 Gap=     0.160 Goal=   None    Shift=    0.000
 GapD=    0.160 DampG=1.000 DampE=0.500 DampFc=0.5000 IDamp=-1.
 Damping current iteration by 5.00D-01
 RMSDP=2.95D-03 MaxDP=1.59D-01              OVMax= 2.05D-01

 Cycle   2  Pass 1  IDiag  1:
 RMSU=  1.43D-03    CP:  9.67D-01
 E= -1707.13993046302     Delta-E=       -0.471255744774 Rises=F Damp=T
 DIIS: error= 7.27D-03 at cycle   2 NSaved=   2.
 NSaved= 2 IEnMin= 2 EnMin= -1707.13993046302     IErMin= 2 ErrMin= 7.27D-03
 ErrMax= 7.27D-03  0.00D+00 EMaxC= 1.00D-01 BMatC= 6.29D-02 BMatP= 9.89D-01
 IDIUse=3 WtCom= 9.27D-01 WtEn= 7.27D-02
 Coeff-Com:  0.447D-01 0.955D+00
 Coeff-En:   0.799D-01 0.920D+00
 Coeff:      0.473D-01 0.953D+00
 Gap=     0.157 Goal=   None    Shift=    0.000
 RMSDP=7.98D-04 MaxDP=5.23D-02 DE=-4.71D-01 OVMax= 1.61D-01

 Cycle   3  Pass 1  IDiag  1:
 RMSU=  7.79D-04    CP:  9.52D-01  9.63D-01
 E= -1707.66735788313     Delta-E=       -0.527427420109 Rises=F Damp=F
 DIIS: error= 4.80D-03 at cycle   3 NSaved=   3.
 NSaved= 3 IEnMin= 3 EnMin= -1707.66735788313     IErMin= 3 ErrMin= 4.80D-03
 ErrMax= 4.80D-03  0.00D+00 EMaxC= 1.00D-01 BMatC= 4.13D-02 BMatP= 6.29D-02
 IDIUse=3 WtCom= 9.52D-01 WtEn= 4.80D-02
 Coeff-Com: -0.248D-01 0.443D+00 0.582D+00
 Coeff-En:   0.000D+00 0.000D+00 0.100D+01
 Coeff:     -0.236D-01 0.422D+00 0.602D+00
 Gap=     0.142 Goal=   None    Shift=    0.000
 RMSDP=3.97D-04 MaxDP=3.30D-02 DE=-5.27D-01 OVMax= 6.69D-02

 Cycle   4  Pass 1  IDiag  1:
 RMSU=  2.90D-04    CP:  9.53D-01  1.03D+00  6.78D-01
 E= -1707.69948455816     Delta-E=       -0.032126675029 Rises=F Damp=F
 DIIS: error= 3.23D-03 at cycle   4 NSaved=   4.
 NSaved= 4 IEnMin= 4 EnMin= -1707.69948455816     IErMin= 4 ErrMin= 3.23D-03
 ErrMax= 3.23D-03  0.00D+00 EMaxC= 1.00D-01 BMatC= 1.09D-02 BMatP= 4.13D-02
 IDIUse=3 WtCom= 9.68D-01 WtEn= 3.23D-02
 Coeff-Com: -0.160D-01 0.103D+00 0.358D+00 0.555D+00
 Coeff-En:   0.000D+00 0.000D+00 0.219D+00 0.781D+00
 Coeff:     -0.155D-01 0.993D-01 0.354D+00 0.563D+00
 Gap=     0.139 Goal=   None    Shift=    0.000
 RMSDP=1.58D-04 MaxDP=1.28D-02 DE=-3.21D-02 OVMax= 2.49D-02

 Cycle   5  Pass 1  IDiag  1:
 RMSU=  8.27D-05    CP:  9.53D-01  1.02D+00  7.57D-01  6.01D-01
 E= -1707.70972762117     Delta-E=       -0.010243063015 Rises=F Damp=F
 DIIS: error= 8.48D-04 at cycle   5 NSaved=   5.
 NSaved= 5 IEnMin= 5 EnMin= -1707.70972762117     IErMin= 5 ErrMin= 8.48D-04
 ErrMax= 8.48D-04  0.00D+00 EMaxC= 1.00D-01 BMatC= 7.75D-04 BMatP= 1.09D-02
 IDIUse=3 WtCom= 9.92D-01 WtEn= 8.48D-03
 Coeff-Com: -0.638D-02 0.203D-01 0.147D+00 0.308D+00 0.530D+00
 Coeff-En:   0.000D+00 0.000D+00 0.000D+00 0.000D+00 0.100D+01
 Coeff:     -0.632D-02 0.201D-01 0.146D+00 0.305D+00 0.534D+00
 Gap=     0.139 Goal=   None    Shift=    0.000
 RMSDP=4.68D-05 MaxDP=5.03D-03 DE=-1.02D-02 OVMax= 5.77D-03

 Cycle   6  Pass 1  IDiag  1:
 RMSU=  2.35D-05    CP:  9.53D-01  1.02D+00  7.65D-01  6.35D-01  5.36D-01
 E= -1707.71041309839     Delta-E=       -0.000685477217 Rises=F Damp=F
 DIIS: error= 2.33D-04 at cycle   6 NSaved=   6.
 NSaved= 6 IEnMin= 6 EnMin= -1707.71041309839     IErMin= 6 ErrMin= 2.33D-04
 ErrMax= 2.33D-04  0.00D+00 EMaxC= 1.00D-01 BMatC= 6.16D-05 BMatP= 7.75D-04
 IDIUse=3 WtCom= 9.98D-01 WtEn= 2.33D-03
 Coeff-Com: -0.236D-02 0.415D-02 0.552D-01 0.128D+00 0.297D+00 0.518D+00
 Coeff-En:   0.000D+00 0.000D+00 0.000D+00 0.000D+00 0.000D+00 0.100D+01
 Coeff:     -0.236D-02 0.414D-02 0.551D-01 0.128D+00 0.297D+00 0.519D+00
 Gap=     0.139 Goal=   None    Shift=    0.000
 RMSDP=1.22D-05 MaxDP=1.20D-03 DE=-6.85D-04 OVMax= 1.91D-03

 Cycle   7  Pass 1  IDiag  1:
 RMSU=  7.13D-06    CP:  9.53D-01  1.02D+00  7.65D-01  6.38D-01  5.99D-01
                    CP:  6.45D-01
 E= -1707.71046606911     Delta-E=       -0.000052970715 Rises=F Damp=F
 DIIS: error= 5.30D-05 at cycle   7 NSaved=   7.
 NSaved= 7 IEnMin= 7 EnMin= -1707.71046606911     IErMin= 7 ErrMin= 5.30D-05
 ErrMax= 5.30D-05  0.00D+00 EMaxC= 1.00D-01 BMatC= 5.58D-06 BMatP= 6.16D-05
 IDIUse=1 WtCom= 1.00D+00 WtEn= 0.00D+00
 Coeff-Com: -0.755D-03 0.507D-03 0.173D-01 0.432D-01 0.119D+00 0.293D+00
 Coeff-Com:  0.528D+00
 Coeff:     -0.755D-03 0.507D-03 0.173D-01 0.432D-01 0.119D+00 0.293D+00
 Coeff:      0.528D+00
 Gap=     0.139 Goal=   None    Shift=    0.000
 RMSDP=3.51D-06 MaxDP=4.03D-04 DE=-5.30D-05 OVMax= 6.04D-04

 Cycle   8  Pass 1  IDiag  1:
 RMSU=  1.83D-06    CP:  9.53D-01  1.02D+00  7.66D-01  6.39D-01  5.99D-01
                    CP:  6.81D-01  6.03D-01
 E= -1707.71047116554     Delta-E=       -0.000005096435 Rises=F Damp=F
 DIIS: error= 1.46D-05 at cycle   8 NSaved=   8.
 NSaved= 8 IEnMin= 8 EnMin= -1707.71047116554     IErMin= 8 ErrMin= 1.46D-05
 ErrMax= 1.46D-05  0.00D+00 EMaxC= 1.00D-01 BMatC= 2.70D-07 BMatP= 5.58D-06
 IDIUse=1 WtCom= 1.00D+00 WtEn= 0.00D+00
 Coeff-Com: -0.177D-03-0.440D-04 0.381D-02 0.100D-01 0.322D-01 0.941D-01
 Coeff-Com:  0.244D+00 0.616D+00
 Coeff:     -0.177D-03-0.440D-04 0.381D-02 0.100D-01 0.322D-01 0.941D-01
 Coeff:      0.244D+00 0.616D+00
 Gap=     0.139 Goal=   None    Shift=    0.000
 RMSDP=9.08D-07 MaxDP=1.16D-04 DE=-5.10D-06 OVMax= 1.91D-04

 Cycle   9  Pass 1  IDiag  1:
 RMSU=  6.82D-07    CP:  9.53D-01  1.02D+00  7.65D-01  6.39D-01  5.99D-01
                    CP:  6.82D-01  6.45D-01  7.29D-01
 E= -1707.71047138278     Delta-E=       -0.000000217240 Rises=F Damp=F
 DIIS: error= 7.94D-06 at cycle   9 NSaved=   9.
 NSaved= 9 IEnMin= 9 EnMin= -1707.71047138278     IErMin= 9 ErrMin= 7.94D-06
 ErrMax= 7.94D-06  0.00D+00 EMaxC= 1.00D-01 BMatC= 5.81D-08 BMatP= 2.70D-07
 IDIUse=1 WtCom= 1.00D+00 WtEn= 0.00D+00
 Coeff-Com:  0.352D-05-0.108D-03-0.256D-03-0.413D-03 0.187D-02 0.129D-01
 Coeff-Com:  0.655D-01 0.356D+00 0.565D+00
 Coeff:      0.352D-05-0.108D-03-0.256D-03-0.413D-03 0.187D-02 0.129D-01
 Coeff:      0.655D-01 0.356D+00 0.565D+00
 Gap=     0.139 Goal=   None    Shift=    0.000
 RMSDP=3.62D-07 MaxDP=5.89D-05 DE=-2.17D-07 OVMax= 6.47D-05

 Cycle  10  Pass 1  IDiag  1:
 RMSU=  2.29D-07    CP:  9.53D-01  1.02D+00  7.66D-01  6.39D-01  6.00D-01
                    CP:  6.83D-01  6.49D-01  8.04D-01  6.64D-01
 E= -1707.71047143496     Delta-E=       -0.000000052179 Rises=F Damp=F
 DIIS: error= 2.57D-06 at cycle  10 NSaved=  10.
 NSaved=10 IEnMin=10 EnMin= -1707.71047143496     IErMin=10 ErrMin= 2.57D-06
 ErrMax= 2.57D-06  0.00D+00 EMaxC= 1.00D-01 BMatC= 6.26D-09 BMatP= 5.81D-08
 IDIUse=1 WtCom= 1.00D+00 WtEn= 0.00D+00
 Coeff-Com:  0.171D-04-0.623D-04-0.475D-03-0.111D-02-0.158D-02-0.175D-03
 Coeff-Com:  0.183D-01 0.160D+00 0.329D+00 0.496D+00
 Coeff:      0.171D-04-0.623D-04-0.475D-03-0.111D-02-0.158D-02-0.175D-03
 Coeff:      0.183D-01 0.160D+00 0.329D+00 0.496D+00
 Gap=     0.139 Goal=   None    Shift=    0.000
 RMSDP=1.25D-07 MaxDP=1.63D-05 DE=-5.22D-08 OVMax= 1.91D-05

 Cycle  11  Pass 1  IDiag  1:
 RMSU=  7.86D-08    CP:  9.53D-01  1.02D+00  7.66D-01  6.39D-01  6.00D-01
                    CP:  6.84D-01  6.50D-01  8.19D-01  7.24D-01  6.53D-01
 E= -1707.71047144053     Delta-E=       -0.000000005567 Rises=F Damp=F
 DIIS: error= 5.78D-07 at cycle  11 NSaved=  11.
[...]
   D228      -3.10661  -0.00006   0.00015  -0.00373  -0.00358  -3.11019
   D229       1.13131  -0.00001   0.00013  -0.00263  -0.00251   1.12881
   D230      -3.10153  -0.00028   0.00008  -0.00540  -0.00532  -3.10685
   D231       1.04303  -0.00014  -0.00005  -0.00585  -0.00589   1.03713
   D232      -1.00223  -0.00009  -0.00007  -0.00475  -0.00482  -1.00705
   D233       1.13697  -0.00018   0.00006  -0.00471  -0.00466   1.13231
   D234      -1.00166  -0.00004  -0.00007  -0.00516  -0.00523  -1.00689
   D235      -3.04691   0.00001  -0.00010  -0.00406  -0.00416  -3.05107
         Item               Value     Threshold  Converged?
 Maximum Force            0.006609     0.000015     NO 
 RMS     Force            0.000947     0.000010     NO 
 Maximum Displacement     0.701021     0.000060     NO 
 RMS     Displacement     0.138255     0.000040     NO 
 Predicted change in Energy=-4.635477D-03
 Lowest energy point so far.  Saving SCF results.
 GradGradGradGradGradGradGradGradGradGradGradGradGradGradGradGradGradGrad

 Leave Link  103 at Thu Dec 20 19:12:58 2018, MaxMem=  1342177280 cpu:               5.7 elap:               0.4
 (Enter /gpfs/apps/hpc/Apps/Restricted/Gaussian/Rev_A.03/g16/l202.exe)
 Symmetry turned off by external request.
 Stoichiometry    C35H41N5O
 Framework group  C1[X(C35H41N5O)]
 Deg. of freedom   240
 Full point group                 C1      NOp   1
                          Input orientation:                          
 ---------------------------------------------------------------------
 Center     Atomic      Atomic             Coordinates (Angstroms)
 Number     Number       Type             X           Y           Z
 ---------------------------------------------------------------------
      1          6           0        1.587713    1.161270    0.002375
      2          6           0        0.364520    1.865217   -0.081324
      3          6           0        0.373429    3.259266   -0.215090
      4          6           0        1.609343    3.902890   -0.261401
      5          6           0        2.815467    3.187090   -0.173344
      6          6           0        2.839804    1.792723   -0.046398
      7          6           0       -0.130014   -0.234232    0.100435
      8          1           0       -0.555018    3.813826   -0.282146
      9          1           0        1.645835    4.981403   -0.362578
     10          1           0        3.758032    3.722010   -0.211387
     11          6           0       -2.285317   -1.436833    0.140998
     12          6           0       -3.088964   -2.598375    0.199294
     13          6           0       -2.487242   -3.854726    0.323363
     14          6           0       -1.094148   -3.903851    0.386007
     15          6           0       -0.306631   -2.744336    0.318658
     16          6           0       -0.883810   -1.473139    0.192563
     17          6           0       -4.432641   -0.895209    0.029616
     18          1           0       -3.086110   -4.755892    0.370998
     19          1           0       -0.601182   -4.863139    0.489922
     20          1           0        0.771719   -2.837499    0.370985
     21          7           0       -0.690467    0.968257   -0.021871
     22          6           0       -6.893942   -0.757714   -0.139972
     23          6           0       -5.643548   -0.098264   -0.067926
     24          6           0       -5.589481    1.303751   -0.083295
     25          6           0       -6.743768    2.073076   -0.171163
     26          6           0       -7.966742    1.389394   -0.261043
     27          6           0       -8.082737   -0.000900   -0.244557
     28          1           0       -4.625255    1.792280   -0.019107
     29          1           0       -8.874442    1.971427   -0.337781
     30          6           0       -6.650614    3.607504   -0.193310
     31          6           0       -9.458463   -0.683656   -0.320436
     32          8           0       -6.952780   -2.107901   -0.102475
     33          1           0       -6.022409   -2.440262    0.030083
     34          7           0       -3.159516   -0.383045    0.030505
     35          7           0       -4.422674   -2.226659    0.127210
     36          1           0       -2.839439    0.576844   -0.036213
     37          7           0        1.242866   -0.161456    0.121826
     38          1           0        1.936600   -0.896636    0.192050
     39          6           0        4.088360    1.043345    0.036392
     40          1           0        5.002535    1.645781   -0.003852
     41          7           0        4.103741   -0.236886    0.111808
     42          6           0        5.416578   -0.901645    0.170893
     43          6           0        6.261718   -0.623622   -1.083304
     44          6           0        6.202878   -0.551255    1.445964
     45          1           0        5.208840   -1.977592    0.199501
     46          6           0        7.596881   -1.372165   -1.029894
     47          1           0        6.449591    0.454842   -1.147296
     48          1           0        5.693674   -0.904153   -1.975318
     49          6           0        7.535653   -1.305710    1.495973
     50          1           0        6.395093    0.528054    1.464513
     51          1           0        5.593348   -0.783117    2.324340
     52          6           0        8.377120   -1.031370    0.245048
     53          1           0        8.189999   -1.134220   -1.918185
     54          1           0        7.405976   -2.452525   -1.058139
     55          1           0        8.086846   -1.026796    2.399273
     56          1           0        7.337338   -2.382466    1.566793
     57          1           0        9.310233   -1.602115    0.282246
     58          1           0        8.653577    0.030386    0.223929
     59          6           0       -5.977005    4.041500   -1.501457
     60          1           0       -5.929099    5.132957   -1.570195
     61          1           0       -4.956856    3.652877   -1.563266
     62          1           0       -6.536666    3.669840   -2.362275
     63          6           0       -5.798609    4.092208    0.985727
     64          1           0       -4.792106    3.668651    0.954788
     65          1           0       -5.698923    5.181429    0.962293
     66          1           0       -6.257623    3.809873    1.935388
     67          6           0       -8.023629    4.274067   -0.103023
     68          1           0       -8.651912    4.032098   -0.963602
     69          1           0       -8.557618    3.973334    0.801544
     70          1           0       -7.905274    5.360125   -0.076694
     71          6           0       -9.525753   -1.574838   -1.571702
     72          1           0       -8.902145   -2.460948   -1.453463
     73          1           0      -10.555410   -1.891619   -1.760147
     74          1           0       -9.178767   -1.023433   -2.449023
     75          6           0       -9.700536   -1.535002    0.937303
     76          1           0      -10.730480   -1.903879    0.948783
     77          1           0       -9.022884   -2.385897    0.972680
     78          1           0       -9.551644   -0.934199    1.837564
     79          6           0      -10.590101    0.344727   -0.401863
     80          1           0      -10.605347    1.005996    0.468069
     81          1           0      -10.520902    0.967355   -1.297640
     82          1           0      -11.546606   -0.181830   -0.437395
 ---------------------------------------------------------------------
 Rotational constants (GHZ):           0.1788486           0.0305427           0.0266886
 Leave Link  202 at Thu Dec 20 19:12:58 2018, MaxMem=  1342177280 cpu:               0.5 elap:               0.0
 (Enter /gpfs/apps/hpc/Apps/Restricted/Gaussian/Rev_A.03/g16/l301.exe)
 Standard basis: 6-31G(d,p) (6D, 7F)
 Ernie: Thresh=  0.10000D-02 Tol=  0.10000D-05 Strict=F.
   820 basis functions,  1435 primitive gaussians,   820 cartesian basis functions
   147 alpha electrons      147 beta electrons
       nuclear repulsion energy      4412.9993144638 Hartrees.
 IExCor=  402 DFT=T Ex+Corr=B3LYP ExCW=0 ScaHFX=  0.200000
 ScaDFX=  0.800000  0.720000  1.000000  0.810000 ScalE2=  1.000000  1.000000
 IRadAn=      5 IRanWt=     -1 IRanGd=            0 ICorTp=0 IEmpDi=141
 NAtoms=   82 NActive=   82 NUniq=   82 SFac= 1.00D+00 NAtFMM=   60 NAOKFM=T Big=T
 Integral buffers will be    131072 words long.
 Raffenetti 2 integral format.
 Two-electron integral symmetry is turned off.
 R6Disp:  Grimme-D3(BJ) Dispersion energy=       -0.1857499332 Hartrees.
 Nuclear repulsion after empirical dispersion term =     4412.8135645305 Hartrees.
 ------------------------------------------------------------------------------
 Polarizable Continuum Model (PCM)
 =================================
 Model                : C-PCM.
 Atomic radii         : Bondi.
 Polarization charges : Total charges.
 Charge compensation  : None.
 Solution method      : On-the-fly selection.
 Cavity type          : Scaled VdW (van der Waals Surface) (Alpha=1.100).
 Cavity algorithm     : GePol (No added spheres)
                        Default sphere list used, NSphG=   82.
                        Lebedev-Laikov grids with approx.  5.0 points / Ang**2.
                        Smoothing algorithm: York/Karplus (Gamma=1.0000).
                        Polarization charges: spherical gaussians, with
                                              point-specific exponents (IZeta= 3).
                        Self-potential: point-specific (ISelfS= 7).
                        Self-field    : sphere-specific E.n sum rule (ISelfD= 2).
 1st derivatives      : Analytical E(r).r(x)/FMM algorithm (CHGder, D1EAlg=3).
                        Cavity 1st derivative terms included.
 Solvent              : Dichloromethane, Eps=   8.930000 Eps(inf)=   2.028346
 ------------------------------------------------------------------------------
 GePol: Number of generator spheres                  =      82
 GePol: Total number of spheres                      =      82
 GePol: Number of exposed spheres                    =      82 (100.00%)
 GePol: Number of points                             =    5261
 GePol: Average weight of points                     =       0.12
 GePol: Minimum weight of points                     =   0.34D-10
 GePol: Maximum weight of points                     =    0.21770
 GePol: Number of points with low weight             =     374
 GePol: Fraction of low-weight points (<1% of avg)   =       7.11%
 GePol: Cavity surface area                          =    623.086 Ang**2
 GePol: Cavity volume                                =    610.653 Ang**3
 PCM non-electrostatic energy =         0.0290483011 Hartrees.
 Nuclear repulsion after PCM non-electrostatic terms =     4412.8426128316 Hartrees.
 Leave Link  301 at Thu Dec 20 19:12:58 2018, MaxMem=  1342177280 cpu:               5.1 elap:               0.3
 (Enter /gpfs/apps/hpc/Apps/Restricted/Gaussian/Rev_A.03/g16/l302.exe)
 NPDir=0 NMtPBC=     1 NCelOv=     1 NCel=       1 NClECP=     1 NCelD=      1
         NCelK=      1 NCelE2=     1 NClLst=     1 CellRange=     0.0.
 One-electron integrals computed using PRISM.
 NBasis=   820 RedAO= T EigKep=  2.72D-04  NBF=   820
 NBsUse=   820 1.00D-06 EigRej= -1.00D+00 NBFU=   820
 Precomputing XC quadrature grid using
 IXCGrd= 4 IRadAn=           5 IRanWt=          -1 IRanGd=           0 AccXCQ= 0.00D+00.
 Generated NRdTot=       0 NPtTot=           0 NUsed=           0 NTot=          32
 NSgBfM=   749   749   749   749   749 MxSgAt=    82 MxSgA2=    82.
 Leave Link  302 at Thu Dec 20 19:13:00 2018, MaxMem=  1342177280 cpu:              32.7 elap:               2.1
 (Enter /gpfs/apps/hpc/Apps/Restricted/Gaussian/Rev_A.03/g16/l303.exe)
 DipDrv:  MaxL=1.
 Leave Link  303 at Thu Dec 20 19:13:00 2018, MaxMem=  1342177280 cpu:               1.5 elap:               0.1
 (Enter /gpfs/apps/hpc/Apps/Restricted/Gaussian/Rev_A.03/g16/l401.exe)
 Initial guess from the checkpoint file:  "cyclohexyl-diBIP-neutral.chk"
 B after Tr=     0.005127    0.005337    0.021502
         Rot=    1.000000   -0.000706    0.000152   -0.000378 Ang=  -0.09 deg.
 Guess basis will be translated and rotated to current coordinates.
 JPrj=2 DoOrth=T DoCkMO=T.
 Generating alternative initial guess.
 ExpMin= 1.61D-01 ExpMax= 5.48D+03 ExpMxC= 8.25D+02 IAcc=2 IRadAn=         4 AccDes= 0.00D+00
 Harris functional with IExCor=  402 and IRadAn=       4 diagonalized for initial guess.
 HarFok:  IExCor=  402 AccDes= 0.00D+00 IRadAn=         4 IDoV= 1 UseB2=F ITyADJ=14
 ICtDFT=  3500011 ScaDFX=  1.000000  1.000000  1.000000  1.000000
 FoFCou: FMM=F IPFlag=           0 FMFlag=      100000 FMFlg1=        2001
         NFxFlg=           0 DoJE=T BraDBF=F KetDBF=T FulRan=T
         wScrn=  0.000000 ICntrl=       500 IOpCl=  0 I1Cent=   200000004 NGrid=           0
         NMat0=    1 NMatS0=      1 NMatT0=    0 NMatD0=    1 NMtDS0=    0 NMtDT0=    0
 Symmetry not used in FoFCou.
 Harris En= -1707.73763397291    
 Leave Link  401 at Thu Dec 20 19:13:06 2018, MaxMem=  1342177280 cpu:              81.4 elap:               5.1
 (Enter /gpfs/apps/hpc/Apps/Restricted/Gaussian/Rev_A.03/g16/l502.exe)
 Two-electron integral symmetry not used.
 Closed shell SCF:
 Using DIIS extrapolation, IDIIS=  1040.
 NGot=  1342177280 LenX=  1340812546 LenY=  1340139326
 Requested convergence on RMS density matrix=1.00D-08 within 128 cycles.
 Requested convergence on MAX density matrix=1.00D-06.
 Requested convergence on             energy=1.00D-06.
 No special actions if energy rises.
 Fock matrices will be formed incrementally for  20 cycles.

 Cycle   1  Pass 1  IDiag  1:
 FoFJK:  IHMeth= 1 ICntrl=       0 DoSepK=F KAlg= 0 I1Cent=           0 FoldK=F
 IRaf= 620000000 NMat=       1 IRICut=       1 DoRegI=T DoRafI=F ISym2E= 0 IDoP0=0 IntGTp=1.
 FoFCou: FMM=T IPFlag=           0 FMFlag=      100000 FMFlg1=        2001
         NFxFlg=           0 DoJE=F BraDBF=F KetDBF=F FulRan=T
         wScrn=  0.000000 ICntrl=         0 IOpCl=  0 I1Cent=           0 NGrid=           0
         NMat0=    1 NMatS0=      1 NMatT0=    0 NMatD0=    1 NMtDS0=    0 NMtDT0=    0
 Symmetry not used in FoFCou.
 FMM levels:  10  Number of levels for PrismC:   9
 Inv3:  Mode=1 IEnd=    83034363.
 Iteration    1 A*A^-1 deviation from unit magnitude is 2.95D-14 for    307.
 Iteration    1 A*A^-1 deviation from orthogonality  is 5.94D-15 for   4494    325.
 Iteration    1 A^-1*A deviation from unit magnitude is 2.95D-14 for    307.
 Iteration    1 A^-1*A deviation from orthogonality  is 3.88D-15 for   5260   2235.
 E= -1707.65738669050    
 DIIS: error= 1.03D-02 at cycle   1 NSaved=   1.
 NSaved= 1 IEnMin= 1 EnMin= -1707.65738669050     IErMin= 1 ErrMin= 1.03D-02
 ErrMax= 1.03D-02  0.00D+00 EMaxC= 1.00D-01 BMatC= 3.97D-02 BMatP= 3.97D-02
 IDIUse=3 WtCom= 8.97D-01 WtEn= 1.03D-01
 Coeff-Com:  0.100D+01
 Coeff-En:   0.100D+01
 Coeff:      0.100D+01
 Recover alternate guess density for next cycle.
 RMSDP=1.70D-03 MaxDP=1.15D-01              OVMax= 0.00D+00

 Cycle   2  Pass 1  IDiag  1:
 RMSU=  1.68D-03    CP:  1.02D+00
 E= -1706.71973269262     Delta-E=        0.937653997875 Rises=F Damp=F
 Switch densities from cycles 1 and 2 for lowest energy.
 DIIS: error= 2.93D-02 at cycle   2 NSaved=   2.
 NSaved= 2 IEnMin= 1 EnMin= -1707.65738669050     IErMin= 1 ErrMin= 1.03D-02
 ErrMax= 2.93D-02  0.00D+00 EMaxC= 1.00D+00 BMatC= 9.62D-01 BMatP= 3.97D-02
 IDIUse=1 WtCom= 1.00D+00 WtEn= 0.00D+00
 Coeff-Com:  0.959D+00 0.409D-01
 Coeff:      0.959D+00 0.409D-01
 Gap=     0.148 Goal=   None    Shift=    0.000
 RMSDP=3.84D-04 MaxDP=2.77D-02 DE= 9.38D-01 OVMax= 1.06D-01

 Cycle   3  Pass 1  IDiag  1:
 RMSU=  3.79D-04    CP:  9.99D-01  3.53D-02
 E= -1707.73109396262     Delta-E=       -1.011361269999 Rises=F Damp=F
 DIIS: error= 1.18D-03 at cycle   3 NSaved=   3.
 NSaved= 3 IEnMin= 3 EnMin= -1707.73109396262     IErMin= 3 ErrMin= 1.18D-03
 ErrMax= 1.18D-03  0.00D+00 EMaxC= 1.00D+00 BMatC= 2.34D-03 BMatP= 3.97D-02
 IDIUse=1 WtCom= 1.00D+00 WtEn= 0.00D+00
 Coeff-Com: -0.621D-01 0.412D-01 0.102D+01
 Coeff:     -0.621D-01 0.412D-01 0.102D+01
 Gap=     0.140 Goal=   None    Shift=    0.000
 RMSDP=9.42D-05 MaxDP=4.34D-03 DE=-1.01D+00 OVMax= 1.09D-02

 Cycle   4  Pass 1  IDiag  1:
 RMSU=  7.43D-05    CP:  9.99D-01  6.81D-02  1.04D+00
 E= -1707.73323824067     Delta-E=       -0.002144278051 Rises=F Damp=F
 DIIS: error= 5.68D-04 at cycle   4 NSaved=   4.
 NSaved= 4 IEnMin= 4 EnMin= -1707.73323824067     IErMin= 4 ErrMin= 5.68D-04
 ErrMax= 5.68D-04  0.00D+00 EMaxC= 1.00D+00 BMatC= 6.39D-04 BMatP= 2.34D-03
 IDIUse=1 WtCom= 1.00D+00 WtEn= 0.00D+00
 Coeff-Com: -0.387D-01 0.157D-01 0.505D+00 0.518D+00
 Coeff:     -0.387D-01 0.157D-01 0.505D+00 0.518D+00
 Gap=     0.140 Goal=   None    Shift=    0.000
 RMSDP=4.30D-05 MaxDP=3.46D-03 DE=-2.14D-03 OVMax= 7.24D-03

 Cycle   5  Pass 1  IDiag  1:
 RMSU=  2.69D-05    CP:  9.99D-01  6.54D-02  1.06D+00  5.62D-01
 E= -1707.73380395938     Delta-E=       -0.000565718710 Rises=F Damp=F
 DIIS: error= 1.98D-04 at cycle   5 NSaved=   5.
 NSaved= 5 IEnMin= 5 EnMin= -1707.73380395938     IErMin= 5 ErrMin= 1.98D-04
 ErrMax= 1.98D-04  0.00D+00 EMaxC= 1.00D+00 BMatC= 8.11D-05 BMatP= 6.39D-04
 IDIUse=1 WtCom= 1.00D+00 WtEn= 0.00D+00
 Coeff-Com: -0.113D-01 0.230D-02 0.132D+00 0.292D+00 0.585D+00
 Coeff:     -0.113D-01 0.230D-02 0.132D+00 0.292D+00 0.585D+00
 Gap=     0.140 Goal=   None    Shift=    0.000
 RMSDP=1.34D-05 MaxDP=1.19D-03 DE=-5.66D-04 OVMax= 1.87D-03

 Cycle   6  Pass 1  IDiag  1:
 RMSU=  7.84D-06    CP:  9.99D-01  6.54D-02  1.06D+00  6.49D-01  6.78D-01
 E= -1707.73387822557     Delta-E=       -0.000074266193 Rises=F Damp=F
 DIIS: error= 8.52D-05 at cycle   6 NSaved=   6.
 NSaved= 6 IEnMin= 6 EnMin= -1707.73387822557     IErMin= 6 ErrMin= 8.52D-05
 ErrMax= 8.52D-05  0.00D+00 EMaxC= 1.00D+00 BMatC= 6.33D-06 BMatP= 8.11D-05
 IDIUse=1 WtCom= 1.00D+00 WtEn= 0.00D+00
 Coeff-Com: -0.326D-02 0.121D-03 0.330D-01 0.119D+00 0.312D+00 0.539D+00
 Coeff:     -0.326D-02 0.121D-03 0.330D-01 0.119D+00 0.312D+00 0.539D+00
 Gap=     0.140 Goal=   None    Shift=    0.000
 RMSDP=4.17D-06 MaxDP=5.33D-04 DE=-7.43D-05 OVMax= 6.35D-04

 Cycle   7  Pass 1  IDiag  1:
 RMSU=  2.63D-06    CP:  9.99D-01  6.52D-02  1.06D+00  6.56D-01  7.09D-01
                    CP:  6.12D-01
 E= -1707.73388358646     Delta-E=       -0.000005360886 Rises=F Damp=F
 DIIS: error= 2.33D-05 at cycle   7 NSaved=   7.
 NSaved= 7 IEnMin= 7 EnMin= -1707.73388358646     IErMin= 7 ErrMin= 2.33D-05
 ErrMax= 2.33D-05  0.00D+00 EMaxC= 1.00D+00 BMatC= 6.82D-07 BMatP= 6.33D-06
 IDIUse=1 WtCom= 1.00D+00 WtEn= 0.00D+00
 Coeff-Com: -0.709D-03-0.142D-03 0.498D-02 0.360D-01 0.112D+00 0.299D+00
 Coeff-Com:  0.548D+00
 Coeff:     -0.709D-03-0.142D-03 0.498D-02 0.360D-01 0.112D+00 0.299D+00
 Coeff:      0.548D+00
 Gap=     0.140 Goal=   None    Shift=    0.000
 RMSDP=1.32D-06 MaxDP=2.05D-04 DE=-5.36D-06 OVMax= 2.52D-04

 Cycle   8  Pass 1  IDiag  1:
 RMSU=  8.59D-07    CP:  9.99D-01  6.52D-02  1.06D+00  6.56D-01  7.14D-01
                    CP:  6.79D-01  6.80D-01
 E= -1707.73388415540     Delta-E=       -0.000000568937 Rises=F Damp=F
 DIIS: error= 9.14D-06 at cycle   8 NSaved=   8.
 NSaved= 8 IEnMin= 8 EnMin= -1707.73388415540     IErMin= 8 ErrMin= 9.14D-06
 ErrMax= 9.14D-06  0.00D+00 EMaxC= 1.00D+00 BMatC= 8.66D-08 BMatP= 6.82D-07
 IDIUse=1 WtCom= 1.00D+00 WtEn= 0.00D+00
 Coeff-Com: -0.183D-04-0.947D-04-0.121D-02 0.614D-02 0.268D-01 0.107D+00
 Coeff-Com:  0.314D+00 0.548D+00
 Coeff:     -0.183D-04-0.947D-04-0.121D-02 0.614D-02 0.268D-01 0.107D+00
 Coeff:      0.314D+00 0.548D+00
 Gap=     0.140 Goal=   None    Shift=    0.000
 RMSDP=4.42D-07 MaxDP=6.48D-05 DE=-5.69D-07 OVMax= 8.22D-05

 Cycle   9  Pass 1  IDiag  1:
 RMSU=  2.53D-07    CP:  9.99D-01  6.52D-02  1.06D+00  6.57D-01  7.16D-01
                    CP:  6.81D-01  7.29D-01  6.19D-01
