 Entering Gaussian System, Link 0=g16
 Initial command:
 /gpfs/apps/hpc/Apps/Restricted/Gaussian/Rev_A.03/g16/l1.exe "/gpfs/scratch60/fas/hammes_schiffer/jg2487/c08n04/Gau-22965.inp" -scrdir="/gpfs/scratch60/fas/hammes_schiffer/jg2487/c08n04/"
 Entering Link 1 = /gpfs/apps/hpc/Apps/Restricted/Gaussian/Rev_A.03/g16/l1.exe PID=     22966.
  
 Copyright (c) 1988,1990,1992,1993,1995,1998,2003,2009,2016,
            Gaussian, Inc.  All Rights Reserved.
  
 This is part of the Gaussian(R) 16 program.  It is based on
 the Gaussian(R) 09 system (copyright 2009, Gaussian, Inc.),
 the Gaussian(R) 03 system (copyright 2003, Gaussian, Inc.),
 the Gaussian(R) 98 system (copyright 1998, Gaussian, Inc.),
 the Gaussian(R) 94 system (copyright 1995, Gaussian, Inc.),
 the Gaussian 92(TM) system (copyright 1992, Gaussian, Inc.),
 the Gaussian 90(TM) system (copyright 1990, Gaussian, Inc.),
 the Gaussian 88(TM) system (copyright 1988, Gaussian, Inc.),
 the Gaussian 86(TM) system (copyright 1986, Carnegie Mellon
 University), and the Gaussian 82(TM) system (copyright 1983,
 Carnegie Mellon University). Gaussian is a federally registered
 trademark of Gaussian, Inc.
  
 This software contains proprietary and confidential information,
 including trade secrets, belonging to Gaussian, Inc.
  
 This software is provided under written license and may be
 used, copied, transmitted, or stored only in accord with that
 written license.
  
 The following legend is applicable only to US Government
 contracts under FAR:
  
                    RESTRICTED RIGHTS LEGEND
  
 Use, reproduction and disclosure by the US Government is
 subject to restrictions as set forth in subparagraphs (a)
 and (c) of the Commercial Computer Software - Restricted
 Rights clause in FAR 52.227-19.
  
 Gaussian, Inc.
 340 Quinnipiac St., Bldg. 40, Wallingford CT 06492
  
  
 ---------------------------------------------------------------
 Warning -- This program may not be used in any manner that
 competes with the business of Gaussian, Inc. or will provide
 assistance to any competitor of Gaussian, Inc.  The licensee
 of this program is prohibited from giving any competitor of
 Gaussian, Inc. access to this program.  By using this program,
 the user acknowledges that Gaussian, Inc. is engaged in the
 business of creating and licensing software in the field of
 computational chemistry and represents and warrants to the
 licensee that it is not a competitor of Gaussian, Inc. and that
 it will not use this program in any manner prohibited above.
 ---------------------------------------------------------------
  

 Cite this work as:
 Gaussian 16, Revision A.03,
 M. J. Frisch, G. W. Trucks, H. B. Schlegel, G. E. Scuseria, 
 M. A. Robb, J. R. Cheeseman, G. Scalmani, V. Barone, 
 G. A. Petersson, H. Nakatsuji, X. Li, M. Caricato, A. V. Marenich, 
 J. Bloino, B. G. Janesko, R. Gomperts, B. Mennucci, H. P. Hratchian, 
 J. V. Ortiz, A. F. Izmaylov, J. L. Sonnenberg, D. Williams-Young, 
 F. Ding, F. Lipparini, F. Egidi, J. Goings, B. Peng, A. Petrone, 
 T. Henderson, D. Ranasinghe, V. G. Zakrzewski, J. Gao, N. Rega, 
 G. Zheng, W. Liang, M. Hada, M. Ehara, K. Toyota, R. Fukuda, 
 J. Hasegawa, M. Ishida, T. Nakajima, Y. Honda, O. Kitao, H. Nakai, 
 T. Vreven, K. Throssell, J. A. Montgomery, Jr., J. E. Peralta, 
 F. Ogliaro, M. J. Bearpark, J. J. Heyd, E. N. Brothers, K. N. Kudin, 
 V. N. Staroverov, T. A. Keith, R. Kobayashi, J. Normand, 
 K. Raghavachari, A. P. Rendell, J. C. Burant, S. S. Iyengar, 
 J. Tomasi, M. Cossi, J. M. Millam, M. Klene, C. Adamo, R. Cammi, 
 J. W. Ochterski, R. L. Martin, K. Morokuma, O. Farkas, 
 J. B. Foresman, and D. J. Fox, Gaussian, Inc., Wallingford CT, 2016.
 
 ******************************************
 Gaussian 16:  ES64L-G16RevA.03 25-Dec-2016
                21-Dec-2018 
 ******************************************
 %chk=cyclohexyl-diBIP-neutral.chk
 %mem=10GB
 %nprocshared=16
 Will use up to   16 processors via shared memory.
 ----------------------------------------------------------------------
 #p opt=tight freq=internalmodes b3lyp/6-31g(d,p) scrf=(cpcm,solvent=di
 chloromethane,read) nosymm empiricaldispersion=gd3bj int=grid=ultrafin
 e
 ----------------------------------------------------------------------
 1/7=10,18=20,19=15,26=6,38=1,40=2/1,3;
 2/9=110,12=2,15=1,17=6,18=5,40=1/2;
 3/5=1,6=6,7=101,11=2,25=1,30=1,70=2103,71=1,72=9,74=-5,75=-5,124=41/1,2,3;
 4//1;
 5/5=2,38=5,53=9/2;
 6/7=2,8=2,9=2,10=2,28=1/1;
 7/30=1/1,2,3,16;
 1/7=10,18=20,19=15,26=6/3(2);
 2/9=110,15=1/2;
 99//99;
 2/9=110,15=1/2;
 3/5=1,6=6,7=101,11=2,25=1,30=1,70=2105,71=1,72=9,74=-5,75=-5,124=41/1,2,3;
 4/5=5,16=3,69=1/1;
 5/5=2,38=5,53=9/2;
 7/30=1/1,2,3,16;
 1/7=10,18=20,19=15,26=6/3(-5);
 2/9=110,15=1/2;
 6/7=2,8=2,9=2,10=2,19=2,28=1/1;
 99/9=1/99;
 Leave Link    1 at Fri Dec 21 14:10:37 2018, MaxMem=  1342177280 cpu:               9.0 elap:               0.6
 (Enter /gpfs/apps/hpc/Apps/Restricted/Gaussian/Rev_A.03/g16/l101.exe)
 ------------------------------------------
 cyclohexylimine diBIP neutral optimization
 ------------------------------------------
 Symbolic Z-matrix:
 Charge =  0 Multiplicity = 1
 C                     1.57965   1.13628  -0.01975 
 C                     0.35589   1.84049  -0.09223 
 C                     0.36298   3.23038  -0.26289 
 C                     1.59776   3.86943  -0.36347 
 C                     2.80462   3.1537   -0.28917 
 C                     2.8309    1.76392  -0.11711 
 C                    -0.13772  -0.2523    0.15284 
 H                    -0.56623   3.78484  -0.31811 
 H                     1.63283   4.94433  -0.49692 
 H                     3.74635   3.68576  -0.36926 
 C                    -2.29497  -1.44709   0.24322 
 C                    -3.09907  -2.60636   0.3207 
 C                    -2.50046  -3.86203   0.46299 
 C                    -1.10735  -3.91342   0.51931 
 C                    -0.31797  -2.75697   0.42626 
 C                    -0.89311  -1.48664   0.28255 
 C                    -4.44259  -0.90306   0.11896 
 H                    -3.10162  -4.76062   0.52646 
 H                    -0.61591  -4.87219   0.63426 
 H                     0.76052  -2.85242   0.47038 
 N                    -0.69883   0.94869   0.02132 
 C                    -6.90741  -0.7585   -0.12959 
 C                    -5.65286  -0.1061   -0.00407 
 C                    -5.59106   1.29506   0.00045 
 C                    -6.73756   2.0728   -0.11234 
 C                    -7.9607    1.3984   -0.24926 
 C                    -8.08797   0.007    -0.26416 
 H                    -4.62612   1.77757   0.1051 
 H                    -8.86018   1.98726  -0.34255 
 C                    -6.63277   3.60278  -0.09482 
 C                    -9.4602   -0.66524  -0.42566 
 O                    -6.98574  -2.1088   -0.12792 
 H                    -6.06472  -2.47201   0.01424 
 N                    -3.16878  -0.39321   0.12126 
 N                    -4.43122  -2.23301   0.23669 
 H                    -2.84707   0.56443   0.03196 
 N                     1.23549  -0.18273   0.13754 
 H                     1.92874  -0.91883   0.19944 
 C                     4.08174   1.01763  -0.0389 
 H                     4.99428   1.61819  -0.12422 
 N                     4.10433  -0.25539   0.11622 
 C                     5.42445  -0.90476   0.17976 
 C                     6.22319  -0.72843  -1.12278 
 C                     6.24925  -0.43377   1.38952 
 H                     5.23246  -1.97641   0.30794 
 C                     7.57201  -1.45152  -1.04862 
 H                     6.39104   0.34237  -1.29054 
 H                     5.631    -1.09657  -1.96579 
 C                     7.59719  -1.15937   1.4596 
 H                     6.42144   0.64553   1.30115 
 H                     5.67486  -0.59349   2.30678 
 C                     8.39052  -0.98487   0.16014 
 H                     8.12971  -1.28966  -1.97603 
 H                     7.39831  -2.53207  -0.96853 
 H                     8.17272  -0.79095   2.31431 
 H                     7.42258  -2.22886   1.63358 
 H                     9.33499  -1.53512   0.21454 
 H                     8.64568   0.07503   0.03352 
 C                    -5.82357   4.06778  -1.32226 
 H                    -5.70883   5.15598  -1.31212 
 H                    -4.82586   3.62115  -1.32797 
 H                    -6.3286    3.78473  -2.24984 
 C                    -5.90726   4.05611   1.18773 
 H                    -4.89876   3.63978   1.24416 
 H                    -5.82137   5.14649   1.20765 
 H                    -6.45587   3.73873   2.07862 
 C                    -8.01269   4.2736   -0.13122 
 H                    -8.55915   4.02036  -1.04349 
 H                    -8.62176   3.9754    0.72647 
 H                    -7.89248   5.35926  -0.1005 
 C                    -9.47207  -1.51203  -1.71544 
 H                    -8.69778  -2.27859  -1.69281 
 H                    -10.44382  -2.00163  -1.83064 
 H                    -9.30698  -0.87679  -2.5901 
 C                    -9.76486  -1.56009   0.7952 
 H                    -10.74414  -2.03178   0.66909 
 H                    -9.01518  -2.3402    0.91501 
 H                    -9.79359  -0.96006   1.70898 
 C                    -10.59437   0.36662  -0.53111 
 H                    -10.65889   0.99004   0.36458 
 H                    -10.47235   1.02348  -1.3965 
 H                    -11.54496  -0.16081  -0.64466 
 
 ITRead=  0  0  0  0  0  0  0  0  0  0  0  0  0  0  0  0  0  0  0  0
 ITRead=  0  0  0  0  0  0  0  0  0  0  0  0  0  0  0  0  0  0  0  0
 ITRead=  0  0  0  0  0  0  0  0  0  0  0  0  0  0  0  0  0  0  0  0
 ITRead=  0  0  0  0  0  0  0  0  0  0  0  0  0  0  0  0  0  0  0  0
 ITRead=  0  0
 MicOpt= -1 -1 -1 -1 -1 -1 -1 -1 -1 -1 -1 -1 -1 -1 -1 -1 -1 -1 -1 -1
 MicOpt= -1 -1 -1 -1 -1 -1 -1 -1 -1 -1 -1 -1 -1 -1 -1 -1 -1 -1 -1 -1
 MicOpt= -1 -1 -1 -1 -1 -1 -1 -1 -1 -1 -1 -1 -1 -1 -1 -1 -1 -1 -1 -1
 MicOpt= -1 -1 -1 -1 -1 -1 -1 -1 -1 -1 -1 -1 -1 -1 -1 -1 -1 -1 -1 -1
 MicOpt= -1 -1
 NAtoms=     82 NQM=       82 NQMF=       0 NMMI=      0 NMMIF=      0
                NMic=       0 NMicF=      0.
                    Isotopes and Nuclear Properties:
 (Nuclear quadrupole moments (NQMom) in fm**2, nuclear magnetic moments (NMagM)
  in nuclear magnetons)

  Atom         1           2           3           4           5           6           7           8           9          10
 IAtWgt=          12          12          12          12          12          12          12           1           1           1
 AtmWgt=  12.0000000  12.0000000  12.0000000  12.0000000  12.0000000  12.0000000  12.0000000   1.0078250   1.0078250   1.0078250
 NucSpn=           0           0           0           0           0           0           0           1           1           1
 AtZEff=  -0.0000000  -0.0000000  -0.0000000  -0.0000000  -0.0000000  -0.0000000  -0.0000000  -0.0000000  -0.0000000  -0.0000000
 NQMom=    0.0000000   0.0000000   0.0000000   0.0000000   0.0000000   0.0000000   0.0000000   0.0000000   0.0000000   0.0000000
 NMagM=    0.0000000   0.0000000   0.0000000   0.0000000   0.0000000   0.0000000   0.0000000   2.7928460   2.7928460   2.7928460
 AtZNuc=   6.0000000   6.0000000   6.0000000   6.0000000   6.0000000   6.0000000   6.0000000   1.0000000   1.0000000   1.0000000

  Atom        11          12          13          14          15          16          17          18          19          20
 IAtWgt=          12          12          12          12          12          12          12           1           1           1
 AtmWgt=  12.0000000  12.0000000  12.0000000  12.0000000  12.0000000  12.0000000  12.0000000   1.0078250   1.0078250   1.0078250
 NucSpn=           0           0           0           0           0           0           0           1           1           1
 AtZEff=  -0.0000000  -0.0000000  -0.0000000  -0.0000000  -0.0000000  -0.0000000  -0.0000000  -0.0000000  -0.0000000  -0.0000000
 NQMom=    0.0000000   0.0000000   0.0000000   0.0000000   0.0000000   0.0000000   0.0000000   0.0000000   0.0000000   0.0000000
 NMagM=    0.0000000   0.0000000   0.0000000   0.0000000   0.0000000   0.0000000   0.0000000   2.7928460   2.7928460   2.7928460
 AtZNuc=   6.0000000   6.0000000   6.0000000   6.0000000   6.0000000   6.0000000   6.0000000   1.0000000   1.0000000   1.0000000

  Atom        21          22          23          24          25          26          27          28          29          30
 IAtWgt=          14          12          12          12          12          12          12           1           1          12
 AtmWgt=  14.0030740  12.0000000  12.0000000  12.0000000  12.0000000  12.0000000  12.0000000   1.0078250   1.0078250  12.0000000
 NucSpn=           2           0           0           0           0           0           0           1           1           0
 AtZEff=  -0.0000000  -0.0000000  -0.0000000  -0.0000000  -0.0000000  -0.0000000  -0.0000000  -0.0000000  -0.0000000  -0.0000000
 NQMom=    2.0440000   0.0000000   0.0000000   0.0000000   0.0000000   0.0000000   0.0000000   0.0000000   0.0000000   0.0000000
 NMagM=    0.4037610   0.0000000   0.0000000   0.0000000   0.0000000   0.0000000   0.0000000   2.7928460   2.7928460   0.0000000
 AtZNuc=   7.0000000   6.0000000   6.0000000   6.0000000   6.0000000   6.0000000   6.0000000   1.0000000   1.0000000   6.0000000

  Atom        31          32          33          34          35          36          37          38          39          40
 IAtWgt=          12          16           1          14          14           1          14           1          12           1
 AtmWgt=  12.0000000  15.9949146   1.0078250  14.0030740  14.0030740   1.0078250  14.0030740   1.0078250  12.0000000   1.0078250
 NucSpn=           0           0           1           2           2           1           2           1           0           1
 AtZEff=  -0.0000000  -0.0000000  -0.0000000  -0.0000000  -0.0000000  -0.0000000  -0.0000000  -0.0000000  -0.0000000  -0.0000000
 NQMom=    0.0000000   0.0000000   0.0000000   2.0440000   2.0440000   0.0000000   2.0440000   0.0000000   0.0000000   0.0000000
 NMagM=    0.0000000   0.0000000   2.7928460   0.4037610   0.4037610   2.7928460   0.4037610   2.7928460   0.0000000   2.7928460
 AtZNuc=   6.0000000   8.0000000   1.0000000   7.0000000   7.0000000   1.0000000   7.0000000   1.0000000   6.0000000   1.0000000

  Atom        41          42          43          44          45          46          47          48          49          50
 IAtWgt=          14          12          12          12           1          12           1           1          12           1
 AtmWgt=  14.0030740  12.0000000  12.0000000  12.0000000   1.0078250  12.0000000   1.0078250   1.0078250  12.0000000   1.0078250
 NucSpn=           2           0           0           0           1           0           1           1           0           1
 AtZEff=  -0.0000000  -0.0000000  -0.0000000  -0.0000000  -0.0000000  -0.0000000  -0.0000000  -0.0000000  -0.0000000  -0.0000000
 NQMom=    2.0440000   0.0000000   0.0000000   0.0000000   0.0000000   0.0000000   0.0000000   0.0000000   0.0000000   0.0000000
 NMagM=    0.4037610   0.0000000   0.0000000   0.0000000   2.7928460   0.0000000   2.7928460   2.7928460   0.0000000   2.7928460
 AtZNuc=   7.0000000   6.0000000   6.0000000   6.0000000   1.0000000   6.0000000   1.0000000   1.0000000   6.0000000   1.0000000

  Atom        51          52          53          54          55          56          57          58          59          60
 IAtWgt=           1          12           1           1           1           1           1           1          12           1
 AtmWgt=   1.0078250  12.0000000   1.0078250   1.0078250   1.0078250   1.0078250   1.0078250   1.0078250  12.0000000   1.0078250
 NucSpn=           1           0           1           1           1           1           1           1           0           1
 AtZEff=  -0.0000000  -0.0000000  -0.0000000  -0.0000000  -0.0000000  -0.0000000  -0.0000000  -0.0000000  -0.0000000  -0.0000000
 NQMom=    0.0000000   0.0000000   0.0000000   0.0000000   0.0000000   0.0000000   0.0000000   0.0000000   0.0000000   0.0000000
 NMagM=    2.7928460   0.0000000   2.7928460   2.7928460   2.7928460   2.7928460   2.7928460   2.7928460   0.0000000   2.7928460
 AtZNuc=   1.0000000   6.0000000   1.0000000   1.0000000   1.0000000   1.0000000   1.0000000   1.0000000   6.0000000   1.0000000

  Atom        61          62          63          64          65          66          67          68          69          70
 IAtWgt=           1           1          12           1           1           1          12           1           1           1
 AtmWgt=   1.0078250   1.0078250  12.0000000   1.0078250   1.0078250   1.0078250  12.0000000   1.0078250   1.0078250   1.0078250
 NucSpn=           1           1           0           1           1           1           0           1           1           1
 AtZEff=  -0.0000000  -0.0000000  -0.0000000  -0.0000000  -0.0000000  -0.0000000  -0.0000000  -0.0000000  -0.0000000  -0.0000000
 NQMom=    0.0000000   0.0000000   0.0000000   0.0000000   0.0000000   0.0000000   0.0000000   0.0000000   0.0000000   0.0000000
 NMagM=    2.7928460   2.7928460   0.0000000   2.7928460   2.7928460   2.7928460   0.0000000   2.7928460   2.7928460   2.7928460
 AtZNuc=   1.0000000   1.0000000   6.0000000   1.0000000   1.0000000   1.0000000   6.0000000   1.0000000   1.0000000   1.0000000

  Atom        71          72          73          74          75          76          77          78          79          80
 IAtWgt=          12           1           1           1          12           1           1           1          12           1
 AtmWgt=  12.0000000   1.0078250   1.0078250   1.0078250  12.0000000   1.0078250   1.0078250   1.0078250  12.0000000   1.0078250
 NucSpn=           0           1           1           1           0           1           1           1           0           1
 AtZEff=  -0.0000000  -0.0000000  -0.0000000  -0.0000000  -0.0000000  -0.0000000  -0.0000000  -0.0000000  -0.0000000  -0.0000000
 NQMom=    0.0000000   0.0000000   0.0000000   0.0000000   0.0000000   0.0000000   0.0000000   0.0000000   0.0000000   0.0000000
 NMagM=    0.0000000   2.7928460   2.7928460   2.7928460   0.0000000   2.7928460   2.7928460   2.7928460   0.0000000   2.7928460
 AtZNuc=   6.0000000   1.0000000   1.0000000   1.0000000   6.0000000   1.0000000   1.0000000   1.0000000   6.0000000   1.0000000

  Atom        81          82
 IAtWgt=           1           1
 AtmWgt=   1.0078250   1.0078250
 NucSpn=           1           1
 AtZEff=  -0.0000000  -0.0000000
 NQMom=    0.0000000   0.0000000
 NMagM=    2.7928460   2.7928460
 AtZNuc=   1.0000000   1.0000000
 Leave Link  101 at Fri Dec 21 14:10:38 2018, MaxMem=  1342177280 cpu:               6.3 elap:               0.4
 (Enter /gpfs/apps/hpc/Apps/Restricted/Gaussian/Rev_A.03/g16/l103.exe)

 GradGradGradGradGradGradGradGradGradGradGradGradGradGradGradGradGradGrad
 Berny optimization.
 Initialization pass.
                           ----------------------------
                           !    Initial Parameters    !
                           ! (Angstroms and Degrees)  !
 --------------------------                            --------------------------
 ! Name  Definition              Value          Derivative Info.                !
 --------------------------------------------------------------------------------
 ! R1    R(1,2)                  1.4138         estimate D2E/DX2                !
 ! R2    R(1,6)                  1.4032         estimate D2E/DX2                !
 ! R3    R(1,37)                 1.3722         estimate D2E/DX2                !
 ! R4    R(2,3)                  1.4003         estimate D2E/DX2                !
 ! R5    R(2,21)                 1.3859         estimate D2E/DX2                !
 ! R6    R(3,4)                  1.394          estimate D2E/DX2                !
 ! R7    R(3,8)                  1.0835         estimate D2E/DX2                !
 ! R8    R(4,5)                  1.4051         estimate D2E/DX2                !
 ! R9    R(4,9)                  1.0837         estimate D2E/DX2                !
 ! R10   R(5,6)                  1.4006         estimate D2E/DX2                !
 ! R11   R(5,10)                 1.0846         estimate D2E/DX2                !
 ! R12   R(6,39)                 1.4587         estimate D2E/DX2                !
 ! R13   R(7,16)                 1.4529         estimate D2E/DX2                !
 ! R14   R(7,21)                 1.3321         estimate D2E/DX2                !
 ! R15   R(7,37)                 1.375          estimate D2E/DX2                !
 ! R16   R(11,12)                1.413          estimate D2E/DX2                !
 ! R17   R(11,16)                1.403          estimate D2E/DX2                !
 ! R18   R(11,34)                1.3744         estimate D2E/DX2                !
 ! R19   R(12,13)                1.3983         estimate D2E/DX2                !
 ! R20   R(12,35)                1.386          estimate D2E/DX2                !
 ! R21   R(13,14)                1.3952         estimate D2E/DX2                !
 ! R22   R(13,18)                1.083          estimate D2E/DX2                !
 ! R23   R(14,15)                1.4033         estimate D2E/DX2                !
 ! R24   R(14,19)                1.0835         estimate D2E/DX2                !
 ! R25   R(15,16)                1.4018         estimate D2E/DX2                !
 ! R26   R(15,20)                1.0836         estimate D2E/DX2                !
 ! R27   R(17,23)                1.4543         estimate D2E/DX2                !
 ! R28   R(17,34)                1.3721         estimate D2E/DX2                !
 ! R29   R(17,35)                1.3352         estimate D2E/DX2                !
 ! R30   R(22,23)                1.4196         estimate D2E/DX2                !
 ! R31   R(22,27)                1.4134         estimate D2E/DX2                !
 ! R32   R(22,32)                1.3526         estimate D2E/DX2                !
 ! R33   R(23,24)                1.4025         estimate D2E/DX2                !
 ! R34   R(24,25)                1.39           estimate D2E/DX2                !
 ! R35   R(24,28)                1.0839         estimate D2E/DX2                !
 ! R36   R(25,26)                1.4034         estimate D2E/DX2                !
 ! R37   R(25,30)                1.5337         estimate D2E/DX2                !
 ! R38   R(26,27)                1.3973         estimate D2E/DX2                !
 ! R39   R(26,29)                1.0791         estimate D2E/DX2                !
 ! R40   R(27,31)                1.5366         estimate D2E/DX2                !
 ! R41   R(30,59)                1.542          estimate D2E/DX2                !
 ! R42   R(30,63)                1.5417         estimate D2E/DX2                !
 ! R43   R(30,67)                1.5348         estimate D2E/DX2                !
 ! R44   R(31,71)                1.543          estimate D2E/DX2                !
 ! R45   R(31,75)                1.544          estimate D2E/DX2                !
 ! R46   R(31,79)                1.5369         estimate D2E/DX2                !
 ! R47   R(32,33)                1.0002         estimate D2E/DX2                !
 ! R48   R(34,36)                1.0142         estimate D2E/DX2                !
 ! R49   R(37,38)                1.0131         estimate D2E/DX2                !
 ! R50   R(39,40)                1.0958         estimate D2E/DX2                !
 ! R51   R(39,41)                1.2826         estimate D2E/DX2                !
 ! R52   R(41,42)                1.4726         estimate D2E/DX2                !
 ! R53   R(42,43)                1.5381         estimate D2E/DX2                !
 ! R54   R(42,44)                1.5381         estimate D2E/DX2                !
 ! R55   R(42,45)                1.0962         estimate D2E/DX2                !
 ! R56   R(43,46)                1.5322         estimate D2E/DX2                !
 ! R57   R(43,47)                1.0968         estimate D2E/DX2                !
 ! R58   R(43,48)                1.094          estimate D2E/DX2                !
 ! R59   R(44,49)                1.5324         estimate D2E/DX2                !
 ! R60   R(44,50)                1.0965         estimate D2E/DX2                !
 ! R61   R(44,51)                1.094          estimate D2E/DX2                !
 ! R62   R(46,52)                1.5326         estimate D2E/DX2                !
 ! R63   R(46,53)                1.0942         estimate D2E/DX2                !
 ! R64   R(46,54)                1.0973         estimate D2E/DX2                !
 ! R65   R(49,52)                1.5325         estimate D2E/DX2                !
 ! R66   R(49,55)                1.0943         estimate D2E/DX2                !
 ! R67   R(49,56)                1.0975         estimate D2E/DX2                !
 ! R68   R(52,57)                1.0944         estimate D2E/DX2                !
 ! R69   R(52,58)                1.0975         estimate D2E/DX2                !
 ! R70   R(59,60)                1.0943         estimate D2E/DX2                !
 ! R71   R(59,61)                1.0931         estimate D2E/DX2                !
 ! R72   R(59,62)                1.0934         estimate D2E/DX2                !
 ! R73   R(63,64)                1.0925         estimate D2E/DX2                !
 ! R74   R(63,65)                1.0939         estimate D2E/DX2                !
 ! R75   R(63,66)                1.0933         estimate D2E/DX2                !
 ! R76   R(67,68)                1.0932         estimate D2E/DX2                !
 ! R77   R(67,69)                1.0934         estimate D2E/DX2                !
 ! R78   R(67,70)                1.0927         estimate D2E/DX2                !
 ! R79   R(71,72)                1.0898         estimate D2E/DX2                !
 ! R80   R(71,73)                1.0942         estimate D2E/DX2                !
 ! R81   R(71,74)                1.0935         estimate D2E/DX2                !
 ! R82   R(75,76)                1.0942         estimate D2E/DX2                !
 ! R83   R(75,77)                1.0886         estimate D2E/DX2                !
 ! R84   R(75,78)                1.0936         estimate D2E/DX2                !
 ! R85   R(79,80)                1.0932         estimate D2E/DX2                !
 ! R86   R(79,81)                1.0933         estimate D2E/DX2                !
 ! R87   R(79,82)                1.093          estimate D2E/DX2                !
 ! A1    A(2,1,6)              123.059          estimate D2E/DX2                !
 ! A2    A(2,1,37)             105.5199         estimate D2E/DX2                !
 ! A3    A(6,1,37)             131.417          estimate D2E/DX2                !
 ! A4    A(1,2,3)              119.7526         estimate D2E/DX2                !
 ! A5    A(1,2,21)             109.5142         estimate D2E/DX2                !
 ! A6    A(3,2,21)             130.7321         estimate D2E/DX2                !
 ! A7    A(2,3,4)              117.9233         estimate D2E/DX2                !
 ! A8    A(2,3,8)              120.6504         estimate D2E/DX2                !
 ! A9    A(4,3,8)              121.4258         estimate D2E/DX2                !
 ! A10   A(3,4,5)              121.5664         estimate D2E/DX2                !
 ! A11   A(3,4,9)              119.4892         estimate D2E/DX2                !
 ! A12   A(5,4,9)              118.9436         estimate D2E/DX2                !
 ! A13   A(4,5,6)              121.8734         estimate D2E/DX2                !
 ! A14   A(4,5,10)             119.4715         estimate D2E/DX2                !
 ! A15   A(6,5,10)             118.6549         estimate D2E/DX2                !
 ! A16   A(1,6,5)              115.8238         estimate D2E/DX2                !
 ! A17   A(1,6,39)             122.1471         estimate D2E/DX2                !
 ! A18   A(5,6,39)             122.0287         estimate D2E/DX2                !
 ! A19   A(16,7,21)            123.7619         estimate D2E/DX2                !
 ! A20   A(16,7,37)            124.2765         estimate D2E/DX2                !
 ! A21   A(21,7,37)            111.9587         estimate D2E/DX2                !
 ! A22   A(12,11,16)           122.9538         estimate D2E/DX2                !
 ! A23   A(12,11,34)           105.7932         estimate D2E/DX2                !
 ! A24   A(16,11,34)           131.2511         estimate D2E/DX2                !
 ! A25   A(11,12,13)           119.9146         estimate D2E/DX2                !
 ! A26   A(11,12,35)           108.8224         estimate D2E/DX2                !
 ! A27   A(13,12,35)           131.2627         estimate D2E/DX2                !
 ! A28   A(12,13,14)           117.6873         estimate D2E/DX2                !
 ! A29   A(12,13,18)           120.8909         estimate D2E/DX2                !
 ! A30   A(14,13,18)           121.4217         estimate D2E/DX2                !
 ! A31   A(13,14,15)           121.9147         estimate D2E/DX2                !
 ! A32   A(13,14,19)           119.3257         estimate D2E/DX2                !
 ! A33   A(15,14,19)           118.7592         estimate D2E/DX2                !
 ! A34   A(14,15,16)           121.5202         estimate D2E/DX2                !
 ! A35   A(14,15,20)           118.9851         estimate D2E/DX2                !
 ! A36   A(16,15,20)           119.4944         estimate D2E/DX2                !
 ! A37   A(7,16,11)            119.5407         estimate D2E/DX2                !
 ! A38   A(7,16,15)            124.45           estimate D2E/DX2                !
 ! A39   A(11,16,15)           116.0002         estimate D2E/DX2                !
 ! A40   A(23,17,34)           124.6883         estimate D2E/DX2                !
 ! A41   A(23,17,35)           124.0822         estimate D2E/DX2                !
 ! A42   A(34,17,35)           111.2284         estimate D2E/DX2                !
 ! A43   A(2,21,7)             105.5257         estimate D2E/DX2                !
 ! A44   A(23,22,27)           119.8447         estimate D2E/DX2                !
 ! A45   A(23,22,32)           120.6551         estimate D2E/DX2                !
 ! A46   A(27,22,32)           119.4996         estimate D2E/DX2                !
 ! A47   A(17,23,22)           119.4114         estimate D2E/DX2                !
 ! A48   A(17,23,24)           120.6982         estimate D2E/DX2                !
 ! A49   A(22,23,24)           119.8904         estimate D2E/DX2                !
 ! A50   A(23,24,25)           121.4918         estimate D2E/DX2                !
 ! A51   A(23,24,28)           118.9636         estimate D2E/DX2                !
 ! A52   A(25,24,28)           119.5413         estimate D2E/DX2                !
 ! A53   A(24,25,26)           117.2517         estimate D2E/DX2                !
 ! A54   A(24,25,30)           120.0593         estimate D2E/DX2                !
 ! A55   A(26,25,30)           122.6874         estimate D2E/DX2                !
 ! A56   A(25,26,27)           123.9828         estimate D2E/DX2                !
 ! A57   A(25,26,29)           118.2066         estimate D2E/DX2                !
 ! A58   A(27,26,29)           117.8095         estimate D2E/DX2                !
 ! A59   A(22,27,26)           117.5295         estimate D2E/DX2                !
 ! A60   A(22,27,31)           121.2642         estimate D2E/DX2                !
 ! A61   A(26,27,31)           121.206          estimate D2E/DX2                !
 ! A62   A(25,30,59)           109.1234         estimate D2E/DX2                !
 ! A63   A(25,30,63)           109.5725         estimate D2E/DX2                !
 ! A64   A(25,30,67)           111.9825         estimate D2E/DX2                !
 ! A65   A(59,30,63)           109.0622         estimate D2E/DX2                !
 ! A66   A(59,30,67)           108.7329         estimate D2E/DX2                !
 ! A67   A(63,30,67)           108.3195         estimate D2E/DX2                !
 ! A68   A(27,31,71)           109.5618         estimate D2E/DX2                !
 ! A69   A(27,31,75)           110.2832         estimate D2E/DX2                !
 ! A70   A(27,31,79)           111.8708         estimate D2E/DX2                !
 ! A71   A(71,31,75)           109.9601         estimate D2E/DX2                !
 ! A72   A(71,31,79)           107.7835         estimate D2E/DX2                !
 ! A73   A(75,31,79)           107.3221         estimate D2E/DX2                !
 ! A74   A(22,32,33)           108.0214         estimate D2E/DX2                !
 ! A75   A(11,34,17)           107.7853         estimate D2E/DX2                !
 ! A76   A(11,34,36)           122.0167         estimate D2E/DX2                !
 ! A77   A(17,34,36)           130.1836         estimate D2E/DX2                !
 ! A78   A(12,35,17)           106.3695         estimate D2E/DX2                !
 ! A79   A(1,37,7)             107.4805         estimate D2E/DX2                !
 ! A80   A(1,37,38)            122.2638         estimate D2E/DX2                !
 ! A81   A(7,37,38)            130.2372         estimate D2E/DX2                !
 ! A82   A(6,39,40)            115.4394         estimate D2E/DX2                !
 ! A83   A(6,39,41)            121.964          estimate D2E/DX2                !
 ! A84   A(40,39,41)           122.5964         estimate D2E/DX2                !
 ! A85   A(39,41,42)           117.3023         estimate D2E/DX2                !
 ! A86   A(41,42,43)           112.2382         estimate D2E/DX2                !
 ! A87   A(41,42,44)           112.3114         estimate D2E/DX2                !
 ! A88   A(41,42,45)           106.2085         estimate D2E/DX2                !
 ! A89   A(43,42,44)           110.641          estimate D2E/DX2                !
 ! A90   A(43,42,45)           107.5805         estimate D2E/DX2                !
 ! A91   A(44,42,45)           107.5354         estimate D2E/DX2                !
 ! A92   A(42,43,46)           111.2272         estimate D2E/DX2                !
 ! A93   A(42,43,47)           108.7194         estimate D2E/DX2                !
 ! A94   A(42,43,48)           109.4439         estimate D2E/DX2                !
 ! A95   A(46,43,47)           109.477          estimate D2E/DX2                !
 ! A96   A(46,43,48)           110.7932         estimate D2E/DX2                !
 ! A97   A(47,43,48)           107.0678         estimate D2E/DX2                !
 ! A98   A(42,44,49)           111.2643         estimate D2E/DX2                !
 ! A99   A(42,44,50)           108.7984         estimate D2E/DX2                !
 ! A100  A(42,44,51)           109.4646         estimate D2E/DX2                !
 ! A101  A(49,44,50)           109.3668         estimate D2E/DX2                !
 ! A102  A(49,44,51)           110.754          estimate D2E/DX2                !
 ! A103  A(50,44,51)           107.0814         estimate D2E/DX2                !
 ! A104  A(43,46,52)           111.3842         estimate D2E/DX2                !
 ! A105  A(43,46,53)           109.7454         estimate D2E/DX2                !
 ! A106  A(43,46,54)           109.2014         estimate D2E/DX2                !
 ! A107  A(52,46,53)           110.5623         estimate D2E/DX2                !
 ! A108  A(52,46,54)           109.075          estimate D2E/DX2                !
 ! A109  A(53,46,54)           106.75           estimate D2E/DX2                !
 ! A110  A(44,49,52)           111.2637         estimate D2E/DX2                !
 ! A111  A(44,49,55)           109.8114         estimate D2E/DX2                !
 ! A112  A(44,49,56)           109.1906         estimate D2E/DX2                !
 ! A113  A(52,49,55)           110.5908         estimate D2E/DX2                !
 ! A114  A(52,49,56)           109.1318         estimate D2E/DX2                !
 ! A115  A(55,49,56)           106.7343         estimate D2E/DX2                !
 ! A116  A(46,52,49)           110.9552         estimate D2E/DX2                !
 ! A117  A(46,52,57)           110.3043         estimate D2E/DX2                !
 ! A118  A(46,52,58)           109.1004         estimate D2E/DX2                !
 ! A119  A(49,52,57)           110.3254         estimate D2E/DX2                !
 ! A120  A(49,52,58)           109.1574         estimate D2E/DX2                !
 ! A121  A(57,52,58)           106.8966         estimate D2E/DX2                !
 ! A122  A(30,59,60)           110.3363         estimate D2E/DX2                !
 ! A123  A(30,59,61)           111.0955         estimate D2E/DX2                !
 ! A124  A(30,59,62)           110.7835         estimate D2E/DX2                !
 ! A125  A(60,59,61)           108.0992         estimate D2E/DX2                !
 ! A126  A(60,59,62)           108.2831         estimate D2E/DX2                !
 ! A127  A(61,59,62)           108.1418         estimate D2E/DX2                !
 ! A128  A(30,63,64)           111.4271         estimate D2E/DX2                !
 ! A129  A(30,63,65)           110.1931         estimate D2E/DX2                !
 ! A130  A(30,63,66)           110.8787         estimate D2E/DX2                !
 ! A131  A(64,63,65)           107.8432         estimate D2E/DX2                !
 ! A132  A(64,63,66)           108.0879         estimate D2E/DX2                !
 ! A133  A(65,63,66)           108.2948         estimate D2E/DX2                !
 ! A134  A(30,67,68)           111.5917         estimate D2E/DX2                !
 ! A135  A(30,67,69)           111.287          estimate D2E/DX2                !
 ! A136  A(30,67,70)           109.5533         estimate D2E/DX2                !
 ! A137  A(68,67,69)           108.2389         estimate D2E/DX2                !
 ! A138  A(68,67,70)           107.9757         estimate D2E/DX2                !
 ! A139  A(69,67,70)           108.0709         estimate D2E/DX2                !
 ! A140  A(31,71,72)           111.2969         estimate D2E/DX2                !
 ! A141  A(31,71,73)           109.9015         estimate D2E/DX2                !
 ! A142  A(31,71,74)           110.4039         estimate D2E/DX2                !
 ! A143  A(72,71,73)           108.5677         estimate D2E/DX2                !
 ! A144  A(72,71,74)           108.5397         estimate D2E/DX2                !
 ! A145  A(73,71,74)           108.0471         estimate D2E/DX2                !
 ! A146  A(31,75,76)           109.5893         estimate D2E/DX2                !
 ! A147  A(31,75,77)           111.4984         estimate D2E/DX2                !
 ! A148  A(31,75,78)           110.3578         estimate D2E/DX2                !
 ! A149  A(76,75,77)           108.6694         estimate D2E/DX2                !
 ! A150  A(76,75,78)           108.0179         estimate D2E/DX2                !
 ! A151  A(77,75,78)           108.6235         estimate D2E/DX2                !
 ! A152  A(31,79,80)           111.728          estimate D2E/DX2                !
 ! A153  A(31,79,81)           112.0443         estimate D2E/DX2                !
 ! A154  A(31,79,82)           108.9623         estimate D2E/DX2                !
 ! A155  A(80,79,81)           108.21           estimate D2E/DX2                !
 ! A156  A(80,79,82)           107.9969         estimate D2E/DX2                !
 ! A157  A(81,79,82)           107.7433         estimate D2E/DX2                !
 ! D1    D(6,1,2,3)             -0.2936         estimate D2E/DX2                !
 ! D2    D(6,1,2,21)           179.3614         estimate D2E/DX2                !
 ! D3    D(37,1,2,3)          -179.6333         estimate D2E/DX2                !
 ! D4    D(37,1,2,21)            0.0217         estimate D2E/DX2                !
 ! D5    D(2,1,6,5)              0.1985         estimate D2E/DX2                !
 ! D6    D(2,1,6,39)           179.9655         estimate D2E/DX2                !
 ! D7    D(37,1,6,5)           179.3501         estimate D2E/DX2                !
 ! D8    D(37,1,6,39)           -0.8829         estimate D2E/DX2                !
 ! D9    D(2,1,37,7)             0.1759         estimate D2E/DX2                !
 ! D10   D(2,1,37,38)          178.7614         estimate D2E/DX2                !
 ! D11   D(6,1,37,7)          -179.0861         estimate D2E/DX2                !
 ! D12   D(6,1,37,38)           -0.5007         estimate D2E/DX2                !
 ! D13   D(1,2,3,4)              0.3729         estimate D2E/DX2                !
 ! D14   D(1,2,3,8)           -179.8634         estimate D2E/DX2                !
 ! D15   D(21,2,3,4)          -179.1979         estimate D2E/DX2                !
 ! D16   D(21,2,3,8)             0.5657         estimate D2E/DX2                !
 ! D17   D(1,2,21,7)            -0.2147         estimate D2E/DX2                !
 ! D18   D(3,2,21,7)           179.39           estimate D2E/DX2                !
 ! D19   D(2,3,4,5)             -0.3872         estimate D2E/DX2                !
 ! D20   D(2,3,4,9)            179.9439         estimate D2E/DX2                !
 ! D21   D(8,3,4,5)            179.8511         estimate D2E/DX2                !
 ! D22   D(8,3,4,9)              0.1822         estimate D2E/DX2                !
 ! D23   D(3,4,5,6)              0.3117         estimate D2E/DX2                !
 ! D24   D(3,4,5,10)          -179.8573         estimate D2E/DX2                !
 ! D25   D(9,4,5,6)            179.9824         estimate D2E/DX2                !
 ! D26   D(9,4,5,10)            -0.1867         estimate D2E/DX2                !
 ! D27   D(4,5,6,1)             -0.2031         estimate D2E/DX2                !
 ! D28   D(4,5,6,39)          -179.9704         estimate D2E/DX2                !
 ! D29   D(10,5,6,1)           179.9646         estimate D2E/DX2                !
 ! D30   D(10,5,6,39)            0.1973         estimate D2E/DX2                !
 ! D31   D(1,6,39,40)         -179.7739         estimate D2E/DX2                !
 ! D32   D(1,6,39,41)            0.3782         estimate D2E/DX2                !
 ! D33   D(5,6,39,40)           -0.0213         estimate D2E/DX2                !
 ! D34   D(5,6,39,41)         -179.8692         estimate D2E/DX2                !
 ! D35   D(21,7,16,11)           1.3693         estimate D2E/DX2                !
 ! D36   D(21,7,16,15)        -179.7696         estimate D2E/DX2                !
 ! D37   D(37,7,16,11)        -177.9569         estimate D2E/DX2                !
 ! D38   D(37,7,16,15)           0.9042         estimate D2E/DX2                !
 ! D39   D(16,7,21,2)         -179.0651         estimate D2E/DX2                !
 ! D40   D(37,7,21,2)            0.3346         estimate D2E/DX2                !
 ! D41   D(16,7,37,1)          179.0658         estimate D2E/DX2                !
 ! D42   D(16,7,37,38)           0.6328         estimate D2E/DX2                !
 ! D43   D(21,7,37,1)           -0.3302         estimate D2E/DX2                !
 ! D44   D(21,7,37,38)        -178.7632         estimate D2E/DX2                !
 ! D45   D(16,11,12,13)          0.9719         estimate D2E/DX2                !
 ! D46   D(16,11,12,35)       -179.2078         estimate D2E/DX2                !
 ! D47   D(34,11,12,13)       -179.4736         estimate D2E/DX2                !
 ! D48   D(34,11,12,35)          0.3468         estimate D2E/DX2                !
 ! D49   D(12,11,16,7)         177.9846         estimate D2E/DX2                !
 ! D50   D(12,11,16,15)         -0.9705         estimate D2E/DX2                !
 ! D51   D(34,11,16,7)          -1.4452         estimate D2E/DX2                !
 ! D52   D(34,11,16,15)        179.5997         estimate D2E/DX2                !
 ! D53   D(12,11,34,17)         -0.2985         estimate D2E/DX2                !
 ! D54   D(12,11,34,36)       -179.051          estimate D2E/DX2                !
 ! D55   D(16,11,34,17)        179.2043         estimate D2E/DX2                !
 ! D56   D(16,11,34,36)          0.4518         estimate D2E/DX2                !
 ! D57   D(11,12,13,14)         -0.1776         estimate D2E/DX2                !
 ! D58   D(11,12,13,18)        179.8448         estimate D2E/DX2                !
 ! D59   D(35,12,13,14)       -179.9514         estimate D2E/DX2                !
 ! D60   D(35,12,13,18)          0.0709         estimate D2E/DX2                !
 ! D61   D(11,12,35,17)         -0.2589         estimate D2E/DX2                !
 ! D62   D(13,12,35,17)        179.5339         estimate D2E/DX2                !
 ! D63   D(12,13,14,15)         -0.5493         estimate D2E/DX2                !
 ! D64   D(12,13,14,19)        179.6959         estimate D2E/DX2                !
 ! D65   D(18,13,14,15)        179.4282         estimate D2E/DX2                !
 ! D66   D(18,13,14,19)         -0.3266         estimate D2E/DX2                !
 ! D67   D(13,14,15,16)          0.534          estimate D2E/DX2                !
 ! D68   D(13,14,15,20)       -179.6786         estimate D2E/DX2                !
 ! D69   D(19,14,15,16)       -179.7098         estimate D2E/DX2                !
 ! D70   D(19,14,15,20)          0.0776         estimate D2E/DX2                !
 ! D71   D(14,15,16,7)        -178.6734         estimate D2E/DX2                !
 ! D72   D(14,15,16,11)          0.2242         estimate D2E/DX2                !
 ! D73   D(20,15,16,7)           1.5403         estimate D2E/DX2                !
 ! D74   D(20,15,16,11)       -179.5622         estimate D2E/DX2                !
 ! D75   D(34,17,23,22)        173.6531         estimate D2E/DX2                !
 ! D76   D(34,17,23,24)         -6.3567         estimate D2E/DX2                !
 ! D77   D(35,17,23,22)         -5.9269         estimate D2E/DX2                !
 ! D78   D(35,17,23,24)        174.0634         estimate D2E/DX2                !
 ! D79   D(23,17,34,11)       -179.4773         estimate D2E/DX2                !
 ! D80   D(23,17,34,36)         -0.8619         estimate D2E/DX2                !
 ! D81   D(35,17,34,11)          0.1495         estimate D2E/DX2                !
 ! D82   D(35,17,34,36)        178.7649         estimate D2E/DX2                !
 ! D83   D(23,17,35,12)        179.6997         estimate D2E/DX2                !
 ! D84   D(34,17,35,12)          0.0703         estimate D2E/DX2                !
 ! D85   D(27,22,23,17)       -179.3223         estimate D2E/DX2                !
 ! D86   D(27,22,23,24)          0.6874         estimate D2E/DX2                !
 ! D87   D(32,22,23,17)          0.3781         estimate D2E/DX2                !
 ! D88   D(32,22,23,24)       -179.6122         estimate D2E/DX2                !
 ! D89   D(23,22,27,26)         -0.8271         estimate D2E/DX2                !
 ! D90   D(23,22,27,31)        178.9715         estimate D2E/DX2                !
 ! D91   D(32,22,27,26)        179.4691         estimate D2E/DX2                !
 ! D92   D(32,22,27,31)         -0.7323         estimate D2E/DX2                !
 ! D93   D(23,22,32,33)          2.6313         estimate D2E/DX2                !
 ! D94   D(27,22,32,33)       -177.6672         estimate D2E/DX2                !
 ! D95   D(17,23,24,25)       -179.8175         estimate D2E/DX2                !
 ! D96   D(17,23,24,28)         -0.4767         estimate D2E/DX2                !
 ! D97   D(22,23,24,25)          0.1728         estimate D2E/DX2                !
 ! D98   D(22,23,24,28)        179.5136         estimate D2E/DX2                !
 ! D99   D(23,24,25,26)         -0.8328         estimate D2E/DX2                !
 ! D100  D(23,24,25,30)        179.6159         estimate D2E/DX2                !
 ! D101  D(28,24,25,26)        179.8302         estimate D2E/DX2                !
 ! D102  D(28,24,25,30)          0.2788         estimate D2E/DX2                !
 ! D103  D(24,25,26,27)          0.6842         estimate D2E/DX2                !
 ! D104  D(24,25,26,29)       -179.7258         estimate D2E/DX2                !
 ! D105  D(30,25,26,27)       -179.7772         estimate D2E/DX2                !
 ! D106  D(30,25,26,29)         -0.1871         estimate D2E/DX2                !
 ! D107  D(24,25,30,59)         63.5973         estimate D2E/DX2                !
 ! D108  D(24,25,30,63)        -55.7531         estimate D2E/DX2                !
 ! D109  D(24,25,30,67)       -175.9695         estimate D2E/DX2                !
 ! D110  D(26,25,30,59)       -115.9288         estimate D2E/DX2                !
 ! D111  D(26,25,30,63)        124.7208         estimate D2E/DX2                !
 ! D112  D(26,25,30,67)          4.5044         estimate D2E/DX2                !
 ! D113  D(25,26,27,22)          0.1423         estimate D2E/DX2                !
 ! D114  D(25,26,27,31)       -179.6564         estimate D2E/DX2                !
 ! D115  D(29,26,27,22)       -179.4493         estimate D2E/DX2                !
 ! D116  D(29,26,27,31)          0.752          estimate D2E/DX2                !
 ! D117  D(22,27,31,71)        -61.447          estimate D2E/DX2                !
 ! D118  D(22,27,31,75)         59.721          estimate D2E/DX2                !
 ! D119  D(22,27,31,79)        179.0875         estimate D2E/DX2                !
 ! D120  D(26,27,31,71)        118.3442         estimate D2E/DX2                !
 ! D121  D(26,27,31,75)       -120.4879         estimate D2E/DX2                !
 ! D122  D(26,27,31,79)         -1.1213         estimate D2E/DX2                !
 ! D123  D(25,30,59,60)       -178.1739         estimate D2E/DX2                !
 ! D124  D(25,30,59,61)        -58.2999         estimate D2E/DX2                !
 ! D125  D(25,30,59,62)         61.924          estimate D2E/DX2                !
 ! D126  D(63,30,59,60)        -58.5075         estimate D2E/DX2                !
 ! D127  D(63,30,59,61)         61.3665         estimate D2E/DX2                !
 ! D128  D(63,30,59,62)       -178.4096         estimate D2E/DX2                !
 ! D129  D(67,30,59,60)         59.4187         estimate D2E/DX2                !
 ! D130  D(67,30,59,61)        179.2927         estimate D2E/DX2                !
 ! D131  D(67,30,59,62)        -60.4833         estimate D2E/DX2                !
 ! D132  D(25,30,63,64)         59.9754         estimate D2E/DX2                !
 ! D133  D(25,30,63,65)        179.649          estimate D2E/DX2                !
 ! D134  D(25,30,63,66)        -60.4662         estimate D2E/DX2                !
 ! D135  D(59,30,63,64)        -59.4127         estimate D2E/DX2                !
 ! D136  D(59,30,63,65)         60.261          estimate D2E/DX2                !
 ! D137  D(59,30,63,66)       -179.8542         estimate D2E/DX2                !
 ! D138  D(67,30,63,64)       -177.5988         estimate D2E/DX2                !
 ! D139  D(67,30,63,65)        -57.9251         estimate D2E/DX2                !
 ! D140  D(67,30,63,66)         61.9597         estimate D2E/DX2                !
 ! D141  D(25,30,67,68)        -61.4149         estimate D2E/DX2                !
 ! D142  D(25,30,67,69)         59.6121         estimate D2E/DX2                !
 ! D143  D(25,30,67,70)        179.0619         estimate D2E/DX2                !
 ! D144  D(59,30,67,68)         59.2452         estimate D2E/DX2                !
 ! D145  D(59,30,67,69)       -179.7278         estimate D2E/DX2                !
 ! D146  D(59,30,67,70)        -60.278          estimate D2E/DX2                !
 ! D147  D(63,30,67,68)        177.6408         estimate D2E/DX2                !
 ! D148  D(63,30,67,69)        -61.3322         estimate D2E/DX2                !
 ! D149  D(63,30,67,70)         58.1176         estimate D2E/DX2                !
 ! D150  D(27,31,71,72)         59.1216         estimate D2E/DX2                !
 ! D151  D(27,31,71,73)        179.4261         estimate D2E/DX2                !
 ! D152  D(27,31,71,74)        -61.4832         estimate D2E/DX2                !
 ! D153  D(75,31,71,72)        -62.2413         estimate D2E/DX2                !
 ! D154  D(75,31,71,73)         58.0632         estimate D2E/DX2                !
 ! D155  D(75,31,71,74)        177.1539         estimate D2E/DX2                !
 ! D156  D(79,31,71,72)       -178.9308         estimate D2E/DX2                !
 ! D157  D(79,31,71,73)        -58.6264         estimate D2E/DX2                !
 ! D158  D(79,31,71,74)         60.4644         estimate D2E/DX2                !
 ! D159  D(27,31,75,76)        179.9312         estimate D2E/DX2                !
 ! D160  D(27,31,75,77)        -59.7142         estimate D2E/DX2                !
 ! D161  D(27,31,75,78)         61.0993         estimate D2E/DX2                !
 ! D162  D(71,31,75,76)        -59.1385         estimate D2E/DX2                !
 ! D163  D(71,31,75,77)         61.2161         estimate D2E/DX2                !
 ! D164  D(71,31,75,78)       -177.9704         estimate D2E/DX2                !
 ! D165  D(79,31,75,76)         57.8395         estimate D2E/DX2                !
 ! D166  D(79,31,75,77)        178.1941         estimate D2E/DX2                !
 ! D167  D(79,31,75,78)        -60.9924         estimate D2E/DX2                !
 ! D168  D(27,31,79,80)        -60.7832         estimate D2E/DX2                !
 ! D169  D(27,31,79,81)         60.8381         estimate D2E/DX2                !
 ! D170  D(27,31,79,82)        179.9677         estimate D2E/DX2                !
 ! D171  D(71,31,79,80)        178.7097         estimate D2E/DX2                !
 ! D172  D(71,31,79,81)        -59.669          estimate D2E/DX2                !
 ! D173  D(71,31,79,82)         59.4606         estimate D2E/DX2                !
 ! D174  D(75,31,79,80)         60.3137         estimate D2E/DX2                !
 ! D175  D(75,31,79,81)       -178.065          estimate D2E/DX2                !
 ! D176  D(75,31,79,82)        -58.9355         estimate D2E/DX2                !
 ! D177  D(6,39,41,42)         179.9075         estimate D2E/DX2                !
 ! D178  D(40,39,41,42)          0.0705         estimate D2E/DX2                !
 ! D179  D(39,41,42,43)        -62.433          estimate D2E/DX2                !
 ! D180  D(39,41,42,44)         62.9783         estimate D2E/DX2                !
 ! D181  D(39,41,42,45)       -179.7349         estimate D2E/DX2                !
 ! D182  D(41,42,43,46)       -178.1135         estimate D2E/DX2                !
 ! D183  D(41,42,43,47)         61.2695         estimate D2E/DX2                !
 ! D184  D(41,42,43,48)        -55.3627         estimate D2E/DX2                !
 ! D185  D(44,42,43,46)         55.566          estimate D2E/DX2                !
 ! D186  D(44,42,43,47)        -65.0509         estimate D2E/DX2                !
 ! D187  D(44,42,43,48)        178.3168         estimate D2E/DX2                !
 ! D188  D(45,42,43,46)        -61.6334         estimate D2E/DX2                !
 ! D189  D(45,42,43,47)        177.7497         estimate D2E/DX2                !
 ! D190  D(45,42,43,48)         61.1174         estimate D2E/DX2                !
 ! D191  D(41,42,44,49)        178.0344         estimate D2E/DX2                !
 ! D192  D(41,42,44,50)        -61.4108         estimate D2E/DX2                !
 ! D193  D(41,42,44,51)         55.294          estimate D2E/DX2                !
 ! D194  D(43,42,44,49)        -55.686          estimate D2E/DX2                !
 ! D195  D(43,42,44,50)         64.8688         estimate D2E/DX2                !
 ! D196  D(43,42,44,51)       -178.4265         estimate D2E/DX2                !
 ! D197  D(45,42,44,49)         61.5412         estimate D2E/DX2                !
 ! D198  D(45,42,44,50)       -177.904          estimate D2E/DX2                !
 ! D199  D(45,42,44,51)        -61.1993         estimate D2E/DX2                !
 ! D200  D(42,43,46,52)        -55.8152         estimate D2E/DX2                !
 ! D201  D(42,43,46,53)       -178.5881         estimate D2E/DX2                !
 ! D202  D(42,43,46,54)         64.7165         estimate D2E/DX2                !
 ! D203  D(47,43,46,52)         64.3545         estimate D2E/DX2                !
 ! D204  D(47,43,46,53)        -58.4184         estimate D2E/DX2                !
 ! D205  D(47,43,46,54)       -175.1138         estimate D2E/DX2                !
 ! D206  D(48,43,46,52)       -177.7859         estimate D2E/DX2                !
 ! D207  D(48,43,46,53)         59.4411         estimate D2E/DX2                !
 ! D208  D(48,43,46,54)        -57.2542         estimate D2E/DX2                !
 ! D209  D(42,44,49,52)         55.9711         estimate D2E/DX2                !
 ! D210  D(42,44,49,55)        178.7444         estimate D2E/DX2                !
 ! D211  D(42,44,49,56)        -64.5479         estimate D2E/DX2                !
 ! D212  D(50,44,49,52)        -64.2484         estimate D2E/DX2                !
 ! D213  D(50,44,49,55)         58.5249         estimate D2E/DX2                !
 ! D214  D(50,44,49,56)        175.2327         estimate D2E/DX2                !
 ! D215  D(51,44,49,52)        177.9667         estimate D2E/DX2                !
 ! D216  D(51,44,49,55)        -59.26           estimate D2E/DX2                !
 ! D217  D(51,44,49,56)         57.4477         estimate D2E/DX2                !
 ! D218  D(43,46,52,49)         55.5947         estimate D2E/DX2                !
 ! D219  D(43,46,52,57)        178.1622         estimate D2E/DX2                !
 ! D220  D(43,46,52,58)        -64.7032         estimate D2E/DX2                !
 ! D221  D(53,46,52,49)        177.8977         estimate D2E/DX2                !
 ! D222  D(53,46,52,57)        -59.5348         estimate D2E/DX2                !
 ! D223  D(53,46,52,58)         57.5998         estimate D2E/DX2                !
 ! D224  D(54,46,52,49)        -65.0113         estimate D2E/DX2                !
 ! D225  D(54,46,52,57)         57.5562         estimate D2E/DX2                !
 ! D226  D(54,46,52,58)        174.6908         estimate D2E/DX2                !
 ! D227  D(44,49,52,46)        -55.6252         estimate D2E/DX2                !
 ! D228  D(44,49,52,57)       -178.1804         estimate D2E/DX2                !
 ! D229  D(44,49,52,58)         64.639          estimate D2E/DX2                !
 ! D230  D(55,49,52,46)       -177.9492         estimate D2E/DX2                !
 ! D231  D(55,49,52,57)         59.4957         estimate D2E/DX2                !
 ! D232  D(55,49,52,58)        -57.685          estimate D2E/DX2                !
 ! D233  D(56,49,52,46)         64.9284         estimate D2E/DX2                !
 ! D234  D(56,49,52,57)        -57.6268         estimate D2E/DX2                !
 ! D235  D(56,49,52,58)       -174.8075         estimate D2E/DX2                !
 --------------------------------------------------------------------------------
 Trust Radius=3.00D-01 FncErr=5.00D-06 GrdErr=5.00D-06 EigMax=2.50D+02 EigMin=1.00D-04
 Number of steps in this run=    489 maximum allowed number of steps=    492.
 GradGradGradGradGradGradGradGradGradGradGradGradGradGradGradGradGradGrad

 Leave Link  103 at Fri Dec 21 14:10:38 2018, MaxMem=  1342177280 cpu:               0.3 elap:               0.0
 (Enter /gpfs/apps/hpc/Apps/Restricted/Gaussian/Rev_A.03/g16/l202.exe)
 Symmetry turned off by external request.
 Stoichiometry    C35H41N5O
 Framework group  C1[X(C35H41N5O)]
 Deg. of freedom   240
 Full point group                 C1      NOp   1
                          Input orientation:                          
 ---------------------------------------------------------------------
 Center     Atomic      Atomic             Coordinates (Angstroms)
 Number     Number       Type             X           Y           Z
 ---------------------------------------------------------------------
      1          6           0        1.579646    1.136284   -0.019745
      2          6           0        0.355893    1.840489   -0.092226
      3          6           0        0.362978    3.230381   -0.262889
      4          6           0        1.597756    3.869434   -0.363470
      5          6           0        2.804621    3.153702   -0.289169
      6          6           0        2.830903    1.763921   -0.117108
      7          6           0       -0.137715   -0.252300    0.152837
      8          1           0       -0.566227    3.784842   -0.318110
      9          1           0        1.632829    4.944331   -0.496917
     10          1           0        3.746349    3.685758   -0.369261
     11          6           0       -2.294973   -1.447086    0.243218
     12          6           0       -3.099072   -2.606364    0.320701
     13          6           0       -2.500455   -3.862028    0.462987
     14          6           0       -1.107351   -3.913422    0.519312
     15          6           0       -0.317965   -2.756965    0.426261
     16          6           0       -0.893110   -1.486640    0.282551
     17          6           0       -4.442588   -0.903056    0.118962
     18          1           0       -3.101625   -4.760623    0.526456
     19          1           0       -0.615908   -4.872186    0.634263
     20          1           0        0.760516   -2.852417    0.470382
     21          7           0       -0.698828    0.948693    0.021320
     22          6           0       -6.907407   -0.758504   -0.129589
     23          6           0       -5.652859   -0.106102   -0.004073
     24          6           0       -5.591059    1.295062    0.000445
     25          6           0       -6.737564    2.072803   -0.112340
     26          6           0       -7.960695    1.398395   -0.249255
     27          6           0       -8.087971    0.006995   -0.264163
     28          1           0       -4.626123    1.777567    0.105101
     29          1           0       -8.860185    1.987260   -0.342553
     30          6           0       -6.632765    3.602781   -0.094821
     31          6           0       -9.460204   -0.665236   -0.425656
     32          8           0       -6.985743   -2.108799   -0.127919
     33          1           0       -6.064722   -2.472012    0.014244
     34          7           0       -3.168783   -0.393205    0.121262
     35          7           0       -4.431224   -2.233015    0.236694
     36          1           0       -2.847068    0.564431    0.031955
     37          7           0        1.235487   -0.182725    0.137535
     38          1           0        1.928737   -0.918827    0.199437
     39          6           0        4.081740    1.017629   -0.038901
     40          1           0        4.994280    1.618192   -0.124222
     41          7           0        4.104334   -0.255385    0.116217
     42          6           0        5.424452   -0.904756    0.179755
     43          6           0        6.223189   -0.728433   -1.122776
     44          6           0        6.249245   -0.433770    1.389520
     45          1           0        5.232464   -1.976407    0.307943
     46          6           0        7.572009   -1.451524   -1.048620
     47          1           0        6.391038    0.342368   -1.290540
     48          1           0        5.631004   -1.096572   -1.965785
     49          6           0        7.597186   -1.159373    1.459603
     50          1           0        6.421442    0.645534    1.301154
     51          1           0        5.674858   -0.593491    2.306775
     52          6           0        8.390516   -0.984866    0.160142
     53          1           0        8.129706   -1.289658   -1.976028
     54          1           0        7.398311   -2.532068   -0.968534
     55          1           0        8.172723   -0.790951    2.314312
     56          1           0        7.422579   -2.228855    1.633580
     57          1           0        9.334991   -1.535121    0.214542
     58          1           0        8.645678    0.075026    0.033517
     59          6           0       -5.823565    4.067776   -1.322262
     60          1           0       -5.708832    5.155979   -1.312118
     61          1           0       -4.825860    3.621147   -1.327972
     62          1           0       -6.328601    3.784734   -2.249842
     63          6           0       -5.907264    4.056108    1.187732
     64          1           0       -4.898761    3.639775    1.244164
     65          1           0       -5.821367    5.146489    1.207647
     66          1           0       -6.455869    3.738729    2.078624
     67          6           0       -8.012688    4.273603   -0.131216
     68          1           0       -8.559145    4.020360   -1.043486
     69          1           0       -8.621763    3.975402    0.726470
     70          1           0       -7.892483    5.359255   -0.100500
     71          6           0       -9.472073   -1.512027   -1.715444
     72          1           0       -8.697785   -2.278585   -1.692806
     73          1           0      -10.443817   -2.001634   -1.830641
     74          1           0       -9.306983   -0.876791   -2.590095
     75          6           0       -9.764863   -1.560093    0.795199
     76          1           0      -10.744141   -2.031779    0.669086
     77          1           0       -9.015180   -2.340198    0.915013
     78          1           0       -9.793595   -0.960055    1.708980
     79          6           0      -10.594370    0.366618   -0.531112
     80          1           0      -10.658891    0.990042    0.364579
     81          1           0      -10.472351    1.023477   -1.396497
     82          1           0      -11.544965   -0.160808   -0.644661
 ---------------------------------------------------------------------
 Rotational constants (GHZ):           0.1788378           0.0304989           0.0266915
 Leave Link  202 at Fri Dec 21 14:10:38 2018, MaxMem=  1342177280 cpu:               0.3 elap:               0.0
 (Enter /gpfs/apps/hpc/Apps/Restricted/Gaussian/Rev_A.03/g16/l301.exe)
 Standard basis: 6-31G(d,p) (6D, 7F)
 Ernie: Thresh=  0.10000D-02 Tol=  0.10000D-05 Strict=F.
   820 basis functions,  1435 primitive gaussians,   820 cartesian basis functions
   147 alpha electrons      147 beta electrons
       nuclear repulsion energy      4410.9526301290 Hartrees.
 IExCor=  402 DFT=T Ex+Corr=B3LYP ExCW=0 ScaHFX=  0.200000
 ScaDFX=  0.800000  0.720000  1.000000  0.810000 ScalE2=  1.000000  1.000000
 IRadAn=      5 IRanWt=     -1 IRanGd=            0 ICorTp=0 IEmpDi=141
 NAtoms=   82 NActive=   82 NUniq=   82 SFac= 1.00D+00 NAtFMM=   60 NAOKFM=T Big=T
 Integral buffers will be    131072 words long.
 Raffenetti 2 integral format.
 Two-electron integral symmetry is turned off.
 R6Disp:  Grimme-D3(BJ) Dispersion energy=       -0.1856376239 Hartrees.
 Nuclear repulsion after empirical dispersion term =     4410.7669925050 Hartrees.
 Using the following non-standard input for PCM:
 radii=bondi
 dis
 rep
 cav
 --- end of non-standard input.
 ------------------------------------------------------------------------------
 Polarizable Continuum Model (PCM)
 =================================
 Model                : C-PCM.
 Atomic radii         : Bondi.
 Polarization charges : Total charges.
 Charge compensation  : None.
 Solution method      : On-the-fly selection.
 Cavity type          : Scaled VdW (van der Waals Surface) (Alpha=1.100).
 Cavity algorithm     : GePol (No added spheres)
                        Default sphere list used, NSphG=   82.
                        Lebedev-Laikov grids with approx.  5.0 points / Ang**2.
                        Smoothing algorithm: York/Karplus (Gamma=1.0000).
                        Polarization charges: spherical gaussians, with
                                              point-specific exponents (IZeta= 3).
                        Self-potential: point-specific (ISelfS= 7).
                        Self-field    : sphere-specific E.n sum rule (ISelfD= 2).
 1st derivatives      : Analytical E(r).r(x)/FMM algorithm (CHGder, D1EAlg=3).
                        Cavity 1st derivative terms included.
 Solvent              : Dichloromethane, Eps=   8.930000 Eps(inf)=   2.028346
 ------------------------------------------------------------------------------
 GePol: Number of generator spheres                  =      82
 GePol: Total number of spheres                      =      82
 GePol: Number of exposed spheres                    =      82 (100.00%)
 GePol: Number of points                             =    5268
 GePol: Average weight of points                     =       0.12
 GePol: Minimum weight of points                     =   0.51D-10
 GePol: Maximum weight of points                     =    0.21770
 GePol: Number of points with low weight             =     364
 GePol: Fraction of low-weight points (<1% of avg)   =       6.91%
 GePol: Cavity surface area                          =    622.791 Ang**2
 GePol: Cavity volume                                =    610.321 Ang**3
 PCM non-electrostatic energy =         0.0284706482 Hartrees.
 Nuclear repulsion after PCM non-electrostatic terms =     4410.7954631532 Hartrees.
 Leave Link  301 at Fri Dec 21 14:10:38 2018, MaxMem=  1342177280 cpu:               5.7 elap:               0.4
 (Enter /gpfs/apps/hpc/Apps/Restricted/Gaussian/Rev_A.03/g16/l302.exe)
 NPDir=0 NMtPBC=     1 NCelOv=     1 NCel=       1 NClECP=     1 NCelD=      1
         NCelK=      1 NCelE2=     1 NClLst=     1 CellRange=     0.0.
 One-electron integrals computed using PRISM.
 NBasis=   820 RedAO= T EigKep=  2.73D-04  NBF=   820
 NBsUse=   820 1.00D-06 EigRej= -1.00D+00 NBFU=   820
 Precomputing XC quadrature grid using
 IXCGrd= 4 IRadAn=           5 IRanWt=          -1 IRanGd=           0 AccXCQ= 0.00D+00.
 Generated NRdTot=       0 NPtTot=           0 NUsed=           0 NTot=          32
 NSgBfM=   746   746   746   746   746 MxSgAt=    82 MxSgA2=    82.
 Leave Link  302 at Fri Dec 21 14:10:41 2018, MaxMem=  1342177280 cpu:              39.2 elap:               2.5
 (Enter /gpfs/apps/hpc/Apps/Restricted/Gaussian/Rev_A.03/g16/l303.exe)
 DipDrv:  MaxL=1.
 Leave Link  303 at Fri Dec 21 14:10:41 2018, MaxMem=  1342177280 cpu:               1.9 elap:               0.2
 (Enter /gpfs/apps/hpc/Apps/Restricted/Gaussian/Rev_A.03/g16/l401.exe)
 ExpMin= 1.61D-01 ExpMax= 5.48D+03 ExpMxC= 8.25D+02 IAcc=3 IRadAn=         5 AccDes= 0.00D+00
 Harris functional with IExCor=  402 and IRadAn=       5 diagonalized for initial guess.
 HarFok:  IExCor=  402 AccDes= 0.00D+00 IRadAn=         5 IDoV= 1 UseB2=F ITyADJ=14
 ICtDFT=  3500011 ScaDFX=  1.000000  1.000000  1.000000  1.000000
 FoFCou: FMM=F IPFlag=           0 FMFlag=      100000 FMFlg1=        2001
         NFxFlg=           0 DoJE=T BraDBF=F KetDBF=T FulRan=T
         wScrn=  0.000000 ICntrl=       500 IOpCl=  0 I1Cent=   200000004 NGrid=           0
         NMat0=    1 NMatS0=      1 NMatT0=    0 NMatD0=    1 NMtDS0=    0 NMtDT0=    0
 Symmetry not used in FoFCou.
 Harris En= -1707.73757138045    
 JPrj=0 DoOrth=F DoCkMO=F.
 Leave Link  401 at Fri Dec 21 14:10:48 2018, MaxMem=  1342177280 cpu:             109.3 elap:               6.9
 (Enter /gpfs/apps/hpc/Apps/Restricted/Gaussian/Rev_A.03/g16/l502.exe)
 Two-electron integral symmetry not used.
 Closed shell SCF:
 Using DIIS extrapolation, IDIIS=  1040.
 NGot=  1342177280 LenX=  1340812546 LenY=  1340139326
 Requested convergence on RMS density matrix=1.00D-08 within 128 cycles.
 Requested convergence on MAX density matrix=1.00D-06.
 Requested convergence on             energy=1.00D-06.
 No special actions if energy rises.
 Fock matrices will be formed incrementally for  20 cycles.

 Cycle   1  Pass 1  IDiag  1:
 FoFJK:  IHMeth= 1 ICntrl=       0 DoSepK=F KAlg= 0 I1Cent=           0 FoldK=F
 IRaf= 630000000 NMat=       1 IRICut=       1 DoRegI=T DoRafI=F ISym2E= 0 IDoP0=0 IntGTp=1.
 FoFCou: FMM=T IPFlag=           0 FMFlag=      100000 FMFlg1=        2001
         NFxFlg=           0 DoJE=F BraDBF=F KetDBF=F FulRan=T
         wScrn=  0.000000 ICntrl=         0 IOpCl=  0 I1Cent=           0 NGrid=           0
         NMat0=    1 NMatS0=      1 NMatT0=    0 NMatD0=    1 NMtDS0=    0 NMtDT0=    0
 Symmetry not used in FoFCou.
 FMM levels:  10  Number of levels for PrismC:   9
 Inv3:  Mode=1 IEnd=    83255472.
 Iteration    1 A*A^-1 deviation from unit magnitude is 1.15D-14 for   1791.
 Iteration    1 A*A^-1 deviation from orthogonality  is 2.86D-15 for   2594    503.
 Iteration    1 A^-1*A deviation from unit magnitude is 1.15D-14 for   1791.
 Iteration    1 A^-1*A deviation from orthogonality  is 3.85D-15 for   2687   1623.
 E= -1706.72548507087    
 DIIS: error= 2.92D-02 at cycle   1 NSaved=   1.
 NSaved= 1 IEnMin= 1 EnMin= -1706.72548507087     IErMin= 1 ErrMin= 2.92D-02
 ErrMax= 2.92D-02  0.00D+00 EMaxC= 1.00D-01 BMatC= 9.58D-01 BMatP= 9.58D-01
 IDIUse=3 WtCom= 7.08D-01 WtEn= 2.92D-01
 Coeff-Com:  0.100D+01
 Coeff-En:   0.100D+01
 Coeff:      0.100D+01
 Gap=     0.159 Goal=   None    Shift=    0.000
 GapD=    0.159 DampG=1.000 DampE=0.500 DampFc=0.5000 IDamp=-1.
 Damping current iteration by 5.00D-01
 RMSDP=2.89D-03 MaxDP=1.58D-01              OVMax= 2.00D-01

 Cycle   2  Pass 1  IDiag  1:
 RMSU=  1.40D-03    CP:  9.68D-01
 E= -1707.17970290468     Delta-E=       -0.454217833806 Rises=F Damp=T
 DIIS: error= 9.30D-03 at cycle   2 NSaved=   2.
 NSaved= 2 IEnMin= 2 EnMin= -1707.17970290468     IErMin= 2 ErrMin= 9.30D-03
 ErrMax= 9.30D-03  0.00D+00 EMaxC= 1.00D-01 BMatC= 6.30D-02 BMatP= 9.58D-01
 IDIUse=3 WtCom= 9.07D-01 WtEn= 9.30D-02
 Coeff-Com:  0.486D-01 0.951D+00
 Coeff-En:   0.877D-01 0.912D+00
 Coeff:      0.523D-01 0.948D+00
 Gap=     0.158 Goal=   None    Shift=    0.000
 RMSDP=7.93D-04 MaxDP=5.22D-02 DE=-4.54D-01 OVMax= 1.62D-01

 Cycle   3  Pass 1  IDiag  1:
 RMSU=  7.74D-04    CP:  9.53D-01  9.68D-01
 E= -1707.69443508803     Delta-E=       -0.514732183356 Rises=F Damp=F
 DIIS: error= 4.07D-03 at cycle   3 NSaved=   3.
 NSaved= 3 IEnMin= 3 EnMin= -1707.69443508803     IErMin= 3 ErrMin= 4.07D-03
 ErrMax= 4.07D-03  0.00D+00 EMaxC= 1.00D-01 BMatC= 3.96D-02 BMatP= 6.30D-02
 IDIUse=3 WtCom= 9.59D-01 WtEn= 4.07D-02
 Coeff-Com: -0.237D-01 0.436D+00 0.588D+00
 Coeff-En:   0.000D+00 0.000D+00 0.100D+01
 Coeff:     -0.228D-01 0.418D+00 0.605D+00
 Gap=     0.143 Goal=   None    Shift=    0.000
 RMSDP=3.90D-04 MaxDP=3.20D-02 DE=-5.15D-01 OVMax= 6.54D-02

 Cycle   4  Pass 1  IDiag  1:
 RMSU=  2.84D-04    CP:  9.54D-01  1.04D+00  6.80D-01
 E= -1707.72544784248     Delta-E=       -0.031012754444 Rises=F Damp=F
 DIIS: error= 2.70D-03 at cycle   4 NSaved=   4.
 NSaved= 4 IEnMin= 4 EnMin= -1707.72544784248     IErMin= 4 ErrMin= 2.70D-03
 ErrMax= 2.70D-03  0.00D+00 EMaxC= 1.00D-01 BMatC= 1.04D-02 BMatP= 3.96D-02
 IDIUse=3 WtCom= 9.73D-01 WtEn= 2.70D-02
 Coeff-Com: -0.162D-01 0.103D+00 0.358D+00 0.555D+00
 Coeff-En:   0.000D+00 0.000D+00 0.218D+00 0.782D+00
 Coeff:     -0.157D-01 0.100D+00 0.355D+00 0.561D+00
 Gap=     0.140 Goal=   None    Shift=    0.000
 RMSDP=1.55D-04 MaxDP=1.26D-02 DE=-3.10D-02 OVMax= 2.45D-02

 Cycle   5  Pass 1  IDiag  1:
 RMSU=  8.12D-05    CP:  9.54D-01  1.02D+00  7.58D-01  5.99D-01
 E= -1707.73531903468     Delta-E=       -0.009871192201 Rises=F Damp=F
 DIIS: error= 6.04D-04 at cycle   5 NSaved=   5.
 NSaved= 5 IEnMin= 5 EnMin= -1707.73531903468     IErMin= 5 ErrMin= 6.04D-04
 ErrMax= 6.04D-04  0.00D+00 EMaxC= 1.00D-01 BMatC= 7.58D-04 BMatP= 1.04D-02
 IDIUse=3 WtCom= 9.94D-01 WtEn= 6.04D-03
 Coeff-Com: -0.651D-02 0.206D-01 0.147D+00 0.307D+00 0.532D+00
 Coeff-En:   0.000D+00 0.000D+00 0.000D+00 0.000D+00 0.100D+01
 Coeff:     -0.647D-02 0.205D-01 0.146D+00 0.305D+00 0.534D+00
 Gap=     0.140 Goal=   None    Shift=    0.000
 RMSDP=4.60D-05 MaxDP=5.00D-03 DE=-9.87D-03 OVMax= 5.69D-03

 Cycle   6  Pass 1  IDiag  1:
 RMSU=  2.31D-05    CP:  9.54D-01  1.02D+00  7.66D-01  6.33D-01  5.36D-01
 E= -1707.73599176515     Delta-E=       -0.000672730471 Rises=F Damp=F
 DIIS: error= 1.71D-04 at cycle   6 NSaved=   6.
 NSaved= 6 IEnMin= 6 EnMin= -1707.73599176515     IErMin= 6 ErrMin= 1.71D-04
 ErrMax= 1.71D-04  0.00D+00 EMaxC= 1.00D-01 BMatC= 5.90D-05 BMatP= 7.58D-04
 IDIUse=3 WtCom= 9.98D-01 WtEn= 1.71D-03
 Coeff-Com: -0.244D-02 0.436D-02 0.553D-01 0.128D+00 0.296D+00 0.518D+00
 Coeff-En:   0.000D+00 0.000D+00 0.000D+00 0.000D+00 0.000D+00 0.100D+01
 Coeff:     -0.243D-02 0.436D-02 0.552D-01 0.128D+00 0.296D+00 0.519D+00
 Gap=     0.140 Goal=   None    Shift=    0.000
 RMSDP=1.20D-05 MaxDP=1.17D-03 DE=-6.73D-04 OVMax= 1.88D-03

 Cycle   7  Pass 1  IDiag  1:
 RMSU=  7.06D-06    CP:  9.54D-01  1.02D+00  7.66D-01  6.36D-01  5.99D-01
                    CP:  6.47D-01
 E= -1707.73604242361     Delta-E=       -0.000050658462 Rises=F Damp=F
 DIIS: error= 5.08D-05 at cycle   7 NSaved=   7.
 NSaved= 7 IEnMin= 7 EnMin= -1707.73604242361     IErMin= 7 ErrMin= 5.08D-05
 ErrMax= 5.08D-05  0.00D+00 EMaxC= 1.00D-01 BMatC= 5.52D-06 BMatP= 5.90D-05
 IDIUse=1 WtCom= 1.00D+00 WtEn= 0.00D+00
 Coeff-Com: -0.773D-03 0.568D-03 0.172D-01 0.430D-01 0.117D+00 0.293D+00
 Coeff-Com:  0.529D+00
 Coeff:     -0.773D-03 0.568D-03 0.172D-01 0.430D-01 0.117D+00 0.293D+00
 Coeff:      0.529D+00
 Gap=     0.140 Goal=   None    Shift=    0.000
 RMSDP=3.46D-06 MaxDP=3.94D-04 DE=-5.07D-05 OVMax= 5.91D-04

 Cycle   8  Pass 1  IDiag  1:
 RMSU=  1.77D-06    CP:  9.54D-01  1.02D+00  7.66D-01  6.37D-01  5.98D-01
                    CP:  6.84D-01  6.04D-01
 E= -1707.73604751161     Delta-E=       -0.000005088000 Rises=F Damp=F
 DIIS: error= 1.43D-05 at cycle   8 NSaved=   8.
 NSaved= 8 IEnMin= 8 EnMin= -1707.73604751161     IErMin= 8 ErrMin= 1.43D-05
 ErrMax= 1.43D-05  0.00D+00 EMaxC= 1.00D-01 BMatC= 2.58D-07 BMatP= 5.52D-06
 IDIUse=1 WtCom= 1.00D+00 WtEn= 0.00D+00
 Coeff-Com: -0.182D-03-0.311D-04 0.383D-02 0.101D-01 0.320D-01 0.948D-01
 Coeff-Com:  0.243D+00 0.616D+00
 Coeff:     -0.182D-03-0.311D-04 0.383D-02 0.101D-01 0.320D-01 0.948D-01
 Coeff:      0.243D+00 0.616D+00
 Gap=     0.140 Goal=   None    Shift=    0.000
 RMSDP=8.85D-07 MaxDP=1.12D-04 DE=-5.09D-06 OVMax= 1.70D-04

 Cycle   9  Pass 1  IDiag  1:
 RMSU=  6.65D-07    CP:  9.54D-01  1.02D+00  7.66D-01  6.37D-01  5.99D-01
                    CP:  6.85D-01  6.46D-01  7.29D-01
 E= -1707.73604771791     Delta-E=       -0.000000206298 Rises=F Damp=F
 DIIS: error= 7.94D-06 at cycle   9 NSaved=   9.
 NSaved= 9 IEnMin= 9 EnMin= -1707.73604771791     IErMin= 9 ErrMin= 7.94D-06
 ErrMax= 7.94D-06  0.00D+00 EMaxC= 1.00D-01 BMatC= 5.68D-08 BMatP= 2.58D-07
 IDIUse=1 WtCom= 1.00D+00 WtEn= 0.00D+00
 Coeff-Com:  0.477D-05-0.112D-03-0.254D-03-0.407D-03 0.176D-02 0.128D-01
 Coeff-Com:  0.648D-01 0.357D+00 0.564D+00
 Coeff:      0.477D-05-0.112D-03-0.254D-03-0.407D-03 0.176D-02 0.128D-01
 Coeff:      0.648D-01 0.357D+00 0.564D+00
 Gap=     0.140 Goal=   None    Shift=    0.000
 RMSDP=3.55D-07 MaxDP=5.78D-05 DE=-2.06D-07 OVMax= 6.38D-05

 Cycle  10  Pass 1  IDiag  1:
 RMSU=  2.22D-07    CP:  9.54D-01  1.02D+00  7.66D-01  6.37D-01  5.99D-01
                    CP:  6.87D-01  6.49D-01  8.05D-01  6.59D-01
 E= -1707.73604776861     Delta-E=       -0.000000050703 Rises=F Damp=F
 DIIS: error= 2.56D-06 at cycle  10 NSaved=  10.
 NSaved=10 IEnMin=10 EnMin= -1707.73604776861     IErMin=10 ErrMin= 2.56D-06
 ErrMax= 2.56D-06  0.00D+00 EMaxC= 1.00D-01 BMatC= 5.94D-09 BMatP= 5.68D-08
 IDIUse=1 WtCom= 1.00D+00 WtEn= 0.00D+00
 Coeff-Com:  0.178D-04-0.651D-04-0.465D-03-0.109D-02-0.155D-02-0.352D-04
 Coeff-Com:  0.185D-01 0.161D+00 0.328D+00 0.496D+00
 Coeff:      0.178D-04-0.651D-04-0.465D-03-0.109D-02-0.155D-02-0.352D-04
 Coeff:      0.185D-01 0.161D+00 0.328D+00 0.496D+00
 Gap=     0.140 Goal=   None    Shift=    0.000
 RMSDP=1.22D-07 MaxDP=1.60D-05 DE=-5.07D-08 OVMax= 1.85D-05

 Cycle  11  Pass 1  IDiag  1:
 RMSU=  7.71D-08    CP:  9.54D-01  1.02D+00  7.66D-01  6.37D-01  5.99D-01
                    CP:  6.88D-01  6.51D-01  8.19D-01  7.20D-01  6.49D-01
 E= -1707.73604777406     Delta-E=       -0.000000005452 Rises=F Damp=F
 DIIS: error= 5.91D-07 at cycle  11 NSaved=  11.
[...]
 00010,-0.00000125,0.00000015,-0.00000478,-0.00000149,0.00000015,-0.000
 00013,-0.00000023,-0.00000005,-0.00000001,0.00000016,-0.00000002,0.000
 00021,0.00000011,-0.00000001,0.00001078,-0.00000011,0.00000107,0.00000
 383,-0.00000961,0.00000160,-0.00000605,0.00000892,-0.00000116,0.000011
 77,0.00000415,0.00000030,0.00000310,-0.00001166,0.00000079,-0.00000883
 ,0.00000237,0.00000079,-0.00001218,0.00002899,-0.00003628,-0.00000041,
 -0.00000071,-0.00000014,0.00000078,-0.00000060,0.00000003,0.00000073,-
 0.00000022,-0.00000021,0.00000239,0.00000095,0.00000015,-0.00006483,0.
 00034297,0.00021682,0.00009986,0.00005158,0.00000420,0.00010568,-0.000
 13609,0.00004055,-0.00016705,-0.00004534,0.00002893,-0.00108398,-0.000
 61053,-0.00079534,0.00126465,-0.00007208,-0.00010343,0.00000842,-0.000
 00359,0.00000349,-0.00113727,-0.00080343,-0.00081091,0.00000548,-0.000
 00059,-0.00004718,0.00374438,0.01362375,-0.01982693,0.00000820,-0.0001
 8886,0.00002987,-0.00000343,-0.00001692,-0.00000513,0.00001110,-0.0000
 0833,0.00000553,-0.00000080,-0.00000654,0.00000359,-0.00000552,-0.0000
 0229,-0.00000069,0.00000295,0.00000019,0.00000011,-0.00000101,0.000000
 26,-0.00000011,-0.00000169,0.00000101,-0.00000014,0.00000030,0.0000000
 9,-0.00000004,0.00000092,-0.00000113,0.00000023,-0.00000047,0.00000071
 ,-0.00000010,0.00000013,-0.00000019,0.00000025,0.00000012,-0.00000025,
 -0.00000023,0.00000010,-0.00000013,0.00000002,-0.00000006,0.00000012,-
 0.00000012,-0.00000002,0.,0.,-0.00000002,0.00000002,0.00000003,-0.0000
 0003,0.00000016,0.00000012,-0.00000002,0.,0.,-0.00000002,0.00000001,-0
 .00000001,-0.00000004,-0.00000007,0.,0.00000013,-0.00000003,-0.0000000
 7,0.,-0.00000003,0.00000003,0.00000012,-0.00000002,0.00000005,0.,-0.00
 000004,-0.00000002,0.00000013,-0.00000004,0.,-0.00000002,0.00000003,0.
 ,-0.00000127,0.00001137,0.00000520,0.00000394,0.00000493,-0.00000319,0
 .00000155,-0.00000109,-0.00000014,0.00000014,-0.00000223,0.00000145,-0
 .00000203,-0.00000775,-0.00000430,0.00000129,0.00000039,0.00000140,-0.
 00000025,0.00000219,0.00000021,-0.00000020,-0.00000081,0.00000196,-0.0
 0000015,0.00002913,-0.00000535,-0.00001748,0.00009263,0.00009429,0.000
 00134,-0.00000408,-0.00000145,0.00000780,0.00000885,0.00000753,0.00076
 080,-0.00082933,-0.00084679,-0.00010824,-0.00026993,-0.00013608,-0.000
 00406,0.00005149,0.00013956,-0.00043415,0.00028402,0.00006051,-0.00366
 638,0.00297021,0.00011972,0.00030667,0.00018105,0.00010150,0.00053844,
 0.00116371,-0.00115948,-0.00013613,-0.00016199,0.00013389,-0.05038792,
 -0.01876146,0.02758357,-0.00122274,-0.00105247,0.00057442,0.05421641,0
 .00000165,0.00000018,0.00000007,-0.00000040,0.00000012,0.00000010,-0.0
 0000019,-0.00000154,0.,0.00000176,0.00000017,-0.00000021,-0.00000029,0
 .00000168,-0.00000031,-0.00000064,-0.00000093,0.00000012,-0.00000291,-
 0.00000405,0.00000043,-0.00000019,0.00000003,0.00000023,0.00000011,0.0
 0000025,0.00000010,0.00000013,0.00000009,0.00000007,0.00000665,0.00000
 911,-0.00000521,-0.00000799,0.00001158,0.00000241,0.00000080,0.0000008
 4,-0.00000045,0.00000149,-0.00000056,-0.00000036,0.00000198,-0.0000010
 3,-0.00000005,0.00000064,0.00000102,-0.00000118,-0.00000527,0.00000339
 ,0.00002630,-0.00000061,0.00000008,0.00000047,0.00000043,-0.00000029,0
 .00000021,0.00000067,-0.00000010,0.00000064,0.00000136,0.00000243,-0.0
 0000108,0.00027461,-0.00005021,-0.00010258,-0.00008520,-0.00011486,0.0
 0001922,-0.00004067,0.00010713,0.00002450,0.00004024,0.00021392,0.0000
 0839,-0.00061816,-0.00031834,-0.00067839,-0.00104637,0.00008676,-0.000
 23127,-0.00000854,0.00001168,0.00000946,-0.00097127,-0.00006949,-0.000
 32520,0.00001592,0.00000328,-0.00002133,-0.00464815,-0.01301620,0.0164
 9371,0.00015982,0.00003060,-0.00009456,-0.00008688,0.00004986,-0.00002
 054,0.00002306,-0.00000137,0.00000052,0.00004648,-0.00000872,0.0000005
 0,-0.00000274,-0.00000208,0.00000313,0.00000179,0.00000123,-0.00000033
 ,-0.00000076,-0.00000003,0.00000037,-0.00000059,0.00000007,0.00000003,
 0.00000020,0.00000008,0.00000006,0.00000052,-0.00000007,-0.00000029,-0
 .00000024,0.00000007,0.00000014,0.00000005,-0.00000006,0.00000017,0.,-
 0.00000013,0.00000002,0.00000004,0.00000006,0.,-0.00000002,-0.00000003
 ,-0.00000002,0.00000002,0.00000008,0.,-0.00000006,-0.00000006,-0.00000
 007,-0.00000005,0.,0.00000003,0.,0.00000006,0.,0.00000004,0.,-0.000000
 11,-0.00000003,-0.00000006,0.00000005,0.00000010,0.,-0.00000009,0.,0.0
 0000004,0.00000002,0.00000001,-0.00000002,-0.00000001,0.,0.00000006,0.
 ,0.00000004,-0.00000002,-0.00000001,0.00000002,0.00000007,-0.00000002,
 0.00000582,0.00000847,0.00000639,0.00000071,0.00000275,-0.00000377,-0.
 00000188,-0.00000077,0.00000101,-0.00000188,-0.00000007,-0.00000252,0.
 00000318,0.00000134,-0.00000202,-0.00000303,-0.00000002,-0.00000044,-0
 .00000123,0.00000257,0.00000144,0.00000047,-0.00000050,0.00000033,0.00
 000667,0.00000634,-0.00001456,0.00008777,0.00008829,-0.00002592,-0.000
 00670,-0.00000286,-0.00000210,0.00000293,0.00000182,0.00000489,-0.0006
 7200,0.00078177,0.00131509,0.00008142,0.00028398,-0.00016198,-0.000001
 05,-0.00005553,-0.00003987,0.00050243,-0.00028828,-0.00049082,0.004689
 23,-0.00316452,-0.00068370,0.00006915,0.00031976,-0.00036078,-0.000249
 95,-0.00074440,0.00163610,-0.00006218,0.00025795,0.00016506,-0.0180809
 4,-0.13979402,0.12449295,0.00222389,0.01206933,-0.01479022,0.01951862,
 0.15243306,0.00000178,0.00000122,-0.00000026,0.00000033,0.00000033,-0.
 00000018,-0.00000090,-0.00000104,0.00000033,0.00000236,-0.00000004,0.0
 0000012,-0.00000056,0.00000235,-0.00000018,0.00000018,-0.00000152,0.00
 000019,-0.00000657,-0.00000252,0.,-0.00000009,-0.00000019,-0.00000019,
 -0.00000012,0.,-0.00000010,0.00000019,0.00000013,-0.00000008,0.0000212
 9,-0.00000909,0.00000283,0.00001156,-0.00002191,0.00000162,-0.00001336
 ,0.00001772,-0.00000241,0.00002482,0.00000962,0.00000030,0.00000577,-0
 .00002585,0.00000238,-0.00001993,0.00000714,-0.00000005,-0.00008940,0.
 00004924,-0.00001149,-0.00000060,-0.00000158,-0.00000017,0.00000148,-0
 .00000106,0.00000010,0.00000106,-0.00000021,-0.00000020,0.00000253,0.0
 0000093,0.00000070,-0.00024664,0.00002677,-0.00007695,0.00008834,0.000
 01043,0.00002435,0.00010631,0.00007124,-0.00006829,0.00022097,-0.00042
 071,0.00006178,-0.00011279,0.00109298,-0.00007697,0.00038214,0.0003220
 1,0.00011580,0.00005918,-0.00002867,0.00000314,-0.00012119,-0.00084209
 ,-0.00038702,-0.00002086,-0.00004453,0.00003729,0.00021310,0.00026543,
 -0.00263839,-0.00005668,-0.00015849,0.00005280,0.00002423,-0.00002106,
 0.00000831,0.00000825,0.00000519,0.00000080,-0.00000836,-0.00003100,0.
 00000205,-0.00001028,-0.00000253,-0.00000246,0.00000350,-0.00000070,0.
 00000030,-0.00000120,0.00000039,-0.00000026,-0.00000215,0.00000185,-0.
 00000024,0.00000035,0.00000006,-0.00000007,0.00000093,-0.00000206,0.00
 000044,-0.00000038,0.00000109,-0.00000022,0.00000020,-0.00000022,0.000
 00028,0.00000022,-0.00000024,-0.00000035,0.00000012,-0.00000032,0.0000
 0002,-0.00000005,0.00000025,-0.00000020,-0.00000006,-0.00000011,0.,0.0
 0000001,0.00000007,0.00000007,-0.00000003,0.00000026,0.00000014,-0.000
 00006,-0.00000009,0.00000001,-0.00000006,0.00000003,0.00000005,-0.0000
 0001,0.,-0.00000002,0.00000011,-0.00000004,0.,0.00000001,-0.00000013,0
 .00000003,0.00000017,-0.00000002,0.00000008,0.,-0.00000014,-0.00000002
 ,0.00000013,-0.00000003,0.,-0.00000005,-0.00000006,0.00000001,-0.00000
 685,0.00000742,0.00001444,0.00000574,0.00000888,-0.00000757,0.00000667
 ,-0.00000257,-0.00000058,0.00000060,0.00000243,0.00000293,0.00000648,0
 .00001428,-0.00002769,0.00000831,-0.00000152,0.00000486,0.00000592,0.0
 0000924,0.00001050,-0.00000271,-0.00000106,0.00000381,-0.00000487,-0.0
 0001293,-0.00004392,0.00003994,-0.00012615,0.00021608,-0.00000218,-0.0
 0000500,-0.00001161,0.00001044,0.00002058,0.00000955,0.00028810,-0.000
 86380,0.00066864,-0.00019208,-0.00001428,0.00020895,-0.00005149,-0.000
 00090,0.00001294,-0.00027775,0.00035423,0.00034144,-0.00165329,0.00071
 455,0.00091477,0.00019230,-0.00013509,0.00002923,0.00034062,0.00039967
 ,-0.00009140,0.00005453,-0.00015030,0.00034314,0.02551302,0.12486781,-
 0.21505851,0.00341430,0.01611860,-0.01945337,-0.02802508,-0.13832847,0
 .23136679,-0.00001122,-0.00000345,0.00000061,0.00000158,-0.00000050,0.
 00000012,0.00000252,0.00000911,-0.00000121,-0.00001289,-0.00000065,0.0
 0000026,0.00000248,-0.00001269,0.00000153,0.00000228,0.00000759,-0.000
 00097,0.00002995,0.00002160,-0.00000175,0.00000093,0.00000057,-0.00000
 007,-0.00000028,-0.00000102,0.00000008,-0.00000097,-0.00000066,0.00000
 007,-0.00008770,-0.00002577,-0.00000076,0.00000099,0.00003413,-0.00000
 072,0.00003331,-0.00005344,0.00000628,-0.00007356,-0.00002345,0.,-0.00
 002409,0.00007353,-0.00000728,0.00005223,-0.00001697,0.00000250,0.0001
 8208,-0.00029798,0.00002493,0.00000334,0.00000452,-0.00000021,-0.00000
 563,0.00000394,-0.00000079,-0.00000541,0.00000169,-0.00000041,-0.00001
 280,-0.00001317,0.00000109,-0.00087166,-0.00174265,-0.00012831,-0.0004
 0858,0.00058502,-0.00005014,-0.00004044,-0.00020372,0.00000673,-0.0001
 4419,-0.00000532,-0.00002681,0.00029456,0.00072732,-0.00002040,-0.0019
 9206,0.00435186,-0.00019921,-0.00003786,-0.00001353,-0.00000473,0.0000
 4769,0.00022539,0.00004660,-0.00004914,0.00008648,-0.00000563,-0.02269
 696,-0.01179479,-0.00249253,0.00001318,0.00044710,-0.00001002,0.000166
 12,-0.00006135,0.00002689,-0.00013858,0.00004373,-0.00001095,-0.000091
 47,0.00011095,-0.00002087,0.00003689,0.00001995,-0.00000004,-0.0000161
 6,-0.00000321,0.00000007,0.00000609,-0.00000091,-0.00000003,0.00000773
 ,-0.00000480,0.00000053,-0.00000165,-0.00000044,0.00000008,-0.00000450
 ,0.00000527,-0.00000057,0.00000196,-0.00000314,0.00000031,-0.00000059,
 0.00000088,-0.00000120,-0.00000056,0.00000114,0.00000097,-0.00000043,0
 .00000060,-0.00000007,0.00000022,-0.00000055,0.00000061,0.00000009,-0.
 00000002,0.00000002,0.00000012,-0.00000005,-0.00000008,0.00000022,-0.0
 0000068,-0.00000048,0.00000010,-0.00000003,-0.00000002,0.00000009,-0.0
 0000004,0.00000012,0.00000018,0.00000029,-0.00000004,-0.00000059,0.000
 00014,0.00000026,-0.00000001,0.00000016,-0.00000013,-0.00000057,0.0000
 0009,-0.00000025,0.,0.00000018,0.00000008,-0.00000053,0.00000016,-0.00
 000001,0.00000006,-0.00000013,0.00000002,0.00001040,-0.00004550,-0.000
 03937,-0.00001217,-0.00002652,0.00002323,0.00000635,0.00000673,-0.0000
 0488,0.00000335,0.00000384,0.00000368,0.00000680,-0.00004832,0.0000393
 5,0.00000521,0.00000770,0.00000342,-0.00001008,-0.00002624,-0.00002360
 ,0.00000290,0.00000407,-0.00000331,-0.00002549,-0.00004005,0.00000387,
 -0.00000105,0.00000886,-0.00001582,-0.00000077,0.00000525,0.00001127,0
 .00000230,-0.00002613,-0.00000275,0.00046045,-0.00141378,-0.00060640,0
 .00041709,0.00016167,-0.00016911,0.00012042,0.00046400,0.00032071,0.00
 000384,0.00008062,0.00006498,0.00039631,-0.00156289,0.00060462,-0.0001
 1301,0.00075421,-0.00002694,0.00037721,0.00017503,0.00029175,0.0000338
 7,0.00008771,-0.00005184,-0.24636957,-0.11441954,-0.02353688,0.0025218
 3,0.00157550,-0.00014861,-0.00264688,-0.00116387,-0.00013993,0.2706548
 1,-0.00000004,0.00000049,-0.00000005,0.00000086,0.00000019,-0.00000002
 ,0.00000068,0.00000009,-0.00000002,-0.00000091,0.00000029,-0.00000002,
 0.00000027,-0.00000083,0.00000010,-0.00000067,0.00000066,-0.00000007,0
 .00000193,-0.00000198,0.00000024,0.00000005,0.00000031,-0.00000003,0.0
 0000013,-0.00000003,0.,-0.00000018,-0.00000006,0.,0.00000946,0.0000122
 4,-0.00000172,-0.00000513,0.00000630,0.00000073,0.00000372,-0.00000235
 ,0.00000045,-0.00000402,-0.00000310,0.00000003,0.00000081,0.00000524,-
 0.00000036,0.00000453,-0.00000468,-0.00000031,0.00008223,0.00007294,0.
 00000641,0.00000024,-0.00000045,0.00000013,0.00000004,0.00000014,-0.00
 000004,0.00000005,-0.00000044,0.00000021,-0.00000093,0.00000177,-0.000
 00018,0.00092347,0.00081152,0.00009538,0.00014892,-0.00029547,0.000024
 90,-0.00012314,-0.00007169,-0.00001365,-0.00012684,0.00042747,-0.00001
 252,-0.00011822,-0.00124019,-0.00001530,0.00283921,-0.00332258,0.00028
 303,-0.00004548,0.00003620,-0.00000311,-0.00059862,0.00065936,-0.00005
 607,0.00002498,0.00003232,0.00000120,0.01951925,0.00852497,0.00236743,
 -0.00003821,0.00008377,-0.00000164,-0.00002866,0.00001865,-0.00000615,
 0.00002952,-0.00002980,0.00000436,0.00001091,0.00000189,-0.00000056,0.
 00000268,-0.00000287,0.00000030,-0.00000174,0.00000046,-0.00000007,0.0
 0000063,-0.00000023,0.00000003,0.00000162,-0.00000089,0.00000009,-0.00
 000025,-0.00000011,0.00000002,-0.00000084,0.00000104,-0.00000012,0.000
 00048,-0.00000066,0.00000007,-0.00000010,0.00000018,-0.00000023,-0.000
 00009,0.00000023,0.00000019,-0.00000008,0.00000012,-0.00000001,0.00000
 008,-0.00000013,0.00000011,0.00000003,0.,0.00000001,0.00000002,-0.0000
 0002,-0.00000004,0.00000007,-0.00000016,-0.00000009,0.00000003,0.,-0.0
 0000001,0.00000001,-0.00000002,0.00000004,0.00000006,0.00000008,0.,-0.
 00000014,0.00000003,0.00000008,0.,0.00000005,-0.00000003,-0.00000014,0
 .00000001,-0.00000008,0.,0.00000005,0.00000002,-0.00000017,0.00000006,
 0.,0.00000002,-0.00000005,0.,0.00000189,-0.00000095,-0.00000864,-0.000
 00379,-0.00000486,0.00000385,-0.00000594,0.00000090,0.00000238,0.00000
 125,0.00000102,-0.00000060,-0.00000025,-0.00000240,0.00000908,-0.00000
 598,0.00000100,-0.00000288,-0.00000319,-0.00000468,-0.00000462,0.00000
 116,0.00000085,-0.00000006,0.00001245,0.00001245,0.00000624,0.00000121
 ,0.00001596,-0.00001814,-0.00000105,0.00001179,0.00001614,-0.00001133,
 -0.00001428,-0.00000266,0.00061987,0.00071729,0.00029546,-0.00006691,0
 .00021911,0.00027280,-0.00029276,0.00007156,0.00015298,-0.00004916,-0.
 00004451,-0.00008635,0.00081628,0.00090807,-0.00022045,-0.00003667,-0.
 00025217,-0.00003431,0.00000929,0.00024280,-0.00026601,-0.00006991,-0.
 00005025,0.00007026,-0.11627230,-0.11105614,-0.01407354,-0.01474370,-0
 .00866167,-0.00034857,-0.01537223,-0.00915226,-0.00314406,0.12295940,0
 .12132104,-0.00000114,-0.00000034,0.00000009,0.00000017,-0.00000006,0.
 00000009,0.00000026,0.00000094,-0.00000015,-0.00000133,-0.00000008,0.,
 0.00000025,-0.00000131,0.00000013,0.00000022,0.00000079,-0.00000010,0.
 00000306,0.00000223,0.00000009,0.00000009,0.00000006,0.,-0.00000003,-0
 .00000010,0.00000003,-0.00000010,-0.00000007,0.00000003,-0.00000917,-0
 .00000099,0.00000497,-0.00000043,0.00000376,-0.00000083,0.00000379,-0.
 00000586,0.00000050,-0.00000805,-0.00000267,0.00000016,-0.00000245,0.0
 0000812,-0.00000123,0.00000585,-0.00000191,0.00000316,0.00002443,-0.00
 002853,-0.00005368,0.00000033,0.00000047,0.00000013,-0.00000059,0.0000
 0041,0.00000001,-0.00000052,0.00000007,-0.00000076,-0.00000127,-0.0000
 0136,-0.00000005,-0.00011731,-0.00016318,0.00034879,-0.00003706,0.0000
 5207,-0.00004611,-0.00000261,-0.00001649,-0.00002566,-0.00001746,-0.00
 000645,0.00010986,-0.00001098,0.00007639,0.00043340,-0.00020367,0.0004
 2476,0.00035274,-0.00000037,-0.00000146,-0.00002111,0.00004083,0.00001
 623,-0.00037720,-0.00000788,0.00000685,0.00003136,-0.00186594,-0.00104
 335,-0.00190548,0.00000011,0.00004550,-0.00000106,0.00001731,-0.000005
 88,-0.00000088,-0.00001158,0.00000181,-0.00000112,-0.00000929,0.000011
 52,0.00000004,0.00000329,0.00000177,-0.00000228,-0.00000163,-0.0000003
 3,-0.00000007,0.00000063,-0.00000009,0.00000008,0.00000081,-0.00000050
 ,0.00000005,-0.00000017,-0.00000004,0.00000002,-0.00000048,0.00000055,
 -0.00000011,0.00000022,-0.00000034,0.00000007,-0.00000005,0.00000010,-
 0.00000010,-0.00000007,0.00000011,0.00000013,-0.00000005,0.00000007,0.
 ,0.00000002,-0.00000006,0.00000007,0.00000001,0.,0.,0.,-0.00000002,-0.
 00000003,0.00000002,-0.00000007,-0.00000004,0.,0.,0.,0.00000003,0.,-0.
 00000001,0.00000002,0.00000003,0.00000001,-0.00000004,0.00000002,0.,0.
 ,0.00000001,0.,-0.00000008,0.,-0.00000005,0.,0.00000003,0.00000001,-0.
 00000006,0.00000002,0.,0.,-0.00000001,0.,-0.00000254,-0.00000957,-0.00
 000763,-0.00000204,-0.00000284,0.00000389,0.00000039,0.00000048,0.0000
 0033,0.00000039,0.00000036,0.00000166,0.00000353,0.00000069,0.00000054
 ,0.00000065,0.00000081,0.00000098,0.00000004,-0.00000216,-0.00000061,0
 .00000023,0.00000027,0.00000101,-0.00000233,-0.00000402,-0.00001707,-0
 .00000189,-0.00000669,0.00000182,0.00000065,0.00000789,0.00000787,-0.0
 0000017,-0.00000284,0.00000524,0.00097172,-0.00006638,0.00002671,-0.00
 002369,0.00010617,-0.00009957,-0.00005857,-0.00008480,0.00031134,0.000
 01974,0.00003324,-0.00002069,-0.00102915,-0.00028019,0.00002253,0.0004
 2879,0.00034546,-0.00035309,0.00012639,-0.00006035,-0.00005291,-0.0000
 3557,-0.00001311,-0.00002524,-0.02357348,-0.01381005,-0.04895608,-0.02
 352774,-0.01241028,-0.00170971,0.02264620,0.01217611,0.00349700,0.0262
 6852,0.01470864,0.04851380\\0.00000096,-0.00000420,0.00000377,0.000001
 04,-0.00000101,0.00000783,0.00000301,-0.00000180,0.00001566,0.00000352
 ,-0.00000169,0.00001892,0.00000243,-0.00000379,0.00001473,0.00000157,-
 0.00000409,0.00000671,-0.00000004,-0.00000341,-0.00000365,0.00000338,0
 .00000019,0.00001912,0.00000452,-0.00000105,0.00002500,0.00000352,-0.0
 0000375,0.00001731,-0.00000219,-0.00000074,-0.00000982,-0.00000276,-0.
 00000148,-0.00001631,-0.00000340,-0.00000177,-0.00002329,-0.00000455,-
 0.00000397,-0.00002412,-0.00000283,-0.00000454,-0.00001771,-0.00000213
 ,-0.00000267,-0.00001056,-0.00000090,0.00000101,-0.00000621,-0.0000051
 9,-0.00000223,-0.00002831,-0.00000501,-0.00000518,-0.00002957,-0.00000
 292,-0.00000564,-0.00001858,0.00000034,-0.00000133,0.00000308,-0.00000
 065,0.00000605,-0.00000463,-0.00000053,0.00000358,-0.00000161,0.000001
 04,0.00000363,0.00000653,0.00000240,0.00000542,0.00001116,0.00000061,0
 .00000671,0.00000771,-0.00000106,0.00000739,-0.00000040,0.00000131,0.0
 0000179,0.00000883,0.00000159,0.00000870,0.00001114,0.00000304,0.00000
 505,0.00001981,-0.00000067,0.00001004,-0.00000344,-0.00000294,0.000005
 05,-0.00001241,-0.00000251,0.00000378,-0.00001458,-0.00000061,-0.00000
 012,-0.00000372,-0.00000260,0.00000166,-0.00001367,0.00000026,0.000000
 54,0.00000161,-0.00000018,-0.00000373,-0.00000385,-0.00000125,-0.00000
 534,-0.00000802,0.00000081,-0.00000549,0.00000209,0.00000113,-0.000006
 54,0.00000543,-0.00000018,-0.00000776,-0.00000474,-0.00000152,-0.00000
 820,-0.00000904,-0.00000166,-0.00000268,-0.00000850,-0.00000033,-0.000
 01574,-0.00000652,-0.00000230,-0.00000933,-0.00001486,-0.00000170,-0.0
 0000351,-0.00001246,-0.00000028,-0.00000116,-0.00000212,-0.00000181,0.
 00000337,-0.00000974,-0.00000104,-0.00001780,-0.00001096,0.00000060,-0
 .00001642,-0.00000037,-0.00000028,-0.00002084,-0.00000717,-0.00000099,
 -0.00001194,-0.00001032,-0.00000225,0.00000068,-0.00001163,-0.00000315
 ,-0.00000424,-0.00001858,-0.00000052,-0.00002348,-0.00000899,-0.000002
 10,-0.00001900,-0.00001680,-0.00000210,-0.00001257,-0.00001348,-0.0000
 0025,-0.00001104,-0.00000431,0.00000359,0.00001047,0.00002193,0.000004
 53,0.00001135,0.00002819,0.00000272,0.00001023,0.00001926,0.00000297,0
 .00001685,0.00002073,0.00000355,-0.00000245,0.00002138,0.00000414,-0.0
 0000441,0.00001956,0.00000526,-0.00000335,0.00002815,0.00000394,-0.000
 00755,0.00002068,0.00000394,0.00000636,0.00002372,0.00000347,0.0000123
 0,0.00002268,0.00000398,0.00000245,0.00002214,0.00000505,0.00000640,0.
 00002992,-0.00000202,0.00001669,-0.00000813,-0.00000321,0.00001616,-0.
 00001285,-0.00000287,0.00001856,-0.00001090,-0.00000194,0.00002179,-0.
 00000489,-0.00000163,0.00000320,-0.00000813,-0.00000216,0.00000480,-0.
 00001089,-0.00000254,0.00000180,-0.00001311,-0.00000080,-0.00000216,-0
 .00000549,0.00000017,0.00001178,0.00000283,0.00000075,0.00000631,0.000
 00578,0.00000021,0.00001609,0.00000628,-0.00000076,0.00001303,-0.00000
 025\\\@


 Ideas are like rabbits. You get a couple and learn
 how to handle them, and pretty soon you have a dozen.
                                    -- John Steinbeck
 Job cpu time:       0 days 16 hours 59 minutes 35.2 seconds.
 Elapsed time:       0 days  1 hours  3 minutes 55.3 seconds.
 File lengths (MBytes):  RWF=   5488 Int=      0 D2E=      0 Chk=     88 Scr=      8
 Normal termination of Gaussian 16 at Fri Dec 21 15:19:29 2018.
