 Entering Gaussian System, Link 0=g16
 Initial command:
 /gpfs/apps/hpc/Apps/Restricted/Gaussian/Rev_A.03/g16/l1.exe "/gpfs/scratch60/fas/hammes_schiffer/jg2487/c43n01/Gau-7174.inp" -scrdir="/gpfs/scratch60/fas/hammes_schiffer/jg2487/c43n01/"
 Entering Link 1 = /gpfs/apps/hpc/Apps/Restricted/Gaussian/Rev_A.03/g16/l1.exe PID=      7175.
  
 Copyright (c) 1988,1990,1992,1993,1995,1998,2003,2009,2016,
            Gaussian, Inc.  All Rights Reserved.
  
 This is part of the Gaussian(R) 16 program.  It is based on
 the Gaussian(R) 09 system (copyright 2009, Gaussian, Inc.),
 the Gaussian(R) 03 system (copyright 2003, Gaussian, Inc.),
 the Gaussian(R) 98 system (copyright 1998, Gaussian, Inc.),
 the Gaussian(R) 94 system (copyright 1995, Gaussian, Inc.),
 the Gaussian 92(TM) system (copyright 1992, Gaussian, Inc.),
 the Gaussian 90(TM) system (copyright 1990, Gaussian, Inc.),
 the Gaussian 88(TM) system (copyright 1988, Gaussian, Inc.),
 the Gaussian 86(TM) system (copyright 1986, Carnegie Mellon
 University), and the Gaussian 82(TM) system (copyright 1983,
 Carnegie Mellon University). Gaussian is a federally registered
 trademark of Gaussian, Inc.
  
 This software contains proprietary and confidential information,
 including trade secrets, belonging to Gaussian, Inc.
  
 This software is provided under written license and may be
 used, copied, transmitted, or stored only in accord with that
 written license.
  
 The following legend is applicable only to US Government
 contracts under FAR:
  
                    RESTRICTED RIGHTS LEGEND
  
 Use, reproduction and disclosure by the US Government is
 subject to restrictions as set forth in subparagraphs (a)
 and (c) of the Commercial Computer Software - Restricted
 Rights clause in FAR 52.227-19.
  
 Gaussian, Inc.
 340 Quinnipiac St., Bldg. 40, Wallingford CT 06492
  
  
 ---------------------------------------------------------------
 Warning -- This program may not be used in any manner that
 competes with the business of Gaussian, Inc. or will provide
 assistance to any competitor of Gaussian, Inc.  The licensee
 of this program is prohibited from giving any competitor of
 Gaussian, Inc. access to this program.  By using this program,
 the user acknowledges that Gaussian, Inc. is engaged in the
 business of creating and licensing software in the field of
 computational chemistry and represents and warrants to the
 licensee that it is not a competitor of Gaussian, Inc. and that
 it will not use this program in any manner prohibited above.
 ---------------------------------------------------------------
  

 Cite this work as:
 Gaussian 16, Revision A.03,
 M. J. Frisch, G. W. Trucks, H. B. Schlegel, G. E. Scuseria, 
 M. A. Robb, J. R. Cheeseman, G. Scalmani, V. Barone, 
 G. A. Petersson, H. Nakatsuji, X. Li, M. Caricato, A. V. Marenich, 
 J. Bloino, B. G. Janesko, R. Gomperts, B. Mennucci, H. P. Hratchian, 
 J. V. Ortiz, A. F. Izmaylov, J. L. Sonnenberg, D. Williams-Young, 
 F. Ding, F. Lipparini, F. Egidi, J. Goings, B. Peng, A. Petrone, 
 T. Henderson, D. Ranasinghe, V. G. Zakrzewski, J. Gao, N. Rega, 
 G. Zheng, W. Liang, M. Hada, M. Ehara, K. Toyota, R. Fukuda, 
 J. Hasegawa, M. Ishida, T. Nakajima, Y. Honda, O. Kitao, H. Nakai, 
 T. Vreven, K. Throssell, J. A. Montgomery, Jr., J. E. Peralta, 
 F. Ogliaro, M. J. Bearpark, J. J. Heyd, E. N. Brothers, K. N. Kudin, 
 V. N. Staroverov, T. A. Keith, R. Kobayashi, J. Normand, 
 K. Raghavachari, A. P. Rendell, J. C. Burant, S. S. Iyengar, 
 J. Tomasi, M. Cossi, J. M. Millam, M. Klene, C. Adamo, R. Cammi, 
 J. W. Ochterski, R. L. Martin, K. Morokuma, O. Farkas, 
 J. B. Foresman, and D. J. Fox, Gaussian, Inc., Wallingford CT, 2016.
 
 ******************************************
 Gaussian 16:  ES64L-G16RevA.03 25-Dec-2016
                12-Dec-2018 
 ******************************************
 %chk=cyclohexyl-diBIP-neutral.chk
 %mem=10GB
 %nprocshared=16
 Will use up to   16 processors via shared memory.
 ----------------------------------------------------------------------
 #p opt=tight freq=internalmodes b3lyp/6-31g(d,p) scrf=(cpcm,solvent=di
 chloromethane,read) nosymm empiricaldispersion=gd3bj int=grid=ultrafin
 e guess=tcheck
 ----------------------------------------------------------------------
 1/7=10,18=20,19=15,26=6,38=1,40=2/1,3;
 2/9=110,12=2,15=1,17=6,18=5,40=1/2;
 3/5=1,6=6,7=101,11=2,25=1,30=1,70=2103,71=1,72=9,74=-5,75=-5,116=-2,124=41/1,2,3;
 4/5=101/1;
 5/5=2,38=6,53=9/2;
 6/7=2,8=2,9=2,10=2,28=1/1;
 7/30=1/1,2,3,16;
 1/7=10,18=20,19=15,26=6/3(2);
 2/9=110,15=1/2;
 99//99;
 2/9=110,15=1/2;
 3/5=1,6=6,7=101,11=2,25=1,30=1,70=2105,71=1,72=9,74=-5,75=-5,124=41/1,2,3;
 4/5=5,16=3,69=1/1;
 5/5=2,38=5,53=9/2;
 7/30=1/1,2,3,16;
 1/7=10,18=20,19=15,26=6/3(-5);
 2/9=110,15=1/2;
 6/7=2,8=2,9=2,10=2,19=2,28=1/1;
 99/9=1/99;
 Leave Link    1 at Wed Dec 12 13:40:10 2018, MaxMem=  1342177280 cpu:               7.7 elap:               0.5
 (Enter /gpfs/apps/hpc/Apps/Restricted/Gaussian/Rev_A.03/g16/l101.exe)
 ------------------------------------------
 cyclohexylimine diBIP neutral optimization
 ------------------------------------------
 Symbolic Z-matrix:
 Charge =  0 Multiplicity = 1
 C                     1.59067   1.13871   0.16293 
 C                     0.37304   1.85685   0.14755 
 C                     0.39195   3.25423   0.05531 
 C                     1.63114   3.8866   -0.03037 
 C                     2.83148   3.15699  -0.02124 
 C                     2.84634   1.75944   0.07737 
 C                    -0.1378   -0.24166   0.28699 
 H                    -0.53115   3.82092   0.04623 
 H                     1.6739    4.96663  -0.10627 
 H                     3.7768    3.68425  -0.09212 
 C                    -2.30339  -1.4268    0.30473 
 C                    -3.11507  -2.58317   0.34572 
 C                    -2.52488  -3.84458   0.47078 
 C                    -1.13329  -3.90495   0.54664 
 C                    -0.33631  -2.7512    0.49333 
 C                    -0.90248  -1.47473   0.36783 
 C                    -4.44575  -0.87148   0.15129 
 H                    -3.1317   -4.74093   0.5058 
 H                    -0.64922  -4.86902   0.6473 
 H                     0.74077  -2.85324   0.55622 
 N                    -0.68897   0.96951   0.22591 
 C                    -6.89946  -0.72477  -0.13351 
 C                    -5.65026  -0.07221   0.00648 
 C                    -5.60107   1.33207  -0.00836 
 C                    -6.75045   2.09816  -0.16896 
 C                    -7.97247   1.4236   -0.319 
 C                    -8.07202   0.03408  -0.30216 
 H                    -4.6452    1.8309    0.11275 
 H                    -8.88214   2.00371  -0.44419 
 C                    -6.6824    3.60537  -0.18789 
 H                    -6.14182   3.98928   0.6821 
 H                    -6.15792   3.96872  -1.07742 
 H                    -7.68275   4.04251  -0.18744 
 C                    -9.39283  -0.66903  -0.4495 
 H                    -9.36552  -1.39922  -1.2632 
 H                    -9.65071  -1.22213   0.45965 
 H                    -10.1894   0.04854  -0.65104 
 O                    -7.01921  -2.07101  -0.11363 
 H                    -6.10752  -2.45242   0.02625 
 N                    -3.17065  -0.3669    0.18646 
 N                    -4.44424  -2.20328   0.24626 
 H                    -2.84785   0.59248   0.12775 
 N                     1.23589  -0.18367   0.25546 
 H                     1.92242  -0.9284    0.26656 
 C                     4.09066   0.99861   0.08464 
 H                     5.00689   1.59296  -0.00532 
 N                     4.10627  -0.28011   0.18439 
 C                     5.42468  -0.93761   0.16025 
 C                     6.14088  -0.72536  -1.18399 
 C                     6.32364  -0.49868   1.3286 
 H                     5.23532  -2.01124   0.2735 
 C                     7.49544  -1.44076  -1.21787 
 H                     6.29235   0.35124  -1.32847 
 H                     5.49734  -1.07188  -1.99857 
 C                     7.67682  -1.21752   1.29188 
 H                     6.48607   0.58324   1.26145 
 H                     5.80883  -0.68955   2.27526 
 C                     8.38707  -1.00601  -0.04973 
 H                     7.99265  -1.24448  -2.17325 
 H                     7.33355  -2.52442  -1.16067 
 H                     8.30344  -0.86634   2.11793 
 H                     7.51897  -2.29219   1.44905 
 H                     9.33285  -1.55642  -0.06943 
 H                     8.63398   0.05728  -0.16285 
 
 ITRead=  0  0  0  0  0  0  0  0  0  0  0  0  0  0  0  0  0  0  0  0
 ITRead=  0  0  0  0  0  0  0  0  0  0  0  0  0  0  0  0  0  0  0  0
 ITRead=  0  0  0  0  0  0  0  0  0  0  0  0  0  0  0  0  0  0  0  0
 ITRead=  0  0  0  0
 MicOpt= -1 -1 -1 -1 -1 -1 -1 -1 -1 -1 -1 -1 -1 -1 -1 -1 -1 -1 -1 -1
 MicOpt= -1 -1 -1 -1 -1 -1 -1 -1 -1 -1 -1 -1 -1 -1 -1 -1 -1 -1 -1 -1
 MicOpt= -1 -1 -1 -1 -1 -1 -1 -1 -1 -1 -1 -1 -1 -1 -1 -1 -1 -1 -1 -1
 MicOpt= -1 -1 -1 -1
 NAtoms=     64 NQM=       64 NQMF=       0 NMMI=      0 NMMIF=      0
                NMic=       0 NMicF=      0.
                    Isotopes and Nuclear Properties:
 (Nuclear quadrupole moments (NQMom) in fm**2, nuclear magnetic moments (NMagM)
  in nuclear magnetons)

  Atom         1           2           3           4           5           6           7           8           9          10
 IAtWgt=          12          12          12          12          12          12          12           1           1           1
 AtmWgt=  12.0000000  12.0000000  12.0000000  12.0000000  12.0000000  12.0000000  12.0000000   1.0078250   1.0078250   1.0078250
 NucSpn=           0           0           0           0           0           0           0           1           1           1
 AtZEff=  -0.0000000  -0.0000000  -0.0000000  -0.0000000  -0.0000000  -0.0000000  -0.0000000  -0.0000000  -0.0000000  -0.0000000
 NQMom=    0.0000000   0.0000000   0.0000000   0.0000000   0.0000000   0.0000000   0.0000000   0.0000000   0.0000000   0.0000000
 NMagM=    0.0000000   0.0000000   0.0000000   0.0000000   0.0000000   0.0000000   0.0000000   2.7928460   2.7928460   2.7928460
 AtZNuc=   6.0000000   6.0000000   6.0000000   6.0000000   6.0000000   6.0000000   6.0000000   1.0000000   1.0000000   1.0000000

  Atom        11          12          13          14          15          16          17          18          19          20
 IAtWgt=          12          12          12          12          12          12          12           1           1           1
 AtmWgt=  12.0000000  12.0000000  12.0000000  12.0000000  12.0000000  12.0000000  12.0000000   1.0078250   1.0078250   1.0078250
 NucSpn=           0           0           0           0           0           0           0           1           1           1
 AtZEff=  -0.0000000  -0.0000000  -0.0000000  -0.0000000  -0.0000000  -0.0000000  -0.0000000  -0.0000000  -0.0000000  -0.0000000
 NQMom=    0.0000000   0.0000000   0.0000000   0.0000000   0.0000000   0.0000000   0.0000000   0.0000000   0.0000000   0.0000000
 NMagM=    0.0000000   0.0000000   0.0000000   0.0000000   0.0000000   0.0000000   0.0000000   2.7928460   2.7928460   2.7928460
 AtZNuc=   6.0000000   6.0000000   6.0000000   6.0000000   6.0000000   6.0000000   6.0000000   1.0000000   1.0000000   1.0000000

  Atom        21          22          23          24          25          26          27          28          29          30
 IAtWgt=          14          12          12          12          12          12          12           1           1          12
 AtmWgt=  14.0030740  12.0000000  12.0000000  12.0000000  12.0000000  12.0000000  12.0000000   1.0078250   1.0078250  12.0000000
 NucSpn=           2           0           0           0           0           0           0           1           1           0
 AtZEff=  -0.0000000  -0.0000000  -0.0000000  -0.0000000  -0.0000000  -0.0000000  -0.0000000  -0.0000000  -0.0000000  -0.0000000
 NQMom=    2.0440000   0.0000000   0.0000000   0.0000000   0.0000000   0.0000000   0.0000000   0.0000000   0.0000000   0.0000000
 NMagM=    0.4037610   0.0000000   0.0000000   0.0000000   0.0000000   0.0000000   0.0000000   2.7928460   2.7928460   0.0000000
 AtZNuc=   7.0000000   6.0000000   6.0000000   6.0000000   6.0000000   6.0000000   6.0000000   1.0000000   1.0000000   6.0000000

  Atom        31          32          33          34          35          36          37          38          39          40
 IAtWgt=           1           1           1          12           1           1           1          16           1          14
 AtmWgt=   1.0078250   1.0078250   1.0078250  12.0000000   1.0078250   1.0078250   1.0078250  15.9949146   1.0078250  14.0030740
 NucSpn=           1           1           1           0           1           1           1           0           1           2
 AtZEff=  -0.0000000  -0.0000000  -0.0000000  -0.0000000  -0.0000000  -0.0000000  -0.0000000  -0.0000000  -0.0000000  -0.0000000
 NQMom=    0.0000000   0.0000000   0.0000000   0.0000000   0.0000000   0.0000000   0.0000000   0.0000000   0.0000000   2.0440000
 NMagM=    2.7928460   2.7928460   2.7928460   0.0000000   2.7928460   2.7928460   2.7928460   0.0000000   2.7928460   0.4037610
 AtZNuc=   1.0000000   1.0000000   1.0000000   6.0000000   1.0000000   1.0000000   1.0000000   8.0000000   1.0000000   7.0000000

  Atom        41          42          43          44          45          46          47          48          49          50
 IAtWgt=          14           1          14           1          12           1          14          12          12          12
 AtmWgt=  14.0030740   1.0078250  14.0030740   1.0078250  12.0000000   1.0078250  14.0030740  12.0000000  12.0000000  12.0000000
 NucSpn=           2           1           2           1           0           1           2           0           0           0
 AtZEff=  -0.0000000  -0.0000000  -0.0000000  -0.0000000  -0.0000000  -0.0000000  -0.0000000  -0.0000000  -0.0000000  -0.0000000
 NQMom=    2.0440000   0.0000000   2.0440000   0.0000000   0.0000000   0.0000000   2.0440000   0.0000000   0.0000000   0.0000000
 NMagM=    0.4037610   2.7928460   0.4037610   2.7928460   0.0000000   2.7928460   0.4037610   0.0000000   0.0000000   0.0000000
 AtZNuc=   7.0000000   1.0000000   7.0000000   1.0000000   6.0000000   1.0000000   7.0000000   6.0000000   6.0000000   6.0000000

  Atom        51          52          53          54          55          56          57          58          59          60
 IAtWgt=           1          12           1           1          12           1           1          12           1           1
 AtmWgt=   1.0078250  12.0000000   1.0078250   1.0078250  12.0000000   1.0078250   1.0078250  12.0000000   1.0078250   1.0078250
 NucSpn=           1           0           1           1           0           1           1           0           1           1
 AtZEff=  -0.0000000  -0.0000000  -0.0000000  -0.0000000  -0.0000000  -0.0000000  -0.0000000  -0.0000000  -0.0000000  -0.0000000
 NQMom=    0.0000000   0.0000000   0.0000000   0.0000000   0.0000000   0.0000000   0.0000000   0.0000000   0.0000000   0.0000000
 NMagM=    2.7928460   0.0000000   2.7928460   2.7928460   0.0000000   2.7928460   2.7928460   0.0000000   2.7928460   2.7928460
 AtZNuc=   1.0000000   6.0000000   1.0000000   1.0000000   6.0000000   1.0000000   1.0000000   6.0000000   1.0000000   1.0000000

  Atom        61          62          63          64
 IAtWgt=           1           1           1           1
 AtmWgt=   1.0078250   1.0078250   1.0078250   1.0078250
 NucSpn=           1           1           1           1
 AtZEff=  -0.0000000  -0.0000000  -0.0000000  -0.0000000
 NQMom=    0.0000000   0.0000000   0.0000000   0.0000000
 NMagM=    2.7928460   2.7928460   2.7928460   2.7928460
 AtZNuc=   1.0000000   1.0000000   1.0000000   1.0000000
 Leave Link  101 at Wed Dec 12 13:40:11 2018, MaxMem=  1342177280 cpu:               4.7 elap:               0.3
 (Enter /gpfs/apps/hpc/Apps/Restricted/Gaussian/Rev_A.03/g16/l103.exe)

 GradGradGradGradGradGradGradGradGradGradGradGradGradGradGradGradGradGrad
 Berny optimization.
 Initialization pass.
                           ----------------------------
                           !    Initial Parameters    !
                           ! (Angstroms and Degrees)  !
 --------------------------                            --------------------------
 ! Name  Definition              Value          Derivative Info.                !
 --------------------------------------------------------------------------------
 ! R1    R(1,2)                  1.4137         estimate D2E/DX2                !
 ! R2    R(1,6)                  1.4033         estimate D2E/DX2                !
 ! R3    R(1,43)                 1.3723         estimate D2E/DX2                !
 ! R4    R(2,3)                  1.4005         estimate D2E/DX2                !
 ! R5    R(2,21)                 1.3861         estimate D2E/DX2                !
 ! R6    R(3,4)                  1.3939         estimate D2E/DX2                !
 ! R7    R(3,8)                  1.0832         estimate D2E/DX2                !
 ! R8    R(4,5)                  1.4047         estimate D2E/DX2                !
 ! R9    R(4,9)                  1.0835         estimate D2E/DX2                !
 ! R10   R(5,6)                  1.4011         estimate D2E/DX2                !
 ! R11   R(5,10)                 1.0847         estimate D2E/DX2                !
 ! R12   R(6,45)                 1.4585         estimate D2E/DX2                !
 ! R13   R(7,16)                 1.4532         estimate D2E/DX2                !
 ! R14   R(7,21)                 1.3321         estimate D2E/DX2                !
 ! R15   R(7,43)                 1.3753         estimate D2E/DX2                !
 ! R16   R(11,12)                1.4134         estimate D2E/DX2                !
 ! R17   R(11,16)                1.4032         estimate D2E/DX2                !
 ! R18   R(11,40)                1.3746         estimate D2E/DX2                !
 ! R19   R(12,13)                1.3983         estimate D2E/DX2                !
 ! R20   R(12,41)                1.386          estimate D2E/DX2                !
 ! R21   R(13,14)                1.395          estimate D2E/DX2                !
 ! R22   R(13,18)                1.083          estimate D2E/DX2                !
 ! R23   R(14,15)                1.4033         estimate D2E/DX2                !
 ! R24   R(14,19)                1.0835         estimate D2E/DX2                !
 ! R25   R(15,16)                1.402          estimate D2E/DX2                !
 ! R26   R(15,20)                1.0837         estimate D2E/DX2                !
 ! R27   R(17,23)                1.4528         estimate D2E/DX2                !
 ! R28   R(17,40)                1.3718         estimate D2E/DX2                !
 ! R29   R(17,41)                1.3352         estimate D2E/DX2                !
 ! R30   R(22,23)                1.4163         estimate D2E/DX2                !
 ! R31   R(22,27)                1.4068         estimate D2E/DX2                !
 ! R32   R(22,38)                1.3517         estimate D2E/DX2                !
 ! R33   R(23,24)                1.4052         estimate D2E/DX2                !
 ! R34   R(24,25)                1.3906         estimate D2E/DX2                !
 ! R35   R(24,28)                1.085          estimate D2E/DX2                !
 ! R36   R(25,26)                1.4039         estimate D2E/DX2                !
 ! R37   R(25,30)                1.5089         estimate D2E/DX2                !
 ! R38   R(26,27)                1.3932         estimate D2E/DX2                !
 ! R39   R(26,29)                1.0861         estimate D2E/DX2                !
 ! R40   R(27,34)                1.5035         estimate D2E/DX2                !
 ! R41   R(30,31)                1.0938         estimate D2E/DX2                !
 ! R42   R(30,32)                1.0947         estimate D2E/DX2                !
 ! R43   R(30,33)                1.0917         estimate D2E/DX2                !
 ! R44   R(34,35)                1.0936         estimate D2E/DX2                !
 ! R45   R(34,36)                1.095          estimate D2E/DX2                !
 ! R46   R(34,37)                1.0909         estimate D2E/DX2                !
 ! R47   R(38,39)                0.9981         estimate D2E/DX2                !
 ! R48   R(40,42)                1.0139         estimate D2E/DX2                !
 ! R49   R(43,44)                1.013          estimate D2E/DX2                !
 ! R50   R(45,46)                1.0958         estimate D2E/DX2                !
 ! R51   R(45,47)                1.2827         estimate D2E/DX2                !
 ! R52   R(47,48)                1.4735         estimate D2E/DX2                !
 ! R53   R(48,49)                1.5379         estimate D2E/DX2                !
 ! R54   R(48,50)                1.5381         estimate D2E/DX2                !
 ! R55   R(48,51)                1.0961         estimate D2E/DX2                !
 ! R56   R(49,52)                1.5322         estimate D2E/DX2                !
 ! R57   R(49,53)                1.0968         estimate D2E/DX2                !
 ! R58   R(49,54)                1.0944         estimate D2E/DX2                !
 ! R59   R(50,55)                1.5327         estimate D2E/DX2                !
 ! R60   R(50,56)                1.0961         estimate D2E/DX2                !
 ! R61   R(50,57)                1.0944         estimate D2E/DX2                !
 ! R62   R(52,58)                1.5325         estimate D2E/DX2                !
 ! R63   R(52,59)                1.0948         estimate D2E/DX2                !
 ! R64   R(52,60)                1.0972         estimate D2E/DX2                !
 ! R65   R(55,58)                1.5327         estimate D2E/DX2                !
 ! R66   R(55,61)                1.0947         estimate D2E/DX2                !
 ! R67   R(55,62)                1.0975         estimate D2E/DX2                !
 ! R68   R(58,63)                1.0945         estimate D2E/DX2                !
 ! R69   R(58,64)                1.0974         estimate D2E/DX2                !
 ! A1    A(2,1,6)              123.046          estimate D2E/DX2                !
 ! A2    A(2,1,43)             105.5202         estimate D2E/DX2                !
 ! A3    A(6,1,43)             131.4286         estimate D2E/DX2                !
 ! A4    A(1,2,3)              119.7307         estimate D2E/DX2                !
 ! A5    A(1,2,21)             109.5171         estimate D2E/DX2                !
 ! A6    A(3,2,21)             130.7511         estimate D2E/DX2                !
 ! A7    A(2,3,4)              117.9509         estimate D2E/DX2                !
 ! A8    A(2,3,8)              120.7322         estimate D2E/DX2                !
 ! A9    A(4,3,8)              121.3163         estimate D2E/DX2                !
 ! A10   A(3,4,5)              121.5767         estimate D2E/DX2                !
 ! A11   A(3,4,9)              119.4467         estimate D2E/DX2                !
 ! A12   A(5,4,9)              118.9766         estimate D2E/DX2                !
 ! A13   A(4,5,6)              121.8439         estimate D2E/DX2                !
 ! A14   A(4,5,10)             119.4579         estimate D2E/DX2                !
 ! A15   A(6,5,10)             118.6982         estimate D2E/DX2                !
 ! A16   A(1,6,5)              115.8492         estimate D2E/DX2                !
 ! A17   A(1,6,45)             122.1634         estimate D2E/DX2                !
 ! A18   A(5,6,45)             121.9869         estimate D2E/DX2                !
 ! A19   A(16,7,21)            123.8025         estimate D2E/DX2                !
 ! A20   A(16,7,43)            124.2399         estimate D2E/DX2                !
 ! A21   A(21,7,43)            111.9563         estimate D2E/DX2                !
 ! A22   A(12,11,16)           122.9635         estimate D2E/DX2                !
 ! A23   A(12,11,40)           105.7251         estimate D2E/DX2                !
 ! A24   A(16,11,40)           131.3089         estimate D2E/DX2                !
 ! A25   A(11,12,13)           119.8862         estimate D2E/DX2                !
 ! A26   A(11,12,41)           108.9293         estimate D2E/DX2                !
 ! A27   A(13,12,41)           131.1844         estimate D2E/DX2                !
 ! A28   A(12,13,14)           117.7083         estimate D2E/DX2                !
 ! A29   A(12,13,18)           120.8667         estimate D2E/DX2                !
 ! A30   A(14,13,18)           121.4249         estimate D2E/DX2                !
 ! A31   A(13,14,15)           121.9332         estimate D2E/DX2                !
 ! A32   A(13,14,19)           119.2917         estimate D2E/DX2                !
 ! A33   A(15,14,19)           118.775          estimate D2E/DX2                !
 ! A34   A(14,15,16)           121.5072         estimate D2E/DX2                !
 ! A35   A(14,15,20)           119.0024         estimate D2E/DX2                !
 ! A36   A(16,15,20)           119.4896         estimate D2E/DX2                !
 ! A37   A(7,16,11)            119.5962         estimate D2E/DX2                !
 ! A38   A(7,16,15)            124.4041         estimate D2E/DX2                !
 ! A39   A(11,16,15)           115.9959         estimate D2E/DX2                !
 ! A40   A(23,17,40)           124.8096         estimate D2E/DX2                !
 ! A41   A(23,17,41)           123.8347         estimate D2E/DX2                !
 ! A42   A(40,17,41)           111.3478         estimate D2E/DX2                !
 ! A43   A(2,21,7)             105.5231         estimate D2E/DX2                !
 ! A44   A(23,22,27)           119.8975         estimate D2E/DX2                !
 ! A45   A(23,22,38)           122.3831         estimate D2E/DX2                !
 ! A46   A(27,22,38)           117.7194         estimate D2E/DX2                !
 ! A47   A(17,23,22)           119.1848         estimate D2E/DX2                !
 ! A48   A(17,23,24)           121.4547         estimate D2E/DX2                !
 ! A49   A(22,23,24)           119.3586         estimate D2E/DX2                !
 ! A50   A(23,24,25)           121.5218         estimate D2E/DX2                !
 ! A51   A(23,24,28)           119.2821         estimate D2E/DX2                !
 ! A52   A(25,24,28)           119.1955         estimate D2E/DX2                !
 ! A53   A(24,25,26)           117.8466         estimate D2E/DX2                !
 ! A54   A(24,25,30)           120.9621         estimate D2E/DX2                !
 ! A55   A(26,25,30)           121.1906         estimate D2E/DX2                !
 ! A56   A(25,26,27)           122.6929         estimate D2E/DX2                !
 ! A57   A(25,26,29)           118.9943         estimate D2E/DX2                !
 ! A58   A(27,26,29)           118.3101         estimate D2E/DX2                !
 ! A59   A(22,27,26)           118.6773         estimate D2E/DX2                !
 ! A60   A(22,27,34)           119.4517         estimate D2E/DX2                !
 ! A61   A(26,27,34)           121.8697         estimate D2E/DX2                !
 ! A62   A(25,30,31)           111.2787         estimate D2E/DX2                !
 ! A63   A(25,30,32)           111.3063         estimate D2E/DX2                !
 ! A64   A(25,30,33)           111.0175         estimate D2E/DX2                !
 ! A65   A(31,30,32)           107.0384         estimate D2E/DX2                !
 ! A66   A(31,30,33)           108.179          estimate D2E/DX2                !
 ! A67   A(32,30,33)           107.8451         estimate D2E/DX2                !
 ! A68   A(27,34,35)           111.2965         estimate D2E/DX2                !
 ! A69   A(27,34,36)           111.2069         estimate D2E/DX2                !
 ! A70   A(27,34,37)           110.6076         estimate D2E/DX2                !
 ! A71   A(35,34,36)           106.6418         estimate D2E/DX2                !
 ! A72   A(35,34,37)           108.6605         estimate D2E/DX2                !
 ! A73   A(36,34,37)           108.2821         estimate D2E/DX2                !
 ! A74   A(22,38,39)           107.5611         estimate D2E/DX2                !
 ! A75   A(11,40,17)           107.7605         estimate D2E/DX2                !
 ! A76   A(11,40,42)           122.2553         estimate D2E/DX2                !
 ! A77   A(17,40,42)           129.9787         estimate D2E/DX2                !
 ! A78   A(12,41,17)           106.2364         estimate D2E/DX2                !
 ! A79   A(1,43,7)             107.4826         estimate D2E/DX2                !
 ! A80   A(1,43,44)            122.2761         estimate D2E/DX2                !
 ! A81   A(7,43,44)            130.2195         estimate D2E/DX2                !
 ! A82   A(6,45,46)            115.4664         estimate D2E/DX2                !
 ! A83   A(6,45,47)            122.0595         estimate D2E/DX2                !
 ! A84   A(46,45,47)           122.4735         estimate D2E/DX2                !
 ! A85   A(45,47,48)           117.0301         estimate D2E/DX2                !
 ! A86   A(47,48,49)           111.6813         estimate D2E/DX2                !
 ! A87   A(47,48,50)           112.53           estimate D2E/DX2                !
 ! A88   A(47,48,51)           106.3092         estimate D2E/DX2                !
 ! A89   A(49,48,50)           110.6331         estimate D2E/DX2                !
 ! A90   A(49,48,51)           107.8161         estimate D2E/DX2                !
 ! A91   A(50,48,51)           107.5787         estimate D2E/DX2                !
 ! A92   A(48,49,52)           111.506          estimate D2E/DX2                !
 ! A93   A(48,49,53)           108.3579         estimate D2E/DX2                !
 ! A94   A(48,49,54)           109.4537         estimate D2E/DX2                !
 ! A95   A(52,49,53)           109.4702         estimate D2E/DX2                !
 ! A96   A(52,49,54)           110.8265         estimate D2E/DX2                !
 ! A97   A(53,49,54)           107.0951         estimate D2E/DX2                !
 ! A98   A(48,50,55)           111.3436         estimate D2E/DX2                !
 ! A99   A(48,50,56)           108.769          estimate D2E/DX2                !
 ! A100  A(48,50,57)           109.4123         estimate D2E/DX2                !
 ! A101  A(55,50,56)           109.3071         estimate D2E/DX2                !
 ! A102  A(55,50,57)           110.7468         estimate D2E/DX2                !
 ! A103  A(56,50,57)           107.1496         estimate D2E/DX2                !
 ! A104  A(49,52,58)           111.41           estimate D2E/DX2                !
 ! A105  A(49,52,59)           109.6997         estimate D2E/DX2                !
 ! A106  A(49,52,60)           109.2421         estimate D2E/DX2                !
 ! A107  A(58,52,59)           110.4928         estimate D2E/DX2                !
 ! A108  A(58,52,60)           109.0444         estimate D2E/DX2                !
 ! A109  A(59,52,60)           106.8331         estimate D2E/DX2                !
 ! A110  A(50,55,58)           111.4306         estimate D2E/DX2                !
 ! A111  A(50,55,61)           109.6843         estimate D2E/DX2                !
 ! A112  A(50,55,62)           109.1979         estimate D2E/DX2                !
 ! A113  A(58,55,61)           110.5476         estimate D2E/DX2                !
 ! A114  A(58,55,62)           109.0949         estimate D2E/DX2                !
 ! A115  A(61,55,62)           106.7622         estimate D2E/DX2                !
 ! A116  A(52,58,55)           111.0049         estimate D2E/DX2                !
 ! A117  A(52,58,63)           110.2662         estimate D2E/DX2                !
 ! A118  A(52,58,64)           109.0986         estimate D2E/DX2                !
 ! A119  A(55,58,63)           110.2924         estimate D2E/DX2                !
 ! A120  A(55,58,64)           109.1595         estimate D2E/DX2                !
 ! A121  A(63,58,64)           106.9173         estimate D2E/DX2                !
 ! D1    D(6,1,2,3)             -0.5848         estimate D2E/DX2                !
 ! D2    D(6,1,2,21)           179.082          estimate D2E/DX2                !
 ! D3    D(43,1,2,3)          -179.8466         estimate D2E/DX2                !
 ! D4    D(43,1,2,21)           -0.1799         estimate D2E/DX2                !
 ! D5    D(2,1,6,5)              0.2282         estimate D2E/DX2                !
 ! D6    D(2,1,6,45)          -179.5165         estimate D2E/DX2                !
 ! D7    D(43,1,6,5)           179.2796         estimate D2E/DX2                !
 ! D8    D(43,1,6,45)           -0.4651         estimate D2E/DX2                !
 ! D9    D(2,1,43,7)             0.2662         estimate D2E/DX2                !
 ! D10   D(2,1,43,44)          178.7253         estimate D2E/DX2                !
 ! D11   D(6,1,43,7)          -178.9086         estimate D2E/DX2                !
 ! D12   D(6,1,43,44)           -0.4494         estimate D2E/DX2                !
 ! D13   D(1,2,3,4)              0.5491         estimate D2E/DX2                !
 ! D14   D(1,2,3,8)           -179.7524         estimate D2E/DX2                !
 ! D15   D(21,2,3,4)          -179.0362         estimate D2E/DX2                !
 ! D16   D(21,2,3,8)             0.6622         estimate D2E/DX2                !
 ! D17   D(1,2,21,7)             0.0182         estimate D2E/DX2                !
 ! D18   D(3,2,21,7)           179.6362         estimate D2E/DX2                !
 ! D19   D(2,3,4,5)             -0.2            estimate D2E/DX2                !
 ! D20   D(2,3,4,9)            179.7822         estimate D2E/DX2                !
 ! D21   D(8,3,4,5)           -179.8967         estimate D2E/DX2                !
 ! D22   D(8,3,4,9)              0.0856         estimate D2E/DX2                !
 ! D23   D(3,4,5,6)             -0.1525         estimate D2E/DX2                !
 ! D24   D(3,4,5,10)           179.8526         estimate D2E/DX2                !
 ! D25   D(9,4,5,6)            179.8652         estimate D2E/DX2                !
 ! D26   D(9,4,5,10)            -0.1297         estimate D2E/DX2                !
 ! D27   D(4,5,6,1)              0.1383         estimate D2E/DX2                !
 ! D28   D(4,5,6,45)           179.8836         estimate D2E/DX2                !
 ! D29   D(10,5,6,1)          -179.8667         estimate D2E/DX2                !
 ! D30   D(10,5,6,45)           -0.1215         estimate D2E/DX2                !
 ! D31   D(1,6,45,46)          178.9568         estimate D2E/DX2                !
 ! D32   D(1,6,45,47)           -0.7755         estimate D2E/DX2                !
 ! D33   D(5,6,45,46)           -0.7723         estimate D2E/DX2                !
 ! D34   D(5,6,45,47)          179.4953         estimate D2E/DX2                !
 ! D35   D(21,7,16,11)           3.7567         estimate D2E/DX2                !
 ! D36   D(21,7,16,15)        -176.987          estimate D2E/DX2                !
 ! D37   D(43,7,16,11)        -175.7945         estimate D2E/DX2                !
 ! D38   D(43,7,16,15)           3.4619         estimate D2E/DX2                !
 ! D39   D(16,7,21,2)         -179.4438         estimate D2E/DX2                !
 ! D40   D(43,7,21,2)            0.1561         estimate D2E/DX2                !
 ! D41   D(16,7,43,1)          179.3232         estimate D2E/DX2                !
 ! D42   D(16,7,43,44)           1.0293         estimate D2E/DX2                !
 ! D43   D(21,7,43,1)           -0.2747         estimate D2E/DX2                !
 ! D44   D(21,7,43,44)        -178.5686         estimate D2E/DX2                !
 ! D45   D(16,11,12,13)          0.8104         estimate D2E/DX2                !
 ! D46   D(16,11,12,41)       -179.229          estimate D2E/DX2                !
 ! D47   D(40,11,12,13)       -179.6968         estimate D2E/DX2                !
 ! D48   D(40,11,12,41)          0.2638         estimate D2E/DX2                !
 ! D49   D(12,11,16,7)         178.5163         estimate D2E/DX2                !
 ! D50   D(12,11,16,15)         -0.8011         estimate D2E/DX2                !
 ! D51   D(40,11,16,7)          -0.8338         estimate D2E/DX2                !
 ! D52   D(40,11,16,15)        179.8488         estimate D2E/DX2                !
 ! D53   D(12,11,40,17)         -0.3025         estimate D2E/DX2                !
 ! D54   D(12,11,40,42)       -179.5245         estimate D2E/DX2                !
 ! D55   D(16,11,40,17)        179.131          estimate D2E/DX2                !
 ! D56   D(16,11,40,42)         -0.091          estimate D2E/DX2                !
 ! D57   D(11,12,13,14)         -0.2017         estimate D2E/DX2                !
 ! D58   D(11,12,13,18)        179.8749         estimate D2E/DX2                !
 ! D59   D(41,12,13,14)        179.8479         estimate D2E/DX2                !
 ! D60   D(41,12,13,18)         -0.0756         estimate D2E/DX2                !
 ! D61   D(11,12,41,17)         -0.1197         estimate D2E/DX2                !
 ! D62   D(13,12,41,17)        179.8349         estimate D2E/DX2                !
 ! D63   D(12,13,14,15)         -0.3566         estimate D2E/DX2                !
 ! D64   D(12,13,14,19)        179.7954         estimate D2E/DX2                !
 ! D65   D(18,13,14,15)        179.5664         estimate D2E/DX2                !
 ! D66   D(18,13,14,19)         -0.2816         estimate D2E/DX2                !
 ! D67   D(13,14,15,16)          0.3488         estimate D2E/DX2                !
 ! D68   D(13,14,15,20)       -179.9805         estimate D2E/DX2                !
 ! D69   D(19,14,15,16)       -179.8025         estimate D2E/DX2                !
 ! D70   D(19,14,15,20)         -0.1318         estimate D2E/DX2                !
 ! D71   D(14,15,16,7)        -179.055          estimate D2E/DX2                !
 ! D72   D(14,15,16,11)          0.2256         estimate D2E/DX2                !
 ! D73   D(20,15,16,7)           1.2759         estimate D2E/DX2                !
 ! D74   D(20,15,16,11)       -179.4435         estimate D2E/DX2                !
 ! D75   D(40,17,23,22)        174.492          estimate D2E/DX2                !
 ! D76   D(40,17,23,24)         -4.9924         estimate D2E/DX2                !
 ! D77   D(41,17,23,22)         -4.3986         estimate D2E/DX2                !
 ! D78   D(41,17,23,24)        176.1171         estimate D2E/DX2                !
 ! D79   D(23,17,40,11)       -178.766          estimate D2E/DX2                !
 ! D80   D(23,17,40,42)          0.3755         estimate D2E/DX2                !
 ! D81   D(41,17,40,11)          0.2446         estimate D2E/DX2                !
 ! D82   D(41,17,40,42)        179.386          estimate D2E/DX2                !
 ! D83   D(23,17,41,12)        178.9473         estimate D2E/DX2                !
 ! D84   D(40,17,41,12)         -0.0747         estimate D2E/DX2                !
 ! D85   D(27,22,23,17)       -178.7021         estimate D2E/DX2                !
 ! D86   D(27,22,23,24)          0.7933         estimate D2E/DX2                !
 ! D87   D(38,22,23,17)          1.2199         estimate D2E/DX2                !
 ! D88   D(38,22,23,24)       -179.2848         estimate D2E/DX2                !
 ! D89   D(23,22,27,26)         -0.3874         estimate D2E/DX2                !
 ! D90   D(23,22,27,34)       -179.9863         estimate D2E/DX2                !
 ! D91   D(38,22,27,26)        179.6871         estimate D2E/DX2                !
 ! D92   D(38,22,27,34)          0.0882         estimate D2E/DX2                !
 ! D93   D(23,22,38,39)          0.9235         estimate D2E/DX2                !
 ! D94   D(27,22,38,39)       -179.1529         estimate D2E/DX2                !
 ! D95   D(17,23,24,25)        178.9256         estimate D2E/DX2                !
 ! D96   D(17,23,24,28)         -1.3575         estimate D2E/DX2                !
 ! D97   D(22,23,24,25)         -0.5579         estimate D2E/DX2                !
 ! D98   D(22,23,24,28)        179.159          estimate D2E/DX2                !
 ! D99   D(23,24,25,26)         -0.0819         estimate D2E/DX2                !
 ! D100  D(23,24,25,30)       -179.7814         estimate D2E/DX2                !
 ! D101  D(28,24,25,26)       -179.7991         estimate D2E/DX2                !
 ! D102  D(28,24,25,30)          0.5014         estimate D2E/DX2                !
 ! D103  D(24,25,26,27)          0.5091         estimate D2E/DX2                !
 ! D104  D(24,25,26,29)        179.9074         estimate D2E/DX2                !
 ! D105  D(30,25,26,27)       -179.7921         estimate D2E/DX2                !
 ! D106  D(30,25,26,29)         -0.3938         estimate D2E/DX2                !
 ! D107  D(24,25,30,31)        -51.8415         estimate D2E/DX2                !
 ! D108  D(24,25,30,32)         67.4604         estimate D2E/DX2                !
 ! D109  D(24,25,30,33)       -172.3929         estimate D2E/DX2                !
 ! D110  D(26,25,30,31)        128.4691         estimate D2E/DX2                !
 ! D111  D(26,25,30,32)       -112.229          estimate D2E/DX2                !
 ! D112  D(26,25,30,33)          7.9178         estimate D2E/DX2                !
 ! D113  D(25,26,27,22)         -0.2734         estimate D2E/DX2                !
 ! D114  D(25,26,27,34)        179.3153         estimate D2E/DX2                !
 ! D115  D(29,26,27,22)       -179.6756         estimate D2E/DX2                !
 ! D116  D(29,26,27,34)         -0.0869         estimate D2E/DX2                !
 ! D117  D(22,27,34,35)        -54.5677         estimate D2E/DX2                !
 ! D118  D(22,27,34,36)         64.1803         estimate D2E/DX2                !
 ! D119  D(22,27,34,37)       -175.4626         estimate D2E/DX2                !
 ! D120  D(26,27,34,35)        125.8467         estimate D2E/DX2                !
 ! D121  D(26,27,34,36)       -115.4054         estimate D2E/DX2                !
 ! D122  D(26,27,34,37)          4.9518         estimate D2E/DX2                !
 ! D123  D(6,45,47,48)         179.1231         estimate D2E/DX2                !
 ! D124  D(46,45,47,48)         -0.5905         estimate D2E/DX2                !
 ! D125  D(45,47,48,49)        -63.6192         estimate D2E/DX2                !
 ! D126  D(45,47,48,50)         61.5131         estimate D2E/DX2                !
 ! D127  D(45,47,48,51)        179.033          estimate D2E/DX2                !
 ! D128  D(47,48,49,52)       -178.534          estimate D2E/DX2                !
 ! D129  D(47,48,49,53)         60.9205         estimate D2E/DX2                !
 ! D130  D(47,48,49,54)        -55.5465         estimate D2E/DX2                !
 ! D131  D(50,48,49,52)         55.2877         estimate D2E/DX2                !
 ! D132  D(50,48,49,53)        -65.2579         estimate D2E/DX2                !
 ! D133  D(50,48,49,54)        178.2752         estimate D2E/DX2                !
 ! D134  D(51,48,49,52)        -62.0982         estimate D2E/DX2                !
 ! D135  D(51,48,49,53)        177.3562         estimate D2E/DX2                !
 ! D136  D(51,48,49,54)         60.8893         estimate D2E/DX2                !
 ! D137  D(47,48,50,55)        178.95           estimate D2E/DX2                !
 ! D138  D(47,48,50,56)        -60.539          estimate D2E/DX2                !
 ! D139  D(47,48,50,57)         56.2016         estimate D2E/DX2                !
 ! D140  D(49,48,50,55)        -55.3472         estimate D2E/DX2                !
 ! D141  D(49,48,50,56)         65.1638         estimate D2E/DX2                !
 ! D142  D(49,48,50,57)       -178.0956         estimate D2E/DX2                !
 ! D143  D(51,48,50,55)         62.1845         estimate D2E/DX2                !
 ! D144  D(51,48,50,56)       -177.3045         estimate D2E/DX2                !
 ! D145  D(51,48,50,57)        -60.5639         estimate D2E/DX2                !
 ! D146  D(48,49,52,58)        -55.5502         estimate D2E/DX2                !
 ! D147  D(48,49,52,59)       -178.2206         estimate D2E/DX2                !
 ! D148  D(48,49,52,60)         64.9866         estimate D2E/DX2                !
 ! D149  D(53,49,52,58)         64.341          estimate D2E/DX2                !
 ! D150  D(53,49,52,59)        -58.3294         estimate D2E/DX2                !
 ! D151  D(53,49,52,60)       -175.1223         estimate D2E/DX2                !
 ! D152  D(54,49,52,58)       -177.7502         estimate D2E/DX2                !
 ! D153  D(54,49,52,59)         59.5794         estimate D2E/DX2                !
 ! D154  D(54,49,52,60)        -57.2135         estimate D2E/DX2                !
 ! D155  D(48,50,55,58)         55.7745         estimate D2E/DX2                !
 ! D156  D(48,50,55,61)        178.5176         estimate D2E/DX2                !
 ! D157  D(48,50,55,62)        -64.8093         estimate D2E/DX2                !
 ! D158  D(56,50,55,58)        -64.4194         estimate D2E/DX2                !
 ! D159  D(56,50,55,61)         58.3237         estimate D2E/DX2                !
 ! D160  D(56,50,55,62)        174.9968         estimate D2E/DX2                !
 ! D161  D(57,50,55,58)        177.7531         estimate D2E/DX2                !
 ! D162  D(57,50,55,61)        -59.5038         estimate D2E/DX2                !
 ! D163  D(57,50,55,62)         57.1693         estimate D2E/DX2                !
 ! D164  D(49,52,58,55)         55.2472         estimate D2E/DX2                !
 ! D165  D(49,52,58,63)        177.7803         estimate D2E/DX2                !
 ! D166  D(49,52,58,64)        -65.0832         estimate D2E/DX2                !
 ! D167  D(59,52,58,55)        177.4611         estimate D2E/DX2                !
 ! D168  D(59,52,58,63)        -60.0058         estimate D2E/DX2                !
 ! D169  D(59,52,58,64)         57.1307         estimate D2E/DX2                !
 ! D170  D(60,52,58,55)        -65.4056         estimate D2E/DX2                !
 ! D171  D(60,52,58,63)         57.1275         estimate D2E/DX2                !
 ! D172  D(60,52,58,64)        174.264          estimate D2E/DX2                !
 ! D173  D(50,55,58,52)        -55.4107         estimate D2E/DX2                !
 ! D174  D(50,55,58,63)       -177.9286         estimate D2E/DX2                !
 ! D175  D(50,55,58,64)         64.8835         estimate D2E/DX2                !
 ! D176  D(61,55,58,52)       -177.6575         estimate D2E/DX2                !
 ! D177  D(61,55,58,63)         59.8246         estimate D2E/DX2                !
 ! D178  D(61,55,58,64)        -57.3632         estimate D2E/DX2                !
 ! D179  D(62,55,58,52)         65.2334         estimate D2E/DX2                !
 ! D180  D(62,55,58,63)        -57.2844         estimate D2E/DX2                !
 ! D181  D(62,55,58,64)       -174.4723         estimate D2E/DX2                !
 --------------------------------------------------------------------------------
 Trust Radius=3.00D-01 FncErr=5.00D-06 GrdErr=5.00D-06 EigMax=2.50D+02 EigMin=1.00D-04
 Number of steps in this run=    381 maximum allowed number of steps=    384.
 GradGradGradGradGradGradGradGradGradGradGradGradGradGradGradGradGradGrad

 Leave Link  103 at Wed Dec 12 13:40:11 2018, MaxMem=  1342177280 cpu:               0.3 elap:               0.0
 (Enter /gpfs/apps/hpc/Apps/Restricted/Gaussian/Rev_A.03/g16/l202.exe)
 Symmetry turned off by external request.
 Stoichiometry    C29H29N5O
 Framework group  C1[X(C29H29N5O)]
 Deg. of freedom   186
 Full point group                 C1      NOp   1
                          Input orientation:                          
 ---------------------------------------------------------------------
 Center     Atomic      Atomic             Coordinates (Angstroms)
 Number     Number       Type             X           Y           Z
 ---------------------------------------------------------------------
      1          6           0        1.590666    1.138707    0.162928
      2          6           0        0.373043    1.856852    0.147552
      3          6           0        0.391952    3.254227    0.055313
      4          6           0        1.631138    3.886602   -0.030373
      5          6           0        2.831480    3.156985   -0.021237
      6          6           0        2.846340    1.759436    0.077371
      7          6           0       -0.137795   -0.241657    0.286994
      8          1           0       -0.531151    3.820922    0.046229
      9          1           0        1.673901    4.966625   -0.106266
     10          1           0        3.776802    3.684248   -0.092119
     11          6           0       -2.303392   -1.426802    0.304732
     12          6           0       -3.115067   -2.583172    0.345717
     13          6           0       -2.524882   -3.844579    0.470779
     14          6           0       -1.133291   -3.904945    0.546641
     15          6           0       -0.336307   -2.751198    0.493326
     16          6           0       -0.902478   -1.474733    0.367831
     17          6           0       -4.445752   -0.871484    0.151286
     18          1           0       -3.131703   -4.740933    0.505804
     19          1           0       -0.649223   -4.869020    0.647304
     20          1           0        0.740769   -2.853236    0.556223
     21          7           0       -0.688965    0.969508    0.225907
     22          6           0       -6.899459   -0.724773   -0.133511
     23          6           0       -5.650259   -0.072205    0.006475
     24          6           0       -5.601070    1.332070   -0.008362
     25          6           0       -6.750450    2.098156   -0.168960
     26          6           0       -7.972471    1.423602   -0.319002
     27          6           0       -8.072020    0.034075   -0.302159
     28          1           0       -4.645204    1.830895    0.112751
     29          1           0       -8.882137    2.003705   -0.444193
     30          6           0       -6.682397    3.605367   -0.187885
     31          1           0       -6.141817    3.989278    0.682096
     32          1           0       -6.157916    3.968719   -1.077424
     33          1           0       -7.682745    4.042508   -0.187436
     34          6           0       -9.392835   -0.669028   -0.449497
     35          1           0       -9.365516   -1.399221   -1.263202
     36          1           0       -9.650709   -1.222131    0.459652
     37          1           0      -10.189404    0.048540   -0.651044
     38          8           0       -7.019214   -2.071011   -0.113630
     39          1           0       -6.107519   -2.452421    0.026247
     40          7           0       -3.170652   -0.366896    0.186456
     41          7           0       -4.444236   -2.203276    0.246256
     42          1           0       -2.847845    0.592478    0.127749
     43          7           0        1.235890   -0.183667    0.255459
     44          1           0        1.922418   -0.928399    0.266557
     45          6           0        4.090660    0.998606    0.084638
     46          1           0        5.006887    1.592960   -0.005315
     47          7           0        4.106268   -0.280107    0.184392
     48          6           0        5.424676   -0.937608    0.160254
     49          6           0        6.140885   -0.725357   -1.183987
     50          6           0        6.323637   -0.498676    1.328597
     51          1           0        5.235319   -2.011242    0.273501
     52          6           0        7.495435   -1.440759   -1.217865
     53          1           0        6.292352    0.351242   -1.328472
     54          1           0        5.497344   -1.071879   -1.998569
     55          6           0        7.676817   -1.217522    1.291879
     56          1           0        6.486073    0.583240    1.261445
     57          1           0        5.808828   -0.689550    2.275262
     58          6           0        8.387072   -1.006007   -0.049727
     59          1           0        7.992645   -1.244482   -2.173245
     60          1           0        7.333551   -2.524421   -1.160669
     61          1           0        8.303442   -0.866336    2.117926
     62          1           0        7.518966   -2.292188    1.449048
     63          1           0        9.332846   -1.556423   -0.069434
     64          1           0        8.633979    0.057283   -0.162847
 ---------------------------------------------------------------------
 Rotational constants (GHZ):           0.2610927           0.0418916           0.0367285
 Leave Link  202 at Wed Dec 12 13:40:12 2018, MaxMem=  1342177280 cpu:               0.9 elap:               0.1
 (Enter /gpfs/apps/hpc/Apps/Restricted/Gaussian/Rev_A.03/g16/l301.exe)
 Standard basis: 6-31G(d,p) (6D, 7F)
 Ernie: Thresh=  0.10000D-02 Tol=  0.10000D-05 Strict=F.
   670 basis functions,  1183 primitive gaussians,   670 cartesian basis functions
   123 alpha electrons      123 beta electrons
       nuclear repulsion energy      3326.2689831690 Hartrees.
 IExCor=  402 DFT=T Ex+Corr=B3LYP ExCW=0 ScaHFX=  0.200000
 ScaDFX=  0.800000  0.720000  1.000000  0.810000 ScalE2=  1.000000  1.000000
 IRadAn=      5 IRanWt=     -1 IRanGd=            0 ICorTp=0 IEmpDi=141
 NAtoms=   64 NActive=   64 NUniq=   64 SFac= 1.00D+00 NAtFMM=   60 NAOKFM=T Big=T
 Integral buffers will be    131072 words long.
 Raffenetti 2 integral format.
 Two-electron integral symmetry is turned off.
 R6Disp:  Grimme-D3(BJ) Dispersion energy=       -0.1436553978 Hartrees.
 Nuclear repulsion after empirical dispersion term =     3326.1253277712 Hartrees.
 Using the following non-standard input for PCM:
 radii=bondi
 dis
 rep
 cav
 --- end of non-standard input.
 ------------------------------------------------------------------------------
 Polarizable Continuum Model (PCM)
 =================================
 Model                : C-PCM.
 Atomic radii         : Bondi.
 Polarization charges : Total charges.
 Charge compensation  : None.
 Solution method      : On-the-fly selection.
 Cavity type          : Scaled VdW (van der Waals Surface) (Alpha=1.100).
 Cavity algorithm     : GePol (No added spheres)
                        Default sphere list used, NSphG=   64.
                        Lebedev-Laikov grids with approx.  5.0 points / Ang**2.
                        Smoothing algorithm: York/Karplus (Gamma=1.0000).
                        Polarization charges: spherical gaussians, with
                                              point-specific exponents (IZeta= 3).
                        Self-potential: point-specific (ISelfS= 7).
                        Self-field    : sphere-specific E.n sum rule (ISelfD= 2).
 1st derivatives      : Analytical E(r).r(x)/FMM algorithm (CHGder, D1EAlg=3).
                        Cavity 1st derivative terms included.
 Solvent              : Dichloromethane, Eps=   8.930000 Eps(inf)=   2.028346
 ------------------------------------------------------------------------------
 GePol: Number of generator spheres                  =      64
 GePol: Total number of spheres                      =      64
 GePol: Number of exposed spheres                    =      64 (100.00%)
 GePol: Number of points                             =    4366
 GePol: Average weight of points                     =       0.12
 GePol: Minimum weight of points                     =   0.17D-10
 GePol: Maximum weight of points                     =    0.21770
 GePol: Number of points with low weight             =     249
 GePol: Fraction of low-weight points (<1% of avg)   =       5.70%
 GePol: Cavity surface area                          =    515.718 Ang**2
 GePol: Cavity volume                                =    498.038 Ang**3
 PCM non-electrostatic energy =         0.0182390623 Hartrees.
 Nuclear repulsion after PCM non-electrostatic terms =     3326.1435668335 Hartrees.
 Leave Link  301 at Wed Dec 12 13:40:12 2018, MaxMem=  1342177280 cpu:               3.8 elap:               0.3
 (Enter /gpfs/apps/hpc/Apps/Restricted/Gaussian/Rev_A.03/g16/l302.exe)
 NPDir=0 NMtPBC=     1 NCelOv=     1 NCel=       1 NClECP=     1 NCelD=      1
         NCelK=      1 NCelE2=     1 NClLst=     1 CellRange=     0.0.
 One-electron integrals computed using PRISM.
 NBasis=   670 RedAO= T EigKep=  2.74D-04  NBF=   670
 NBsUse=   670 1.00D-06 EigRej= -1.00D+00 NBFU=   670
 Precomputing XC quadrature grid using
 IXCGrd= 4 IRadAn=           5 IRanWt=          -1 IRanGd=           0 AccXCQ= 0.00D+00.
 Generated NRdTot=       0 NPtTot=           0 NUsed=           0 NTot=          32
 NSgBfM=   618   618   618   618   618 MxSgAt=    64 MxSgA2=    64.
 Leave Link  302 at Wed Dec 12 13:40:13 2018, MaxMem=  1342177280 cpu:              14.5 elap:               1.0
 (Enter /gpfs/apps/hpc/Apps/Restricted/Gaussian/Rev_A.03/g16/l303.exe)
 DipDrv:  MaxL=1.
 Leave Link  303 at Wed Dec 12 13:40:14 2018, MaxMem=  1342177280 cpu:               3.3 elap:               0.4
 (Enter /gpfs/apps/hpc/Apps/Restricted/Gaussian/Rev_A.03/g16/l401.exe)
 Initial guess from the checkpoint file:  "cyclohexyl-diBIP-neutral.chk"
 B after Tr=     0.000000    0.000000    0.000000
         Rot=    1.000000    0.000000    0.000000    0.000000 Ang=   0.00 deg.
 Guess basis will be translated and rotated to current coordinates.
 JPrj=2 DoOrth=T DoCkMO=T.
 Leave Link  401 at Wed Dec 12 13:40:16 2018, MaxMem=  1342177280 cpu:              25.1 elap:               1.7
 (Enter /gpfs/apps/hpc/Apps/Restricted/Gaussian/Rev_A.03/g16/l502.exe)
 Two-electron integral symmetry not used.
 Closed shell SCF:
 Using DIIS extrapolation, IDIIS=  1040.
 NGot=  1342177280 LenX=  1341263254 LenY=  1340813684
 Requested convergence on RMS density matrix=1.00D-08 within 128 cycles.
 Requested convergence on MAX density matrix=1.00D-06.
 Requested convergence on             energy=1.00D-06.
 No special actions if energy rises.
 Fock matrices will be formed incrementally for  20 cycles.

 Cycle   1  Pass 1  IDiag  1:
 FoFJK:  IHMeth= 1 ICntrl=       0 DoSepK=F KAlg= 0 I1Cent=           0 FoldK=F
 IRaf= 680000000 NMat=       1 IRICut=       1 DoRegI=T DoRafI=F ISym2E= 0 IDoP0=0 IntGTp=1.
 FoFCou: FMM=T IPFlag=           0 FMFlag=      100000 FMFlg1=        2001
         NFxFlg=           0 DoJE=F BraDBF=F KetDBF=F FulRan=T
         wScrn=  0.000000 ICntrl=         0 IOpCl=  0 I1Cent=           0 NGrid=           0
         NMat0=    1 NMatS0=      1 NMatT0=    0 NMatD0=    1 NMtDS0=    0 NMtDT0=    0
 Symmetry not used in FoFCou.
 FMM levels:  10  Number of levels for PrismC:   9
 Inv3:  Mode=1 IEnd=    57185868.
 Iteration    1 A*A^-1 deviation from unit magnitude is 1.33D-14 for    264.
 Iteration    1 A*A^-1 deviation from orthogonality  is 4.24D-15 for   4353   4256.
 Iteration    1 A^-1*A deviation from unit magnitude is 1.27D-14 for    264.
 Iteration    1 A^-1*A deviation from orthogonality  is 2.49D-15 for   4277   3257.
 E= -1471.81772782066    
 DIIS: error= 8.61D-08 at cycle   1 NSaved=   1.
 NSaved= 1 IEnMin= 1 EnMin= -1471.81772782066     IErMin= 1 ErrMin= 8.61D-08
 ErrMax= 8.61D-08  0.00D+00 EMaxC= 1.00D-01 BMatC= 1.00D-11 BMatP= 1.00D-11
 IDIUse=1 WtCom= 1.00D+00 WtEn= 0.00D+00
 Coeff-Com:  0.100D+01
 Coeff:      0.100D+01
 Gap=     0.140 Goal=   None    Shift=    0.000
 RMSDP=1.56D-08 MaxDP=1.64D-06              OVMax= 2.15D-06

 Cycle   2  Pass 1  IDiag  1:
 RMSU=  1.56D-08    CP:  1.00D+00
 E= -1471.81772782062     Delta-E=        0.000000000045 Rises=F Damp=F
 DIIS: error= 1.65D-07 at cycle   2 NSaved=   2.
 NSaved= 2 IEnMin= 1 EnMin= -1471.81772782066     IErMin= 1 ErrMin= 8.61D-08
 ErrMax= 1.65D-07  0.00D+00 EMaxC= 1.00D-01 BMatC= 2.44D-11 BMatP= 1.00D-11
 IDIUse=1 WtCom= 1.00D+00 WtEn= 0.00D+00
 Coeff-Com:  0.620D+00 0.380D+00
 Coeff:      0.620D+00 0.380D+00
 Gap=     0.140 Goal=   None    Shift=    0.000
 RMSDP=8.23D-09 MaxDP=1.29D-06 DE= 4.55D-11 OVMax= 1.45D-06

 Cycle   3  Pass 1  IDiag  1:
 RMSU=  5.58D-09    CP:  1.00D+00  6.11D-01
 E= -1471.81772782074     Delta-E=       -0.000000000120 Rises=F Damp=F
 DIIS: error= 2.83D-08 at cycle   3 NSaved=   3.
 NSaved= 3 IEnMin= 3 EnMin= -1471.81772782074     IErMin= 3 ErrMin= 2.83D-08
 ErrMax= 2.83D-08  0.00D+00 EMaxC= 1.00D-01 BMatC= 5.22D-13 BMatP= 1.00D-11
 IDIUse=1 WtCom= 1.00D+00 WtEn= 0.00D+00
 Coeff-Com:  0.758D-01 0.134D+00 0.790D+00
 Coeff:      0.758D-01 0.134D+00 0.790D+00
 Gap=     0.140 Goal=   None    Shift=    0.000
 RMSDP=1.66D-09 MaxDP=2.41D-07 DE=-1.20D-10 OVMax= 2.62D-07

 Error on total polarization charges =  0.04672
 SCF Done:  E(RB3LYP) =  -1471.81772782     A.U. after    3 cycles
            NFock=  3  Conv=0.17D-08     -V/T= 2.0095
 KE= 1.457897268774D+03 PE=-1.006744169354D+04 EE= 3.811583130110D+03
 Leave Link  502 at Wed Dec 12 13:40:47 2018, MaxMem=  1342177280 cpu:             443.9 elap:              31.5
 (Enter /gpfs/apps/hpc/Apps/Restricted/Gaussian/Rev_A.03/g16/l601.exe)
 Copying SCF densities to generalized density rwf, IOpCl= 0 IROHF=0.

 **********************************************************************

            Population analysis using the SCF density.

 **********************************************************************

 Alpha  occ. eigenvalues --  -19.15954 -14.38647 -14.38643 -14.33333 -14.32861
 Alpha  occ. eigenvalues --  -14.32814 -10.27056 -10.26859 -10.24810 -10.23274
 Alpha  occ. eigenvalues --  -10.23225 -10.22904 -10.22037 -10.21654 -10.21469
 Alpha  occ. eigenvalues --  -10.20719 -10.20412 -10.20276 -10.19914 -10.19659
 Alpha  occ. eigenvalues --  -10.19657 -10.19652 -10.19265 -10.19098 -10.19051
 Alpha  occ. eigenvalues --  -10.19010 -10.18949 -10.18525 -10.17553 -10.17541
 Alpha  occ. eigenvalues --  -10.17530 -10.17463 -10.17424 -10.17415 -10.17251
 Alpha  occ. eigenvalues --   -1.04828  -1.02542  -1.02020  -0.92441  -0.88921
 Alpha  occ. eigenvalues --   -0.87964  -0.86545  -0.85537  -0.84731  -0.81839
 Alpha  occ. eigenvalues --   -0.78735  -0.77628  -0.77233  -0.76373  -0.73662
 Alpha  occ. eigenvalues --   -0.73261  -0.72901  -0.72393  -0.68668  -0.67362
 Alpha  occ. eigenvalues --   -0.66037  -0.65207  -0.63834  -0.62335  -0.61494
 Alpha  occ. eigenvalues --   -0.60959  -0.60545  -0.59843  -0.58488  -0.57564
 Alpha  occ. eigenvalues --   -0.56744  -0.55296  -0.54046  -0.52889  -0.51485
 Alpha  occ. eigenvalues --   -0.50989  -0.50218  -0.48861  -0.48016  -0.47785
 Alpha  occ. eigenvalues --   -0.46492  -0.46232  -0.46125  -0.44890  -0.44528
 Alpha  occ. eigenvalues --   -0.44314  -0.44043  -0.43707  -0.43341  -0.43035
 Alpha  occ. eigenvalues --   -0.42505  -0.42297  -0.41266  -0.40753  -0.40454
 Alpha  occ. eigenvalues --   -0.39847  -0.39716  -0.39556  -0.38503  -0.38270
 Alpha  occ. eigenvalues --   -0.37715  -0.37319  -0.37229  -0.36878  -0.36647
 Alpha  occ. eigenvalues --   -0.36474  -0.36298  -0.34861  -0.34778  -0.34026
 Alpha  occ. eigenvalues --   -0.33832  -0.33482  -0.32955  -0.32060  -0.31947
 Alpha  occ. eigenvalues --   -0.31623  -0.31466  -0.30429  -0.29420  -0.28672
 Alpha  occ. eigenvalues --   -0.28227  -0.26855  -0.25734  -0.25144  -0.22786
 Alpha  occ. eigenvalues --   -0.22466  -0.21444  -0.20542
 Alpha virt. eigenvalues --   -0.06501  -0.04336  -0.01514   0.01003   0.01416
 Alpha virt. eigenvalues --    0.01947   0.04440   0.06680   0.08385   0.08916
 Alpha virt. eigenvalues --    0.09393   0.09857   0.10492   0.11389   0.12073
 Alpha virt. eigenvalues --    0.12634   0.12807   0.13651   0.13750   0.13974
 Alpha virt. eigenvalues --    0.15355   0.15595   0.16235   0.16246   0.16770
 Alpha virt. eigenvalues --    0.17051   0.17287   0.17736   0.17975   0.18131
 Alpha virt. eigenvalues --    0.18335   0.18412   0.18691   0.18931   0.18995
 Alpha virt. eigenvalues --    0.19416   0.19473   0.19802   0.20477   0.20866
 Alpha virt. eigenvalues --    0.21241   0.21675   0.21816   0.22792   0.22965
 Alpha virt. eigenvalues --    0.23777   0.24217   0.24776   0.25036   0.25436
 Alpha virt. eigenvalues --    0.25739   0.26800   0.27231   0.27478   0.28168
 Alpha virt. eigenvalues --    0.28800   0.29312   0.29886   0.30274   0.31050
 Alpha virt. eigenvalues --    0.32188   0.33153   0.34047   0.34565   0.35195
 Alpha virt. eigenvalues --    0.35960   0.36555   0.38994   0.39632   0.40802
 Alpha virt. eigenvalues --    0.41639   0.41977   0.43700   0.44942   0.45756
 Alpha virt. eigenvalues --    0.47333   0.48707   0.49028   0.49765   0.50116
 Alpha virt. eigenvalues --    0.50722   0.50890   0.51179   0.51815   0.52137
 Alpha virt. eigenvalues --    0.52590   0.53652   0.53658   0.53922   0.54029
 Alpha virt. eigenvalues --    0.54113   0.54758   0.54866   0.55149   0.55227
 Alpha virt. eigenvalues --    0.55538   0.55953   0.56152   0.56793   0.57103
 Alpha virt. eigenvalues --    0.57720   0.57966   0.58326   0.58499   0.59023
 Alpha virt. eigenvalues --    0.59185   0.59472   0.59792   0.60664   0.60943
 Alpha virt. eigenvalues --    0.61052   0.61322   0.61441   0.62074   0.62499
 Alpha virt. eigenvalues --    0.62831   0.63094   0.63436   0.63484   0.64255
 Alpha virt. eigenvalues --    0.64469   0.64822   0.66091   0.66492   0.66763
 Alpha virt. eigenvalues --    0.66979   0.67460   0.68237   0.69225   0.69543
 Alpha virt. eigenvalues --    0.70217   0.70844   0.71230   0.72319   0.73774
 Alpha virt. eigenvalues --    0.73951   0.74087   0.74302   0.76063   0.76321
 Alpha virt. eigenvalues --    0.76930   0.77220   0.78063   0.78714   0.79449
 Alpha virt. eigenvalues --    0.79666   0.79800   0.80098   0.80694   0.81474
 Alpha virt. eigenvalues --    0.81549   0.81943   0.82412   0.82759   0.83278
 Alpha virt. eigenvalues --    0.83546   0.83915   0.84097   0.84761   0.85722
 Alpha virt. eigenvalues --    0.85782   0.86385   0.86452   0.87038   0.87322
 Alpha virt. eigenvalues --    0.87813   0.88137   0.88308   0.88606   0.89108
 Alpha virt. eigenvalues --    0.89764   0.90043   0.90236   0.90325   0.91073
 Alpha virt. eigenvalues --    0.91693   0.91937   0.92279   0.92951   0.92973
 Alpha virt. eigenvalues --    0.93588   0.94789   0.95087   0.95544   0.95973
 Alpha virt. eigenvalues --    0.96114   0.97030   0.97618   0.98220   0.99570
 Alpha virt. eigenvalues --    1.00371   1.00563   1.01090   1.01205   1.03045
 Alpha virt. eigenvalues --    1.04769   1.05573   1.07004   1.07982   1.08934
 Alpha virt. eigenvalues --    1.09367   1.10664   1.11028   1.12253   1.12542
 Alpha virt. eigenvalues --    1.13233   1.14480   1.15591   1.15882   1.17672
 Alpha virt. eigenvalues --    1.18024   1.19578   1.19887   1.20922   1.22087
 Alpha virt. eigenvalues --    1.22629   1.23796   1.24170   1.25287   1.25944
 Alpha virt. eigenvalues --    1.26367   1.26901   1.27409   1.27705   1.27912
 Alpha virt. eigenvalues --    1.29129   1.29508   1.29982   1.30636   1.31148
 Alpha virt. eigenvalues --    1.31409   1.31934   1.32043   1.35421   1.35508
 Alpha virt. eigenvalues --    1.35843   1.36604   1.37392   1.37717   1.38005
 Alpha virt. eigenvalues --    1.38926   1.39764   1.40526   1.40639   1.41195
 Alpha virt. eigenvalues --    1.41736   1.41897   1.42226   1.42701   1.43561
 Alpha virt. eigenvalues --    1.44550   1.45688   1.45960   1.47511   1.48387
 Alpha virt. eigenvalues --    1.50122   1.51688   1.51930   1.52392   1.53433
 Alpha virt. eigenvalues --    1.53902   1.58618   1.58748   1.60355   1.61393
 Alpha virt. eigenvalues --    1.61763   1.62114   1.63147   1.64013   1.66277
 Alpha virt. eigenvalues --    1.69615   1.70191   1.71786   1.72080   1.72560
 Alpha virt. eigenvalues --    1.73288   1.73458   1.73737   1.74068   1.74975
 Alpha virt. eigenvalues --    1.75999   1.76450   1.76966   1.77313   1.78164
 Alpha virt. eigenvalues --    1.78606   1.79990   1.81165   1.81603   1.81942
 Alpha virt. eigenvalues --    1.82592   1.82755   1.83768   1.84905   1.85191
 Alpha virt. eigenvalues --    1.85679   1.85934   1.86357   1.86561   1.87829
 Alpha virt. eigenvalues --    1.88154   1.88177   1.88722   1.90835   1.91339
 Alpha virt. eigenvalues --    1.91887   1.92290   1.92763   1.93144   1.93728
 Alpha virt. eigenvalues --    1.93994   1.95328   1.95794   1.95856   1.96179
 Alpha virt. eigenvalues --    1.96653   1.97419   1.97986   1.98792   1.99009
 Alpha virt. eigenvalues --    2.00055   2.00983   2.01632   2.01951   2.02016
 Alpha virt. eigenvalues --    2.02598   2.04451   2.05198   2.05243   2.05364
 Alpha virt. eigenvalues --    2.05849   2.07944   2.08350   2.09972   2.10241
 Alpha virt. eigenvalues --    2.11088   2.11196   2.11337   2.12405   2.12966
 Alpha virt. eigenvalues --    2.14035   2.15068   2.15271   2.15637   2.16113
 Alpha virt. eigenvalues --    2.16445   2.16563   2.18422   2.18702   2.19449
 Alpha virt. eigenvalues --    2.20446   2.20545   2.21327   2.21574   2.21792
 Alpha virt. eigenvalues --    2.23028   2.23440   2.24338   2.25119   2.25823
 Alpha virt. eigenvalues --    2.26337   2.26554   2.26623   2.27194   2.28398
 Alpha virt. eigenvalues --    2.29760   2.29983   2.30230   2.30635   2.31385
 Alpha virt. eigenvalues --    2.31867   2.32827   2.34545   2.34994   2.35320
 Alpha virt. eigenvalues --    2.35599   2.36250   2.37370   2.37477   2.37998
 Alpha virt. eigenvalues --    2.38553   2.39764   2.39884   2.39977   2.40389
 Alpha virt. eigenvalues --    2.41937   2.42915   2.43044   2.43177   2.43931
 Alpha virt. eigenvalues --    2.44800   2.45457   2.46377   2.47977   2.48428
 Alpha virt. eigenvalues --    2.48765   2.50165   2.51133   2.51531   2.52122
 Alpha virt. eigenvalues --    2.52372   2.54035   2.54305   2.54524   2.54935
 Alpha virt. eigenvalues --    2.55815   2.55845   2.56246   2.56663   2.57035
 Alpha virt. eigenvalues --    2.58130   2.59331   2.59836   2.60144   2.60337
 Alpha virt. eigenvalues --    2.61431   2.61898   2.62020   2.63033   2.63680
 Alpha virt. eigenvalues --    2.64883   2.66026   2.66470   2.67654   2.68081
 Alpha virt. eigenvalues --    2.68841   2.69622   2.70461   2.70826   2.72139
 Alpha virt. eigenvalues --    2.72547   2.73032   2.73602   2.74102   2.74243
 Alpha virt. eigenvalues --    2.74943   2.75145   2.75943   2.76204   2.76982
 Alpha virt. eigenvalues --    2.77435   2.77887   2.79660   2.80738   2.81980
 Alpha virt. eigenvalues --    2.82514   2.83032   2.83699   2.84250   2.85257
 Alpha virt. eigenvalues --    2.87140   2.87200   2.87447   2.87855   2.88076
 Alpha virt. eigenvalues --    2.88811   2.90110   2.90724   2.91698   2.91999
 Alpha virt. eigenvalues --    2.93553   2.94147   2.95271   2.95809   2.97981
 Alpha virt. eigenvalues --    2.99785   3.00761   3.03224   3.03363   3.06971
 Alpha virt. eigenvalues --    3.07168   3.10436   3.13995   3.14835   3.15634
 Alpha virt. eigenvalues --    3.17656   3.18721   3.19645   3.21476   3.21779
 Alpha virt. eigenvalues --    3.23138   3.24652   3.24956   3.28347   3.30517
 Alpha virt. eigenvalues --    3.30780   3.31525   3.32273   3.34140   3.35844
 Alpha virt. eigenvalues --    3.37542   3.40020   3.40715   3.42859   3.43360
 Alpha virt. eigenvalues --    3.43829   3.44215   3.45468   3.46178   3.46945
 Alpha virt. eigenvalues --    3.47936   3.49785   3.52039   3.53332   3.54252
 Alpha virt. eigenvalues --    3.56655   3.61023   3.62686   3.63103   3.73958
 Alpha virt. eigenvalues --    3.80843   3.82276   4.06755   4.07571   4.09053
 Alpha virt. eigenvalues --    4.11650   4.12874   4.13928   4.14398   4.15230
 Alpha virt. eigenvalues --    4.15804   4.16509   4.26051   4.28568   4.30796
 Alpha virt. eigenvalues --    4.31830   4.35034   4.37658   4.40742   4.41855
 Alpha virt. eigenvalues --    4.43665   4.47390   4.47932   4.48209   4.50886
 Alpha virt. eigenvalues --    4.57190   4.57689   4.59752   4.62391   4.64946
 Alpha virt. eigenvalues --    4.68825   4.74025   4.75258   4.79892   4.89151
 Alpha virt. eigenvalues --    4.90135   4.92316
          Condensed to atoms (all electrons):
 Mulliken charges:
               1
     1  C    0.257457
     2  C    0.249099
     3  C   -0.136337
     4  C   -0.120452
     5  C   -0.178080
     6  C    0.094942
     7  C    0.518373
     8  H    0.114915
     9  H    0.109605
    10  H    0.112900
    11  C    0.243729
    12  C    0.258227
    13  C   -0.129262
    14  C   -0.124647
    15  C   -0.172819
    16  C    0.117176
    17  C    0.550552
    18  H    0.117822
    19  H    0.112067
    20  H    0.116367
    21  N   -0.672631
    22  C    0.232241
    23  C    0.079085
    24  C   -0.194646
    25  C    0.103964
    26  C   -0.183210
    27  C    0.091468
    28  H    0.104881
    29  H    0.095718
    30  C   -0.386248
    31  H    0.126230
    32  H    0.128915
    33  H    0.119579
    34  C   -0.376179
    35  H    0.127295
    36  H    0.128987
    37  H    0.116535
    38  O   -0.614123
    39  H    0.352068
    40  N   -0.677655
    41  N   -0.722600
    42  H    0.305323
    43  N   -0.665062
    44  H    0.298283
    45  C    0.146087
    46  H    0.108376
    47  N   -0.491083
    48  C    0.059673
    49  C   -0.178882
    50  C   -0.180222
    51  H    0.089671
    52  C   -0.186465
    53  H    0.100517
    54  H    0.098344
    55  C   -0.186710
    56  H    0.100944
    57  H    0.098518
    58  C   -0.179060
    59  H    0.094932
    60  H    0.096995
    61  H    0.094852
    62  H    0.096887
    63  H    0.092323
    64  H    0.094451
 Sum of Mulliken charges =  -0.00000
 Mulliken charges with hydrogens summed into heavy atoms:
               1
     1  C    0.257457
     2  C    0.249099
     3  C   -0.021423
     4  C   -0.010847
     5  C   -0.065179
     6  C    0.094942
     7  C    0.518373
    11  C    0.243729
    12  C    0.258227
    13  C   -0.011439
    14  C   -0.012580
    15  C   -0.056452
    16  C    0.117176
    17  C    0.550552
    21  N   -0.672631
    22  C    0.232241
    23  C    0.079085
    24  C   -0.089765
    25  C    0.103964
    26  C   -0.087492
    27  C    0.091468
    30  C   -0.011523
    34  C   -0.003363
    38  O   -0.262055
    40  N   -0.372332
    41  N   -0.722600
    43  N   -0.366779
    45  C    0.254463
    47  N   -0.491083
    48  C    0.149344
    49  C    0.019979
    50  C    0.019240
    52  C    0.005462
    55  C    0.005030
    58  C    0.007714
 Electronic spatial extent (au):  <R**2>=          28215.2130
 Charge=             -0.0000 electrons
 Dipole moment (field-independent basis, Debye):
    X=              7.8948    Y=              2.7347    Z=             -0.1966  Tot=              8.3573
 Quadrupole moment (field-independent basis, Debye-Ang):
   XX=           -196.2941   YY=           -185.6059   ZZ=           -209.2645
   XY=            -20.5017   XZ=              1.2800   YZ=             -2.1475
 Traceless Quadrupole moment (field-independent basis, Debye-Ang):
   XX=              0.7607   YY=             11.4490   ZZ=            -12.2097
   XY=            -20.5017   XZ=              1.2800   YZ=             -2.1475
 Octapole moment (field-independent basis, Debye-Ang**2):
  XXX=            643.5620  YYY=             82.2398  ZZZ=            -53.2712  XYY=            151.8141
  XXY=            187.6246  XXZ=            -30.8462  XZZ=            145.8070  YZZ=             18.1000
  YYZ=            -13.3312  XYZ=              1.6348
 Hexadecapole moment (field-independent basis, Debye-Ang**3):
 XXXX=         -31804.9567 YYYY=          -4622.1599 ZZZZ=           -604.3320 XXXY=           -833.6935
 XXXZ=            -76.7750 YYYX=            215.9017 YYYZ=             86.1686 ZZZX=           -220.2203
 ZZZY=            151.4104 XXYY=          -6205.8774 XXZZ=          -5692.9778 YYZZ=          -1009.4049
 XXYZ=              2.6151 YYXZ=            -74.8424 ZZXY=             78.5731
 N-N= 3.326143566834D+03 E-N=-1.006744169984D+04  KE= 1.457897268774D+03
 No NMR shielding tensors so no spin-rotation constants.
 Leave Link  601 at Wed Dec 12 13:40:48 2018, MaxMem=  1342177280 cpu:               3.3 elap:               0.3
 (Enter /gpfs/apps/hpc/Apps/Restricted/Gaussian/Rev_A.03/g16/l701.exe)
 ... and contract with generalized density number  0.
 Compute integral first derivatives.
 R6Disp: Adding Grimme-D3(BJ) dispersion energy 1st derivatives to the gradient.
 D1PCM: C-PCM CHGder 1st derivatives, ID1Alg=3 FixD1E=F DoIter=F DoCFld=F I1PDM=0.
 GePol: Maximum number of non-zero 1st derivatives   =     221
 Leave Link  701 at Wed Dec 12 13:40:50 2018, MaxMem=  1342177280 cpu:              35.0 elap:               2.2
 (Enter /gpfs/apps/hpc/Apps/Restricted/Gaussian/Rev_A.03/g16/l702.exe)
 L702 exits ... SP integral derivatives will be done elsewhere.
 Leave Link  702 at Wed Dec 12 13:40:51 2018, MaxMem=  1342177280 cpu:               1.1 elap:               0.1
 (Enter /gpfs/apps/hpc/Apps/Restricted/Gaussian/Rev_A.03/g16/l703.exe)
 Integral derivatives from FoFJK, PRISM(SPDF).
 Compute integral first derivatives, UseDBF=F ICtDFT=           0.
 Calling FoFJK, ICntrl=      2127 FMM=T ISym2X=0 I1Cent= 0 IOpClX= 0 NMat=1 NMatS=1 NMatT=0.
 FoFJK:  IHMeth= 1 ICntrl=    2127 DoSepK=F KAlg= 0 I1Cent=           0 FoldK=F
 IRaf=         0 NMat=       1 IRICut=       1 DoRegI=T DoRafI=F ISym2E= 0 IDoP0=0 IntGTp=1.
 FoFCou: FMM=T IPFlag=           0 FMFlag=      100000 FMFlg1=        2001
         NFxFlg=           0 DoJE=F BraDBF=F KetDBF=F FulRan=T
         wScrn=  0.000000 ICntrl=      2127 IOpCl=  0 I1Cent=           0 NGrid=           0
         NMat0=    1 NMatS0=      1 NMatT0=    0 NMatD0=    1 NMtDS0=    0 NMtDT0=    0
 Symmetry not used in FoFCou.
 FMM levels:  10  Number of levels for PrismC:   9
 Leave Link  703 at Wed Dec 12 13:41:06 2018, MaxMem=  1342177280 cpu:             236.8 elap:              15.0
 (Enter /gpfs/apps/hpc/Apps/Restricted/Gaussian/Rev_A.03/g16/l716.exe)
 Dipole        = 3.10604518D+00 1.07591633D+00-7.73418330D-02
 -------------------------------------------------------------------
 Center     Atomic                   Forces (Hartrees/Bohr)
 Number     Number              X              Y              Z
 -------------------------------------------------------------------
      1        6          -0.000000231    0.000002565   -0.000009695
      2        6          -0.000002022    0.000001176   -0.000014574
      3        6          -0.000001832    0.000000930   -0.000024942
      4        6          -0.000004290    0.000000922   -0.000029921
      5        6          -0.000002915    0.000001950   -0.000024827
      6        6          -0.000001422    0.000002135   -0.000014372
      7        6           0.000000477    0.000002034    0.000001624
      8        1          -0.000003378   -0.000000292   -0.000029098
      9        1          -0.000004190    0.000000384   -0.000038248
     10        1          -0.000002951    0.000002354   -0.000029111
     11        6           0.000000976    0.000000127    0.000010627
     12        6           0.000001439   -0.000000235    0.000019761
     13        6           0.000003503    0.000000675    0.000029475
     14        6           0.000003327    0.000003046    0.000029131
     15        6           0.000001556    0.000002729    0.000020465
     16        6           0.000002146    0.000002195    0.000010832
     17        6           0.000000069   -0.000002542    0.000007125
     18        1           0.000004252    0.000001194    0.000035985
     19        1           0.000004215    0.000004051    0.000036393
     20        1           0.000003064    0.000004729    0.000020895
     21        7          -0.000000715    0.000000653   -0.000007540
     22        6           0.000000317   -0.000006639    0.000006796
     23        6           0.000000694   -0.000004999    0.000001653
     24        6          -0.000001656   -0.000005312   -0.000009215
     25        6          -0.000001037   -0.000006991   -0.000014477
     26        6          -0.000002053   -0.000008823   -0.000009277
     27        6           0.000000354   -0.000009931    0.000001376
[...]
 00000462,-0.00000366,0.00000020,0.00003880,0.00000373,0.00003597,0.000
 04232,0.00000665,-0.00002996,-0.00000571,0.00000284,0.00000241,-0.0000
 0122,0.00000043,0.00000209,-0.00000452,-0.00000026,-0.00000365,0.00000
 664,-0.00000004,-0.00000358,0.00000879,-0.00000092,-0.00000031,-0.0000
 0226,0.00000016,-0.00000092,0.00000598,-0.00000063,0.00000476,0.000000
 12,0.00000011,0.00000489,-0.00000298,-0.00000025,-0.00000013,-0.000000
 85,-0.00000014,-0.00000704,-0.00000506,0.00000003,0.00000057,0.0000003
 5,0.00000008,0.00000018,0.00000247,0.00000005,-0.00000169,-0.00000351,
 0.00000087,0.00002247,0.00000216,-0.00000055,-0.00000007,-0.00000326,0
 .00000012,0.00000135,-0.00000002,0.00000010,-0.00000069,0.00000031,-0.
 00000021,0.00000075,-0.00000019,0.00000012,-0.00000025,-0.00000052,-0.
 00000006,-0.00000077,0.00000061,-0.00000010,0.00000013,0.00000011,0.00
 000012,0.00000005,-0.00000008,0.00000003,-0.00000004,-0.00000010,-0.00
 000002,-0.00000010,0.00000012,0.00000026,-0.00000009,0.00000017,-0.000
 00028,0.00000016,0.00000003,0.00000002,-0.00000011,-0.00000005,-0.0000
 0001,0.00000014,0.00000008,0.00000015,0.00000022,0.00000010,-0.0000001
 3,0.00000008,0.,0.00000002,0.00000086,0.00000312,-0.00000010,-0.000000
 93,-0.00000080,0.00000003,0.00000905,0.00000129,0.00000036,0.00000159,
 0.00000536,-0.00000043,-0.00000613,-0.00000264,0.00000002,0.00004706,0
 .00003493,-0.00000461,-0.00003206,-0.00001893,0.00000290,-0.00020026,0
 .00008615,0.00009679,0.00004762,0.00009935,-0.00004920,0.00031337,0.00
 022517,-0.00014084,-0.00124637,0.00005152,-0.00057297,0.00006553,0.000
 16911,0.00003242,-0.00140482,-0.01632362,0.00179881,0.00027345,0.00016
 151,0.00048900,0.00017459,0.00046699,-0.00059919,-0.00009591,-0.000040
 51,-0.00010459,0.00003663,-0.00004982,0.00010183,-0.03679585,-0.291042
 18,0.03327121,0.00344688,-0.00055971,-0.00005569,0.00013185,0.00087199
 ,-0.00058759,-0.00132993,-0.00513356,0.00086806,0.00005416,0.00026739,
 0.00014410,0.00026712,0.00028992,0.00023245,-0.00167147,-0.01015323,0.
 00104398,0.03873736,0.31902985,-0.00000152,-0.00001796,0.00000049,-0.0
 0000315,0.00000155,0.00000226,0.00000120,-0.00000914,0.00000042,0.0000
 1013,0.00000085,-0.00000050,0.00000477,0.00001289,0.00000253,0.0000162
 6,-0.00001064,-0.00002479,-0.00001152,0.00000114,0.00000117,0.00000071
 ,-0.00000038,-0.00000004,0.00000091,-0.00000188,-0.00000007,-0.0000015
 9,0.00000096,-0.00000073,-0.00000081,0.00000287,-0.00000020,-0.0000010
 6,-0.00000083,0.00000006,-0.00000077,0.00000145,-0.00000025,0.00000226
 ,0.00000047,-0.00000013,-0.00000005,-0.00000150,-0.00000032,0.00000027
 ,0.00000095,-0.00000003,-0.00000252,-0.00000030,-0.00000009,0.00000013
 ,0.00000014,0.00000009,-0.00000015,0.00000002,0.00000034,0.00000018,-0
 .00000045,0.00000100,0.00000575,-0.00000259,-0.00000042,-0.00000005,-0
 .00000080,0.00000006,0.00000064,-0.00000049,0.00000008,-0.00000009,0.0
 0000064,-0.00000010,0.00000081,0.00000014,0.00000008,-0.00000010,-0.00
 000062,-0.00000002,-0.00000036,0.00000019,-0.00000005,-0.00000006,0.00
 000013,0.00000004,0.00000010,-0.00000007,0.00000002,-0.00000002,0.0000
 0007,0.00000004,-0.00000005,-0.00000005,0.,-0.00000005,-0.00000005,-0.
 00000002,0.00000010,-0.00000005,0.,-0.00000007,-0.00000003,0.,0.000000
 03,0.00000004,0.,0.00000006,0.00000007,-0.00000002,0.00000009,-0.00000
 004,0.00000002,0.00000089,0.00000029,-0.00000002,-0.00000127,0.,-0.000
 00005,0.00000338,-0.00000050,0.00000009,0.00000173,0.,-0.00000003,-0.0
 0000158,-0.00000021,0.00000013,0.00001404,0.00001034,-0.00000189,-0.00
 000820,-0.00000223,0.00000072,-0.00009697,-0.00005564,0.00000460,0.000
 03755,0.00000527,0.00002789,-0.00002099,-0.00000493,-0.00006100,0.0001
 2545,0.00075680,0.00011024,0.00000704,-0.00014635,-0.00013923,-0.00009
 847,-0.00156597,-0.00053490,-0.00018020,-0.00001827,0.00005002,0.00016
 418,0.00106386,0.00164982,0.00003221,-0.00009753,0.00003620,-0.0000767
 8,0.00001858,-0.00000562,0.00246546,0.03259750,-0.05509717,0.00060564,
 -0.00011659,0.00106325,-0.00068418,-0.00052541,0.00076843,0.00510175,0
 .02957898,-0.00559573,0.00011097,-0.00034022,0.00024360,-0.00022317,-0
 .00084060,-0.00006121,-0.00298276,-0.02373944,0.00369242,-0.00674626,-
 0.03711398,0.05772522,0.00000330,0.00007812,-0.00000516,0.00001916,-0.
 00001049,0.00000052,-0.00000171,0.00004627,-0.00000313,-0.00005198,-0.
 00000309,0.00000216,-0.00001941,-0.00005952,0.00000556,-0.00003771,0.0
 0005998,-0.00000849,0.00005805,0.00000122,-0.00000114,-0.00000343,0.00
 000179,-0.00000009,-0.00000417,0.00000825,-0.00000033,0.00000628,-0.00
 000472,0.00000011,0.00000466,-0.00001460,0.00000127,0.00000417,0.00000
 411,0.00000007,0.00000363,-0.00000817,0.00000083,-0.00001028,-0.000001
 30,-0.00000046,-0.00000191,0.00000716,0.00000002,-0.00000030,-0.000003
 18,0.00000032,0.00001387,0.00000378,0.00000065,-0.00000086,-0.00000067
 ,-0.00000001,0.00000041,-0.00000120,0.00000004,-0.00000006,0.00000349,
 -0.00000076,-0.00002985,0.00000930,-0.00000022,0.00000023,0.00000528,-
 0.00000021,-0.00000328,0.00000205,-0.00000040,0.00000090,-0.00000278,0
 .00000039,-0.00000375,-0.00000049,-0.00000042,0.00000066,0.00000280,0.
 00000007,0.00000203,-0.00000115,0.00000027,0.00000006,-0.00000063,-0.0
 0000010,-0.00000046,0.00000034,-0.00000006,0.00000016,-0.00000025,-0.0
 0000006,0.00000026,0.00000005,-0.00000020,0.00000032,0.00000011,0.0000
 0021,-0.00000055,0.00000020,-0.00000002,0.00000042,0.00000012,0.000000
 10,-0.00000023,-0.00000029,-0.00000017,-0.00000037,-0.00000033,0.00000
 015,-0.00000045,0.00000020,-0.00000009,-0.00000408,-0.00000322,-0.0000
 0034,0.00000564,0.00000051,0.00000063,-0.00001691,0.00000045,-0.000001
 02,-0.00000751,-0.00000294,-0.00000032,0.00000884,0.00000229,0.0000001
 3,-0.00006997,-0.00004297,0.00000433,0.00004576,0.00001455,-0.00000241
 ,0.00006643,-0.00017293,0.00002093,0.00000360,-0.00002768,0.00000731,-
 0.00006472,0.00016694,0.00001486,0.00090207,0.00006865,-0.00012471,-0.
 00056775,-0.00253746,-0.00365858,0.00023283,-0.00153505,0.00330115,-0.
 00007037,-0.00007300,0.00001931,-0.01622663,0.00981075,0.00077431,0.00
 012065,0.00015281,0.00003336,-0.00126086,0.00064456,0.00008238,-0.0125
 0567,0.00742465,-0.00023998,0.00007121,0.00014546,-0.00007557,-0.00099
 197,0.00054541,-0.00002271,-0.23822965,0.11446657,0.00378505,0.0006417
 0,0.00012384,-0.00004340,0.00064127,-0.00027913,0.00059086,0.00057000,
 -0.00001718,0.00012236,0.00032663,-0.00022057,-0.00039112,0.25993395,0
 .00000174,-0.00000095,0.,-0.00000050,0.00000042,0.,-0.00000042,-0.0000
 0092,0.00000007,0.00000199,0.00000159,0.00000020,-0.00000383,0.0000009
 4,0.00000032,0.00000531,0.00000433,-0.00000579,-0.00000473,-0.00000063
 ,0.00000026,0.00000047,-0.00000009,-0.00000005,-0.00000025,-0.00000015
 ,0.00000001,0.00000015,0.00000182,-0.00000019,-0.00000026,0.00000208,-
 0.00000017,-0.00000108,-0.00000074,-0.00000003,-0.00000086,0.00000109,
 -0.00000013,0.00000185,0.00000032,0.00000008,-0.00000032,-0.00000130,0
 .00000003,-0.00000044,0.00000074,-0.00000006,-0.00000287,-0.00000030,-
 0.00000019,0.00000013,0.00000015,0.,-0.00000024,-0.00000003,0.,0.00000
 011,-0.00000022,0.00000001,0.00000286,-0.00000007,0.,-0.00000005,-0.00
 000113,0.00000005,0.00000076,-0.00000063,0.00000010,-0.00000025,0.0000
 0076,-0.00000010,0.00000102,0.00000014,0.00000011,-0.00000021,-0.00000
 073,-0.00000002,-0.00000055,0.00000027,-0.00000007,0.,0.00000016,0.000
 00002,0.00000014,-0.00000010,0.00000002,-0.00000007,0.00000008,0.,-0.0
 0000007,-0.00000001,0.00000006,-0.00000010,-0.00000004,-0.00000005,0.0
 0000017,-0.00000006,0.,-0.00000014,-0.00000002,-0.00000003,0.00000005,
 0.00000009,0.00000004,0.00000009,0.00000010,-0.00000004,0.00000014,-0.
 00000008,0.00000003,0.00000109,0.00000060,0.00000011,-0.00000149,-0.00
 000004,-0.00000018,0.00000288,0.,0.00000019,0.00000179,0.00000003,0.00
 000015,-0.00000132,-0.00000032,-0.00000005,0.00000285,-0.00000041,0.00
 000009,-0.00000297,0.00000017,-0.00000047,-0.00000961,-0.00001372,0.00
 001196,-0.00001305,0.00000559,0.00000181,0.00002040,0.00003033,0.00002
 719,0.00013681,-0.00014345,-0.00007457,-0.00093841,0.00008424,-0.00140
 358,-0.00043512,0.00072278,0.00054809,-0.00001565,-0.00002594,0.000014
 93,-0.01033504,0.00497400,0.00029037,-0.00024618,0.00032511,-0.0000396
 8,-0.00033074,0.00035525,-0.00015444,-0.00598152,0.00205349,0.00061316
 ,-0.00029533,0.00034519,0.00002089,0.00002967,0.00026681,0.00011873,0.
 11614118,-0.11809638,-0.00205774,0.00048581,0.00002577,0.00047296,0.00
 022793,0.00093709,0.00060359,0.00020118,0.00000699,-0.00030656,0.00017
 215,0.00046900,-0.00062711,-0.12540578,0.12329517,-0.00000055,-0.00000
 447,0.00000005,-0.00000092,0.00000075,0.00000070,0.00000015,-0.0000024
 4,-0.00000008,0.00000286,0.00000013,0.00000395,0.00000187,0.00000352,0
 .00000290,0.00000051,-0.00000842,-0.00005712,-0.00000306,-0.00000025,0
 .00000174,0.00000018,-0.00000015,-0.00000049,0.00000031,-0.00000051,-0
 .00000005,-0.00000049,0.00000013,-0.00000159,-0.00000028,0.00000078,-0
 .00000024,-0.00000017,-0.00000022,-0.00000006,-0.00000015,0.00000048,0
 .00000007,0.00000052,0.00000011,0.00000044,0.00000001,-0.00000026,0.00
 000082,0.00000009,0.00000010,-0.00000024,-0.00000058,-0.00000024,-0.00
 000021,0.00000006,0.00000002,-0.00000012,0.,0.00000006,-0.00000028,-0.
 00000001,-0.00000034,-0.00000104,0.00000200,-0.00000053,0.00000045,0.,
 -0.00000028,-0.00000004,0.00000015,-0.00000006,0.00000004,-0.00000007,
 0.00000009,0.00000009,0.00000014,0.,0.00000004,-0.00000003,-0.00000011
 ,0.00000004,-0.00000008,0.00000006,0.,0.,0.00000002,-0.00000011,0.0000
 0002,-0.00000001,-0.00000002,0.,0.,-0.00000009,0.00000002,0.00000003,0
 .00000004,-0.00000003,-0.00000004,0.00000002,0.00000001,0.,0.,0.,-0.00
 000001,-0.00000003,0.00000002,0.00000004,0.00000002,0.,-0.00000001,0.0
 0000001,0.00000002,0.,0.,0.00000013,0.00000021,0.00000019,-0.00000019,
 -0.00000004,-0.00000020,0.00000084,-0.00000002,0.00000047,0.00000030,0
 .00000021,0.00000030,-0.00000045,-0.00000018,-0.00000058,0.00000551,0.
 00000249,0.00000092,-0.00000406,-0.00000184,-0.00000573,0.00000006,0.0
 0002079,0.00010129,-0.00000221,0.00000676,0.00001198,0.00003946,0.0000
 1933,0.00035368,-0.00015476,-0.00007713,-0.00088372,-0.00230520,-0.002
 89949,-0.00416273,0.00175449,0.00224276,-0.00559583,0.00001624,0.00001
 964,0.00012359,-0.02258397,0.01479609,0.00087977,0.00031798,-0.0000622
 4,-0.00002355,-0.00179860,0.00056587,0.00008354,0.02606618,-0.01630257
 ,-0.00039506,-0.00028976,-0.00001087,0.00002083,0.00198960,-0.00071214
 ,-0.00010205,0.00349425,-0.00193404,-0.04700044,0.00101495,0.00050234,
 0.00072085,0.00083312,-0.00017106,0.00097026,-0.00082495,-0.00030570,0
 .00102431,-0.00071145,0.00019367,0.00122287,-0.00398627,0.00253033,0.0
 5317139,0.00000305,-0.00000330,0.00000024,-0.00000084,0.00000078,-0.00
 000008,-0.00000106,-0.00000009,0.00000003,0.00000192,0.00000209,-0.000
 00018,-0.00000522,-0.00000036,0.00000013,0.00000680,0.00001598,-0.0000
 0331,-0.00000057,-0.00000221,0.00000020,0.00000038,0.00000003,-0.00000
 002,-0.00000051,0.00000038,0.00000003,0.00000047,0.00000212,-0.0000000
 2,-0.00000030,0.00000110,-0.00000012,0.00000001,-0.00000042,0.00000001
 ,-0.00000009,0.00000104,-0.00000007,0.00000089,-0.00000011,0.00000012,
 0.00000086,-0.00000042,0.00000009,-0.00000037,-0.00000032,0.00000001,-
 0.00000156,-0.00000115,0.,0.00000014,0.00000006,0.,0.00000007,0.000000
 47,-0.00000007,-0.00000009,-0.00000060,-0.00000005,0.00000175,0.000003
 08,-0.00000020,0.,-0.00000092,0.00000003,0.00000034,-0.00000003,0.0000
 0003,-0.00000025,0.00000007,-0.00000006,0.00000023,-0.00000006,0.00000
 004,-0.00000010,-0.00000014,-0.00000002,-0.00000026,0.00000018,-0.0000
 0003,0.00000008,0.00000003,0.00000004,0.00000002,-0.00000003,0.,-0.000
 00003,-0.00000005,0.,-0.00000003,0.00000005,0.00000010,-0.00000003,0.0
 0000007,-0.00000010,0.00000006,0.00000001,0.,-0.00000003,0.,-0.0000000
 2,0.00000004,0.00000003,0.00000005,0.00000006,0.00000003,-0.00000003,0
 .00000002,0.,0.,0.00000023,0.00000092,0.,-0.00000022,-0.00000022,-0.00
 000002,0.00000145,0.00000067,0.00000004,0.00000029,0.00000123,-0.00000
 005,-0.00000105,-0.00000065,0.,-0.00000005,0.00000043,-0.00000018,0.00
 000110,-0.00000103,0.00000002,-0.00004325,-0.00004619,0.00000837,-0.00
 001107,-0.00001045,0.00000026,-0.00003009,0.00004619,0.00000826,-0.000
 03848,0.00009716,-0.00003152,0.00085747,-0.00103808,0.00061940,0.00060
 291,-0.00106380,-0.00041493,0.00009151,0.00011752,-0.00002014,-0.00509
 836,-0.01897596,0.00133032,-0.00034686,0.00017555,-0.00009566,0.000207
 26,0.00021827,-0.00004430,-0.00414002,-0.01497578,0.00205621,-0.000113
 78,0.00038838,0.00010551,0.00016504,0.00019391,-0.00003006,-0.06127205
 ,-0.05159269,0.00607958,0.00055300,0.00055218,0.00031357,-0.00165145,-
 0.00139594,-0.00310253,0.00047486,0.00054594,-0.00033042,-0.00065526,-
 0.00066429,0.00282124,0.00649772,0.02658873,-0.00287377,0.06394329,0.0
 0000366,0.00002027,-0.00000143,0.00000361,-0.00000270,0.00000008,-0.00
 000217,0.00001413,-0.00000092,-0.00001401,0.00000152,0.00000036,-0.000
 01391,-0.00002044,0.00000187,-0.00000582,0.00003219,-0.00000438,0.0000
 2157,-0.00000279,-0.00000018,-0.00000094,0.00000066,-0.00000003,-0.000
 00222,0.00000385,-0.00000011,0.00000534,0.00000101,-0.00000007,0.00000
 108,-0.00000426,0.00000031,0.00000229,0.00000112,0.00000007,0.00000163
 ,-0.00000144,0.00000022,-0.00000289,-0.00000110,0.00000004,0.00000105,
 0.00000254,0.00000009,-0.00000051,-0.00000198,0.00000019,0.00000363,-0
 .00000120,0.00000037,0.,-0.00000020,-0.00000002,0.00000040,0.00000058,
 -0.00000013,-0.00000032,-0.00000015,-0.00000026,-0.00000939,0.00000932
 ,-0.00000046,0.00000013,0.00000034,-0.00000003,-0.00000095,0.00000116,
 -0.00000015,-0.00000007,-0.00000138,0.00000007,-0.00000157,-0.00000048
 ,-0.00000014,0.00000015,0.00000122,0.,0.00000045,-0.00000015,0.0000000
 6,0.00000021,-0.00000029,0.00000003,-0.00000024,0.00000012,-0.00000002
 ,0.00000003,-0.00000028,-0.00000005,0.00000009,0.00000016,0.00000014,0
 .00000012,0.00000024,-0.00000015,-0.00000020,0.00000015,0.,0.00000017,
 0.00000006,0.00000002,-0.00000001,-0.00000010,0.00000003,-0.00000004,-
 0.00000012,-0.00000002,-0.00000021,0.00000012,-0.00000004,-0.00000172,
 0.00000082,-0.00000021,0.00000261,-0.00000038,0.00000032,-0.00000481,0
 .00000171,-0.00000040,-0.00000331,0.00000178,-0.00000036,0.00000182,-0
 .00000040,0.00000010,-0.00002588,-0.00001028,0.00000097,0.00001966,0.0
 0000228,-0.00000039,-0.00003121,-0.00013383,0.00001593,-0.00019819,-0.
 00009232,0.00003329,-0.00012979,0.00010019,0.00001205,0.00013502,0.000
 20931,-0.00005222,0.00067738,0.00054982,0.00048719,0.00039660,0.000539
 47,-0.00049520,0.00008799,-0.00010736,-0.00000158,-0.00198042,-0.01012
 272,0.00027118,-0.00072232,0.00008399,0.00008876,-0.00006172,0.0002912
 1,-0.00012743,-0.00082946,-0.00535994,0.00104849,-0.00043789,0.0000371
 1,-0.00015045,-0.00010224,0.00027378,0.00007627,-0.05262611,-0.2865560
 9,0.02502637,0.00012424,0.00044218,-0.00029492,-0.00139755,0.00056897,
 -0.00198370,0.00012857,0.00050329,0.00039981,-0.00046074,0.00110036,0.
 00118668,-0.00337127,-0.01562422,0.00158886,0.06082059,0.31324955,-0.0
 0000068,-0.00000089,0.00000044,-0.00000009,0.00000014,0.,0.00000022,-0
 .00000088,-0.00000002,0.00000074,-0.00000028,0.00000093,0.00000142,0.0
 0000153,-0.00000016,-0.00000063,-0.00000494,-0.00001436,-0.00000165,0.
 00000024,0.00000036,0.00000003,-0.00000006,-0.00000007,0.00000022,-0.0
 0000030,0.00000024,-0.00000046,-0.00000020,0.00000094,-0.00000006,0.00
 000022,-0.00000009,-0.00000016,-0.00000006,-0.00000006,-0.00000011,0.0
 0000005,0.00000009,0.00000016,0.00000011,0.00000028,-0.00000023,-0.000
 00012,0.00000044,0.00000009,0.00000018,-0.00000003,-0.00000015,0.00000
 014,-0.00000010,0.,0.,-0.00000009,-0.00000004,-0.00000009,-0.00000026,
 0.00000003,0.,-0.00000056,0.00000066,-0.00000098,0.00000014,0.,0.,-0.0
 0000002,0.00000005,-0.00000008,0.00000001,0.00000001,0.00000009,0.0000
 0003,0.00000010,0.00000004,0.00000001,0.,-0.00000008,0.00000002,-0.000
 00002,0.,0.,-0.00000002,0.00000002,-0.00000003,0.00000002,0.,0.,0.,0.0
 0000002,0.,0.,0.,-0.00000001,-0.00000001,-0.00000003,0.00000002,0.,-0.
 00000001,0.,0.,0.,-0.00000002,0.,0.00000002,0.,0.,0.,0.00000001,0.0000
 0001,0.,0.,0.00000010,-0.00000008,0.00000011,-0.00000016,0.00000003,-0
 .00000012,0.00000026,-0.00000015,0.00000015,0.00000022,-0.00000019,0.0
 0000019,-0.00000006,0.00000005,-0.00000016,0.00000236,0.00000054,0.000
 00009,-0.00000201,-0.00000037,-0.00000098,0.00000708,0.00001710,0.0000
 2593,0.00001408,0.00000833,-0.00000481,0.00002418,0.00000016,0.0001253
 0,-0.00002941,-0.00005597,-0.00028190,0.00118464,-0.00028885,0.0008974
 2,-0.00121925,0.00053701,0.00116911,-0.00001845,-0.00000488,-0.0000520
 7,-0.00647404,-0.02662002,0.00085491,-0.00006034,0.00055934,0.00005514
 ,0.00030989,0.00015796,-0.00009611,0.00706999,0.03024915,-0.00541504,0
 .00020618,-0.00068426,0.00009625,-0.00033756,-0.00025241,-0.00002906,0
 .00614840,0.02490890,-0.04903240,0.00091704,0.00037025,0.00106119,-0.0
 0403931,-0.00173292,-0.00354701,-0.00083531,-0.00039896,0.00121291,0.0
 0372980,0.00094591,-0.00507961,-0.00020175,-0.00058468,-0.00046596,-0.
 00639599,-0.02712477,0.05851846\\0.00000031,-0.00000235,0.00000968,0.0
 0000207,-0.00000110,0.00001457,0.00000183,-0.00000099,0.00002495,0.000
 00437,-0.00000096,0.00002992,0.00000290,-0.00000209,0.00002484,0.00000
 149,-0.00000210,0.00001436,-0.00000050,-0.00000222,-0.00000161,0.00000
 337,0.00000030,0.00002910,0.00000418,-0.00000038,0.00003825,0.00000291
 ,-0.00000237,0.00002911,-0.00000102,-0.00000014,-0.00001062,-0.0000014
 8,0.00000023,-0.00001976,-0.00000352,-0.00000063,-0.00002948,-0.000003
 30,-0.00000301,-0.00002913,-0.00000156,-0.00000272,-0.00002047,-0.0000
 0213,-0.00000227,-0.00001083,-0.00000007,0.00000253,-0.00000713,-0.000
 00425,-0.00000120,-0.00003598,-0.00000421,-0.00000406,-0.00003639,-0.0
 0000308,-0.00000473,-0.00002090,0.00000067,-0.00000052,0.00000754,-0.0
 0000029,0.00000657,-0.00000679,-0.00000072,0.00000501,-0.00000166,0.00
 000169,0.00000526,0.00000922,0.00000105,0.00000701,0.00001448,0.000002
 01,0.00000883,0.00000927,-0.00000033,0.00000992,-0.00000137,0.00000146
 ,0.00000325,0.00001301,0.00000163,0.00001129,0.00001333,0.00000373,0.0
 0000720,0.00002536,0.00000329,0.00000048,0.00002918,0.00000340,0.00001
 351,0.00002918,0.00000335,0.00000820,0.00002902,-0.00000021,0.00001187
 ,-0.00000623,-0.00000083,0.00001730,-0.00001296,-0.00000111,0.00000502
 ,-0.00001114,0.00000026,0.00001372,-0.00000173,-0.00000133,0.00000750,
 -0.00001678,-0.00000215,0.00000469,-0.00001956,0.00000004,0.00000123,-
 0.00000344,-0.00000245,0.00000255,-0.00001705,0.00000040,0.00000184,0.
 00000430,0.00000040,-0.00000258,-0.00000073,-0.00000088,-0.00000321,-0
 .00000615,0.00000137,-0.00000270,0.00000883,0.00000110,-0.00000425,0.0
 0001363,-0.00000062,-0.00000541,-0.00000071,-0.00000039,-0.00000572,-0
 .00000501,0.,0.00000425,-0.00000328,-0.00000077,-0.00001496,-0.0000023
 2,-0.00000170,-0.00000617,-0.00001342,-0.00000084,0.00000305,-0.000008
 36,0.00000061,0.00000478,0.00000451,-0.00000054,0.00001061,-0.00000662
 ,-0.00000107,-0.00001663,-0.00000730,0.00000022,-0.00001478,0.00000638
 ,-0.00000117,-0.00002184,-0.00000309,-0.00000136,-0.00000585,-0.000004
 91,-0.00000030,0.00000991,-0.00000731,-0.00000178,0.00000268,-0.000016
 79,-0.00000104,-0.00002257,-0.00000388,-0.00000221,-0.00001674,-0.0000
 1502,-0.00000101,-0.00000740,-0.00000904,0.00000014,-0.00000595,0.0000
 0295\\\@


 IT WAS AN ACT OF DESPARATION. FOR SIX YEARS I HAD STRUGGLED WITH THE
 BLACKBODY THEORY. I KNEW THE PROBLEM WAS FUNDAMENTAL, AND I KNEW
 THE ANSWER. I HAD TO FIND A THEORETICAL EXPLANATION AT ANY COST,
 EXCEPT FOR THE INVIOLABLITY OF THE TWO LAWS OF THERMODYNAMICS.
   -- MAX PLANCK, 1931
 Job cpu time:       0 days  6 hours  6 minutes 38.7 seconds.
 Elapsed time:       0 days  0 hours 23 minutes  3.8 seconds.
 File lengths (MBytes):  RWF=   3148 Int=      0 D2E=      0 Chk=     60 Scr=      8
 Normal termination of Gaussian 16 at Wed Dec 12 14:04:20 2018.
