 Entering Gaussian System, Link 0=g16
 Initial command:
 /gpfs/apps/hpc/Apps/Restricted/Gaussian/g16/Rev_B.01-AVX/g16/l1.exe "/gpfs/scratch60/fas/hammes_schiffer/jg2487/c42n02/Gau-412804.inp" -scrdir="/gpfs/scratch60/fas/hammes_schiffer/jg2487/c42n02/"
 Entering Link 1 = /gpfs/apps/hpc/Apps/Restricted/Gaussian/g16/Rev_B.01-AVX/g16/l1.exe PID=    412805.
  
 Copyright (c) 1988-2017, Gaussian, Inc.  All Rights Reserved.
  
 This is part of the Gaussian(R) 16 program.  It is based on
 the Gaussian(R) 09 system (copyright 2009, Gaussian, Inc.),
 the Gaussian(R) 03 system (copyright 2003, Gaussian, Inc.),
 the Gaussian(R) 98 system (copyright 1998, Gaussian, Inc.),
 the Gaussian(R) 94 system (copyright 1995, Gaussian, Inc.),
 the Gaussian 92(TM) system (copyright 1992, Gaussian, Inc.),
 the Gaussian 90(TM) system (copyright 1990, Gaussian, Inc.),
 the Gaussian 88(TM) system (copyright 1988, Gaussian, Inc.),
 the Gaussian 86(TM) system (copyright 1986, Carnegie Mellon
 University), and the Gaussian 82(TM) system (copyright 1983,
 Carnegie Mellon University). Gaussian is a federally registered
 trademark of Gaussian, Inc.
  
 This software contains proprietary and confidential information,
 including trade secrets, belonging to Gaussian, Inc.
  
 This software is provided under written license and may be
 used, copied, transmitted, or stored only in accord with that
 written license.
  
 The following legend is applicable only to US Government
 contracts under FAR:
  
                    RESTRICTED RIGHTS LEGEND
  
 Use, reproduction and disclosure by the US Government is
 subject to restrictions as set forth in subparagraphs (a)
 and (c) of the Commercial Computer Software - Restricted
 Rights clause in FAR 52.227-19.
  
 Gaussian, Inc.
 340 Quinnipiac St., Bldg. 40, Wallingford CT 06492
  
  
 ---------------------------------------------------------------
 Warning -- This program may not be used in any manner that
 competes with the business of Gaussian, Inc. or will provide
 assistance to any competitor of Gaussian, Inc.  The licensee
 of this program is prohibited from giving any competitor of
 Gaussian, Inc. access to this program.  By using this program,
 the user acknowledges that Gaussian, Inc. is engaged in the
 business of creating and licensing software in the field of
 computational chemistry and represents and warrants to the
 licensee that it is not a competitor of Gaussian, Inc. and that
 it will not use this program in any manner prohibited above.
 ---------------------------------------------------------------
  

 Cite this work as:
 Gaussian 16, Revision B.01,
 M. J. Frisch, G. W. Trucks, H. B. Schlegel, G. E. Scuseria, 
 M. A. Robb, J. R. Cheeseman, G. Scalmani, V. Barone, 
 G. A. Petersson, H. Nakatsuji, X. Li, M. Caricato, A. V. Marenich, 
 J. Bloino, B. G. Janesko, R. Gomperts, B. Mennucci, H. P. Hratchian, 
 J. V. Ortiz, A. F. Izmaylov, J. L. Sonnenberg, D. Williams-Young, 
 F. Ding, F. Lipparini, F. Egidi, J. Goings, B. Peng, A. Petrone, 
 T. Henderson, D. Ranasinghe, V. G. Zakrzewski, J. Gao, N. Rega, 
 G. Zheng, W. Liang, M. Hada, M. Ehara, K. Toyota, R. Fukuda, 
 J. Hasegawa, M. Ishida, T. Nakajima, Y. Honda, O. Kitao, H. Nakai, 
 T. Vreven, K. Throssell, J. A. Montgomery, Jr., J. E. Peralta, 
 F. Ogliaro, M. J. Bearpark, J. J. Heyd, E. N. Brothers, K. N. Kudin, 
 V. N. Staroverov, T. A. Keith, R. Kobayashi, J. Normand, 
 K. Raghavachari, A. P. Rendell, J. C. Burant, S. S. Iyengar, 
 J. Tomasi, M. Cossi, J. M. Millam, M. Klene, C. Adamo, R. Cammi, 
 J. W. Ochterski, R. L. Martin, K. Morokuma, O. Farkas, 
 J. B. Foresman, and D. J. Fox, Gaussian, Inc., Wallingford CT, 2016.
 
 ******************************************
 Gaussian 16:  ES64L-G16RevB.01 20-Dec-2017
                12-Feb-2019 
 ******************************************
 %chk=amide-monoBIP-E2PT.chk
 %mem=10GB
 %nprocshared=16
 Will use up to   16 processors via shared memory.
 ----------------------------------------------------------------
 #p freq(ReadFC,InternalModes) Geom(AllCheck) NoSymm scale=0.9631
 ----------------------------------------------------------------
 1/18=20,29=7,38=1,114=963100/1,3;
 2/9=110,12=2,15=1,40=1/2;
 7/8=21,25=11,30=1/16;
 99/5=2/99;
 Leave Link    1 at Tue Feb 12 17:45:42 2019, MaxMem=  1342177280 cpu:               6.1 elap:               0.4
 (Enter /gpfs/apps/hpc/Apps/Restricted/Gaussian/g16/Rev_B.01-AVX/g16/l101.exe)
 Structure from the checkpoint file:  "amide-monoBIP-E2PT.chk"
 --------------------------------------
 Simple amide-monoBIP E2PT optimization
 --------------------------------------
 Charge =  1 Multiplicity = 2
 Redundant internal coordinates found in file.  (old form).
 C,0,-0.5270135255,2.7145875818,0.4275159281
 C,0,-1.9090550239,2.9745250067,0.2919965484
 C,0,-2.3946255986,4.274070903,0.1802704022
 C,0,-1.453489309,5.3084158789,0.2060503142
 C,0,-0.0799482143,5.067956507,0.3440537478
 C,0,0.4141235685,3.7616889332,0.4624038359
 C,0,-1.505323977,0.7896256457,0.4169356067
 H,0,-3.4520285338,4.4787837444,0.0718207197
 H,0,-1.7963532426,6.3313004615,0.1179895706
 H,0,0.5941801833,5.915515706,0.355087304
 N,0,-2.4903608759,1.7266728015,0.2928051644
 C,0,-3.1192458578,-1.1613135055,0.3362561523
 C,0,-1.7485667702,-0.640870237,0.4338535016
 C,0,-0.6776673967,-1.5058495475,0.5211027336
 C,0,-0.8587266601,-2.9038491129,0.5240366061
 C,0,-2.1731861065,-3.4143988024,0.4435084977
 C,0,-3.2984159094,-2.618375445,0.3540051658
 H,0,0.322045288,-1.0945897705,0.580986547
 H,0,-2.2988927971,-4.4856115524,0.4514379048
 C,0,0.3668258606,-3.8055473595,0.5906788772
 C,0,-4.7025152182,-3.2138173764,0.2740125265
 O,0,-4.0962454992,-0.3738696554,0.237527697
 N,0,-0.2963960889,1.3667350318,0.503430435
 C,0,1.8145937589,3.3956751118,0.621094614
 C,0,1.2482330109,-3.5157465666,-0.6452254195
 H,0,1.5532126149,-2.4675988666,-0.6791646487
 H,0,2.1498380924,-4.1324854553,-0.6042361144
 H,0,0.7132168309,-3.7495806794,-1.5689357804
 C,0,1.1682309174,-3.4773919831,1.8690227747
 H,0,0.5767615455,-3.6798590574,2.7649903111
 H,0,2.0659845972,-4.0999356607,1.902575762
 H,0,1.4810177607,-2.431275598,1.8911748894
 C,0,0.0041367618,-5.2960292903,0.6029034736
 H,0,-0.5982070805,-5.5587667486,1.4764214503
 H,0,-0.5446739639,-5.5845324479,-0.297176659
 H,0,0.9213528305,-5.8876540928,0.6389537594
 C,0,-5.3682509494,-2.8041104062,-1.0592275262
 H,0,-6.3677882845,-3.2442768705,-1.1124854112
 H,0,-5.4586997822,-1.7223285864,-1.1429612677
 H,0,-4.7886522368,-3.1747297587,-1.9088785525
 C,0,-5.549864236,-2.7068253328,1.4636777366
 H,0,-5.6604066849,-1.6242057184,1.4348267817
 H,0,-6.5423401202,-3.1637806296,1.4228800859
 H,0,-5.0844999477,-2.9867857487,2.4124392062
 C,0,-4.6708986553,-4.7493966106,0.3347067135
 H,0,-4.1097248837,-5.1773048312,-0.5001232673
 H,0,-4.2276175572,-5.1074208483,1.2675301898
 H,0,-5.6942613919,-5.1264891081,0.2804218584
 O,0,2.152359048,2.1372271208,0.6899801255
 N,0,2.7894251826,4.2708320995,0.708042525
 H,0,2.6221350301,5.2652140519,0.6848075358
 H,0,3.7410209518,3.9466516667,0.8157794978
 H,0,-3.4654893456,1.4491385394,0.2185684327
 H,0,1.3247526206,1.5454010092,0.6299201072
 Recover connectivity data from disk.
 ITRead=  0  0  0  0  0  0  0  0  0  0  0  0  0  0  0  0  0  0  0  0
 ITRead=  0  0  0  0  0  0  0  0  0  0  0  0  0  0  0  0  0  0  0  0
 ITRead=  0  0  0  0  0  0  0  0  0  0  0  0  0  0
 MicOpt= -1 -1 -1 -1 -1 -1 -1 -1 -1 -1 -1 -1 -1 -1 -1 -1 -1 -1 -1 -1
 MicOpt= -1 -1 -1 -1 -1 -1 -1 -1 -1 -1 -1 -1 -1 -1 -1 -1 -1 -1 -1 -1
 MicOpt= -1 -1 -1 -1 -1 -1 -1 -1 -1 -1 -1 -1 -1 -1
 NAtoms=     54 NQM=       54 NQMF=       0 NMMI=      0 NMMIF=      0
                NMic=       0 NMicF=      0.
                    Isotopes and Nuclear Properties:
 (Nuclear quadrupole moments (NQMom) in fm**2, nuclear magnetic moments (NMagM)
  in nuclear magnetons)

  Atom         1           2           3           4           5           6           7           8           9          10
 IAtWgt=          12          12          12          12          12          12          12           1           1           1
 AtmWgt=  12.0000000  12.0000000  12.0000000  12.0000000  12.0000000  12.0000000  12.0000000   1.0078250   1.0078250   1.0078250
 NucSpn=           0           0           0           0           0           0           0           1           1           1
 AtZEff=   3.6000000   3.6000000   3.6000000   3.6000000   3.6000000   3.6000000   3.6000000   1.0000000   1.0000000   1.0000000
 NQMom=    0.0000000   0.0000000   0.0000000   0.0000000   0.0000000   0.0000000   0.0000000   0.0000000   0.0000000   0.0000000
 NMagM=    0.0000000   0.0000000   0.0000000   0.0000000   0.0000000   0.0000000   0.0000000   2.7928460   2.7928460   2.7928460
 AtZNuc=   6.0000000   6.0000000   6.0000000   6.0000000   6.0000000   6.0000000   6.0000000   1.0000000   1.0000000   1.0000000

  Atom        11          12          13          14          15          16          17          18          19          20
 IAtWgt=          14          12          12          12          12          12          12           1           1          12
 AtmWgt=  14.0030740  12.0000000  12.0000000  12.0000000  12.0000000  12.0000000  12.0000000   1.0078250   1.0078250  12.0000000
 NucSpn=           2           0           0           0           0           0           0           1           1           0
 AtZEff=   4.5500000   3.6000000   3.6000000   3.6000000   3.6000000   3.6000000   3.6000000   1.0000000   1.0000000   3.6000000
 NQMom=    2.0440000   0.0000000   0.0000000   0.0000000   0.0000000   0.0000000   0.0000000   0.0000000   0.0000000   0.0000000
 NMagM=    0.4037610   0.0000000   0.0000000   0.0000000   0.0000000   0.0000000   0.0000000   2.7928460   2.7928460   0.0000000
 AtZNuc=   7.0000000   6.0000000   6.0000000   6.0000000   6.0000000   6.0000000   6.0000000   1.0000000   1.0000000   6.0000000

  Atom        21          22          23          24          25          26          27          28          29          30
 IAtWgt=          12          16          14          12          12           1           1           1          12           1
 AtmWgt=  12.0000000  15.9949146  14.0030740  12.0000000  12.0000000   1.0078250   1.0078250   1.0078250  12.0000000   1.0078250
 NucSpn=           0           0           2           0           0           1           1           1           0           1
 AtZEff=   3.6000000   5.6000000   4.5500000   3.6000000   3.6000000   1.0000000   1.0000000   1.0000000   3.6000000   1.0000000
 NQMom=    0.0000000   0.0000000   2.0440000   0.0000000   0.0000000   0.0000000   0.0000000   0.0000000   0.0000000   0.0000000
 NMagM=    0.0000000   0.0000000   0.4037610   0.0000000   0.0000000   2.7928460   2.7928460   2.7928460   0.0000000   2.7928460
 AtZNuc=   6.0000000   8.0000000   7.0000000   6.0000000   6.0000000   1.0000000   1.0000000   1.0000000   6.0000000   1.0000000

  Atom        31          32          33          34          35          36          37          38          39          40
 IAtWgt=           1           1          12           1           1           1          12           1           1           1
 AtmWgt=   1.0078250   1.0078250  12.0000000   1.0078250   1.0078250   1.0078250  12.0000000   1.0078250   1.0078250   1.0078250
 NucSpn=           1           1           0           1           1           1           0           1           1           1
 AtZEff=   1.0000000   1.0000000   3.6000000   1.0000000   1.0000000   1.0000000   3.6000000   1.0000000   1.0000000   1.0000000
 NQMom=    0.0000000   0.0000000   0.0000000   0.0000000   0.0000000   0.0000000   0.0000000   0.0000000   0.0000000   0.0000000
 NMagM=    2.7928460   2.7928460   0.0000000   2.7928460   2.7928460   2.7928460   0.0000000   2.7928460   2.7928460   2.7928460
 AtZNuc=   1.0000000   1.0000000   6.0000000   1.0000000   1.0000000   1.0000000   6.0000000   1.0000000   1.0000000   1.0000000

  Atom        41          42          43          44          45          46          47          48          49          50
 IAtWgt=          12           1           1           1          12           1           1           1          16          14
 AtmWgt=  12.0000000   1.0078250   1.0078250   1.0078250  12.0000000   1.0078250   1.0078250   1.0078250  15.9949146  14.0030740
 NucSpn=           0           1           1           1           0           1           1           1           0           2
 AtZEff=   3.6000000   1.0000000   1.0000000   1.0000000   3.6000000   1.0000000   1.0000000   1.0000000   5.6000000   4.5500000
 NQMom=    0.0000000   0.0000000   0.0000000   0.0000000   0.0000000   0.0000000   0.0000000   0.0000000   0.0000000   2.0440000
 NMagM=    0.0000000   2.7928460   2.7928460   2.7928460   0.0000000   2.7928460   2.7928460   2.7928460   0.0000000   0.4037610
 AtZNuc=   6.0000000   1.0000000   1.0000000   1.0000000   6.0000000   1.0000000   1.0000000   1.0000000   8.0000000   7.0000000

  Atom        51          52          53          54
 IAtWgt=           1           1           1           1
 AtmWgt=   1.0078250   1.0078250   1.0078250   1.0078250
 NucSpn=           1           1           1           1
 AtZEff=   1.0000000   1.0000000   1.0000000   1.0000000
 NQMom=    0.0000000   0.0000000   0.0000000   0.0000000
 NMagM=    2.7928460   2.7928460   2.7928460   2.7928460
 AtZNuc=   1.0000000   1.0000000   1.0000000   1.0000000
 Leave Link  101 at Tue Feb 12 17:45:42 2019, MaxMem=  1342177280 cpu:               4.8 elap:               0.4
 (Enter /gpfs/apps/hpc/Apps/Restricted/Gaussian/g16/Rev_B.01-AVX/g16/l103.exe)

 GradGradGradGradGradGradGradGradGradGradGradGradGradGradGradGradGradGrad
 Berny optimization.
 Initialization pass.
                           ----------------------------
                           !    Initial Parameters    !
                           ! (Angstroms and Degrees)  !
 --------------------------                            --------------------------
 ! Name  Definition              Value          Derivative Info.                !
 --------------------------------------------------------------------------------
 ! R1    R(1,2)                  1.4128         estimate D2E/DX2                !
 ! R2    R(1,6)                  1.4083         estimate D2E/DX2                !
 ! R3    R(1,23)                 1.3695         estimate D2E/DX2                !
 ! R4    R(2,3)                  1.3918         estimate D2E/DX2                !
 ! R5    R(2,11)                 1.3766         estimate D2E/DX2                !
 ! R6    R(3,4)                  1.3987         estimate D2E/DX2                !
 ! R7    R(3,8)                  1.0825         estimate D2E/DX2                !
 ! R8    R(4,5)                  1.4012         estimate D2E/DX2                !
 ! R9    R(4,9)                  1.0824         estimate D2E/DX2                !
 ! R10   R(5,6)                  1.4016         estimate D2E/DX2                !
 ! R11   R(5,10)                 1.083          estimate D2E/DX2                !
 ! R12   R(6,24)                 1.4562         estimate D2E/DX2                !
 ! R13   R(7,11)                 1.3652         estimate D2E/DX2                !
 ! R14   R(7,13)                 1.4511         estimate D2E/DX2                !
 ! R15   R(7,23)                 1.3424         estimate D2E/DX2                !
 ! R16   R(11,53)                1.0166         estimate D2E/DX2                !
 ! R17   R(12,13)                1.4694         estimate D2E/DX2                !
 ! R18   R(12,17)                1.4681         estimate D2E/DX2                !
 ! R19   R(12,22)                1.2587         estimate D2E/DX2                !
 ! R20   R(13,14)                1.3794         estimate D2E/DX2                !
 ! R21   R(14,15)                1.4097         estimate D2E/DX2                !
 ! R22   R(14,18)                1.0827         estimate D2E/DX2                !
 ! R23   R(15,16)                1.4124         estimate D2E/DX2                !
 ! R24   R(15,20)                1.523          estimate D2E/DX2                !
 ! R25   R(16,17)                1.3812         estimate D2E/DX2                !
 ! R26   R(16,19)                1.0786         estimate D2E/DX2                !
 ! R27   R(17,21)                1.5272         estimate D2E/DX2                !
 ! R28   R(20,25)                1.5454         estimate D2E/DX2                !
 ! R29   R(20,29)                1.5441         estimate D2E/DX2                !
 ! R30   R(20,33)                1.534          estimate D2E/DX2                !
 ! R31   R(21,37)                1.5455         estimate D2E/DX2                !
 ! R32   R(21,41)                1.5461         estimate D2E/DX2                !
 ! R33   R(21,45)                1.5371         estimate D2E/DX2                !
 ! R34   R(24,49)                1.3048         estimate D2E/DX2                !
 ! R35   R(24,50)                1.3129         estimate D2E/DX2                !
 ! R36   R(25,26)                1.0921         estimate D2E/DX2                !
 ! R37   R(25,27)                1.0931         estimate D2E/DX2                !
 ! R38   R(25,28)                1.0928         estimate D2E/DX2                !
 ! R39   R(29,30)                1.0925         estimate D2E/DX2                !
 ! R40   R(29,31)                1.093          estimate D2E/DX2                !
 ! R41   R(29,32)                1.0921         estimate D2E/DX2                !
 ! R42   R(33,34)                1.0931         estimate D2E/DX2                !
 ! R43   R(33,35)                1.093          estimate D2E/DX2                !
 ! R44   R(33,36)                1.0921         estimate D2E/DX2                !
 ! R45   R(37,38)                1.0935         estimate D2E/DX2                !
 ! R46   R(37,39)                1.0888         estimate D2E/DX2                !
 ! R47   R(37,40)                1.0933         estimate D2E/DX2                !
 ! R48   R(41,42)                1.0886         estimate D2E/DX2                !
 ! R49   R(41,43)                1.0934         estimate D2E/DX2                !
 ! R50   R(41,44)                1.0932         estimate D2E/DX2                !
 ! R51   R(45,46)                1.0931         estimate D2E/DX2                !
 ! R52   R(45,47)                1.0931         estimate D2E/DX2                !
 ! R53   R(45,48)                1.092          estimate D2E/DX2                !
 ! R54   R(49,54)                1.0192         estimate D2E/DX2                !
 ! R55   R(50,51)                1.0086         estimate D2E/DX2                !
 ! R56   R(50,52)                1.0111         estimate D2E/DX2                !
 ! A1    A(2,1,6)              121.2855         estimate D2E/DX2                !
 ! A2    A(2,1,23)             110.5556         estimate D2E/DX2                !
 ! A3    A(6,1,23)             128.1578         estimate D2E/DX2                !
 ! A4    A(1,2,3)              121.3848         estimate D2E/DX2                !
 ! A5    A(1,2,11)             104.2556         estimate D2E/DX2                !
 ! A6    A(3,2,11)             134.3559         estimate D2E/DX2                !
 ! A7    A(2,3,4)              117.0181         estimate D2E/DX2                !
 ! A8    A(2,3,8)              121.6966         estimate D2E/DX2                !
 ! A9    A(4,3,8)              121.2842         estimate D2E/DX2                !
 ! A10   A(3,4,5)              122.3092         estimate D2E/DX2                !
 ! A11   A(3,4,9)              118.961          estimate D2E/DX2                !
 ! A12   A(5,4,9)              118.7298         estimate D2E/DX2                !
 ! A13   A(4,5,6)              120.9166         estimate D2E/DX2                !
 ! A14   A(4,5,10)             118.4802         estimate D2E/DX2                !
 ! A15   A(6,5,10)             120.603          estimate D2E/DX2                !
 ! A16   A(1,6,5)              117.0831         estimate D2E/DX2                !
 ! A17   A(1,6,24)             117.2915         estimate D2E/DX2                !
 ! A18   A(5,6,24)             125.6253         estimate D2E/DX2                !
 ! A19   A(11,7,13)            123.8305         estimate D2E/DX2                !
 ! A20   A(11,7,23)            111.1352         estimate D2E/DX2                !
 ! A21   A(13,7,23)            125.0297         estimate D2E/DX2                !
 ! A22   A(2,11,7)             108.5149         estimate D2E/DX2                !
 ! A23   A(2,11,53)            130.7298         estimate D2E/DX2                !
 ! A24   A(7,11,53)            120.7552         estimate D2E/DX2                !
 ! A25   A(13,12,17)           117.6811         estimate D2E/DX2                !
 ! A26   A(13,12,22)           120.5091         estimate D2E/DX2                !
 ! A27   A(17,12,22)           121.8096         estimate D2E/DX2                !
 ! A28   A(7,13,12)            120.3139         estimate D2E/DX2                !
 ! A29   A(7,13,14)            119.2599         estimate D2E/DX2                !
 ! A30   A(12,13,14)           120.4182         estimate D2E/DX2                !
 ! A31   A(13,14,15)           121.4871         estimate D2E/DX2                !
 ! A32   A(13,14,18)           118.8284         estimate D2E/DX2                !
 ! A33   A(15,14,18)           119.6829         estimate D2E/DX2                !
 ! A34   A(14,15,16)           118.5475         estimate D2E/DX2                !
 ! A35   A(14,15,20)           118.9398         estimate D2E/DX2                !
 ! A36   A(16,15,20)           122.505          estimate D2E/DX2                !
 ! A37   A(15,16,17)           123.6092         estimate D2E/DX2                !
 ! A38   A(15,16,19)           117.8424         estimate D2E/DX2                !
 ! A39   A(17,16,19)           118.5484         estimate D2E/DX2                !
 ! A40   A(12,17,16)           118.2505         estimate D2E/DX2                !
 ! A41   A(12,17,21)           119.9012         estimate D2E/DX2                !
 ! A42   A(16,17,21)           121.8483         estimate D2E/DX2                !
 ! A43   A(15,20,25)           108.2361         estimate D2E/DX2                !
 ! A44   A(15,20,29)           109.1512         estimate D2E/DX2                !
 ! A45   A(15,20,33)           112.6653         estimate D2E/DX2                !
 ! A46   A(25,20,29)           109.0399         estimate D2E/DX2                !
 ! A47   A(25,20,33)           108.8697         estimate D2E/DX2                !
 ! A48   A(29,20,33)           108.821          estimate D2E/DX2                !
 ! A49   A(17,21,37)           109.7461         estimate D2E/DX2                !
 ! A50   A(17,21,41)           109.6165         estimate D2E/DX2                !
 ! A51   A(17,21,45)           111.6242         estimate D2E/DX2                !
 ! A52   A(37,21,41)           109.9243         estimate D2E/DX2                !
 ! A53   A(37,21,45)           107.924          estimate D2E/DX2                !
 ! A54   A(41,21,45)           107.9681         estimate D2E/DX2                !
 ! A55   A(1,23,7)             105.5382         estimate D2E/DX2                !
 ! A56   A(6,24,49)            119.8105         estimate D2E/DX2                !
 ! A57   A(6,24,50)            123.6252         estimate D2E/DX2                !
 ! A58   A(49,24,50)           116.5636         estimate D2E/DX2                !
 ! A59   A(20,25,26)           111.3513         estimate D2E/DX2                !
 ! A60   A(20,25,27)           109.5495         estimate D2E/DX2                !
 ! A61   A(20,25,28)           110.8937         estimate D2E/DX2                !
 ! A62   A(26,25,27)           108.1985         estimate D2E/DX2                !
 ! A63   A(26,25,28)           108.4098         estimate D2E/DX2                !
 ! A64   A(27,25,28)           108.3476         estimate D2E/DX2                !
 ! A65   A(20,29,30)           111.0137         estimate D2E/DX2                !
 ! A66   A(20,29,31)           109.3098         estimate D2E/DX2                !
 ! A67   A(20,29,32)           111.6556         estimate D2E/DX2                !
 ! A68   A(30,29,31)           108.2971         estimate D2E/DX2                !
 ! A69   A(30,29,32)           108.4176         estimate D2E/DX2                !
 ! A70   A(31,29,32)           108.0425         estimate D2E/DX2                !
 ! A71   A(20,33,34)           111.7271         estimate D2E/DX2                !
 ! A72   A(20,33,35)           111.631          estimate D2E/DX2                !
 ! A73   A(20,33,36)           109.151          estimate D2E/DX2                !
 ! A74   A(34,33,35)           108.539          estimate D2E/DX2                !
 ! A75   A(34,33,36)           107.8315         estimate D2E/DX2                !
 ! A76   A(35,33,36)           107.8134         estimate D2E/DX2                !
 ! A77   A(21,37,38)           109.2117         estimate D2E/DX2                !
 ! A78   A(21,37,39)           111.4395         estimate D2E/DX2                !
 ! A79   A(21,37,40)           110.6218         estimate D2E/DX2                !
 ! A80   A(38,37,39)           108.6794         estimate D2E/DX2                !
 ! A81   A(38,37,40)           108.0775         estimate D2E/DX2                !
 ! A82   A(39,37,40)           108.7294         estimate D2E/DX2                !
 ! A83   A(21,41,42)           111.1844         estimate D2E/DX2                !
 ! A84   A(21,41,43)           109.3736         estimate D2E/DX2                !
 ! A85   A(21,41,44)           110.5193         estimate D2E/DX2                !
 ! A86   A(42,41,43)           108.8118         estimate D2E/DX2                !
 ! A87   A(42,41,44)           108.7176         estimate D2E/DX2                !
 ! A88   A(43,41,44)           108.1653         estimate D2E/DX2                !
 ! A89   A(21,45,46)           111.8059         estimate D2E/DX2                !
 ! A90   A(21,45,47)           111.6693         estimate D2E/DX2                !
 ! A91   A(21,45,48)           108.8897         estimate D2E/DX2                !
 ! A92   A(46,45,47)           108.3808         estimate D2E/DX2                !
 ! A93   A(46,45,48)           107.9361         estimate D2E/DX2                !
 ! A94   A(47,45,48)           108.021          estimate D2E/DX2                !
 ! A95   A(24,49,54)           110.2874         estimate D2E/DX2                !
 ! A96   A(24,50,51)           122.1736         estimate D2E/DX2                !
 ! A97   A(24,50,52)           119.4823         estimate D2E/DX2                !
 ! A98   A(51,50,52)           118.3378         estimate D2E/DX2                !
 ! D1    D(6,1,2,3)              0.3579         estimate D2E/DX2                !
 ! D2    D(6,1,2,11)           179.751          estimate D2E/DX2                !
 ! D3    D(23,1,2,3)          -179.2924         estimate D2E/DX2                !
 ! D4    D(23,1,2,11)            0.1007         estimate D2E/DX2                !
 ! D5    D(2,1,6,5)             -0.5943         estimate D2E/DX2                !
 ! D6    D(2,1,6,24)           179.2708         estimate D2E/DX2                !
 ! D7    D(23,1,6,5)           178.9893         estimate D2E/DX2                !
 ! D8    D(23,1,6,24)           -1.1456         estimate D2E/DX2                !
 ! D9    D(2,1,23,7)             0.0362         estimate D2E/DX2                !
 ! D10   D(6,1,23,7)          -179.5838         estimate D2E/DX2                !
 ! D11   D(1,2,3,4)              0.1018         estimate D2E/DX2                !
 ! D12   D(1,2,3,8)            179.7244         estimate D2E/DX2                !
 ! D13   D(11,2,3,4)          -179.0755         estimate D2E/DX2                !
 ! D14   D(11,2,3,8)             0.5471         estimate D2E/DX2                !
 ! D15   D(1,2,11,7)            -0.1974         estimate D2E/DX2                !
 ! D16   D(1,2,11,53)          179.8706         estimate D2E/DX2                !
 ! D17   D(3,2,11,7)           179.078          estimate D2E/DX2                !
 ! D18   D(3,2,11,53)           -0.854          estimate D2E/DX2                !
 ! D19   D(2,3,4,5)             -0.309          estimate D2E/DX2                !
 ! D20   D(2,3,4,9)            179.7882         estimate D2E/DX2                !
 ! D21   D(8,3,4,5)           -179.9332         estimate D2E/DX2                !
 ! D22   D(8,3,4,9)              0.164          estimate D2E/DX2                !
 ! D23   D(3,4,5,6)              0.0594         estimate D2E/DX2                !
 ! D24   D(3,4,5,10)           179.9214         estimate D2E/DX2                !
 ! D25   D(9,4,5,6)            179.9625         estimate D2E/DX2                !
 ! D26   D(9,4,5,10)            -0.1756         estimate D2E/DX2                !
 ! D27   D(4,5,6,1)              0.3904         estimate D2E/DX2                !
 ! D28   D(4,5,6,24)          -179.4621         estimate D2E/DX2                !
 ! D29   D(10,5,6,1)          -179.4685         estimate D2E/DX2                !
 ! D30   D(10,5,6,24)            0.6789         estimate D2E/DX2                !
 ! D31   D(1,6,24,49)            1.7262         estimate D2E/DX2                !
 ! D32   D(1,6,24,50)         -177.9588         estimate D2E/DX2                !
 ! D33   D(5,6,24,49)         -178.4215         estimate D2E/DX2                !
 ! D34   D(5,6,24,50)            1.8935         estimate D2E/DX2                !
 ! D35   D(13,7,11,2)         -179.0169         estimate D2E/DX2                !
 ! D36   D(13,7,11,53)           0.9231         estimate D2E/DX2                !
 ! D37   D(23,7,11,2)            0.236          estimate D2E/DX2                !
 ! D38   D(23,7,11,53)        -179.824          estimate D2E/DX2                !
 ! D39   D(11,7,13,12)          -1.0294         estimate D2E/DX2                !
 ! D40   D(11,7,13,14)         177.9487         estimate D2E/DX2                !
 ! D41   D(23,7,13,12)         179.8215         estimate D2E/DX2                !
 ! D42   D(23,7,13,14)          -1.2003         estimate D2E/DX2                !
 ! D43   D(11,7,23,1)           -0.1655         estimate D2E/DX2                !
 ! D44   D(13,7,23,1)          179.0767         estimate D2E/DX2                !
 ! D45   D(17,12,13,7)         179.779          estimate D2E/DX2                !
 ! D46   D(17,12,13,14)          0.8128         estimate D2E/DX2                !
 ! D47   D(22,12,13,7)          -0.0251         estimate D2E/DX2                !
 ! D48   D(22,12,13,14)       -178.9913         estimate D2E/DX2                !
 ! D49   D(13,12,17,16)         -0.8205         estimate D2E/DX2                !
 ! D50   D(13,12,17,21)        179.1971         estimate D2E/DX2                !
 ! D51   D(22,12,17,16)        178.9808         estimate D2E/DX2                !
 ! D52   D(22,12,17,21)         -1.0016         estimate D2E/DX2                !
 ! D53   D(7,13,14,15)        -179.1829         estimate D2E/DX2                !
 ! D54   D(7,13,14,18)           0.3588         estimate D2E/DX2                !
 ! D55   D(12,13,14,15)         -0.2058         estimate D2E/DX2                !
 ! D56   D(12,13,14,18)        179.3358         estimate D2E/DX2                !
 ! D57   D(13,14,15,16)         -0.3942         estimate D2E/DX2                !
 ! D58   D(13,14,15,20)        178.6194         estimate D2E/DX2                !
 ! D59   D(18,14,15,16)       -179.932          estimate D2E/DX2                !
 ! D60   D(18,14,15,20)         -0.9183         estimate D2E/DX2                !
 ! D61   D(14,15,16,17)          0.3748         estimate D2E/DX2                !
 ! D62   D(14,15,16,19)       -179.7105         estimate D2E/DX2                !
 ! D63   D(20,15,16,17)       -178.6017         estimate D2E/DX2                !
 ! D64   D(20,15,16,19)          1.3131         estimate D2E/DX2                !
 ! D65   D(14,15,20,25)        -60.2604         estimate D2E/DX2                !
 ! D66   D(14,15,20,29)         58.296          estimate D2E/DX2                !
 ! D67   D(14,15,20,33)        179.3014         estimate D2E/DX2                !
 ! D68   D(16,15,20,25)        118.7122         estimate D2E/DX2                !
 ! D69   D(16,15,20,29)       -122.7314         estimate D2E/DX2                !
 ! D70   D(16,15,20,33)         -1.726          estimate D2E/DX2                !
 ! D71   D(15,16,17,12)          0.2467         estimate D2E/DX2                !
 ! D72   D(15,16,17,21)       -179.7713         estimate D2E/DX2                !
 ! D73   D(19,16,17,12)       -179.6674         estimate D2E/DX2                !
 ! D74   D(19,16,17,21)          0.3146         estimate D2E/DX2                !
 ! D75   D(12,17,21,37)         61.4955         estimate D2E/DX2                !
 ! D76   D(12,17,21,41)        -59.3226         estimate D2E/DX2                !
 ! D77   D(12,17,21,45)       -178.8983         estimate D2E/DX2                !
 ! D78   D(16,17,21,37)       -118.4862         estimate D2E/DX2                !
 ! D79   D(16,17,21,41)        120.6957         estimate D2E/DX2                !
 ! D80   D(16,17,21,45)          1.1199         estimate D2E/DX2                !
 ! D81   D(15,20,25,26)         58.7583         estimate D2E/DX2                !
 ! D82   D(15,20,25,27)        178.4048         estimate D2E/DX2                !
 ! D83   D(15,20,25,28)        -62.0507         estimate D2E/DX2                !
 ! D84   D(29,20,25,26)        -59.8688         estimate D2E/DX2                !
 ! D85   D(29,20,25,27)         59.7778         estimate D2E/DX2                !
 ! D86   D(29,20,25,28)        179.3222         estimate D2E/DX2                !
 ! D87   D(33,20,25,26)       -178.464          estimate D2E/DX2                !
 ! D88   D(33,20,25,27)        -58.8175         estimate D2E/DX2                !
 ! D89   D(33,20,25,28)         60.727          estimate D2E/DX2                !
 ! D90   D(15,20,29,30)         62.4632         estimate D2E/DX2                !
 ! D91   D(15,20,29,31)       -178.1334         estimate D2E/DX2                !
 ! D92   D(15,20,29,32)        -58.6462         estimate D2E/DX2                !
 ! D93   D(25,20,29,30)       -179.4838         estimate D2E/DX2                !
 ! D94   D(25,20,29,31)        -60.0804         estimate D2E/DX2                !
 ! D95   D(25,20,29,32)         59.4068         estimate D2E/DX2                !
 ! D96   D(33,20,29,30)        -60.858          estimate D2E/DX2                !
 ! D97   D(33,20,29,31)         58.5454         estimate D2E/DX2                !
 ! D98   D(33,20,29,32)        178.0325         estimate D2E/DX2                !
 ! D99   D(15,20,33,34)        -61.5174         estimate D2E/DX2                !
 ! D100  D(15,20,33,35)         60.233          estimate D2E/DX2                !
 ! D101  D(15,20,33,36)        179.3168         estimate D2E/DX2                !
 ! D102  D(25,20,33,34)        178.409          estimate D2E/DX2                !
 ! D103  D(25,20,33,35)        -59.8407         estimate D2E/DX2                !
 ! D104  D(25,20,33,36)         59.2432         estimate D2E/DX2                !
 ! D105  D(29,20,33,34)         59.6763         estimate D2E/DX2                !
 ! D106  D(29,20,33,35)       -178.5733         estimate D2E/DX2                !
 ! D107  D(29,20,33,36)        -59.4895         estimate D2E/DX2                !
 ! D108  D(17,21,37,38)        179.3495         estimate D2E/DX2                !
 ! D109  D(17,21,37,39)        -60.5702         estimate D2E/DX2                !
 ! D110  D(17,21,37,40)         60.5183         estimate D2E/DX2                !
 ! D111  D(41,21,37,38)        -60.0186         estimate D2E/DX2                !
 ! D112  D(41,21,37,39)         60.0617         estimate D2E/DX2                !
 ! D113  D(41,21,37,40)       -178.8498         estimate D2E/DX2                !
 ! D114  D(45,21,37,38)         57.5047         estimate D2E/DX2                !
 ! D115  D(45,21,37,39)        177.585          estimate D2E/DX2                !
 ! D116  D(45,21,37,40)        -61.3265         estimate D2E/DX2                !
 ! D117  D(17,21,41,42)         61.8546         estimate D2E/DX2                !
 ! D118  D(17,21,41,43)       -177.9553         estimate D2E/DX2                !
 ! D119  D(17,21,41,44)        -58.9779         estimate D2E/DX2                !
 ! D120  D(37,21,41,42)        -58.8555         estimate D2E/DX2                !
 ! D121  D(37,21,41,43)         61.3346         estimate D2E/DX2                !
 ! D122  D(37,21,41,44)       -179.688          estimate D2E/DX2                !
 ! D123  D(45,21,41,42)       -176.3514         estimate D2E/DX2                !
 ! D124  D(45,21,41,43)        -56.1614         estimate D2E/DX2                !
 ! D125  D(45,21,41,44)         62.8161         estimate D2E/DX2                !
 ! D126  D(17,21,45,46)        -61.167          estimate D2E/DX2                !
 ! D127  D(17,21,45,47)         60.4626         estimate D2E/DX2                !
 ! D128  D(17,21,45,48)        179.6584         estimate D2E/DX2                !
 ! D129  D(37,21,45,46)         59.5096         estimate D2E/DX2                !
 ! D130  D(37,21,45,47)       -178.8607         estimate D2E/DX2                !
 ! D131  D(37,21,45,48)        -59.6649         estimate D2E/DX2                !
 ! D132  D(41,21,45,46)        178.288          estimate D2E/DX2                !
 ! D133  D(41,21,45,47)        -60.0823         estimate D2E/DX2                !
 ! D134  D(41,21,45,48)         59.1135         estimate D2E/DX2                !
 ! D135  D(6,24,49,54)          -0.7493         estimate D2E/DX2                !
 ! D136  D(50,24,49,54)        178.9574         estimate D2E/DX2                !
 ! D137  D(6,24,50,51)           1.0343         estimate D2E/DX2                !
 ! D138  D(6,24,50,52)        -179.8925         estimate D2E/DX2                !
 ! D139  D(49,24,50,51)       -178.6601         estimate D2E/DX2                !
 ! D140  D(49,24,50,52)          0.4131         estimate D2E/DX2                !
 --------------------------------------------------------------------------------
 Trust Radius=3.00D-01 FncErr=1.00D-07 GrdErr=1.00D-07 EigMax=2.50D+02 EigMin=1.00D-04
 Number of steps in this run=    304 maximum allowed number of steps=    324.
 GradGradGradGradGradGradGradGradGradGradGradGradGradGradGradGradGradGrad

 Leave Link  103 at Tue Feb 12 17:45:42 2019, MaxMem=  1342177280 cpu:               1.0 elap:               0.1
 (Enter /gpfs/apps/hpc/Apps/Restricted/Gaussian/g16/Rev_B.01-AVX/g16/l202.exe)
 Symmetry turned off by external request.
 Stoichiometry    C22H27N3O2(1+,2)
 Framework group  C1[X(C22H27N3O2)]
 Deg. of freedom   156
 Full point group                 C1      NOp   1
                          Input orientation:                          
 ---------------------------------------------------------------------
 Center     Atomic      Atomic             Coordinates (Angstroms)
 Number     Number       Type             X           Y           Z
 ---------------------------------------------------------------------
      1          6           0       -0.527014    2.714588    0.427516
      2          6           0       -1.909055    2.974525    0.291997
      3          6           0       -2.394626    4.274071    0.180270
      4          6           0       -1.453489    5.308416    0.206050
      5          6           0       -0.079948    5.067957    0.344054
      6          6           0        0.414124    3.761689    0.462404
      7          6           0       -1.505324    0.789626    0.416936
      8          1           0       -3.452029    4.478784    0.071821
      9          1           0       -1.796353    6.331300    0.117990
     10          1           0        0.594180    5.915516    0.355087
     11          7           0       -2.490361    1.726673    0.292805
     12          6           0       -3.119246   -1.161314    0.336256
     13          6           0       -1.748567   -0.640870    0.433854
     14          6           0       -0.677667   -1.505850    0.521103
     15          6           0       -0.858727   -2.903849    0.524037
     16          6           0       -2.173186   -3.414399    0.443508
     17          6           0       -3.298416   -2.618375    0.354005
     18          1           0        0.322045   -1.094590    0.580987
     19          1           0       -2.298893   -4.485612    0.451438
     20          6           0        0.366826   -3.805547    0.590679
     21          6           0       -4.702515   -3.213817    0.274013
     22          8           0       -4.096245   -0.373870    0.237528
     23          7           0       -0.296396    1.366735    0.503430
     24          6           0        1.814594    3.395675    0.621095
     25          6           0        1.248233   -3.515747   -0.645225
     26          1           0        1.553213   -2.467599   -0.679165
     27          1           0        2.149838   -4.132485   -0.604236
     28          1           0        0.713217   -3.749581   -1.568936
     29          6           0        1.168231   -3.477392    1.869023
     30          1           0        0.576762   -3.679859    2.764990
     31          1           0        2.065985   -4.099936    1.902576
     32          1           0        1.481018   -2.431276    1.891175
     33          6           0        0.004137   -5.296029    0.602903
     34          1           0       -0.598207   -5.558767    1.476421
     35          1           0       -0.544674   -5.584532   -0.297177
     36          1           0        0.921353   -5.887654    0.638954
     37          6           0       -5.368251   -2.804110   -1.059228
     38          1           0       -6.367788   -3.244277   -1.112485
     39          1           0       -5.458700   -1.722329   -1.142961
     40          1           0       -4.788652   -3.174730   -1.908879
     41          6           0       -5.549864   -2.706825    1.463678
     42          1           0       -5.660407   -1.624206    1.434827
     43          1           0       -6.542340   -3.163781    1.422880
     44          1           0       -5.084500   -2.986786    2.412439
     45          6           0       -4.670899   -4.749397    0.334707
     46          1           0       -4.109725   -5.177305   -0.500123
     47          1           0       -4.227618   -5.107421    1.267530
     48          1           0       -5.694261   -5.126489    0.280422
     49          8           0        2.152359    2.137227    0.689980
     50          7           0        2.789425    4.270832    0.708043
     51          1           0        2.622135    5.265214    0.684808
     52          1           0        3.741021    3.946652    0.815779
     53          1           0       -3.465489    1.449139    0.218568
     54          1           0        1.324753    1.545401    0.629920
 ---------------------------------------------------------------------
 Rotational constants (GHZ):           0.2889561           0.1120749           0.0837599
 Leave Link  202 at Tue Feb 12 17:45:42 2019, MaxMem=  1342177280 cpu:               1.2 elap:               0.1
 (Enter /gpfs/apps/hpc/Apps/Restricted/Gaussian/g16/Rev_B.01-AVX/g16/l716.exe)
 Electric field and nuclear coordinate derivatives read from checkpoint file.
 Dipole        = 1.07074569D+00 4.19859294D+00 9.78222693D-01
 Polarizability= 4.62944531D+02 4.22673310D+01 6.18280676D+02
                 2.11472018D+01-9.37704930D+00 1.87654167D+02
 Full mass-weighted force constant matrix:
 Low frequencies ---   -8.8044   -0.0013    0.0006    0.0027    9.2755   17.7979
 Low frequencies ---   29.1984   44.7747   50.2130
 Diagonal vibrational polarizability:
       59.7976210      66.0103049     189.0193394
 Harmonic frequencies (cm**-1), IR intensities (KM/Mole), Raman scattering
 activities (A**4/AMU), depolarization ratios for plane and unpolarized
 incident light, reduced masses (AMU), force constants (mDyne/A),
 and normal coordinates:
                      1                      2                      3
                      A                      A                      A
 Frequencies --     25.2706                44.2095                49.9794
 Red. masses --      4.7654                 4.4784                 3.1383
 Frc consts  --      0.0018                 0.0052                 0.0046
 IR Inten    --      1.7291                 2.0104                 0.3545
  Atom  AN      X      Y      Z        X      Y      Z        X      Y      Z
     1   6     0.00   0.00  -0.03     0.00  -0.00  -0.01    -0.01  -0.00   0.02
     2   6     0.01  -0.00  -0.09     0.01  -0.01  -0.07    -0.01   0.02   0.02
     3   6     0.01  -0.00  -0.11     0.01  -0.01  -0.17     0.02   0.02   0.01
     4   6     0.00  -0.00  -0.05     0.02  -0.01  -0.21     0.04   0.01  -0.01
     5   6    -0.00   0.00   0.02     0.01  -0.01  -0.14     0.04  -0.02  -0.02
     6   6    -0.00   0.01   0.03     0.00  -0.00  -0.03     0.01  -0.02  -0.01
     7   6     0.01  -0.00  -0.08    -0.00  -0.00   0.06    -0.04   0.01   0.03
     8   1     0.01  -0.01  -0.15     0.02  -0.02  -0.22     0.02   0.04   0.01
     9   1     0.00  -0.00  -0.06     0.02  -0.02  -0.29     0.06   0.01  -0.02
    10   1    -0.01   0.01   0.06     0.01  -0.01  -0.16     0.05  -0.03  -0.04
    11   7     0.01  -0.01  -0.13     0.00  -0.00  -0.02    -0.02   0.02   0.03
    12   6     0.01  -0.00  -0.07    -0.01   0.00   0.11    -0.02  -0.00   0.01
    13   6     0.01  -0.00  -0.08    -0.01   0.00   0.08    -0.03   0.01   0.03
    14   6     0.01  -0.00  -0.08    -0.00  -0.00   0.05    -0.02   0.02   0.04
    15   6     0.00  -0.00  -0.06    -0.00  -0.00   0.00    -0.00   0.02   0.00
    16   6    -0.00  -0.00   0.00     0.00  -0.00  -0.01     0.00   0.01   0.01
    17   6    -0.00   0.00   0.01    -0.00  -0.00   0.03    -0.01  -0.01   0.02
    18   1     0.01  -0.01  -0.09    -0.00  -0.00   0.04    -0.03   0.03   0.05
    19   1    -0.00  -0.00   0.05     0.00  -0.00  -0.07     0.02   0.00  -0.00
    20   6     0.00  -0.01  -0.07     0.00   0.00  -0.04     0.02   0.05  -0.02
    21   6    -0.01   0.00   0.11     0.00   0.00  -0.00    -0.00  -0.02   0.01
    22   8     0.02  -0.00  -0.13    -0.02   0.00   0.19    -0.03  -0.01  -0.02
    23   7     0.01   0.00  -0.03    -0.01   0.00   0.07    -0.03  -0.00   0.03
    24   6    -0.01   0.01   0.14    -0.01   0.00   0.06     0.01  -0.06  -0.03
    25   6     0.01   0.01  -0.07     0.01   0.08  -0.02     0.09   0.20   0.07
    26   1     0.01   0.01  -0.05     0.02   0.08   0.05     0.09   0.20   0.20
    27   1     0.00   0.00  -0.07     0.01   0.07  -0.05     0.09   0.20   0.05
    28   1     0.01   0.03  -0.07     0.02   0.13  -0.03     0.14   0.29   0.01
    29   6    -0.00  -0.03  -0.06    -0.01  -0.07  -0.01    -0.08  -0.05   0.07
    30   1    -0.00  -0.04  -0.07    -0.03  -0.12  -0.03    -0.14  -0.16   0.01
    31   1     0.00  -0.02  -0.07    -0.01  -0.07  -0.04    -0.06  -0.02   0.07
    32   1    -0.01  -0.02  -0.05    -0.02  -0.07   0.05    -0.13  -0.04   0.19
    33   6     0.00  -0.01  -0.09     0.01  -0.00  -0.13     0.06   0.04  -0.20
    34   1     0.01  -0.02  -0.09     0.00  -0.06  -0.15     0.03  -0.07  -0.25
    35   1    -0.01   0.01  -0.09     0.02   0.05  -0.15     0.09   0.13  -0.25
    36   1    -0.00  -0.01  -0.11     0.01   0.00  -0.16     0.07   0.06  -0.23
    37   6    -0.07  -0.09   0.11    -0.03   0.13   0.05     0.05  -0.11  -0.04
    38   1    -0.06  -0.11   0.18    -0.04   0.15   0.04     0.06  -0.12  -0.06
    39   1    -0.09  -0.10   0.05    -0.01   0.14   0.15     0.04  -0.11  -0.11
    40   1    -0.10  -0.13   0.11    -0.06   0.20   0.01     0.09  -0.14   0.01
    41   6     0.04   0.09   0.11     0.03  -0.12   0.07    -0.06   0.04  -0.06
    42   1     0.07   0.09   0.07     0.01  -0.11   0.16    -0.06   0.03  -0.12
    43   1     0.02   0.12   0.16     0.04  -0.14   0.08    -0.06   0.03  -0.08
    44   1     0.05   0.11   0.11     0.08  -0.18   0.03    -0.11   0.09  -0.02
    45   6    -0.01   0.01   0.23     0.01  -0.00  -0.16     0.01  -0.02   0.11
    46   1    -0.07  -0.06   0.22     0.01   0.09  -0.21     0.02  -0.07   0.15
    47   1     0.04   0.08   0.23     0.00  -0.11  -0.20     0.00   0.05   0.14
    48   1    -0.02   0.01   0.32     0.01   0.00  -0.21     0.01  -0.03   0.12
    49   8    -0.01   0.01   0.15    -0.01   0.01   0.15    -0.02  -0.06  -0.01
    50   7    -0.02   0.01   0.22    -0.01   0.01   0.05     0.03  -0.08  -0.07
    51   1    -0.02   0.01   0.21    -0.00   0.01  -0.01     0.06  -0.07  -0.08
    52   1    -0.03   0.02   0.30    -0.01   0.01   0.12     0.03  -0.10  -0.08
    53   1     0.02  -0.01  -0.17     0.00  -0.00  -0.02    -0.03   0.04   0.02
    54   1    -0.01   0.01   0.08    -0.01   0.01   0.14    -0.04  -0.04   0.01
                      4                      5                      6
                      A                      A                      A
 Frequencies --     55.4577                60.6888                90.8530
 Red. masses --      3.5573                 3.8428                 5.5786
 Frc consts  --      0.0064                 0.0083                 0.0271
 IR Inten    --      1.0649                 0.4496                 1.8068
  Atom  AN      X      Y      Z        X      Y      Z        X      Y      Z
     1   6     0.01   0.00   0.03    -0.02  -0.00  -0.00     0.01  -0.00  -0.13
     2   6     0.01  -0.02   0.01    -0.01   0.03  -0.02     0.01  -0.00  -0.07
     3   6    -0.02  -0.03  -0.04     0.04   0.05  -0.04    -0.01  -0.00   0.01
     4   6    -0.04  -0.02  -0.07     0.08   0.02  -0.03    -0.01   0.00   0.05
     5   6    -0.03   0.01  -0.05     0.07  -0.02  -0.01    -0.01   0.01   0.03
     6   6    -0.01   0.02  -0.00     0.02  -0.04   0.01     0.00   0.00  -0.07
     7   6     0.03  -0.01   0.07    -0.06   0.02   0.01     0.01  -0.00  -0.10
     8   1    -0.02  -0.06  -0.05     0.05   0.09  -0.06    -0.01  -0.00   0.06
     9   1    -0.05  -0.02  -0.11     0.11   0.03  -0.05    -0.02   0.01   0.11
    10   1    -0.05   0.02  -0.09     0.09  -0.04  -0.01    -0.02   0.01   0.08
    11   7     0.02  -0.02   0.05    -0.04   0.04  -0.02     0.01  -0.00  -0.06
    12   6     0.02   0.00   0.06    -0.05   0.00   0.03    -0.00   0.00   0.11
    13   6     0.03  -0.01   0.08    -0.06   0.02   0.02     0.01  -0.00  -0.03
    14   6     0.02  -0.03   0.06    -0.04   0.05   0.01     0.01  -0.01  -0.08
    15   6     0.00  -0.02   0.04    -0.00   0.05   0.02     0.00  -0.01  -0.01
    16   6    -0.01  -0.01   0.05     0.01   0.02   0.03    -0.00  -0.00   0.06
    17   6     0.00   0.01   0.05    -0.01  -0.01   0.03    -0.00   0.00   0.09
    18   1     0.03  -0.04   0.05    -0.05   0.07  -0.02     0.02  -0.01  -0.15
    19   1    -0.02  -0.01   0.03     0.03   0.02   0.03    -0.01  -0.00   0.07
    20   6    -0.02  -0.05  -0.04     0.02   0.08  -0.02    -0.00  -0.01  -0.00
    21   6    -0.00   0.02  -0.01     0.01  -0.04  -0.01     0.00   0.01   0.02
    22   8     0.03   0.01   0.04    -0.06  -0.01   0.05    -0.02   0.01   0.25
    23   7     0.03   0.01   0.07    -0.05  -0.01   0.01     0.02  -0.00  -0.18
    24   6    -0.00   0.06   0.01     0.00  -0.10   0.04    -0.00   0.01  -0.01
    25   6    -0.09  -0.06  -0.10    -0.09   0.03  -0.12     0.04   0.00   0.03
    26   1    -0.07  -0.07  -0.11    -0.13   0.03  -0.21     0.06  -0.00   0.06
    27   1    -0.11  -0.09  -0.17    -0.07   0.05  -0.15     0.03  -0.01   0.05
    28   1    -0.16  -0.04  -0.07    -0.17  -0.05  -0.05     0.07   0.02   0.01
    29   6     0.08  -0.08  -0.10     0.14   0.18  -0.11    -0.05  -0.02   0.03
    30   1     0.14  -0.07  -0.06     0.24   0.21  -0.04    -0.08  -0.04   0.01
    31   1     0.07  -0.11  -0.16     0.16   0.22  -0.17    -0.04  -0.01   0.05
    32   1     0.12  -0.09  -0.12     0.11   0.19  -0.20    -0.07  -0.01   0.06
    33   6    -0.05  -0.04  -0.03     0.06   0.08   0.11    -0.01  -0.01  -0.03
    34   1    -0.01  -0.03  -0.00     0.12   0.13   0.17    -0.02  -0.02  -0.05
    35   1    -0.09  -0.03  -0.01     0.01  -0.00   0.17     0.01   0.01  -0.05
    36   1    -0.06  -0.06  -0.07     0.08   0.10   0.10    -0.01  -0.01  -0.03
    37   6     0.14  -0.06  -0.11     0.04  -0.07  -0.03     0.12   0.02  -0.04
    38   1     0.14  -0.05  -0.18     0.05  -0.09  -0.06     0.12   0.03  -0.13
    39   1     0.15  -0.06  -0.19     0.03  -0.07  -0.05     0.14   0.02  -0.05
    40   1     0.22  -0.11  -0.02     0.08  -0.07  -0.01     0.19   0.01   0.01
    41   6    -0.11   0.11  -0.13    -0.05  -0.05  -0.04    -0.11  -0.00  -0.05
    42   1    -0.10   0.11  -0.22    -0.07  -0.06  -0.06    -0.12  -0.01  -0.07
    43   1    -0.11   0.11  -0.20    -0.04  -0.08  -0.07    -0.09  -0.03  -0.13
    44   1    -0.21   0.17  -0.07    -0.08  -0.03  -0.02    -0.17   0.02  -0.01
    45   6    -0.03   0.03   0.10     0.04  -0.04   0.01    -0.01   0.01   0.02
    46   1     0.01  -0.05   0.17     0.07  -0.04   0.02     0.04   0.00   0.05
    47   1    -0.08   0.10   0.16     0.03  -0.02   0.02    -0.07   0.00   0.05
    48   1    -0.03   0.04   0.08     0.05  -0.07  -0.01    -0.01   0.01  -0.05
    49   8     0.02   0.07   0.06    -0.05  -0.11   0.04     0.02   0.00  -0.22
    50   7    -0.02   0.09  -0.03     0.04  -0.14   0.06    -0.03   0.01   0.30
    51   1    -0.05   0.08  -0.06     0.09  -0.13   0.06    -0.05   0.01   0.43
    52   1    -0.02   0.11  -0.02     0.02  -0.18   0.09    -0.03   0.02   0.33
    53   1     0.03  -0.04   0.04    -0.05   0.07  -0.02     0.00  -0.00   0.04
    54   1     0.04   0.05   0.07    -0.07  -0.08   0.03     0.02  -0.00  -0.27
                      7                      8                      9
                      A                      A                      A
 Frequencies --    110.4067               122.2113               135.4492
 Red. masses --      5.0184                 4.1304                 3.9422
 Frc consts  --      0.0360                 0.0363                 0.0426
 IR Inten    --      6.2721                 0.0875                 2.0103
  Atom  AN      X      Y      Z        X      Y      Z        X      Y      Z
     1   6     0.01   0.00  -0.01    -0.00  -0.01  -0.08    -0.03  -0.04   0.01
     2   6     0.01   0.01  -0.03     0.00  -0.01  -0.11    -0.03  -0.06   0.02
     3   6     0.01   0.01   0.02    -0.01  -0.00   0.01    -0.05  -0.07   0.00
     4   6     0.00   0.01   0.06    -0.02   0.00   0.14    -0.05  -0.07  -0.02
     5   6     0.00   0.01   0.06    -0.02   0.00   0.14    -0.05  -0.05  -0.02
     6   6     0.00   0.00   0.02    -0.01  -0.00   0.02    -0.04  -0.04  -0.00
     7   6     0.00   0.00  -0.06     0.01  -0.01  -0.12     0.01  -0.05   0.01
     8   1     0.01   0.01   0.02    -0.01  -0.00   0.01    -0.05  -0.08   0.00
     9   1     0.00   0.01   0.11    -0.03   0.01   0.26    -0.06  -0.07  -0.04
    10   1    -0.00   0.01   0.11    -0.03   0.01   0.26    -0.06  -0.04  -0.04
    11   7     0.01   0.01  -0.07     0.01  -0.01  -0.17    -0.01  -0.07   0.03
    12   6    -0.01   0.00   0.06     0.01  -0.01   0.00     0.04  -0.02   0.01
    13   6     0.00   0.00  -0.09     0.01  -0.01  -0.03     0.03  -0.04  -0.00
    14   6     0.01  -0.00  -0.20     0.00  -0.00   0.05     0.02  -0.04  -0.04
    15   6     0.01  -0.00  -0.15    -0.00  -0.00   0.13     0.02  -0.04  -0.04
    16   6     0.00   0.00  -0.09    -0.01  -0.00   0.19     0.01  -0.04  -0.02
    17   6    -0.00   0.00   0.01     0.00  -0.00   0.10     0.02  -0.01   0.00
    18   1     0.01  -0.00  -0.28     0.01  -0.01   0.02     0.02  -0.04  -0.05
    19   1     0.00   0.00  -0.09    -0.01  -0.00   0.27    -0.01  -0.04  -0.03
    20   6    -0.00  -0.00  -0.03     0.00   0.00   0.03     0.08   0.03  -0.01
    21   6    -0.00  -0.01   0.02     0.00   0.01   0.02    -0.03   0.11   0.01
    22   8    -0.03   0.01   0.23     0.01  -0.01  -0.04     0.04  -0.01   0.00
    23   7     0.00   0.00  -0.03     0.00  -0.01  -0.10    -0.01  -0.04   0.01
    24   6     0.00   0.01   0.03    -0.01  -0.01   0.01    -0.04  -0.06   0.00
    25   6     0.10  -0.10   0.02    -0.07   0.09  -0.01     0.08   0.06   0.00
    26   1     0.07  -0.09  -0.06    -0.01   0.07   0.08     0.01   0.08  -0.03
    27   1     0.12  -0.06   0.17    -0.11   0.03  -0.14     0.13   0.12   0.04
    28   1     0.20  -0.22  -0.00    -0.16   0.22   0.01     0.12  -0.01  -0.00
    29   6    -0.12   0.08   0.02     0.09  -0.07  -0.00     0.05   0.12  -0.01
    30   1    -0.21   0.16  -0.03     0.18  -0.21   0.03     0.06   0.11  -0.00
    31   1    -0.13   0.06   0.16     0.14  -0.00  -0.15     0.08   0.17   0.01
    32   1    -0.10   0.08  -0.03     0.00  -0.05   0.08    -0.01   0.13  -0.03
    33   6    -0.01  -0.00   0.05     0.01  -0.00  -0.05     0.17   0.01   0.03
    34   1    -0.06   0.06   0.03     0.06  -0.06  -0.04     0.17  -0.00   0.03
    35   1     0.03  -0.06   0.04    -0.04   0.06  -0.04     0.20  -0.04   0.03
    36   1    -0.02  -0.01   0.13     0.02   0.00  -0.14     0.21   0.06   0.05
    37   6     0.05  -0.05  -0.02     0.06   0.09   0.01     0.03   0.19  -0.00
    38   1     0.05  -0.05  -0.05     0.06   0.11  -0.05    -0.01   0.26  -0.03
    39   1     0.05  -0.05  -0.06     0.09   0.10   0.07     0.11   0.19   0.02
    40   1     0.08  -0.07   0.01     0.09   0.13   0.02     0.02   0.16   0.00
    41   6    -0.06   0.00  -0.03    -0.04  -0.03   0.01    -0.01   0.19  -0.01
    42   1    -0.08  -0.00  -0.06    -0.02  -0.02   0.05     0.05   0.19  -0.02
    43   1    -0.04  -0.03  -0.05    -0.04  -0.01  -0.05    -0.03   0.24  -0.01
    44   1    -0.08   0.04  -0.01    -0.08  -0.07   0.02    -0.03   0.17   0.00
    45   6     0.01  -0.01   0.06    -0.02   0.01  -0.07    -0.16   0.11   0.01
    46   1    -0.00  -0.04   0.07     0.06   0.06  -0.04    -0.18   0.07   0.02
    47   1     0.02   0.03   0.07    -0.11  -0.05  -0.05    -0.20   0.09   0.02
    48   1     0.01  -0.02   0.09    -0.02   0.03  -0.19    -0.19   0.19  -0.00
    49   8    -0.01   0.02   0.25    -0.02  -0.01   0.11    -0.05  -0.06   0.01
    50   7     0.02   0.01  -0.20     0.01  -0.02  -0.13    -0.03  -0.07   0.00
    51   1     0.03   0.01  -0.33     0.01  -0.02  -0.21    -0.03  -0.07   0.00
    52   1     0.02   0.01  -0.16     0.00  -0.02  -0.12    -0.04  -0.07   0.01
    53   1     0.00   0.01  -0.04     0.01  -0.02  -0.16    -0.00  -0.10   0.02
    54   1    -0.01   0.01   0.21    -0.02  -0.01   0.08    -0.06  -0.06   0.01
                     10                     11                     12
                      A                      A                      A
 Frequencies --    147.4259               150.8526               178.8645
 Red. masses --      4.8902                 6.1941                 3.8410
 Frc consts  --      0.0626                 0.0830                 0.0724
 IR Inten    --      6.7502                 7.8086                 0.9131
  Atom  AN      X      Y      Z        X      Y      Z        X      Y      Z
     1   6     0.09  -0.07  -0.02     0.01  -0.00  -0.21    -0.00   0.00   0.09
     2   6     0.08  -0.05   0.01    -0.02   0.01   0.09    -0.00   0.01   0.10
     3   6     0.05  -0.06   0.03    -0.02   0.02   0.22     0.01   0.01   0.03
     4   6     0.03  -0.05   0.02    -0.00   0.01   0.02     0.02   0.00  -0.08
     5   6     0.03  -0.04  -0.00     0.02  -0.01  -0.21     0.02  -0.00  -0.08
     6   6     0.06  -0.03  -0.02     0.02  -0.01  -0.26     0.01   0.00   0.03
     7   6     0.04  -0.05  -0.01    -0.00   0.01  -0.01    -0.01   0.00   0.01
     8   1     0.05  -0.09   0.05    -0.05   0.04   0.48     0.01   0.01   0.01
     9   1     0.01  -0.05   0.03    -0.01   0.01   0.08     0.03  -0.00  -0.17
    10   1     0.01  -0.03  -0.00     0.03  -0.01  -0.27     0.03  -0.01  -0.17
    11   7     0.06  -0.04   0.01    -0.03   0.01   0.23    -0.01   0.01   0.08
    12   6    -0.07  -0.03  -0.01     0.01   0.00  -0.02    -0.01  -0.01  -0.03
    13   6    -0.05  -0.03  -0.00     0.00   0.01   0.01    -0.01   0.00  -0.09
    14   6    -0.08  -0.04   0.01     0.01   0.01   0.02     0.00  -0.00  -0.21
    15   6    -0.07  -0.04   0.01     0.01   0.01   0.02    -0.00   0.00  -0.04
    16   6    -0.07  -0.05  -0.00     0.01   0.01   0.01    -0.01  -0.00   0.21
    17   6    -0.07  -0.04  -0.01     0.01   0.01  -0.02    -0.01  -0.01   0.14
    18   1    -0.08  -0.04   0.01     0.01   0.01   0.03     0.01   0.00  -0.33
    19   1    -0.06  -0.05  -0.01     0.01   0.01   0.02    -0.02  -0.00   0.39
    20   6    -0.01   0.06   0.01    -0.00  -0.00   0.01    -0.01   0.00  -0.04
    21   6    -0.09  -0.05  -0.01     0.01   0.00  -0.01     0.00  -0.02   0.07
    22   8    -0.06  -0.02  -0.00     0.01   0.00  -0.06    -0.01  -0.02  -0.15
    23   7     0.07  -0.08  -0.03     0.02  -0.00  -0.26    -0.01  -0.00   0.05
    24   6     0.08   0.10   0.00    -0.01  -0.02  -0.02     0.01   0.01   0.01
    25   6    -0.05   0.16  -0.01    -0.01  -0.00   0.00     0.04  -0.04  -0.01
    26   1    -0.13   0.18   0.00     0.01  -0.01   0.02     0.03  -0.04  -0.06
    27   1    -0.00   0.23  -0.03    -0.03  -0.02  -0.02     0.05  -0.02   0.06
    28   1    -0.05   0.13   0.00    -0.03   0.03   0.01     0.09  -0.10  -0.02
    29   6    -0.02   0.15  -0.00     0.02  -0.03   0.01    -0.07   0.04  -0.01
    30   1     0.03   0.08   0.01     0.03  -0.05   0.01    -0.11   0.06  -0.04
    31   1     0.05   0.25  -0.03     0.02  -0.03  -0.02    -0.06   0.05   0.05
    32   1    -0.12   0.18  -0.00     0.02  -0.03   0.02    -0.09   0.05  -0.03
    33   6     0.13   0.04   0.02    -0.02  -0.00   0.00    -0.02   0.01  -0.03
    34   1     0.16  -0.01   0.02    -0.01  -0.00   0.00     0.01   0.01  -0.01
    35   1     0.14  -0.01   0.02    -0.02   0.01   0.00    -0.05   0.02  -0.01
    36   1     0.18   0.11   0.00    -0.02  -0.01  -0.01    -0.02  -0.00  -0.06
    37   6    -0.11  -0.06  -0.00    -0.00  -0.00  -0.01     0.12   0.07   0.04
    38   1    -0.11  -0.06   0.02    -0.00  -0.00   0.00     0.13   0.05  -0.09
    39   1    -0.12  -0.06  -0.01    -0.00  -0.00  -0.01     0.11   0.08   0.13
    40   1    -0.13  -0.06  -0.01    -0.01  -0.00  -0.01     0.21   0.15   0.07
    41   6    -0.09  -0.05  -0.01     0.03   0.01  -0.00    -0.09  -0.09   0.03
    42   1    -0.10  -0.05  -0.01     0.03   0.01  -0.01    -0.04  -0.08   0.11
    43   1    -0.09  -0.05  -0.02     0.02   0.01   0.01    -0.11  -0.04  -0.11
    44   1    -0.10  -0.05  -0.01     0.04   0.01  -0.01    -0.20  -0.19   0.05
    45   6    -0.09  -0.05  -0.01     0.02   0.00  -0.01     0.01  -0.02  -0.05
    46   1    -0.09  -0.05  -0.01     0.02   0.01  -0.01     0.12   0.06  -0.01
    47   1    -0.09  -0.05  -0.01     0.02   0.01  -0.01    -0.12  -0.10  -0.02
    48   1    -0.09  -0.04  -0.01     0.02   0.00  -0.01     0.02  -0.02  -0.21
    49   8     0.19   0.12   0.03    -0.05  -0.01   0.26     0.02   0.01  -0.01
    50   7     0.00   0.18   0.00    -0.01  -0.02   0.06     0.00   0.02   0.01
    51   1    -0.08   0.17  -0.02     0.00  -0.02  -0.07    -0.00   0.02   0.03
    52   1     0.03   0.27   0.02    -0.04  -0.02   0.34     0.01   0.03  -0.02
    53   1     0.05  -0.01   0.03    -0.04   0.01   0.32    -0.01   0.02   0.01
    54   1     0.26   0.07   0.02    -0.04  -0.01   0.07     0.03   0.01   0.00
                     13                     14                     15
                      A                      A                      A
 Frequencies --    207.5080               235.0935               247.3292
 Red. masses --      1.2530                 3.7307                 1.9973
 Frc consts  --      0.0318                 0.1215                 0.0720
 IR Inten    --      1.3047                 4.0987                 2.0329
  Atom  AN      X      Y      Z        X      Y      Z        X      Y      Z
     1   6     0.00  -0.00  -0.04     0.02  -0.08   0.01    -0.00   0.01   0.06
     2   6     0.00  -0.00  -0.04     0.01  -0.10   0.01    -0.00   0.00   0.05
     3   6     0.00  -0.00  -0.01    -0.04  -0.14  -0.00    -0.01  -0.00   0.02
     4   6    -0.00  -0.00   0.03    -0.07  -0.13  -0.00    -0.01  -0.00  -0.04
     5   6    -0.00  -0.00   0.02    -0.06  -0.09   0.00    -0.01   0.01  -0.03
     6   6     0.00  -0.00  -0.02    -0.01  -0.07   0.01    -0.00   0.01   0.03
     7   6    -0.00  -0.00   0.01     0.04  -0.05  -0.00     0.02  -0.00  -0.04
     8   1     0.00  -0.00   0.00    -0.05  -0.19  -0.01    -0.01  -0.01   0.01
     9   1    -0.00   0.00   0.06    -0.08  -0.13  -0.01    -0.01  -0.01  -0.09
    10   1    -0.00   0.00   0.06    -0.09  -0.07   0.00    -0.00   0.01  -0.09
    11   7     0.00  -0.00  -0.01     0.03  -0.09   0.01     0.01  -0.01   0.00
    12   6    -0.00  -0.00   0.02    -0.00   0.06  -0.01     0.02   0.00  -0.04
    13   6    -0.01   0.00   0.06     0.01   0.01  -0.02     0.03  -0.00  -0.09
    14   6    -0.01   0.00   0.07     0.02   0.05  -0.02     0.02  -0.01  -0.07
    15   6    -0.00   0.00  -0.00    -0.00   0.08  -0.01     0.00  -0.00   0.06
    16   6     0.00  -0.00  -0.00     0.00   0.10   0.01    -0.01   0.00   0.12
    17   6    -0.00  -0.00   0.03     0.01   0.08  -0.00    -0.00   0.00  -0.04
    18   1    -0.01  -0.00   0.10     0.01   0.06  -0.03     0.03  -0.02  -0.08
    19   1     0.00  -0.00  -0.03     0.00   0.10   0.03    -0.01   0.00   0.24
    20   6    -0.00   0.00  -0.02    -0.05   0.07  -0.00     0.01   0.00   0.03
    21   6     0.00  -0.00   0.02     0.05   0.04   0.00    -0.01   0.00  -0.05
    22   8    -0.00  -0.00  -0.04     0.01   0.08   0.01     0.01   0.01   0.09
    23   7     0.00  -0.00  -0.01     0.04  -0.07   0.00     0.01   0.01  -0.00
    24   6     0.00  -0.00  -0.01    -0.00  -0.05   0.00    -0.00  -0.00   0.01
    25   6     0.02  -0.01  -0.01    -0.07   0.08  -0.01    -0.02   0.04   0.02
    26   1    -0.21   0.05  -0.16     0.12   0.03   0.12    -0.07   0.06   0.01
    27   1     0.15   0.20   0.14    -0.18  -0.09  -0.15     0.01   0.09   0.01
    28   1     0.13  -0.27  -0.01    -0.16   0.31  -0.02    -0.02   0.01   0.03
    29   6    -0.03   0.02  -0.01    -0.07   0.08   0.00     0.05  -0.02   0.01
    30   1    -0.20   0.47  -0.03    -0.13   0.22  -0.01    -0.03   0.27   0.03
    31   1    -0.26  -0.30   0.24    -0.14  -0.01   0.10    -0.12  -0.26   0.13
    32   1     0.36  -0.09  -0.25     0.04   0.05  -0.07     0.32  -0.10  -0.15
    33   6     0.00   0.00  -0.03    -0.14   0.10  -0.00     0.01   0.00  -0.02
    34   1     0.06  -0.02   0.00    -0.18   0.16  -0.01     0.12  -0.06   0.03
    35   1    -0.05   0.02  -0.00    -0.15   0.14  -0.01    -0.10   0.06   0.03
    36   1     0.01   0.01  -0.11    -0.19   0.03   0.02     0.02   0.00  -0.18
    37   6     0.02   0.02   0.01     0.05   0.01  -0.01    -0.11  -0.06  -0.02
    38   1     0.03   0.00  -0.03     0.09  -0.08  -0.05    -0.18   0.09   0.17
    39   1     0.01   0.02   0.03    -0.04  -0.00   0.01     0.04  -0.06  -0.16
    40   1     0.05   0.05   0.01     0.11   0.07   0.00    -0.28  -0.26  -0.05
    41   6    -0.02  -0.01   0.01     0.05   0.01   0.01     0.03   0.03  -0.03
    42   1     0.00  -0.01   0.03     0.03   0.01   0.01    -0.08   0.02  -0.15
    43   1    -0.02   0.00  -0.02     0.07  -0.02   0.04     0.08  -0.08   0.10
    44   1    -0.04  -0.04   0.01     0.09   0.03   0.00     0.14   0.19  -0.04
    45   6     0.00  -0.00  -0.00     0.16   0.04   0.01    -0.01   0.00  -0.03
    46   1    -0.01   0.01  -0.01     0.15   0.08  -0.02     0.12  -0.01   0.06
    47   1     0.01  -0.01  -0.01     0.23   0.08  -0.01    -0.16   0.01   0.05
    48   1    -0.00  -0.00   0.00     0.18  -0.03   0.07    -0.00  -0.00  -0.19
    49   8     0.00   0.00   0.00     0.04  -0.04   0.01    -0.02  -0.00   0.00
    50   7    -0.00   0.00  -0.00    -0.03  -0.01  -0.01     0.01  -0.02  -0.00
    51   1    -0.00   0.00  -0.01    -0.08  -0.02  -0.01     0.02  -0.01   0.02
    52   1    -0.00   0.01   0.02    -0.02   0.03  -0.01     0.01  -0.03  -0.03
    53   1     0.00  -0.00  -0.01     0.04  -0.13   0.01     0.01  -0.01   0.01
    54   1     0.01  -0.00   0.00     0.06  -0.06   0.01    -0.03  -0.00  -0.01
                     16                     17                     18
                      A                      A                      A
 Frequencies --    256.7288               261.8483               270.2633
 Red. masses --      2.4060                 1.2363                 2.6071
 Frc consts  --      0.0934                 0.0499                 0.1122
 IR Inten    --      8.2362                 5.3554                13.9937
  Atom  AN      X      Y      Z        X      Y      Z        X      Y      Z
     1   6    -0.02  -0.02   0.01    -0.01  -0.00   0.00    -0.02  -0.06  -0.01
     2   6    -0.01   0.02   0.00    -0.01   0.01  -0.00    -0.02  -0.01  -0.01
     3   6     0.02   0.03   0.01     0.01   0.02   0.00     0.01  -0.01  -0.00
     4   6     0.04   0.01   0.00     0.02   0.01   0.00     0.03  -0.03   0.01
     5   6     0.03  -0.02  -0.00     0.02  -0.00  -0.00     0.02  -0.07   0.01
     6   6     0.00  -0.03   0.00     0.00  -0.01  -0.00    -0.00  -0.08  -0.00
     7   6    -0.06   0.00  -0.01    -0.02   0.00  -0.00    -0.07  -0.01   0.00
     8   1     0.03   0.06   0.01     0.01   0.03   0.01     0.02   0.02  -0.00
     9   1     0.07   0.02   0.00     0.03   0.01   0.00     0.06  -0.02   0.02
    10   1     0.05  -0.04  -0.01     0.02  -0.01  -0.00     0.03  -0.08   0.01
    11   7    -0.04   0.02  -0.01    -0.02   0.01  -0.00    -0.05   0.01  -0.01
    12   6    -0.02  -0.03  -0.01    -0.01  -0.02   0.00    -0.05   0.01  -0.00
    13   6    -0.05  -0.00  -0.01    -0.01  -0.00  -0.00    -0.05   0.01   0.01
    14   6    -0.04   0.00   0.00     0.00   0.01   0.00    -0.01   0.05   0.01
    15   6    -0.02  -0.00   0.00     0.02   0.01  -0.01     0.05   0.06   0.01
    16   6     0.01  -0.04  -0.01     0.01  -0.01  -0.03     0.02   0.06   0.03
    17   6     0.03  -0.04  -0.02    -0.00  -0.02   0.00    -0.00   0.02  -0.00
    18   1    -0.05   0.01   0.01     0.00   0.00   0.01    -0.03   0.10   0.01
    19   1     0.01  -0.04  -0.00     0.01  -0.01  -0.04     0.02   0.06   0.05
    20   6    -0.03   0.01   0.00     0.02   0.01  -0.00     0.05   0.02  -0.00
    21   6     0.05  -0.01  -0.01    -0.02  -0.01   0.01    -0.01   0.02  -0.01
    22   8    -0.05  -0.06   0.01    -0.01  -0.03  -0.01    -0.06   0.00  -0.00
    23   7    -0.04  -0.02   0.00    -0.02  -0.00  -0.00    -0.05  -0.05   0.00
    24   6     0.01   0.01   0.00     0.00   0.00  -0.00     0.01  -0.02  -0.00
    25   6    -0.07   0.02  -0.02     0.06  -0.01   0.02     0.15  -0.07   0.05
    26   1    -0.09   0.02  -0.03     0.45  -0.11   0.30    -0.01  -0.02  -0.10
    27   1    -0.06   0.03  -0.06    -0.17  -0.36  -0.17     0.24   0.09   0.29
    28   1    -0.10   0.01   0.00    -0.06   0.44  -0.02     0.32  -0.32   0.01
    29   6    -0.06   0.01   0.01     0.05   0.00  -0.02     0.13  -0.05  -0.04
    30   1    -0.09   0.03  -0.00    -0.01   0.26   0.00     0.25  -0.21   0.01
    31   1    -0.07   0.00   0.06    -0.09  -0.19   0.08     0.20   0.03  -0.21
    32   1    -0.05   0.01   0.01     0.29  -0.06  -0.17     0.03  -0.03   0.04
    33   6    -0.03   0.01  -0.00    -0.02   0.02   0.01    -0.09   0.05  -0.02
    34   1    -0.04   0.00  -0.01    -0.08   0.06  -0.02    -0.14   0.11  -0.04
    35   1    -0.03   0.01  -0.01     0.02   0.01  -0.01    -0.10   0.12  -0.04
    36   1    -0.03   0.00  -0.00    -0.04  -0.01   0.08    -0.16  -0.05  -0.00
    37   6     0.16   0.03  -0.05    -0.01   0.01   0.01    -0.05   0.01   0.01
    38   1     0.03   0.33  -0.02    -0.01   0.02  -0.00    -0.09   0.10   0.10
    39   1     0.50   0.05  -0.17     0.00   0.02   0.03     0.03   0.02  -0.03
    40   1     0.08  -0.25   0.02    -0.00   0.02   0.01    -0.14  -0.07  -0.01
    41   6     0.18   0.04   0.06    -0.03  -0.01  -0.00    -0.02   0.03  -0.02
    42   1     0.14   0.03   0.03    -0.00  -0.00   0.02    -0.10   0.02  -0.10
    43   1     0.19   0.00   0.25    -0.04   0.02  -0.04     0.01  -0.05   0.03
    44   1     0.33   0.10   0.00    -0.07  -0.04   0.01     0.01   0.13  -0.01
    45   6    -0.06  -0.01   0.02    -0.05  -0.01   0.01     0.01   0.02  -0.01
    46   1     0.00  -0.08   0.09    -0.06  -0.02   0.00     0.09   0.04   0.04
    47   1    -0.20  -0.03   0.08    -0.06  -0.02   0.00    -0.06   0.03   0.03
    48   1    -0.08   0.06  -0.10    -0.06   0.01   0.01     0.03   0.00  -0.09
    49   8     0.05   0.02   0.00     0.02   0.01   0.00     0.09  -0.00   0.00
    50   7    -0.03   0.05   0.00    -0.01   0.02  -0.00    -0.06   0.06  -0.00
    51   1    -0.07   0.04  -0.01    -0.02   0.02  -0.00    -0.14   0.04  -0.02
    52   1    -0.01   0.09  -0.01    -0.00   0.03  -0.00    -0.03   0.14  -0.01
    53   1    -0.05   0.05  -0.01    -0.02   0.03  -0.01    -0.06   0.03  -0.01
    54   1     0.08   0.01   0.01     0.03   0.00   0.00     0.13  -0.02   0.01
                     19                     20                     21
                      A                      A                      A
 Frequencies --    278.5317               283.1581               303.4325
 Red. masses --      1.9539                 3.7784                 1.8965
 Frc consts  --      0.0893                 0.1785                 0.1029
 IR Inten    --      4.2825                 0.8899                 0.4291
  Atom  AN      X      Y      Z        X      Y      Z        X      Y      Z
     1   6    -0.02  -0.01   0.08     0.01   0.01   0.02     0.02   0.01   0.04
     2   6    -0.02   0.01   0.04     0.02  -0.01  -0.09     0.01  -0.01   0.05
     3   6     0.00   0.02   0.09    -0.02  -0.00   0.17    -0.02  -0.03   0.02
     4   6     0.03   0.00  -0.00    -0.03   0.00   0.13    -0.04  -0.01  -0.03
     5   6     0.03  -0.03  -0.09     0.00   0.00  -0.18    -0.03   0.02  -0.03
     6   6    -0.00  -0.03   0.01     0.01   0.01  -0.14     0.00   0.03   0.04
     7   6    -0.03  -0.00  -0.07     0.02  -0.00   0.04     0.04  -0.00  -0.05
     8   1     0.00   0.05   0.14    -0.04  -0.01   0.35    -0.03  -0.06   0.02
     9   1     0.05   0.01  -0.03    -0.06   0.01   0.29    -0.06  -0.02  -0.09
    10   1     0.05  -0.04  -0.22     0.01  -0.00  -0.34    -0.04   0.03  -0.07
    11   7    -0.02   0.01  -0.09     0.04  -0.02  -0.22     0.04  -0.02  -0.01
    12   6    -0.01  -0.01  -0.04     0.01   0.01   0.03    -0.00   0.00  -0.03
    13   6    -0.01  -0.00  -0.09     0.01   0.00   0.05     0.01   0.00  -0.05
    14   6    -0.01  -0.00  -0.00     0.01  -0.00   0.01     0.00   0.01   0.03
    15   6    -0.00  -0.00   0.03     0.00   0.00  -0.02     0.00   0.02  -0.00
    16   6     0.00  -0.01  -0.04    -0.00   0.01   0.01     0.00   0.01  -0.09
    17   6     0.01  -0.00  -0.03    -0.00   0.01   0.02    -0.01  -0.00  -0.01
    18   1    -0.01   0.00   0.05     0.01  -0.00  -0.02     0.00   0.01   0.11
    19   1     0.00  -0.00  -0.05     0.00   0.01   0.01    -0.00   0.01  -0.15
    20   6    -0.00  -0.01   0.04    -0.00   0.01  -0.03    -0.00   0.02   0.02
    21   6     0.01   0.01  -0.00    -0.00  -0.01   0.01    -0.01  -0.02   0.03
    22   8    -0.02  -0.01   0.05     0.02   0.01  -0.02     0.00   0.01   0.00
    23   7    -0.03  -0.01   0.04     0.00   0.02   0.23     0.04   0.01  -0.03
    24   6    -0.00  -0.00  -0.00     0.00  -0.00  -0.06     0.01   0.01   0.01
    25   6    -0.04   0.04   0.02     0.02  -0.02  -0.02     0.01   0.06   0.03
    26   1    -0.16   0.07  -0.02     0.09  -0.04   0.01    -0.13   0.09  -0.01
    27   1     0.03   0.14   0.03    -0.02  -0.08  -0.02     0.09   0.18   0.09
    28   1    -0.03  -0.05   0.04     0.02   0.02  -0.02     0.07  -0.06   0.02
    29   6     0.05  -0.06   0.02    -0.04   0.05  -0.01     0.06  -0.02  -0.01
    30   1     0.05   0.01   0.04    -0.04  -0.00  -0.03     0.12  -0.04   0.02
    31   1    -0.01  -0.15   0.01     0.00   0.11  -0.00     0.05  -0.03  -0.09
    32   1     0.14  -0.09  -0.01    -0.11   0.07   0.01     0.08  -0.03   0.00
    33   6     0.01  -0.02   0.01    -0.01   0.01  -0.01    -0.08   0.05   0.02
    34   1     0.08  -0.05   0.05    -0.06   0.03  -0.04    -0.17   0.12  -0.02
    35   1    -0.04  -0.00   0.04     0.04  -0.00  -0.03    -0.03   0.06  -0.02
    36   1     0.03  -0.00  -0.07    -0.02   0.00   0.06    -0.13  -0.02   0.11
    37   6     0.03   0.03  -0.01    -0.02  -0.02   0.01     0.05   0.01   0.01
    38   1     0.17  -0.27  -0.21    -0.11   0.18   0.14    -0.09   0.31   0.09
    39   1    -0.29   0.02   0.17     0.19  -0.01  -0.10     0.38   0.03  -0.11
    40   1     0.24   0.36  -0.01    -0.16  -0.23   0.01    -0.08  -0.26   0.04
    41   6     0.01   0.01   0.00    -0.02  -0.01  -0.00    -0.05  -0.08   0.02
    42   1     0.13   0.03   0.10    -0.10  -0.02  -0.06     0.12  -0.05   0.22
    43   1    -0.04   0.13  -0.08     0.01  -0.09   0.03    -0.12   0.09  -0.18
    44   1    -0.06  -0.12  -0.00     0.01   0.07   0.00    -0.20  -0.33   0.03
    45   6     0.01   0.02   0.03     0.00  -0.01  -0.02    -0.06  -0.03   0.03
    46   1    -0.16  -0.00  -0.08     0.11   0.01   0.05    -0.09  -0.07   0.03
    47   1     0.23   0.05  -0.06    -0.12  -0.03   0.04    -0.07  -0.04   0.03
    48   1     0.01   0.01   0.27     0.01  -0.01  -0.17    -0.08   0.01   0.05
    49   8     0.03   0.00   0.00    -0.02  -0.00   0.00    -0.03   0.00  -0.00
    50   7    -0.03   0.03   0.01     0.01  -0.01   0.05     0.05  -0.03  -0.00
    51   1    -0.06   0.02   0.02     0.02  -0.01   0.03     0.10  -0.02   0.03
    52   1    -0.02   0.06  -0.02    -0.01  -0.03   0.16     0.04  -0.09  -0.03
    53   1    -0.02   0.02  -0.09     0.05  -0.04  -0.25     0.04  -0.03  -0.01
    54   1     0.04  -0.00   0.00    -0.04   0.00   0.06    -0.04   0.01  -0.02
                     22                     23                     24
                      A                      A                      A
 Frequencies --    312.2625               324.9713               334.8933
 Red. masses --      1.9893                 1.2925                 2.2443
 Frc consts  --      0.1143                 0.0804                 0.1483
 IR Inten    --      0.6848                 0.1132                 1.5211
  Atom  AN      X      Y      Z        X      Y      Z        X      Y      Z
     1   6    -0.02  -0.01   0.02    -0.01  -0.01  -0.03     0.02   0.00  -0.01
     2   6    -0.02   0.01   0.02    -0.01   0.00  -0.03     0.02  -0.01  -0.01
     3   6     0.01   0.02   0.01     0.01   0.01  -0.02    -0.02  -0.03  -0.00
     4   6     0.03  -0.00  -0.02     0.02   0.00   0.02    -0.05  -0.02   0.00
     5   6     0.02  -0.03  -0.00     0.01  -0.01   0.02    -0.04   0.01  -0.00
     6   6    -0.01  -0.03   0.02    -0.00  -0.02  -0.03     0.01   0.02  -0.01
     7   6    -0.02   0.00  -0.03    -0.01   0.00   0.04     0.01  -0.00   0.01
     8   1     0.01   0.04  -0.00     0.01   0.02  -0.02    -0.03  -0.07   0.00
     9   1     0.06   0.00  -0.04     0.02   0.01   0.06    -0.07  -0.02   0.02
    10   1     0.03  -0.04  -0.02     0.01  -0.02   0.05    -0.05   0.03   0.01
    11   7    -0.03   0.01  -0.01    -0.01   0.01   0.02     0.02  -0.00   0.00
    12   6     0.00   0.02  -0.01     0.01   0.00   0.01    -0.09   0.07  -0.01
    13   6    -0.00   0.00  -0.02     0.01   0.00   0.02    -0.06   0.01  -0.00
    14   6     0.00   0.00   0.02     0.01   0.00  -0.03    -0.07  -0.01  -0.02
    15   6     0.01  -0.00  -0.01     0.00   0.00   0.01    -0.04  -0.02  -0.01
    16   6     0.01   0.02  -0.06    -0.00   0.01   0.06    -0.06   0.03  -0.01
    17   6     0.01   0.03   0.01     0.00   0.00  -0.01    -0.05   0.06  -0.00
[...]
 ! A10   A(3,4,5)                0.0664                  3.0                    !
 ! A12   A(5,4,9)               -0.0402                  1.8                    !
 ! A13   A(4,5,6)               -0.0568                  2.5                    !
 ! A14   A(4,5,10)               0.0384                  1.7                    !
 --------------------------------------------------------------------------------
                           ----------------------------
                           ! Normal Mode   150        !
 --------------------------                            --------------------------
 ! Name  Definition              Value          Relative Weight (%)             !
 --------------------------------------------------------------------------------
 ! R20   R(13,14)               -0.0451                  2.8                    !
 ! R21   R(14,15)               -0.0445                  2.8                    !
 ! R22   R(14,18)                1.0811                 67.2                    !
 ! R36   R(25,26)                0.0216                  1.3                    !
 ! R41   R(29,32)                0.04                    2.5                    !
 ! A29   A(7,13,14)              0.0297                  1.8                    !
 ! A30   A(12,13,14)            -0.0277                  1.7                    !
 ! A31   A(13,14,15)             0.0566                  3.5                    !
 ! A32   A(13,14,18)            -0.0255                  1.6                    !
 ! A33   A(15,14,18)            -0.0311                  1.9                    !
 ! A34   A(14,15,16)            -0.027                   1.7                    !
 ! A35   A(14,15,20)             0.029                   1.8                    !
 --------------------------------------------------------------------------------
                           ----------------------------
                           ! Normal Mode   151        !
 --------------------------                            --------------------------
 ! Name  Definition              Value          Relative Weight (%)             !
 --------------------------------------------------------------------------------
 ! R4    R(2,3)                  0.0304                  1.3                    !
 ! R7    R(3,8)                 -0.6327                 27.5                    !
 ! R8    R(4,5)                 -0.0506                  2.2                    !
 ! R9    R(4,9)                  0.4563                 19.8                    !
 ! R10   R(5,6)                 -0.0328                  1.4                    !
 ! R11   R(5,10)                 0.7521                 32.7                    !
 ! R22   R(14,18)                0.0162                  0.7                    !
 ! A4    A(1,2,3)                0.0152                  0.7                    !
 ! A6    A(3,2,11)              -0.0168                  0.7                    !
 ! A7    A(2,3,4)               -0.0458                  2.0                    !
 ! A9    A(4,3,8)                0.033                   1.4                    !
 ! A10   A(3,4,5)                0.0213                  0.9                    !
 ! A11   A(3,4,9)               -0.032                   1.4                    !
 ! A13   A(4,5,6)                0.0284                  1.2                    !
 ! A15   A(6,5,10)              -0.0226                  1.0                    !
 ! A16   A(1,6,5)               -0.0191                  0.8                    !
 ! A18   A(5,6,24)               0.0209                  0.9                    !
 --------------------------------------------------------------------------------
                           ----------------------------
                           ! Normal Mode   152        !
 --------------------------                            --------------------------
 ! Name  Definition              Value          Relative Weight (%)             !
 --------------------------------------------------------------------------------
 ! R4    R(2,3)                  0.0381                  1.8                    !
 ! R6    R(3,4)                  0.0636                  3.0                    !
 ! R7    R(3,8)                 -0.8226                 38.9                    !
 ! R8    R(4,5)                  0.0378                  1.8                    !
 ! R9    R(4,9)                 -0.6403                 30.2                    !
 ! R11   R(5,10)                -0.3036                 14.3                    !
 ! A7    A(2,3,4)               -0.0265                  1.3                    !
 --------------------------------------------------------------------------------
                           ----------------------------
                           ! Normal Mode   153        !
 --------------------------                            --------------------------
 ! Name  Definition              Value          Relative Weight (%)             !
 --------------------------------------------------------------------------------
 ! R23   R(15,16)                0.0417                  2.6                    !
 ! R25   R(16,17)                0.0434                  2.8                    !
 ! R26   R(16,19)               -1.0812                 68.6                    !
 ! R42   R(33,34)               -0.0169                  1.1                    !
 ! R43   R(33,35)               -0.0128                  0.8                    !
 ! R52   R(45,47)               -0.0183                  1.2                    !
 ! A34   A(14,15,16)             0.0278                  1.8                    !
 ! A36   A(16,15,20)            -0.029                   1.8                    !
 ! A37   A(15,16,17)            -0.0569                  3.6                    !
 ! A38   A(15,16,19)             0.0258                  1.6                    !
 ! A39   A(17,16,19)             0.0311                  2.0                    !
 ! A40   A(12,17,16)             0.028                   1.8                    !
 ! A42   A(16,17,21)            -0.0295                  1.9                    !
 --------------------------------------------------------------------------------
                           ----------------------------
                           ! Normal Mode   154        !
 --------------------------                            --------------------------
 ! Name  Definition              Value          Relative Weight (%)             !
 --------------------------------------------------------------------------------
 ! R5    R(2,11)                 0.0486                  3.4                    !
 ! R13   R(7,11)                 0.0422                  2.9                    !
 ! R16   R(11,53)               -1.0713                 74.2                    !
 ! A5    A(1,2,11)               0.0234                  1.6                    !
 ! A6    A(3,2,11)              -0.0245                  1.7                    !
 ! A19   A(11,7,13)             -0.0247                  1.7                    !
 ! A20   A(11,7,23)              0.0244                  1.7                    !
 ! A22   A(2,11,7)              -0.0483                  3.3                    !
 ! A23   A(2,11,53)              0.0562                  3.9                    !
 --------------------------------------------------------------------------------
                           ----------------------------
                           ! Normal Mode   155        !
 --------------------------                            --------------------------
 ! Name  Definition              Value          Relative Weight (%)             !
 --------------------------------------------------------------------------------
 ! R35   R(24,50)               -0.0562                  3.4                    !
 ! R55   R(50,51)                0.6263                 37.7                    !
 ! R56   R(50,52)                0.8294                 49.9                    !
 ! A98   A(51,50,52)            -0.0464                  2.8                    !
 --------------------------------------------------------------------------------
                           ----------------------------
                           ! Normal Mode   156        !
 --------------------------                            --------------------------
 ! Name  Definition              Value          Relative Weight (%)             !
 --------------------------------------------------------------------------------
 ! R55   R(50,51)                0.873                  49.5                    !
 ! R56   R(50,52)               -0.6711                 38.1                    !
 ! A96   A(24,50,51)            -0.0576                  3.3                    !
 ! A97   A(24,50,52)             0.0593                  3.4                    !
 --------------------------------------------------------------------------------
 Max01P=     43 Av01P=   24.38 Stan. Dev.=    7.88
 Max05P=      9 Av05P=    1.41 Stan. Dev.=    2.25
 Max10P=      6 Av10P=    0.58 Stan. Dev.=    1.21
 MaxNDP=     94 AvNDP=   65.96 Stan. Dev.=   17.20
 -------------------------------------------------------------------
 Center     Atomic                   Forces (Hartrees/Bohr)
 Number     Number              X              Y              Z
 -------------------------------------------------------------------
      1        6          -0.000000956   -0.000000414   -0.000001452
      2        6           0.000000836    0.000000340   -0.000002399
      3        6          -0.000000662   -0.000000171   -0.000003822
      4        6          -0.000000954    0.000000184   -0.000003363
      5        6          -0.000000241   -0.000000512   -0.000001829
      6        6          -0.000001200    0.000000822   -0.000001593
      7        6           0.000001256    0.000000566   -0.000000686
      8        1          -0.000000335   -0.000000355   -0.000004218
      9        1          -0.000000665   -0.000000279   -0.000004187
     10        1          -0.000000872    0.000000294   -0.000002575
     11        7          -0.000001297   -0.000000692   -0.000001803
     12        6          -0.000000236    0.000000211    0.000000074
     13        6          -0.000000435   -0.000000936   -0.000000714
     14        6           0.000000722    0.000000437    0.000000933
     15        6          -0.000000586    0.000000232    0.000001435
     16        6           0.000000358   -0.000000138    0.000001069
     17        6           0.000000782   -0.000000279   -0.000000940
     18        1          -0.000000336    0.000000224    0.000001307
     19        1           0.000000014   -0.000000120    0.000001424
     20        6           0.000000510    0.000000129    0.000002933
     21        6           0.000000074   -0.000000886   -0.000000940
     22        8           0.000000150   -0.000000281   -0.000002172
     23        7          -0.000000820    0.000000657   -0.000000909
     24        6           0.000000558   -0.000000672   -0.000000164
     25        6           0.000001035   -0.000000178    0.000003096
     26        1           0.000000932   -0.000000330    0.000002819
     27        1           0.000001033   -0.000000178    0.000004165
     28        1           0.000001629   -0.000000854    0.000003001
     29        6          -0.000000791    0.000001040    0.000002937
     30        1          -0.000001206    0.000001574    0.000002910
     31        1          -0.000000620    0.000001199    0.000004027
     32        1          -0.000000811    0.000001176    0.000002803
     33        6           0.000000568    0.000000237    0.000003443
     34        1          -0.000000205    0.000000685    0.000003113
     35        1           0.000000935   -0.000000276    0.000003136
     36        1           0.000000360    0.000000414    0.000004274
     37        6           0.000000870   -0.000001163   -0.000001706
     38        1           0.000001391   -0.000001432   -0.000001926
     39        1           0.000001185   -0.000001485   -0.000002171
     40        1           0.000001880   -0.000001737   -0.000001080
     41        6          -0.000000415    0.000000222   -0.000001597
     42        1          -0.000000593    0.000000021   -0.000002372
     43        1          -0.000000406   -0.000000086   -0.000002092
     44        1          -0.000001067    0.000000706   -0.000001189
     45        6           0.000000710   -0.000000156   -0.000000005
     46        1           0.000001187   -0.000000757    0.000000610
     47        1          -0.000000002    0.000000116    0.000000530
     48        1           0.000000739   -0.000000402   -0.000000478
     49        8          -0.000000187    0.000001792    0.000000814
     50        7          -0.000001274    0.000000542   -0.000000150
     51        1          -0.000000731    0.000000422   -0.000000654
     52        1          -0.000000781    0.000000989    0.000000769
     53        1           0.000000076   -0.000000311   -0.000002898
     54        1          -0.000001105   -0.000000151    0.000000465
 -------------------------------------------------------------------
 Cartesian Forces:  Max     0.000004274 RMS     0.000001467
 FormGI is forming the generalized inverse of G from B-inverse, IUseBI=4.
 Leave Link  716 at Tue Feb 12 17:45:43 2019, MaxMem=  1342177280 cpu:              12.3 elap:               0.9
 (Enter /gpfs/apps/hpc/Apps/Restricted/Gaussian/g16/Rev_B.01-AVX/g16/l9999.exe)

 ----------------------------------------------------------------------

 Electric dipole moment (input orientation):
 (Debye = 10**-18 statcoulomb cm , SI units = C m)
                  (au)            (Debye)         (10**-30 SI)
   Tot        0.444203D+01      0.112905D+02      0.376611D+02
   x          0.107075D+01      0.272156D+01      0.907816D+01
   y          0.419859D+01      0.106718D+02      0.355972D+02
   z          0.978223D+00      0.248639D+01      0.829372D+01

 Dipole polarizability, Alpha (input orientation).
 (esu units = cm**3 , SI units = C**2 m**2 J**-1)
 Alpha(0;0):
               (au)            (10**-24 esu)      (10**-40 SI)
   iso        0.422960D+03      0.626762D+02      0.697366D+02
   aniso      0.386835D+03      0.573231D+02      0.637805D+02
   xx         0.462945D+03      0.686013D+02      0.763292D+02
   yx         0.422673D+02      0.626337D+01      0.696894D+01
   yy         0.618281D+03      0.916197D+02      0.101941D+03
   zx         0.211472D+02      0.313369D+01      0.348670D+01
   zy        -0.937705D+01     -0.138954D+01     -0.154607D+01
   zz         0.187654D+03      0.278075D+02      0.309400D+02

 ----------------------------------------------------------------------

 Dipole orientation:
     6         -2.10106719          0.79630505          4.78655021
     6         -4.61837111          1.65758148          4.56490151
     6         -5.89992239          2.68622862          6.61842370
     6         -4.58283142          2.83162661          8.90536569
     6         -2.08883036          1.97877125          9.15896708
     6         -0.79262469          0.93189090          7.10006790
     6         -3.17773260          0.18609759          0.89821159
     1         -7.82580577          3.35665439          6.45727820
     1         -5.52070810          3.62762008         10.53957891
     1         -1.17966008          2.15018221         10.98451565
     7         -5.22463627          1.22966161          2.07157409
     6         -5.35723656         -0.08777470         -3.35523020
     6         -3.11846429         -0.48232461         -1.76065027
     6         -0.92565947         -1.45383272         -2.78152427
     6         -0.75957325         -2.10277083         -5.35983627
     6         -2.90843099         -1.75353888         -6.90403220
     6         -5.17365871         -0.79373556         -6.03201136
     1          0.70117379         -1.70538720         -1.56664003
     1         -2.76030635         -2.26553087         -8.87135620
     6          1.73391022         -3.11062563         -6.38442497
     6         -7.45413477         -0.45679814         -7.76844841
     8         -7.34845893          0.83186095         -2.43485157
     7         -1.24500777         -0.10286666          2.51570583
     6          1.78472007         -0.03096557          7.15028416
     6          3.78093361         -1.06742049         -5.97962573
     1          3.97544015         -0.58390106         -3.98266208
     1          5.60253341         -1.77092093         -6.65346910
     1          3.32131645          0.65290522         -7.02540763
     6          2.47813579         -5.51064040         -4.90124261
     1          1.07695647         -7.00476355         -5.15944451
     1          4.29823964         -6.20243743         -5.59030332
     1          2.66185955         -5.13109226         -2.88100818
     6          1.60151000         -3.75887971         -9.20679470
     1          0.21225192         -5.23957249         -9.58694544
     1          1.12559217         -2.10356432        -10.34667432
     1          3.44459386         -4.44635531         -9.83072451
     6         -8.18953842          2.36686151         -7.89473282
     1         -9.80887462          2.59188828         -9.15841187
     1         -8.69588615          3.09587216         -6.03853950
     1         -6.62860830          3.49238201         -8.64629008
     6         -9.69994705         -2.02614086         -6.75377302
     1        -10.26775371         -1.38764586         -4.88239647
     1        -11.30632639         -1.83435926         -8.03903769
     1         -9.19580467         -4.02668763         -6.64701520
     6         -6.88305312         -1.35358273        -10.47158576
     1         -5.34182006         -0.27703006        -11.32769538
     1         -6.38385003         -3.35738086        -10.52095472
     1         -8.56705664         -1.08639057        -11.63388456
     8          2.80527340         -0.91013805          5.08501350
     7          3.19075980         -0.08728448          9.19369426
     1          2.54939836          0.51654219         10.88395142
     1          4.96869634         -0.77957070          9.09295746
     1         -6.84787120          1.56586216          1.10077111
     1          1.55197969         -0.81038826          3.62593195

 Electric dipole moment (dipole orientation):
 (Debye = 10**-18 statcoulomb cm , SI units = C m)
                  (au)            (Debye)         (10**-30 SI)
   Tot        0.444203D+01      0.112905D+02      0.376611D+02
   x          0.000000D+00      0.000000D+00      0.000000D+00
   y          0.000000D+00      0.000000D+00      0.000000D+00
   z          0.444203D+01      0.112905D+02      0.376611D+02

 Dipole polarizability, Alpha (dipole orientation).
 (esu units = cm**3 , SI units = C**2 m**2 J**-1)
 Alpha(0;0):
               (au)            (10**-24 esu)      (10**-40 SI)
   iso        0.422960D+03      0.626762D+02      0.697366D+02
   aniso      0.386835D+03      0.573231D+02      0.637805D+02
   xx         0.426778D+03      0.632420D+02      0.703662D+02
   yx        -0.773692D+02     -0.114649D+02     -0.127565D+02
   yy         0.236128D+03      0.349906D+02      0.389323D+02
   zx         0.290734D+02      0.430824D+01      0.479356D+01
   zy         0.940328D+02      0.139342D+02      0.155039D+02
   zz         0.605973D+03      0.897959D+02      0.999114D+02

 ----------------------------------------------------------------------

 This type of calculation cannot be archived.


 TOWERING GENIUS DISDAINS A BEATEN PATH.  IT SEEKS 
 REGIONS HITHERTO UNEXPLORED.

                                -- ABRAHAM LINCOLN
 Job cpu time:       0 days  0 hours  0 minutes 26.6 seconds.
 Elapsed time:       0 days  0 hours  0 minutes  2.0 seconds.
 File lengths (MBytes):  RWF=     72 Int=      0 D2E=      0 Chk=     56 Scr=      8
 Normal termination of Gaussian 16 at Tue Feb 12 17:45:43 2019.
