 Entering Gaussian System, Link 0=g16
 Initial command:
 /gpfs/apps/hpc/Apps/Restricted/Gaussian/g16/Rev_B.01-AVX/g16/l1.exe "/gpfs/scratch60/fas/hammes_schiffer/jg2487/c42n02/Gau-367659.inp" -scrdir="/gpfs/scratch60/fas/hammes_schiffer/jg2487/c42n02/"
 Entering Link 1 = /gpfs/apps/hpc/Apps/Restricted/Gaussian/g16/Rev_B.01-AVX/g16/l1.exe PID=    367660.
  
 Copyright (c) 1988-2017, Gaussian, Inc.  All Rights Reserved.
  
 This is part of the Gaussian(R) 16 program.  It is based on
 the Gaussian(R) 09 system (copyright 2009, Gaussian, Inc.),
 the Gaussian(R) 03 system (copyright 2003, Gaussian, Inc.),
 the Gaussian(R) 98 system (copyright 1998, Gaussian, Inc.),
 the Gaussian(R) 94 system (copyright 1995, Gaussian, Inc.),
 the Gaussian 92(TM) system (copyright 1992, Gaussian, Inc.),
 the Gaussian 90(TM) system (copyright 1990, Gaussian, Inc.),
 the Gaussian 88(TM) system (copyright 1988, Gaussian, Inc.),
 the Gaussian 86(TM) system (copyright 1986, Carnegie Mellon
 University), and the Gaussian 82(TM) system (copyright 1983,
 Carnegie Mellon University). Gaussian is a federally registered
 trademark of Gaussian, Inc.
  
 This software contains proprietary and confidential information,
 including trade secrets, belonging to Gaussian, Inc.
  
 This software is provided under written license and may be
 used, copied, transmitted, or stored only in accord with that
 written license.
  
 The following legend is applicable only to US Government
 contracts under FAR:
  
                    RESTRICTED RIGHTS LEGEND
  
 Use, reproduction and disclosure by the US Government is
 subject to restrictions as set forth in subparagraphs (a)
 and (c) of the Commercial Computer Software - Restricted
 Rights clause in FAR 52.227-19.
  
 Gaussian, Inc.
 340 Quinnipiac St., Bldg. 40, Wallingford CT 06492
  
  
 ---------------------------------------------------------------
 Warning -- This program may not be used in any manner that
 competes with the business of Gaussian, Inc. or will provide
 assistance to any competitor of Gaussian, Inc.  The licensee
 of this program is prohibited from giving any competitor of
 Gaussian, Inc. access to this program.  By using this program,
 the user acknowledges that Gaussian, Inc. is engaged in the
 business of creating and licensing software in the field of
 computational chemistry and represents and warrants to the
 licensee that it is not a competitor of Gaussian, Inc. and that
 it will not use this program in any manner prohibited above.
 ---------------------------------------------------------------
  

 Cite this work as:
 Gaussian 16, Revision B.01,
 M. J. Frisch, G. W. Trucks, H. B. Schlegel, G. E. Scuseria, 
 M. A. Robb, J. R. Cheeseman, G. Scalmani, V. Barone, 
 G. A. Petersson, H. Nakatsuji, X. Li, M. Caricato, A. V. Marenich, 
 J. Bloino, B. G. Janesko, R. Gomperts, B. Mennucci, H. P. Hratchian, 
 J. V. Ortiz, A. F. Izmaylov, J. L. Sonnenberg, D. Williams-Young, 
 F. Ding, F. Lipparini, F. Egidi, J. Goings, B. Peng, A. Petrone, 
 T. Henderson, D. Ranasinghe, V. G. Zakrzewski, J. Gao, N. Rega, 
 G. Zheng, W. Liang, M. Hada, M. Ehara, K. Toyota, R. Fukuda, 
 J. Hasegawa, M. Ishida, T. Nakajima, Y. Honda, O. Kitao, H. Nakai, 
 T. Vreven, K. Throssell, J. A. Montgomery, Jr., J. E. Peralta, 
 F. Ogliaro, M. J. Bearpark, J. J. Heyd, E. N. Brothers, K. N. Kudin, 
 V. N. Staroverov, T. A. Keith, R. Kobayashi, J. Normand, 
 K. Raghavachari, A. P. Rendell, J. C. Burant, S. S. Iyengar, 
 J. Tomasi, M. Cossi, J. M. Millam, M. Klene, C. Adamo, R. Cammi, 
 J. W. Ochterski, R. L. Martin, K. Morokuma, O. Farkas, 
 J. B. Foresman, and D. J. Fox, Gaussian, Inc., Wallingford CT, 2016.
 
 ******************************************
 Gaussian 16:  ES64L-G16RevB.01 20-Dec-2017
                12-Feb-2019 
 ******************************************
 %chk=amide-monoBIP-neutral.chk
 %mem=10GB
 %nprocshared=16
 Will use up to   16 processors via shared memory.
 ----------------------------------------------------------------
 #p freq(ReadFC,InternalModes) Geom(AllCheck) NoSymm scale=0.9631
 ----------------------------------------------------------------
 1/18=20,29=7,38=1,114=963100/1,3;
 2/9=110,12=2,15=1,40=1/2;
 7/8=21,25=11,30=1/16;
 99/5=2/99;
 Leave Link    1 at Tue Feb 12 10:29:22 2019, MaxMem=  1342177280 cpu:               7.9 elap:               0.5
 (Enter /gpfs/apps/hpc/Apps/Restricted/Gaussian/g16/Rev_B.01-AVX/g16/l101.exe)
 Structure from the checkpoint file:  "amide-monoBIP-neutral.chk"
 -----------------------------------------
 Simple amide-monoBIP neutral optimization
 -----------------------------------------
 Charge =  0 Multiplicity = 1
 Redundant internal coordinates found in file.  (old form).
 C,0,-0.4710129257,2.7192297398,0.4044667074
 C,0,-1.8702022868,2.9064168273,0.296027374
 C,0,-2.3937226429,4.1964808431,0.1848581098
 C,0,-1.4957039711,5.2641541943,0.1840207638
 C,0,-0.1116144207,5.06541843,0.2974633033
 C,0,0.4406915658,3.7831495008,0.4182794676
 C,0,-1.5202028557,0.7616024206,0.4150325784
 H,0,-3.4610231697,4.3568067578,0.0947990418
 H,0,-1.873610964,6.2753975243,0.0918608962
 H,0,0.5353481275,5.9345405543,0.275421206
 N,0,-2.4930614296,1.6683733997,0.3092232862
 C,0,-3.0645579806,-1.1808832629,0.3590054044
 C,0,-1.7404784263,-0.6747588183,0.4379177951
 C,0,-0.6565271176,-1.5609140859,0.5121185781
 C,0,-0.842708834,-2.9375332868,0.5128805348
 C,0,-2.1625717026,-3.4076026935,0.4416106769
 C,0,-3.2842651687,-2.57753733,0.3671784244
 H,0,0.3494070079,-1.1603543717,0.564120426
 H,0,-2.3243579199,-4.474190736,0.4430434134
 C,0,0.3720670243,-3.8704846022,0.5623768317
 C,0,-4.7034662188,-3.1641333694,0.2943893533
 O,0,-4.120508735,-0.340362959,0.2741563028
 H,0,-3.7735080334,0.5976691671,0.2683603742
 N,0,-0.2870365868,1.3596149412,0.4807568684
 H,0,0.6312173918,0.9396649502,0.5370284421
 C,0,1.8889235687,3.4729585652,0.551451719
 C,0,1.2362111008,-3.6302576852,-0.6924373024
 H,0,1.5605295569,-2.5885314451,-0.751958477
 H,0,2.1281267493,-4.2634538043,-0.6675991872
 H,0,0.6761520756,-3.8640855524,-1.6018476635
 C,0,1.212889258,-3.5572656413,1.8157950371
 H,0,0.6344860373,-3.7298617931,2.7274018386
 H,0,2.0982178786,-4.1991458364,1.8457268935
 H,0,1.5502575591,-2.5177891791,1.8180978766
 C,0,-0.0329440069,-5.3501143059,0.6022826227
 H,0,-0.6306362525,-5.5810399898,1.4882742744
 H,0,-0.6072510297,-5.6352051128,-0.2835452346
 H,0,0.8646674216,-5.972723409,0.6326247872
 C,0,-5.3822706226,-2.736304598,-1.0239741349
 H,0,-6.3942803853,-3.1497227428,-1.0708580036
 H,0,-5.4461181638,-1.6520306626,-1.1050399137
 H,0,-4.8210263984,-3.115546568,-1.8826437593
 C,0,-5.5361097436,-2.6771539463,1.4997865759
 H,0,-5.6376560224,-1.5927227521,1.5006917604
 H,0,-6.5356767582,-3.1208530603,1.4651859219
 H,0,-5.0616527568,-2.9806951159,2.4371318302
 C,0,-4.6874613433,-4.7012788887,0.3306291295
 H,0,-4.1352085161,-5.1212027533,-0.5142512438
 H,0,-4.2410501156,-5.081315758,1.2534096655
 H,0,-5.7149012556,-5.0690306716,0.2768882185
 O,0,2.2895035725,2.296552127,0.5288048194
 N,0,2.7468383545,4.5092909607,0.6817345356
 H,0,2.4325424826,5.4464336015,0.8723817493
 H,0,3.7163518377,4.2932681426,0.8567970446
 Recover connectivity data from disk.
 ITRead=  0  0  0  0  0  0  0  0  0  0  0  0  0  0  0  0  0  0  0  0
 ITRead=  0  0  0  0  0  0  0  0  0  0  0  0  0  0  0  0  0  0  0  0
 ITRead=  0  0  0  0  0  0  0  0  0  0  0  0  0  0
 MicOpt= -1 -1 -1 -1 -1 -1 -1 -1 -1 -1 -1 -1 -1 -1 -1 -1 -1 -1 -1 -1
 MicOpt= -1 -1 -1 -1 -1 -1 -1 -1 -1 -1 -1 -1 -1 -1 -1 -1 -1 -1 -1 -1
 MicOpt= -1 -1 -1 -1 -1 -1 -1 -1 -1 -1 -1 -1 -1 -1
 NAtoms=     54 NQM=       54 NQMF=       0 NMMI=      0 NMMIF=      0
                NMic=       0 NMicF=      0.
                    Isotopes and Nuclear Properties:
 (Nuclear quadrupole moments (NQMom) in fm**2, nuclear magnetic moments (NMagM)
  in nuclear magnetons)

  Atom         1           2           3           4           5           6           7           8           9          10
 IAtWgt=          12          12          12          12          12          12          12           1           1           1
 AtmWgt=  12.0000000  12.0000000  12.0000000  12.0000000  12.0000000  12.0000000  12.0000000   1.0078250   1.0078250   1.0078250
 NucSpn=           0           0           0           0           0           0           0           1           1           1
 AtZEff=   3.6000000   3.6000000   3.6000000   3.6000000   3.6000000   3.6000000   3.6000000   1.0000000   1.0000000   1.0000000
 NQMom=    0.0000000   0.0000000   0.0000000   0.0000000   0.0000000   0.0000000   0.0000000   0.0000000   0.0000000   0.0000000
 NMagM=    0.0000000   0.0000000   0.0000000   0.0000000   0.0000000   0.0000000   0.0000000   2.7928460   2.7928460   2.7928460
 AtZNuc=   6.0000000   6.0000000   6.0000000   6.0000000   6.0000000   6.0000000   6.0000000   1.0000000   1.0000000   1.0000000

  Atom        11          12          13          14          15          16          17          18          19          20
 IAtWgt=          14          12          12          12          12          12          12           1           1          12
 AtmWgt=  14.0030740  12.0000000  12.0000000  12.0000000  12.0000000  12.0000000  12.0000000   1.0078250   1.0078250  12.0000000
 NucSpn=           2           0           0           0           0           0           0           1           1           0
 AtZEff=   4.5500000   3.6000000   3.6000000   3.6000000   3.6000000   3.6000000   3.6000000   1.0000000   1.0000000   3.6000000
 NQMom=    2.0440000   0.0000000   0.0000000   0.0000000   0.0000000   0.0000000   0.0000000   0.0000000   0.0000000   0.0000000
 NMagM=    0.4037610   0.0000000   0.0000000   0.0000000   0.0000000   0.0000000   0.0000000   2.7928460   2.7928460   0.0000000
 AtZNuc=   7.0000000   6.0000000   6.0000000   6.0000000   6.0000000   6.0000000   6.0000000   1.0000000   1.0000000   6.0000000

  Atom        21          22          23          24          25          26          27          28          29          30
 IAtWgt=          12          16           1          14           1          12          12           1           1           1
 AtmWgt=  12.0000000  15.9949146   1.0078250  14.0030740   1.0078250  12.0000000  12.0000000   1.0078250   1.0078250   1.0078250
 NucSpn=           0           0           1           2           1           0           0           1           1           1
 AtZEff=   3.6000000   5.6000000   1.0000000   4.5500000   1.0000000   3.6000000   3.6000000   1.0000000   1.0000000   1.0000000
 NQMom=    0.0000000   0.0000000   0.0000000   2.0440000   0.0000000   0.0000000   0.0000000   0.0000000   0.0000000   0.0000000
 NMagM=    0.0000000   0.0000000   2.7928460   0.4037610   2.7928460   0.0000000   0.0000000   2.7928460   2.7928460   2.7928460
 AtZNuc=   6.0000000   8.0000000   1.0000000   7.0000000   1.0000000   6.0000000   6.0000000   1.0000000   1.0000000   1.0000000

  Atom        31          32          33          34          35          36          37          38          39          40
 IAtWgt=          12           1           1           1          12           1           1           1          12           1
 AtmWgt=  12.0000000   1.0078250   1.0078250   1.0078250  12.0000000   1.0078250   1.0078250   1.0078250  12.0000000   1.0078250
 NucSpn=           0           1           1           1           0           1           1           1           0           1
 AtZEff=   3.6000000   1.0000000   1.0000000   1.0000000   3.6000000   1.0000000   1.0000000   1.0000000   3.6000000   1.0000000
 NQMom=    0.0000000   0.0000000   0.0000000   0.0000000   0.0000000   0.0000000   0.0000000   0.0000000   0.0000000   0.0000000
 NMagM=    0.0000000   2.7928460   2.7928460   2.7928460   0.0000000   2.7928460   2.7928460   2.7928460   0.0000000   2.7928460
 AtZNuc=   6.0000000   1.0000000   1.0000000   1.0000000   6.0000000   1.0000000   1.0000000   1.0000000   6.0000000   1.0000000

  Atom        41          42          43          44          45          46          47          48          49          50
 IAtWgt=           1           1          12           1           1           1          12           1           1           1
 AtmWgt=   1.0078250   1.0078250  12.0000000   1.0078250   1.0078250   1.0078250  12.0000000   1.0078250   1.0078250   1.0078250
 NucSpn=           1           1           0           1           1           1           0           1           1           1
 AtZEff=   1.0000000   1.0000000   3.6000000   1.0000000   1.0000000   1.0000000   3.6000000   1.0000000   1.0000000   1.0000000
 NQMom=    0.0000000   0.0000000   0.0000000   0.0000000   0.0000000   0.0000000   0.0000000   0.0000000   0.0000000   0.0000000
 NMagM=    2.7928460   2.7928460   0.0000000   2.7928460   2.7928460   2.7928460   0.0000000   2.7928460   2.7928460   2.7928460
 AtZNuc=   1.0000000   1.0000000   6.0000000   1.0000000   1.0000000   1.0000000   6.0000000   1.0000000   1.0000000   1.0000000

  Atom        51          52          53          54
 IAtWgt=          16          14           1           1
 AtmWgt=  15.9949146  14.0030740   1.0078250   1.0078250
 NucSpn=           0           2           1           1
 AtZEff=   5.6000000   4.5500000   1.0000000   1.0000000
 NQMom=    0.0000000   2.0440000   0.0000000   0.0000000
 NMagM=    0.0000000   0.4037610   2.7928460   2.7928460
 AtZNuc=   8.0000000   7.0000000   1.0000000   1.0000000
 Leave Link  101 at Tue Feb 12 10:29:22 2019, MaxMem=  1342177280 cpu:               5.4 elap:               0.4
 (Enter /gpfs/apps/hpc/Apps/Restricted/Gaussian/g16/Rev_B.01-AVX/g16/l103.exe)

 GradGradGradGradGradGradGradGradGradGradGradGradGradGradGradGradGradGrad
 Berny optimization.
 Initialization pass.
                           ----------------------------
                           !    Initial Parameters    !
                           ! (Angstroms and Degrees)  !
 --------------------------                            --------------------------
 ! Name  Definition              Value          Derivative Info.                !
 --------------------------------------------------------------------------------
 ! R1    R(1,2)                  1.4158         estimate D2E/DX2                !
 ! R2    R(1,6)                  1.4012         estimate D2E/DX2                !
 ! R3    R(1,24)                 1.3741         estimate D2E/DX2                !
 ! R4    R(2,3)                  1.3967         estimate D2E/DX2                !
 ! R5    R(2,11)                 1.386          estimate D2E/DX2                !
 ! R6    R(3,4)                  1.3951         estimate D2E/DX2                !
 ! R7    R(3,8)                  1.083          estimate D2E/DX2                !
 ! R8    R(4,5)                  1.4029         estimate D2E/DX2                !
 ! R9    R(4,9)                  1.0835         estimate D2E/DX2                !
 ! R10   R(5,6)                  1.4014         estimate D2E/DX2                !
 ! R11   R(5,10)                 1.0837         estimate D2E/DX2                !
 ! R12   R(6,26)                 1.4871         estimate D2E/DX2                !
 ! R13   R(7,11)                 1.3341         estimate D2E/DX2                !
 ! R14   R(7,13)                 1.4533         estimate D2E/DX2                !
 ! R15   R(7,24)                 1.3721         estimate D2E/DX2                !
 ! R16   R(12,13)                1.4197         estimate D2E/DX2                !
 ! R17   R(12,17)                1.4139         estimate D2E/DX2                !
 ! R18   R(12,22)                1.3523         estimate D2E/DX2                !
 ! R19   R(13,14)                1.402          estimate D2E/DX2                !
 ! R20   R(14,15)                1.3892         estimate D2E/DX2                !
 ! R21   R(14,18)                1.084          estimate D2E/DX2                !
 ! R22   R(15,16)                1.4029         estimate D2E/DX2                !
 ! R23   R(15,20)                1.5325         estimate D2E/DX2                !
 ! R24   R(16,17)                1.3974         estimate D2E/DX2                !
 ! R25   R(16,19)                1.0788         estimate D2E/DX2                !
 ! R26   R(17,21)                1.5374         estimate D2E/DX2                !
 ! R27   R(20,27)                1.5424         estimate D2E/DX2                !
 ! R28   R(20,31)                1.5415         estimate D2E/DX2                !
 ! R29   R(20,35)                1.5346         estimate D2E/DX2                !
 ! R30   R(21,39)                1.5433         estimate D2E/DX2                !
 ! R31   R(21,43)                1.5438         estimate D2E/DX2                !
 ! R32   R(21,47)                1.5377         estimate D2E/DX2                !
 ! R33   R(22,23)                1.0002         estimate D2E/DX2                !
 ! R34   R(24,25)                1.0113         estimate D2E/DX2                !
 ! R35   R(26,51)                1.2429         estimate D2E/DX2                !
 ! R36   R(26,52)                1.3517         estimate D2E/DX2                !
 ! R37   R(27,28)                1.0927         estimate D2E/DX2                !
 ! R38   R(27,29)                1.0941         estimate D2E/DX2                !
 ! R39   R(27,30)                1.0933         estimate D2E/DX2                !
 ! R40   R(31,32)                1.0933         estimate D2E/DX2                !
 ! R41   R(31,33)                1.0939         estimate D2E/DX2                !
 ! R42   R(31,34)                1.0929         estimate D2E/DX2                !
 ! R43   R(35,36)                1.0934         estimate D2E/DX2                !
 ! R44   R(35,37)                1.0935         estimate D2E/DX2                !
 ! R45   R(35,38)                1.0928         estimate D2E/DX2                !
 ! R46   R(39,40)                1.0942         estimate D2E/DX2                !
 ! R47   R(39,41)                1.0892         estimate D2E/DX2                !
 ! R48   R(39,42)                1.0937         estimate D2E/DX2                !
 ! R49   R(43,44)                1.0892         estimate D2E/DX2                !
 ! R50   R(43,45)                1.0942         estimate D2E/DX2                !
 ! R51   R(43,46)                1.0936         estimate D2E/DX2                !
 ! R52   R(47,48)                1.0932         estimate D2E/DX2                !
 ! R53   R(47,49)                1.0933         estimate D2E/DX2                !
 ! R54   R(47,50)                1.0926         estimate D2E/DX2                !
 ! R55   R(52,53)                1.0067         estimate D2E/DX2                !
 ! R56   R(52,54)                1.0086         estimate D2E/DX2                !
 ! A1    A(2,1,6)              122.9149         estimate D2E/DX2                !
 ! A2    A(2,1,24)             105.5085         estimate D2E/DX2                !
 ! A3    A(6,1,24)             131.5765         estimate D2E/DX2                !
 ! A4    A(1,2,3)              119.9106         estimate D2E/DX2                !
 ! A5    A(1,2,11)             108.9837         estimate D2E/DX2                !
 ! A6    A(3,2,11)             131.1016         estimate D2E/DX2                !
 ! A7    A(2,3,4)              117.7522         estimate D2E/DX2                !
 ! A8    A(2,3,8)              120.8469         estimate D2E/DX2                !
 ! A9    A(4,3,8)              121.3993         estimate D2E/DX2                !
 ! A10   A(3,4,5)              121.7762         estimate D2E/DX2                !
 ! A11   A(3,4,9)              119.3281         estimate D2E/DX2                !
 ! A12   A(5,4,9)              118.8957         estimate D2E/DX2                !
 ! A13   A(4,5,6)              121.6974         estimate D2E/DX2                !
 ! A14   A(4,5,10)             118.2772         estimate D2E/DX2                !
 ! A15   A(6,5,10)             120.0196         estimate D2E/DX2                !
 ! A16   A(1,6,5)              115.943          estimate D2E/DX2                !
 ! A17   A(1,6,26)             118.436          estimate D2E/DX2                !
 ! A18   A(5,6,26)             125.6205         estimate D2E/DX2                !
 ! A19   A(11,7,13)            124.2264         estimate D2E/DX2                !
 ! A20   A(11,7,24)            111.2813         estimate D2E/DX2                !
 ! A21   A(13,7,24)            124.4867         estimate D2E/DX2                !
 ! A22   A(2,11,7)             106.271          estimate D2E/DX2                !
 ! A23   A(13,12,17)           119.7865         estimate D2E/DX2                !
 ! A24   A(13,12,22)           120.6749         estimate D2E/DX2                !
 ! A25   A(17,12,22)           119.5386         estimate D2E/DX2                !
 ! A26   A(7,13,12)            119.5259         estimate D2E/DX2                !
 ! A27   A(7,13,14)            120.5519         estimate D2E/DX2                !
 ! A28   A(12,13,14)           119.9116         estimate D2E/DX2                !
 ! A29   A(13,14,15)           121.5172         estimate D2E/DX2                !
 ! A30   A(13,14,18)           119.1062         estimate D2E/DX2                !
 ! A31   A(15,14,18)           119.3756         estimate D2E/DX2                !
 ! A32   A(14,15,16)           117.2656         estimate D2E/DX2                !
 ! A33   A(14,15,20)           119.8061         estimate D2E/DX2                !
 ! A34   A(16,15,20)           122.9171         estimate D2E/DX2                !
 ! A35   A(15,16,17)           123.9773         estimate D2E/DX2                !
 ! A36   A(15,16,19)           118.1844         estimate D2E/DX2                !
 ! A37   A(17,16,19)           117.8382         estimate D2E/DX2                !
 ! A38   A(12,17,16)           117.5389         estimate D2E/DX2                !
 ! A39   A(12,17,21)           121.3385         estimate D2E/DX2                !
 ! A40   A(16,17,21)           121.1226         estimate D2E/DX2                !
 ! A41   A(15,20,27)           108.8452         estimate D2E/DX2                !
 ! A42   A(15,20,31)           109.569          estimate D2E/DX2                !
 ! A43   A(15,20,35)           112.2479         estimate D2E/DX2                !
 ! A44   A(27,20,31)           108.9212         estimate D2E/DX2                !
 ! A45   A(27,20,35)           108.6141         estimate D2E/DX2                !
 ! A46   A(31,20,35)           108.5864         estimate D2E/DX2                !
 ! A47   A(17,21,39)           109.9191         estimate D2E/DX2                !
 ! A48   A(17,21,43)           109.9106         estimate D2E/DX2                !
 ! A49   A(17,21,47)           111.7591         estimate D2E/DX2                !
 ! A50   A(39,21,43)           110.0176         estimate D2E/DX2                !
 ! A51   A(39,21,47)           107.5675         estimate D2E/DX2                !
 ! A52   A(43,21,47)           107.6104         estimate D2E/DX2                !
 ! A53   A(12,22,23)           108.2031         estimate D2E/DX2                !
 ! A54   A(1,24,7)             107.9537         estimate D2E/DX2                !
 ! A55   A(1,24,25)            122.3801         estimate D2E/DX2                !
 ! A56   A(7,24,25)            129.6236         estimate D2E/DX2                !
 ! A57   A(6,26,51)            120.6416         estimate D2E/DX2                !
 ! A58   A(6,26,52)            117.8296         estimate D2E/DX2                !
 ! A59   A(51,26,52)           121.5248         estimate D2E/DX2                !
 ! A60   A(20,27,28)           111.0447         estimate D2E/DX2                !
 ! A61   A(20,27,29)           110.3722         estimate D2E/DX2                !
 ! A62   A(20,27,30)           110.8786         estimate D2E/DX2                !
 ! A63   A(28,27,29)           108.1211         estimate D2E/DX2                !
 ! A64   A(28,27,30)           108.0972         estimate D2E/DX2                !
 ! A65   A(29,27,30)           108.2219         estimate D2E/DX2                !
 ! A66   A(20,31,32)           110.9366         estimate D2E/DX2                !
 ! A67   A(20,31,33)           110.1493         estimate D2E/DX2                !
 ! A68   A(20,31,34)           111.3073         estimate D2E/DX2                !
 ! A69   A(32,31,33)           108.2222         estimate D2E/DX2                !
 ! A70   A(32,31,34)           108.1622         estimate D2E/DX2                !
 ! A71   A(33,31,34)           107.9512         estimate D2E/DX2                !
 ! A72   A(20,35,36)           111.6525         estimate D2E/DX2                !
 ! A73   A(20,35,37)           111.6489         estimate D2E/DX2                !
 ! A74   A(20,35,38)           109.4672         estimate D2E/DX2                !
 ! A75   A(36,35,37)           108.3157         estimate D2E/DX2                !
 ! A76   A(36,35,38)           107.8281         estimate D2E/DX2                !
 ! A77   A(37,35,38)           107.7782         estimate D2E/DX2                !
 ! A78   A(21,39,40)           109.7949         estimate D2E/DX2                !
 ! A79   A(21,39,41)           111.4276         estimate D2E/DX2                !
 ! A80   A(21,39,42)           110.4164         estimate D2E/DX2                !
 ! A81   A(40,39,41)           108.5856         estimate D2E/DX2                !
 ! A82   A(40,39,42)           108.0574         estimate D2E/DX2                !
 ! A83   A(41,39,42)           108.4722         estimate D2E/DX2                !
 ! A84   A(21,43,44)           111.4072         estimate D2E/DX2                !
 ! A85   A(21,43,45)           109.883          estimate D2E/DX2                !
 ! A86   A(21,43,46)           110.3464         estimate D2E/DX2                !
 ! A87   A(44,43,45)           108.5784         estimate D2E/DX2                !
 ! A88   A(44,43,46)           108.4273         estimate D2E/DX2                !
 ! A89   A(45,43,46)           108.1136         estimate D2E/DX2                !
 ! A90   A(21,47,48)           111.7792         estimate D2E/DX2                !
 ! A91   A(21,47,49)           111.817          estimate D2E/DX2                !
 ! A92   A(21,47,50)           108.9975         estimate D2E/DX2                !
 ! A93   A(48,47,49)           108.2112         estimate D2E/DX2                !
 ! A94   A(48,47,50)           107.9228         estimate D2E/DX2                !
 ! A95   A(49,47,50)           107.9683         estimate D2E/DX2                !
 ! A96   A(26,52,53)           122.2661         estimate D2E/DX2                !
 ! A97   A(26,52,54)           117.5571         estimate D2E/DX2                !
 ! A98   A(53,52,54)           117.8162         estimate D2E/DX2                !
 ! D1    D(6,1,2,3)              0.5712         estimate D2E/DX2                !
 ! D2    D(6,1,2,11)           179.9185         estimate D2E/DX2                !
 ! D3    D(24,1,2,3)          -179.3442         estimate D2E/DX2                !
 ! D4    D(24,1,2,11)            0.0031         estimate D2E/DX2                !
 ! D5    D(2,1,6,5)             -0.91           estimate D2E/DX2                !
 ! D6    D(2,1,6,26)           179.3299         estimate D2E/DX2                !
 ! D7    D(24,1,6,5)           178.981          estimate D2E/DX2                !
 ! D8    D(24,1,6,26)           -0.7791         estimate D2E/DX2                !
 ! D9    D(2,1,24,7)             0.2451         estimate D2E/DX2                !
 ! D10   D(2,1,24,25)          178.0812         estimate D2E/DX2                !
 ! D11   D(6,1,24,7)          -179.66           estimate D2E/DX2                !
 ! D12   D(6,1,24,25)           -1.8239         estimate D2E/DX2                !
 ! D13   D(1,2,3,4)              0.0787         estimate D2E/DX2                !
 ! D14   D(1,2,3,8)            179.6117         estimate D2E/DX2                !
 ! D15   D(11,2,3,4)          -179.1022         estimate D2E/DX2                !
 ! D16   D(11,2,3,8)             0.4308         estimate D2E/DX2                !
 ! D17   D(1,2,11,7)            -0.2548         estimate D2E/DX2                !
 ! D18   D(3,2,11,7)           178.9943         estimate D2E/DX2                !
 ! D19   D(2,3,4,5)             -0.3376         estimate D2E/DX2                !
 ! D20   D(2,3,4,9)            179.5626         estimate D2E/DX2                !
 ! D21   D(8,3,4,5)           -179.8679         estimate D2E/DX2                !
 ! D22   D(8,3,4,9)              0.0323         estimate D2E/DX2                !
 ! D23   D(3,4,5,6)             -0.0341         estimate D2E/DX2                !
 ! D24   D(3,4,5,10)           179.0903         estimate D2E/DX2                !
 ! D25   D(9,4,5,6)           -179.9347         estimate D2E/DX2                !
 ! D26   D(9,4,5,10)            -0.8103         estimate D2E/DX2                !
 ! D27   D(4,5,6,1)              0.6394         estimate D2E/DX2                !
 ! D28   D(4,5,6,26)          -179.6201         estimate D2E/DX2                !
 ! D29   D(10,5,6,1)          -178.47           estimate D2E/DX2                !
 ! D30   D(10,5,6,26)            1.2705         estimate D2E/DX2                !
 ! D31   D(1,6,26,51)            6.4194         estimate D2E/DX2                !
 ! D32   D(1,6,26,52)         -174.3019         estimate D2E/DX2                !
 ! D33   D(5,6,26,51)         -173.3153         estimate D2E/DX2                !
 ! D34   D(5,6,26,52)            5.9634         estimate D2E/DX2                !
 ! D35   D(13,7,11,2)         -178.7536         estimate D2E/DX2                !
 ! D36   D(24,7,11,2)            0.4187         estimate D2E/DX2                !
 ! D37   D(11,7,13,12)          -0.7135         estimate D2E/DX2                !
 ! D38   D(11,7,13,14)         178.1016         estimate D2E/DX2                !
 ! D39   D(24,7,13,12)        -179.7779         estimate D2E/DX2                !
 ! D40   D(24,7,13,14)          -0.9628         estimate D2E/DX2                !
 ! D41   D(11,7,24,1)           -0.427          estimate D2E/DX2                !
 ! D42   D(11,7,24,25)        -178.0543         estimate D2E/DX2                !
 ! D43   D(13,7,24,1)          178.7428         estimate D2E/DX2                !
 ! D44   D(13,7,24,25)           1.1155         estimate D2E/DX2                !
 ! D45   D(17,12,13,7)         179.3623         estimate D2E/DX2                !
 ! D46   D(17,12,13,14)          0.5395         estimate D2E/DX2                !
 ! D47   D(22,12,13,7)          -0.5512         estimate D2E/DX2                !
 ! D48   D(22,12,13,14)       -179.374          estimate D2E/DX2                !
 ! D49   D(13,12,17,16)         -0.5911         estimate D2E/DX2                !
 ! D50   D(13,12,17,21)        179.5177         estimate D2E/DX2                !
 ! D51   D(22,12,17,16)        179.3234         estimate D2E/DX2                !
 ! D52   D(22,12,17,21)         -0.5678         estimate D2E/DX2                !
 ! D53   D(13,12,22,23)          0.7393         estimate D2E/DX2                !
 ! D54   D(17,12,22,23)       -179.1744         estimate D2E/DX2                !
 ! D55   D(7,13,14,15)        -178.9178         estimate D2E/DX2                !
 ! D56   D(7,13,14,18)           0.7166         estimate D2E/DX2                !
 ! D57   D(12,13,14,15)         -0.1073         estimate D2E/DX2                !
 ! D58   D(12,13,14,18)        179.5272         estimate D2E/DX2                !
 ! D59   D(13,14,15,16)         -0.2474         estimate D2E/DX2                !
 ! D60   D(13,14,15,20)        178.5752         estimate D2E/DX2                !
 ! D61   D(18,14,15,16)       -179.8809         estimate D2E/DX2                !
 ! D62   D(18,14,15,20)         -1.0583         estimate D2E/DX2                !
 ! D63   D(14,15,16,17)          0.1833         estimate D2E/DX2                !
 ! D64   D(14,15,16,19)       -179.8893         estimate D2E/DX2                !
 ! D65   D(20,15,16,17)       -178.5995         estimate D2E/DX2                !
 ! D66   D(20,15,16,19)          1.3278         estimate D2E/DX2                !
 ! D67   D(14,15,20,27)        -61.6115         estimate D2E/DX2                !
 ! D68   D(14,15,20,31)         57.3987         estimate D2E/DX2                !
 ! D69   D(14,15,20,35)        178.1223         estimate D2E/DX2                !
 ! D70   D(16,15,20,27)        117.1417         estimate D2E/DX2                !
 ! D71   D(16,15,20,31)       -123.8481         estimate D2E/DX2                !
 ! D72   D(16,15,20,35)         -3.1245         estimate D2E/DX2                !
 ! D73   D(15,16,17,12)          0.236          estimate D2E/DX2                !
 ! D74   D(15,16,17,21)       -179.8727         estimate D2E/DX2                !
 ! D75   D(19,16,17,12)       -179.6917         estimate D2E/DX2                !
 ! D76   D(19,16,17,21)          0.1997         estimate D2E/DX2                !
 ! D77   D(12,17,21,39)         61.1376         estimate D2E/DX2                !
 ! D78   D(12,17,21,43)        -60.0934         estimate D2E/DX2                !
 ! D79   D(12,17,21,47)       -179.502          estimate D2E/DX2                !
 ! D80   D(16,17,21,39)       -118.7496         estimate D2E/DX2                !
 ! D81   D(16,17,21,43)        120.0193         estimate D2E/DX2                !
 ! D82   D(16,17,21,47)          0.6108         estimate D2E/DX2                !
 ! D83   D(15,20,27,28)         58.396          estimate D2E/DX2                !
 ! D84   D(15,20,27,29)        178.2882         estimate D2E/DX2                !
 ! D85   D(15,20,27,30)        -61.8014         estimate D2E/DX2                !
 ! D86   D(31,20,27,28)        -61.0186         estimate D2E/DX2                !
 ! D87   D(31,20,27,29)         58.8735         estimate D2E/DX2                !
 ! D88   D(31,20,27,30)        178.784          estimate D2E/DX2                !
 ! D89   D(35,20,27,28)       -179.1175         estimate D2E/DX2                !
 ! D90   D(35,20,27,29)        -59.2254         estimate D2E/DX2                !
 ! D91   D(35,20,27,30)         60.6851         estimate D2E/DX2                !
 ! D92   D(15,20,31,32)         61.7892         estimate D2E/DX2                !
 ! D93   D(15,20,31,33)       -178.4079         estimate D2E/DX2                !
 ! D94   D(15,20,31,34)        -58.7052         estimate D2E/DX2                !
 ! D95   D(27,20,31,32)       -179.2475         estimate D2E/DX2                !
 ! D96   D(27,20,31,33)        -59.4446         estimate D2E/DX2                !
 ! D97   D(27,20,31,34)         60.2581         estimate D2E/DX2                !
 ! D98   D(35,20,31,32)        -61.1311         estimate D2E/DX2                !
 ! D99   D(35,20,31,33)         58.6718         estimate D2E/DX2                !
 ! D100  D(35,20,31,34)        178.3744         estimate D2E/DX2                !
 ! D101  D(15,20,35,36)        -60.9082         estimate D2E/DX2                !
 ! D102  D(15,20,35,37)         60.5139         estimate D2E/DX2                !
 ! D103  D(15,20,35,38)        179.7706         estimate D2E/DX2                !
 ! D104  D(27,20,35,36)        178.6916         estimate D2E/DX2                !
 ! D105  D(27,20,35,37)        -59.8863         estimate D2E/DX2                !
 ! D106  D(27,20,35,38)         59.3704         estimate D2E/DX2                !
 ! D107  D(31,20,35,36)         60.3807         estimate D2E/DX2                !
 ! D108  D(31,20,35,37)       -178.1971         estimate D2E/DX2                !
 ! D109  D(31,20,35,38)        -58.9405         estimate D2E/DX2                !
 ! D110  D(17,21,39,40)       -179.6526         estimate D2E/DX2                !
 ! D111  D(17,21,39,41)        -59.3119         estimate D2E/DX2                !
 ! D112  D(17,21,39,42)         61.303          estimate D2E/DX2                !
 ! D113  D(43,21,39,40)        -58.4857         estimate D2E/DX2                !
 ! D114  D(43,21,39,41)         61.855          estimate D2E/DX2                !
 ! D115  D(43,21,39,42)       -177.5301         estimate D2E/DX2                !
 ! D116  D(47,21,39,40)         58.4563         estimate D2E/DX2                !
 ! D117  D(47,21,39,41)        178.7969         estimate D2E/DX2                !
 ! D118  D(47,21,39,42)        -60.5882         estimate D2E/DX2                !
 ! D119  D(17,21,43,44)         61.464          estimate D2E/DX2                !
 ! D120  D(17,21,43,45)       -178.1589         estimate D2E/DX2                !
 ! D121  D(17,21,43,46)        -59.0334         estimate D2E/DX2                !
 ! D122  D(39,21,43,44)        -59.7079         estimate D2E/DX2                !
 ! D123  D(39,21,43,45)         60.6692         estimate D2E/DX2                !
 ! D124  D(39,21,43,46)        179.7947         estimate D2E/DX2                !
 ! D125  D(47,21,43,44)       -176.6231         estimate D2E/DX2                !
 ! D126  D(47,21,43,45)        -56.246          estimate D2E/DX2                !
 ! D127  D(47,21,43,46)         62.8795         estimate D2E/DX2                !
 ! D128  D(17,21,47,48)        -60.8029         estimate D2E/DX2                !
 ! D129  D(17,21,47,49)         60.694          estimate D2E/DX2                !
 ! D130  D(17,21,47,50)        179.9855         estimate D2E/DX2                !
 ! D131  D(39,21,47,48)         59.937          estimate D2E/DX2                !
 ! D132  D(39,21,47,49)       -178.5661         estimate D2E/DX2                !
 ! D133  D(39,21,47,50)        -59.2746         estimate D2E/DX2                !
 ! D134  D(43,21,47,48)        178.4397         estimate D2E/DX2                !
 ! D135  D(43,21,47,49)        -60.0634         estimate D2E/DX2                !
 ! D136  D(43,21,47,50)         59.2282         estimate D2E/DX2                !
 ! D137  D(6,26,52,53)          12.3338         estimate D2E/DX2                !
 ! D138  D(6,26,52,54)         174.4969         estimate D2E/DX2                !
 ! D139  D(51,26,52,53)       -168.3943         estimate D2E/DX2                !
 ! D140  D(51,26,52,54)         -6.2312         estimate D2E/DX2                !
 --------------------------------------------------------------------------------
 Trust Radius=3.00D-01 FncErr=1.00D-07 GrdErr=1.00D-07 EigMax=2.50D+02 EigMin=1.00D-04
 Number of steps in this run=    304 maximum allowed number of steps=    324.
 GradGradGradGradGradGradGradGradGradGradGradGradGradGradGradGradGradGrad

 Leave Link  103 at Tue Feb 12 10:29:22 2019, MaxMem=  1342177280 cpu:               0.5 elap:               0.1
 (Enter /gpfs/apps/hpc/Apps/Restricted/Gaussian/g16/Rev_B.01-AVX/g16/l202.exe)
 Symmetry turned off by external request.
 Stoichiometry    C22H27N3O2
 Framework group  C1[X(C22H27N3O2)]
 Deg. of freedom   156
 Full point group                 C1      NOp   1
                          Input orientation:                          
 ---------------------------------------------------------------------
 Center     Atomic      Atomic             Coordinates (Angstroms)
 Number     Number       Type             X           Y           Z
 ---------------------------------------------------------------------
      1          6           0       -0.471013    2.719230    0.404467
      2          6           0       -1.870202    2.906417    0.296027
      3          6           0       -2.393723    4.196481    0.184858
      4          6           0       -1.495704    5.264154    0.184021
      5          6           0       -0.111614    5.065418    0.297463
      6          6           0        0.440692    3.783150    0.418279
      7          6           0       -1.520203    0.761602    0.415033
      8          1           0       -3.461023    4.356807    0.094799
      9          1           0       -1.873611    6.275398    0.091861
     10          1           0        0.535348    5.934541    0.275421
     11          7           0       -2.493061    1.668373    0.309223
     12          6           0       -3.064558   -1.180883    0.359005
     13          6           0       -1.740478   -0.674759    0.437918
     14          6           0       -0.656527   -1.560914    0.512119
     15          6           0       -0.842709   -2.937533    0.512881
     16          6           0       -2.162572   -3.407603    0.441611
     17          6           0       -3.284265   -2.577537    0.367178
     18          1           0        0.349407   -1.160354    0.564120
     19          1           0       -2.324358   -4.474191    0.443043
     20          6           0        0.372067   -3.870485    0.562377
     21          6           0       -4.703466   -3.164133    0.294389
     22          8           0       -4.120509   -0.340363    0.274156
     23          1           0       -3.773508    0.597669    0.268360
     24          7           0       -0.287037    1.359615    0.480757
     25          1           0        0.631217    0.939665    0.537028
     26          6           0        1.888924    3.472959    0.551452
     27          6           0        1.236211   -3.630258   -0.692437
     28          1           0        1.560530   -2.588531   -0.751958
     29          1           0        2.128127   -4.263454   -0.667599
     30          1           0        0.676152   -3.864086   -1.601848
     31          6           0        1.212889   -3.557266    1.815795
     32          1           0        0.634486   -3.729862    2.727402
     33          1           0        2.098218   -4.199146    1.845727
     34          1           0        1.550258   -2.517789    1.818098
     35          6           0       -0.032944   -5.350114    0.602283
     36          1           0       -0.630636   -5.581040    1.488274
     37          1           0       -0.607251   -5.635205   -0.283545
     38          1           0        0.864667   -5.972723    0.632625
     39          6           0       -5.382271   -2.736305   -1.023974
     40          1           0       -6.394280   -3.149723   -1.070858
     41          1           0       -5.446118   -1.652031   -1.105040
     42          1           0       -4.821026   -3.115547   -1.882644
     43          6           0       -5.536110   -2.677154    1.499787
     44          1           0       -5.637656   -1.592723    1.500692
     45          1           0       -6.535677   -3.120853    1.465186
     46          1           0       -5.061653   -2.980695    2.437132
     47          6           0       -4.687461   -4.701279    0.330629
     48          1           0       -4.135209   -5.121203   -0.514251
     49          1           0       -4.241050   -5.081316    1.253410
     50          1           0       -5.714901   -5.069031    0.276888
     51          8           0        2.289504    2.296552    0.528805
     52          7           0        2.746838    4.509291    0.681735
     53          1           0        2.432542    5.446434    0.872382
     54          1           0        3.716352    4.293268    0.856797
 ---------------------------------------------------------------------
 Rotational constants (GHZ):           0.2872361           0.1108631           0.0829397
 Leave Link  202 at Tue Feb 12 10:29:23 2019, MaxMem=  1342177280 cpu:               1.3 elap:               0.1
 (Enter /gpfs/apps/hpc/Apps/Restricted/Gaussian/g16/Rev_B.01-AVX/g16/l716.exe)
 Electric field and nuclear coordinate derivatives read from checkpoint file.
 Dipole        = 1.79038282D+00 1.69957822D+00 3.66319865D-01
 Polarizability= 4.21604413D+02 3.07046183D+01 5.34632249D+02
                 1.52187811D+01-7.48088745D+00 1.88865705D+02
 Full mass-weighted force constant matrix:
 Low frequencies ---   -7.3276   -0.0012    0.0008    0.0026    4.5526   20.3755
 Low frequencies ---   24.1567   39.2574   45.6709
 Diagonal vibrational polarizability:
       88.8869822      72.2006231     200.6821668
 Harmonic frequencies (cm**-1), IR intensities (KM/Mole), Raman scattering
 activities (A**4/AMU), depolarization ratios for plane and unpolarized
 incident light, reduced masses (AMU), force constants (mDyne/A),
 and normal coordinates:
                      1                      2                      3
                      A                      A                      A
 Frequencies --     21.5354                38.2308                44.6326
 Red. masses --      4.7194                 2.9106                 4.0184
 Frc consts  --      0.0013                 0.0025                 0.0047
 IR Inten    --      0.2153                 0.2855                 1.3907
  Atom  AN      X      Y      Z        X      Y      Z        X      Y      Z
     1   6     0.00   0.00  -0.01     0.00   0.01   0.01    -0.00   0.00   0.01
     2   6     0.01  -0.00  -0.10    -0.00  -0.00   0.02    -0.01   0.01   0.06
     3   6     0.01  -0.00  -0.13    -0.01  -0.01   0.02    -0.01   0.02   0.15
     4   6     0.01  -0.00  -0.07    -0.02  -0.00   0.00    -0.01   0.02   0.18
     5   6     0.00   0.00   0.01    -0.02   0.01  -0.01    -0.00   0.01   0.12
     6   6     0.00   0.00   0.04    -0.01   0.02  -0.00    -0.00   0.00   0.03
     7   6     0.00  -0.00  -0.07     0.01  -0.00   0.03    -0.00   0.00  -0.05
     8   1     0.02  -0.01  -0.19    -0.02  -0.02   0.02    -0.01   0.02   0.20
     9   1     0.01  -0.00  -0.10    -0.03  -0.01  -0.00    -0.01   0.02   0.25
    10   1     0.00   0.01   0.05    -0.03   0.01  -0.02    -0.00   0.01   0.14
    11   7     0.01  -0.00  -0.13     0.01  -0.01   0.03    -0.00   0.01   0.02
    12   6     0.00   0.00  -0.04     0.01   0.00   0.02     0.00   0.00  -0.08
    13   6     0.00  -0.00  -0.07     0.01  -0.00   0.03     0.00   0.00  -0.06
    14   6     0.01   0.00  -0.08     0.01  -0.01   0.03     0.00   0.01  -0.03
    15   6     0.00   0.00  -0.05     0.01  -0.01   0.03     0.00   0.01   0.00
    16   6    -0.00   0.00   0.01     0.00   0.00   0.00     0.00   0.00   0.01
    17   6    -0.00   0.00   0.02     0.01   0.00  -0.01    -0.00   0.00  -0.02
    18   1     0.01   0.00  -0.13     0.01  -0.00   0.04    -0.00   0.01  -0.01
    19   1    -0.00   0.00   0.05    -0.00   0.00  -0.00     0.00   0.00   0.05
    20   6     0.00  -0.00  -0.07    -0.01  -0.03   0.01    -0.00   0.00   0.03
    21   6    -0.01  -0.00   0.09     0.01   0.01  -0.05     0.00  -0.01  -0.00
    22   8     0.00   0.00  -0.07     0.01   0.00   0.03     0.01   0.00  -0.15
    23   1     0.01  -0.00  -0.11     0.02   0.00   0.04     0.01   0.00  -0.10
    24   7     0.00   0.00   0.00     0.01   0.01   0.02     0.00   0.00  -0.07
    25   1    -0.01   0.00   0.09     0.01   0.01   0.01     0.01   0.00  -0.13
    26   6    -0.01   0.01   0.15    -0.00   0.03  -0.01     0.00  -0.01  -0.06
    27   6    -0.06  -0.06  -0.13    -0.12  -0.19  -0.09    -0.02  -0.05   0.01
    28   1    -0.07  -0.07  -0.20    -0.13  -0.20  -0.26    -0.03  -0.05  -0.05
    29   1    -0.06  -0.06  -0.14    -0.12  -0.18  -0.09    -0.01  -0.04   0.03
    30   1    -0.10  -0.12  -0.09    -0.20  -0.31  -0.01    -0.03  -0.10   0.03
    31   6     0.07   0.04  -0.13     0.11   0.07  -0.09     0.02   0.05   0.01
    32   1     0.11   0.09  -0.09     0.18   0.19  -0.03     0.03   0.09   0.02
    33   1     0.06   0.04  -0.15     0.08   0.02  -0.10     0.01   0.04   0.02
    34   1     0.07   0.04  -0.19     0.17   0.05  -0.23     0.03   0.05  -0.04
    35   6    -0.01  -0.00   0.01    -0.04  -0.02   0.20    -0.01   0.01   0.10
    36   1     0.04   0.04   0.05     0.01   0.09   0.27     0.00   0.05   0.11
    37   1    -0.05  -0.04   0.05    -0.11  -0.11   0.27    -0.02  -0.03   0.11
    38   1    -0.01  -0.00  -0.01    -0.05  -0.04   0.21    -0.01   0.01   0.11
    39   6    -0.04  -0.09   0.08     0.03   0.07  -0.04     0.05  -0.16  -0.07
    40   1    -0.03  -0.11   0.13     0.02   0.08  -0.06     0.05  -0.17  -0.07
    41   1    -0.06  -0.10   0.02     0.04   0.07  -0.00     0.03  -0.17  -0.20
    42   1    -0.05  -0.13   0.09     0.03   0.09  -0.05     0.08  -0.25  -0.01
    43   6     0.02   0.07   0.08    -0.00  -0.03  -0.04    -0.05   0.12  -0.09
    44   1     0.03   0.08   0.02    -0.01  -0.03  -0.00    -0.03   0.12  -0.19
    45   1     0.01   0.09   0.11    -0.00  -0.03  -0.05    -0.05   0.13  -0.10
    46   1     0.02   0.11   0.09    -0.01  -0.05  -0.04    -0.10   0.20  -0.04
    47   6    -0.00  -0.00   0.20     0.00   0.01  -0.11     0.00  -0.00   0.18
    48   1    -0.04  -0.06   0.21     0.03   0.05  -0.11     0.01  -0.11   0.24
    49   1     0.04   0.07   0.21    -0.03  -0.03  -0.11     0.00   0.12   0.23
    50   1    -0.01  -0.01   0.27     0.00   0.02  -0.16     0.00  -0.02   0.23
    51   8    -0.00   0.01   0.21     0.01   0.04   0.01     0.00  -0.01  -0.16
    52   7    -0.02   0.02   0.18    -0.01   0.05  -0.04     0.01  -0.02  -0.02
    53   1    -0.03   0.02   0.12    -0.02   0.04  -0.05     0.03  -0.03   0.07
    54   1    -0.03   0.02   0.27    -0.01   0.06  -0.04     0.02  -0.04  -0.09
                      4                      5                      6
                      A                      A                      A
 Frequencies --     56.1341                61.6222                84.1995
 Red. masses --      4.7399                 3.5999                 5.5755
 Frc consts  --      0.0088                 0.0081                 0.0233
 IR Inten    --      1.4070                 2.9776                 4.9009
  Atom  AN      X      Y      Z        X      Y      Z        X      Y      Z
     1   6     0.02   0.01  -0.00     0.00   0.00   0.04     0.01  -0.00  -0.08
     2   6     0.02  -0.04  -0.00     0.00  -0.00   0.03     0.00  -0.00  -0.05
     3   6    -0.04  -0.06   0.01    -0.00  -0.01  -0.04     0.00  -0.00  -0.05
     4   6    -0.09  -0.02   0.02    -0.00  -0.01  -0.09    -0.00  -0.00  -0.06
     5   6    -0.09   0.03   0.02    -0.00  -0.00  -0.08    -0.00   0.00  -0.04
     6   6    -0.03   0.06   0.01     0.00   0.00  -0.01    -0.00   0.00  -0.06
     7   6     0.08  -0.03  -0.02     0.00   0.00   0.10     0.01  -0.00  -0.01
     8   1    -0.05  -0.11   0.02     0.00  -0.02  -0.05     0.00  -0.00  -0.04
     9   1    -0.14  -0.04   0.04    -0.00  -0.01  -0.14    -0.00  -0.00  -0.06
    10   1    -0.12   0.06   0.03    -0.00  -0.00  -0.12     0.01  -0.00  -0.02
    11   7     0.06  -0.05  -0.01     0.00  -0.00   0.07     0.01  -0.00  -0.00
    12   6     0.06  -0.00  -0.03    -0.00   0.00   0.08     0.00   0.00   0.09
    13   6     0.08  -0.03  -0.02    -0.00   0.00   0.11     0.01  -0.00   0.04
    14   6     0.05  -0.06  -0.01    -0.00  -0.00   0.08     0.01  -0.01   0.02
    15   6     0.01  -0.06  -0.01    -0.00  -0.00   0.03     0.00  -0.00   0.04
    16   6    -0.01  -0.02  -0.01    -0.00   0.00   0.03    -0.00  -0.00   0.06
    17   6     0.02   0.01  -0.01    -0.00   0.00   0.05     0.00   0.00   0.08
    18   1     0.06  -0.09   0.00    -0.00  -0.00   0.09     0.01  -0.01  -0.01
    19   1    -0.04  -0.02  -0.00    -0.00   0.00  -0.01    -0.01   0.00   0.06
    20   6    -0.04  -0.12   0.00    -0.00  -0.01  -0.05    -0.00  -0.01  -0.01
    21   6    -0.00   0.05   0.02     0.00   0.00  -0.02     0.00   0.01   0.01
    22   8     0.08   0.01  -0.04     0.00   0.01   0.05     0.00   0.00   0.14
    23   1     0.10   0.01  -0.04     0.01   0.01   0.05     0.00   0.00   0.10
    24   7     0.07   0.01  -0.02     0.00   0.00   0.10     0.01   0.00  -0.07
    25   1     0.07   0.02  -0.02    -0.00   0.00   0.11     0.01  -0.00  -0.13
    26   6    -0.01   0.14  -0.00     0.00   0.01  -0.00    -0.01   0.01  -0.02
    27   6     0.03  -0.12   0.05    -0.05   0.05  -0.07    -0.04   0.01  -0.03
    28   1     0.11  -0.14   0.12    -0.03   0.04  -0.03    -0.02   0.00  -0.01
    29   1    -0.02  -0.18   0.05    -0.06   0.03  -0.13    -0.04  -0.01  -0.07
    30   1     0.05  -0.03   0.02    -0.08   0.10  -0.06    -0.06   0.04  -0.02
    31   6    -0.08  -0.21   0.05     0.04  -0.07  -0.06     0.03  -0.04  -0.02
    32   1    -0.13  -0.22   0.02     0.06  -0.11  -0.05     0.05  -0.06  -0.01
    33   1    -0.11  -0.24   0.07     0.03  -0.08  -0.12     0.03  -0.04  -0.06
    34   1    -0.05  -0.22   0.11     0.04  -0.08  -0.02     0.03  -0.04  -0.01
    35   6    -0.11  -0.10  -0.07    -0.01  -0.01  -0.11    -0.01  -0.01  -0.03
    36   1    -0.15  -0.12  -0.10     0.01  -0.05  -0.11     0.01  -0.02  -0.01
    37   1    -0.09  -0.04  -0.11    -0.03   0.03  -0.11    -0.04   0.01  -0.02
    38   1    -0.14  -0.14  -0.06    -0.01  -0.01  -0.16    -0.01  -0.02  -0.06
    39   6    -0.02   0.06   0.03     0.14  -0.10  -0.12     0.10   0.02  -0.04
    40   1    -0.03   0.08   0.05     0.14  -0.08  -0.19     0.10   0.05  -0.11
    41   1     0.01   0.06   0.02     0.16  -0.10  -0.22     0.13   0.02  -0.05
    42   1    -0.04   0.04   0.02     0.22  -0.17  -0.03     0.15   0.01   0.00
    43   6     0.03   0.09   0.03    -0.12   0.09  -0.14    -0.08   0.00  -0.04
    44   1     0.06   0.09   0.02    -0.11   0.09  -0.21    -0.08   0.00  -0.04
    45   1     0.02   0.12   0.05    -0.12   0.09  -0.21    -0.07  -0.00  -0.11
    46   1     0.04   0.08   0.02    -0.22   0.14  -0.07    -0.13   0.00  -0.01
    47   6    -0.05   0.05   0.04    -0.00   0.00   0.11    -0.00   0.01   0.00
    48   1    -0.07   0.02   0.03     0.03  -0.08   0.17     0.04   0.01   0.03
    49   1    -0.04   0.05   0.03    -0.04   0.09   0.17    -0.06   0.00   0.03
    50   1    -0.06   0.08   0.06    -0.00   0.00   0.10    -0.00   0.01  -0.05
    51   8     0.06   0.17  -0.01     0.00   0.01   0.09     0.03   0.02  -0.30
    52   7    -0.07   0.20  -0.02     0.00   0.03  -0.11    -0.06  -0.00   0.39
    53   1    -0.12   0.17   0.01     0.01   0.04  -0.17    -0.12  -0.06   0.54
    54   1    -0.06   0.25  -0.01     0.01   0.04  -0.10    -0.06  -0.00   0.39
                      7                      8                      9
                      A                      A                      A
 Frequencies --    107.1005               125.3797               135.0918
 Red. masses --      5.2999                 3.8602                 4.3245
 Frc consts  --      0.0358                 0.0358                 0.0465
 IR Inten    --      0.9958                 0.9672                11.0765
  Atom  AN      X      Y      Z        X      Y      Z        X      Y      Z
     1   6     0.01  -0.01  -0.08    -0.01  -0.01  -0.05    -0.05  -0.02   0.03
     2   6     0.01  -0.01  -0.07    -0.01  -0.02  -0.07    -0.05  -0.04   0.04
     3   6    -0.00  -0.01   0.03    -0.02  -0.02  -0.01    -0.06  -0.05  -0.00
     4   6    -0.01   0.00   0.12    -0.03  -0.02   0.09    -0.07  -0.05  -0.05
     5   6    -0.01   0.00   0.10    -0.03  -0.01   0.09    -0.06  -0.03  -0.05
     6   6     0.00  -0.00   0.00    -0.02  -0.01   0.02    -0.06  -0.02  -0.01
     7   6     0.01  -0.01  -0.14     0.01  -0.02  -0.08     0.01  -0.03   0.04
     8   1    -0.01  -0.01   0.06    -0.02  -0.03  -0.01    -0.06  -0.06  -0.00
     9   1    -0.02   0.01   0.21    -0.04  -0.01   0.16    -0.08  -0.06  -0.08
    10   1    -0.03   0.01   0.17    -0.04   0.00   0.16    -0.07  -0.03  -0.08
    11   7     0.01  -0.01  -0.12     0.01  -0.03  -0.11    -0.01  -0.06   0.05
    12   6    -0.01  -0.00   0.10     0.02  -0.01  -0.01     0.05  -0.01  -0.00
    13   6     0.00  -0.01  -0.10     0.01  -0.02   0.00     0.05  -0.03  -0.00
    14   6     0.01  -0.01  -0.20     0.01  -0.01   0.09     0.04  -0.03  -0.04
    15   6    -0.00  -0.01  -0.07    -0.00  -0.01   0.16     0.04  -0.03  -0.07
    16   6    -0.01  -0.01   0.05    -0.00  -0.01   0.19     0.03  -0.03  -0.07
    17   6    -0.01  -0.00   0.11     0.01  -0.01   0.09     0.04   0.00  -0.03
    18   1     0.02  -0.02  -0.36     0.01  -0.02   0.07     0.04  -0.03  -0.04
    19   1    -0.02  -0.01   0.10    -0.02  -0.01   0.26     0.01  -0.03  -0.09
    20   6     0.00   0.00  -0.01     0.02   0.01   0.04     0.07   0.00  -0.02
    21   6    -0.01   0.01   0.02    -0.01   0.04   0.02    -0.01   0.12  -0.00
    22   8    -0.02   0.00   0.28     0.03  -0.01  -0.14     0.06  -0.00   0.02
    23   1    -0.02  -0.00   0.16     0.03  -0.01  -0.15     0.07   0.00   0.03
    24   7     0.01  -0.01  -0.15     0.00  -0.01  -0.07    -0.01  -0.01   0.04
    25   1     0.01  -0.01  -0.07     0.01   0.00  -0.03     0.01   0.03   0.02
    26   6     0.00   0.01   0.02    -0.02  -0.02   0.00    -0.07  -0.07  -0.00
    27   6     0.07  -0.03   0.03    -0.10   0.13  -0.03     0.11  -0.02   0.01
    28   1     0.06  -0.03   0.02    -0.08   0.13   0.06     0.05  -0.00  -0.04
    29   1     0.08  -0.01   0.11    -0.11   0.10  -0.19     0.15   0.04   0.09
    30   1     0.13  -0.07   0.01    -0.20   0.25   0.00     0.17  -0.11  -0.01
    31   6    -0.07   0.06   0.03     0.13  -0.06  -0.02     0.03   0.07  -0.00
    32   1    -0.11   0.07   0.00     0.24  -0.19   0.02     0.00   0.12  -0.01
    33   1    -0.05   0.09   0.09     0.18  -0.01  -0.18     0.03   0.08   0.06
    34   1    -0.11   0.08   0.00     0.06  -0.04   0.04     0.03   0.07  -0.04
    35   6     0.01  -0.00   0.03     0.05  -0.00  -0.05     0.11  -0.01   0.03
    36   1    -0.00   0.02   0.02     0.14  -0.08  -0.01     0.09   0.02   0.02
    37   1     0.03  -0.03   0.02    -0.02   0.06  -0.02     0.14  -0.05   0.02
    38   1     0.02   0.01   0.06     0.07   0.01  -0.17     0.13   0.02   0.08
    39   6     0.14   0.03  -0.05     0.05   0.13   0.02     0.03   0.17  -0.01
    40   1     0.13   0.08  -0.15     0.04   0.16  -0.04    -0.02   0.29   0.00
    41   1     0.20   0.04  -0.06     0.10   0.13   0.08     0.17   0.17  -0.02
    42   1     0.22   0.01   0.01     0.07   0.15   0.02    -0.01   0.08  -0.00
    43   6    -0.13  -0.02  -0.05    -0.02   0.02   0.01     0.04   0.21  -0.00
    44   1    -0.14  -0.02  -0.04     0.01   0.03   0.04     0.11   0.22  -0.03
    45   1    -0.12  -0.03  -0.16    -0.04   0.06  -0.03     0.01   0.27   0.01
    46   1    -0.22  -0.02  -0.01    -0.06  -0.02   0.02     0.02   0.20  -0.00
    47   6    -0.02   0.00   0.00    -0.05   0.04  -0.07    -0.13   0.12   0.04
    48   1     0.04   0.01   0.04     0.01   0.08  -0.05    -0.17   0.05   0.05
    49   1    -0.10  -0.01   0.04    -0.14  -0.04  -0.05    -0.14   0.12   0.05
    50   1    -0.02   0.01  -0.08    -0.06   0.07  -0.17    -0.16   0.19   0.07
    51   8     0.00   0.01   0.13    -0.03  -0.03   0.03    -0.12  -0.09  -0.01
    52   7     0.02   0.02  -0.10     0.00  -0.03  -0.05    -0.04  -0.11   0.03
    53   1     0.03   0.03  -0.13     0.02  -0.02  -0.06    -0.01  -0.09  -0.06
    54   1     0.00   0.01  -0.03    -0.00  -0.05  -0.05    -0.03  -0.13  -0.02
                     10                     11                     12
                      A                      A                      A
 Frequencies --    137.7923               154.2438               188.0466
 Red. masses --      4.6455                 5.6145                 4.0965
 Frc consts  --      0.0520                 0.0787                 0.0853
 IR Inten    --      8.1625                 1.5214                 0.3876
  Atom  AN      X      Y      Z        X      Y      Z        X      Y      Z
     1   6     0.06  -0.07   0.04    -0.02   0.01   0.21     0.01  -0.01  -0.10
     2   6     0.06  -0.06   0.03     0.00   0.00  -0.06     0.01  -0.02  -0.14
     3   6     0.04  -0.08   0.01     0.01  -0.01  -0.20    -0.00  -0.02  -0.08
     4   6     0.02  -0.07  -0.01    -0.00   0.00  -0.03    -0.02  -0.00   0.09
     5   6     0.02  -0.06  -0.01    -0.02   0.01   0.19    -0.02   0.01   0.13
     6   6     0.04  -0.05   0.02    -0.02   0.02   0.25    -0.00   0.00   0.00
     7   6     0.02  -0.06   0.02    -0.00   0.00   0.00     0.01  -0.01  -0.01
     8   1     0.04  -0.11  -0.00     0.03  -0.02  -0.45    -0.00  -0.03  -0.10
     9   1     0.01  -0.07  -0.04     0.01  -0.00  -0.11    -0.03   0.00   0.19
    10   1     0.00  -0.05  -0.04    -0.02   0.01   0.23    -0.04   0.02   0.27
    11   7     0.04  -0.05   0.02     0.01  -0.01  -0.20     0.02  -0.02  -0.11
    12   6    -0.04  -0.04  -0.01     0.00   0.00   0.01    -0.00   0.00   0.06
    13   6    -0.04  -0.05  -0.00     0.00   0.00  -0.03    -0.00  -0.00   0.12
    14   6    -0.06  -0.05  -0.02     0.01   0.00  -0.06    -0.01  -0.00   0.22
    15   6    -0.06  -0.05  -0.01     0.00   0.00  -0.03    -0.00  -0.00   0.04
    16   6    -0.06  -0.06  -0.01     0.00   0.00   0.02     0.01  -0.00  -0.20
    17   6    -0.06  -0.04  -0.01     0.00   0.00   0.03     0.00   0.00  -0.12
    18   1    -0.06  -0.06  -0.04     0.01   0.00  -0.12    -0.02   0.00   0.37
    19   1    -0.06  -0.07  -0.00    -0.00   0.00   0.04     0.02  -0.00  -0.40
    20   6     0.02   0.06   0.00    -0.00  -0.01  -0.01     0.01   0.01   0.03
    21   6    -0.09  -0.00  -0.01     0.00  -0.00   0.02    -0.01   0.01  -0.06
    22   8    -0.03  -0.03  -0.02    -0.00  -0.00   0.04    -0.00   0.01   0.16
    23   1    -0.02  -0.04  -0.01    -0.00  -0.00  -0.07     0.01   0.01   0.10
    24   7     0.04  -0.08   0.04    -0.02   0.02   0.28     0.01  -0.01  -0.06
    25   1     0.01  -0.13   0.04    -0.02   0.01   0.31     0.01   0.00  -0.01
    26   6     0.07   0.07  -0.00    -0.00   0.01  -0.00    -0.00   0.00   0.00
    27   6    -0.01   0.14  -0.01     0.02  -0.03  -0.00    -0.03   0.04   0.00
    28   1    -0.15   0.18  -0.03     0.01  -0.03  -0.02    -0.03   0.04   0.01
    29   1     0.08   0.27   0.01     0.02  -0.02   0.03    -0.03   0.03  -0.05
    30   1     0.03   0.04  -0.00     0.04  -0.05  -0.01    -0.06   0.06   0.02
    31   6     0.00   0.18  -0.01    -0.02   0.01  -0.00     0.05  -0.01   0.01
    32   1     0.03   0.15  -0.00    -0.04   0.02  -0.01     0.07  -0.01   0.02
    33   1     0.06   0.25  -0.01    -0.03   0.00   0.02     0.03  -0.03  -0.03
    34   1    -0.08   0.20  -0.04    -0.02   0.00  -0.02     0.08  -0.02   0.02
    35   6     0.16   0.03   0.04    -0.01  -0.00  -0.00     0.03   0.00   0.02
    36   1     0.19  -0.00   0.05    -0.01   0.01   0.00    -0.02   0.01  -0.01
    37   1     0.17  -0.03   0.05    -0.02  -0.01   0.00     0.09  -0.02  -0.01
    38   1     0.22   0.10   0.04    -0.02  -0.01   0.01     0.03   0.02   0.08
    39   6    -0.09   0.02  -0.00     0.03   0.01   0.01    -0.11  -0.06  -0.04
    40   1    -0.10   0.05   0.01     0.03   0.01  -0.02    -0.13  -0.03   0.08
    41   1    -0.05   0.02  -0.00     0.03   0.01   0.02    -0.09  -0.06  -0.12
    42   1    -0.11  -0.00  -0.01     0.05   0.02   0.02    -0.20  -0.14  -0.06
    43   6    -0.08   0.03  -0.01    -0.02  -0.02   0.01     0.07   0.07  -0.03
    44   1    -0.05   0.03  -0.02    -0.02  -0.02   0.02     0.04   0.06  -0.07
    45   1    -0.09   0.05  -0.02    -0.02  -0.02  -0.02     0.08   0.04   0.08
    46   1    -0.09   0.02  -0.01    -0.03  -0.03   0.01     0.15   0.12  -0.05
    47   6    -0.14  -0.00  -0.01     0.01  -0.00  -0.00    -0.02   0.01   0.04
    48   1    -0.15  -0.03  -0.00     0.02   0.01   0.00    -0.13  -0.06   0.00
    49   1    -0.15  -0.02  -0.00    -0.01  -0.02  -0.00     0.10   0.09   0.01
    50   1    -0.15   0.03  -0.01     0.01  -0.00  -0.03    -0.03   0.01   0.19
    51   8     0.18   0.11  -0.03    -0.01   0.01  -0.22    -0.01  -0.00   0.00
    52   7    -0.02   0.16  -0.01     0.03  -0.01  -0.08     0.01  -0.01  -0.03
    53   1    -0.12   0.10   0.12     0.09  -0.01   0.03     0.03  -0.01   0.00
    54   1    -0.01   0.24   0.03     0.09  -0.03  -0.44     0.00  -0.03   0.00
                     13                     14                     15
                      A                      A                      A
 Frequencies --    223.3872               235.5149               242.5317
 Red. masses --      1.3412                 1.6634                 3.2937
 Frc consts  --      0.0394                 0.0544                 0.1141
 IR Inten    --      2.1853                19.6364                 8.6532
  Atom  AN      X      Y      Z        X      Y      Z        X      Y      Z
     1   6    -0.00   0.00   0.04    -0.02   0.01  -0.00    -0.00   0.08  -0.00
     2   6    -0.00  -0.00   0.04    -0.02   0.04  -0.01    -0.00   0.08   0.01
     3   6    -0.00  -0.00   0.01     0.02   0.06   0.00     0.03   0.10  -0.00
     4   6    -0.00  -0.00  -0.03     0.05   0.04   0.01     0.03   0.10  -0.02
     5   6     0.00  -0.00  -0.02     0.04   0.00   0.00     0.03   0.10  -0.01
     6   6    -0.00   0.00   0.01     0.01  -0.01   0.00     0.01   0.09  -0.00
     7   6     0.00  -0.00  -0.02    -0.06   0.02  -0.00    -0.00   0.04  -0.00
     8   1    -0.00  -0.00   0.01     0.03   0.10   0.00     0.03   0.12  -0.01
     9   1     0.00  -0.01  -0.06     0.07   0.05   0.02     0.03   0.10  -0.03
    10   1     0.00  -0.01  -0.06     0.06  -0.01  -0.00     0.05   0.09  -0.00
    11   7     0.00  -0.00   0.01    -0.05   0.04  -0.01    -0.00   0.06   0.01
    12   6     0.00   0.00  -0.02    -0.01  -0.03  -0.00     0.01  -0.04   0.00
    13   6     0.01  -0.00  -0.06    -0.03   0.00   0.00     0.01  -0.00  -0.00
    14   6     0.01  -0.00  -0.06    -0.02   0.01   0.01    -0.00  -0.04   0.00
    15   6    -0.00   0.00   0.02     0.01  -0.00   0.00     0.01  -0.06   0.01
    16   6    -0.00   0.00   0.00     0.01  -0.03  -0.00    -0.01  -0.06   0.01
    17   6     0.00   0.00  -0.04     0.01  -0.04  -0.00    -0.02  -0.05   0.01
    18   1     0.01  -0.00  -0.10    -0.02   0.01   0.03     0.00  -0.05   0.01
    19   1    -0.00   0.00   0.03     0.01  -0.03  -0.00    -0.01  -0.07   0.00
    20   6    -0.00   0.00   0.03     0.01  -0.01  -0.00     0.05  -0.06   0.01
    21   6    -0.00   0.00  -0.02     0.01  -0.02   0.00    -0.07  -0.02  -0.00
    22   8    -0.00   0.00   0.06    -0.04  -0.06  -0.01     0.01  -0.04   0.01
    23   1     0.00   0.00   0.05    -0.07  -0.05  -0.01    -0.01  -0.04   0.01
    24   7     0.00   0.00   0.01    -0.05   0.01   0.00    -0.00   0.07  -0.01
    25   1     0.00   0.00  -0.01    -0.07  -0.02   0.01     0.00   0.09  -0.02
    26   6    -0.00  -0.00   0.00     0.01   0.01   0.00    -0.00   0.05  -0.00
    27   6    -0.03   0.02   0.01     0.02  -0.03   0.00     0.08  -0.07   0.02
    28   1     0.29  -0.06   0.24    -0.00  -0.03  -0.03    -0.03  -0.04  -0.06
    29   1    -0.23  -0.26  -0.21     0.03  -0.01   0.03     0.14   0.03   0.11
    30   1    -0.18   0.42   0.00     0.04  -0.08   0.00     0.14  -0.21   0.01
    31   6     0.04  -0.01   0.00     0.01  -0.03   0.00     0.09  -0.08  -0.01
    32   1     0.18  -0.33   0.04     0.01  -0.02  -0.00     0.18  -0.28   0.02
    33   1     0.21   0.20  -0.20     0.00  -0.05  -0.00     0.18   0.05  -0.15
    34   1    -0.21   0.07   0.16     0.03  -0.04   0.00    -0.06  -0.03   0.10
    35   6    -0.00   0.00   0.04     0.00  -0.01  -0.01     0.14  -0.09   0.00
    36   1    -0.07   0.03   0.00     0.01  -0.02  -0.01     0.17  -0.14   0.01
    37   1     0.06  -0.02   0.01     0.00  -0.01  -0.01     0.15  -0.12   0.01
    38   1    -0.01   0.00   0.13     0.00  -0.01  -0.02     0.19  -0.03  -0.01
    39   6    -0.03  -0.02  -0.02     0.06   0.02  -0.02    -0.12  -0.03   0.02
    40   1    -0.07   0.05   0.06    -0.12   0.45   0.13    -0.06  -0.17   0.02
    41   1     0.04  -0.02  -0.08     0.54   0.04  -0.21    -0.28  -0.03   0.09
    42   1    -0.10  -0.11  -0.02    -0.15  -0.38   0.02    -0.09   0.10  -0.02
    43   6     0.03   0.02  -0.01     0.07   0.01   0.03    -0.12  -0.02  -0.04
    44   1     0.00   0.01  -0.04     0.05   0.00   0.02    -0.10  -0.02  -0.03
    45   1     0.04  -0.01   0.04     0.07  -0.01   0.10    -0.13  -0.00  -0.12
    46   1     0.07   0.05  -0.02     0.13   0.03   0.00    -0.20  -0.04  -0.00
    47   6    -0.00   0.00  -0.00    -0.07  -0.02   0.00    -0.11  -0.03  -0.01
    48   1     0.01  -0.01   0.02    -0.00  -0.05   0.06    -0.15  -0.04  -0.02
    49   1    -0.02   0.02   0.01    -0.19  -0.04   0.05    -0.11  -0.05  -0.02
    50   1    -0.00   0.00  -0.02    -0.08   0.04  -0.11    -0.13   0.01   0.01
    51   8    -0.00  -0.00  -0.00     0.04   0.02   0.00    -0.07   0.02  -0.00
    52   7    -0.00  -0.00   0.01    -0.01   0.03  -0.03     0.06  -0.02   0.03
    53   1     0.00   0.00  -0.02    -0.05  -0.02   0.17     0.15   0.04  -0.13
    54   1     0.01   0.01  -0.04    -0.03   0.03   0.12     0.07  -0.07  -0.10
                     16                     17                     18
                      A                      A                      A
 Frequencies --    244.2685               262.1934               267.0260
 Red. masses --      1.6498                 1.5842                 1.7202
 Frc consts  --      0.0580                 0.0642                 0.0723
 IR Inten    --     54.8704                69.4014                40.2748
  Atom  AN      X      Y      Z        X      Y      Z        X      Y      Z
     1   6    -0.02  -0.02  -0.02    -0.02  -0.01   0.04     0.01   0.01  -0.01
     2   6    -0.02   0.01  -0.03    -0.02   0.01   0.02     0.00   0.01  -0.01
     3   6     0.01   0.02  -0.01     0.00   0.02   0.02     0.00   0.01  -0.01
     4   6     0.03   0.00   0.02     0.03   0.00  -0.01    -0.00   0.02  -0.00
     5   6     0.03  -0.03   0.02     0.02  -0.02  -0.02    -0.00   0.02   0.01
     6   6     0.00  -0.04  -0.01    -0.01  -0.03   0.01     0.00   0.02   0.00
     7   6    -0.05   0.00   0.01    -0.02   0.00  -0.03    -0.00   0.01   0.01
     8   1     0.01   0.05  -0.00     0.01   0.04   0.02     0.00   0.01  -0.01
     9   1     0.05   0.01   0.05     0.04   0.01  -0.03    -0.01   0.01   0.00
    10   1     0.04  -0.04   0.03     0.04  -0.04  -0.07    -0.01   0.02   0.02
    11   7    -0.04   0.01  -0.02    -0.02   0.01  -0.02     0.00   0.01   0.01
    12   6    -0.02  -0.01   0.02     0.00   0.01  -0.02    -0.00  -0.02   0.00
    13   6    -0.03   0.00   0.04     0.00   0.00  -0.06    -0.01  -0.00   0.02
    14   6    -0.01   0.02   0.04     0.00   0.00  -0.04    -0.03  -0.02   0.02
    15   6     0.02   0.01  -0.03     0.00  -0.00   0.03    -0.03  -0.02  -0.02
    16   6     0.02   0.00  -0.04     0.01   0.01   0.02    -0.01  -0.03  -0.05
    17   6     0.00  -0.01   0.02     0.01   0.01  -0.04     0.01  -0.02   0.00
    18   1    -0.02   0.04   0.07     0.01   0.00  -0.06    -0.03  -0.02   0.04
    19   1     0.02   0.00  -0.09     0.00   0.01   0.04    -0.01  -0.03  -0.10
    20   6     0.03   0.00  -0.02    -0.00  -0.02   0.03    -0.04  -0.01  -0.01
    21   6    -0.00   0.01   0.02     0.02   0.02  -0.03     0.03  -0.01   0.01
    22   8    -0.03  -0.03  -0.04    -0.00   0.00   0.06    -0.01  -0.02  -0.02
    23   1    -0.05  -0.02  -0.04    -0.01   0.01   0.04    -0.02  -0.02  -0.01
    24   7    -0.05  -0.02   0.01    -0.03  -0.01   0.02     0.00   0.01  -0.02
    25   1    -0.06  -0.04   0.02    -0.03  -0.02   0.01     0.00   0.01  -0.01
    26   6     0.00  -0.01  -0.00    -0.01  -0.02   0.00     0.01   0.02   0.00
    27   6     0.08  -0.06   0.00    -0.05   0.02   0.01    -0.08   0.01  -0.03
    28   1     0.35  -0.14   0.12    -0.36   0.11  -0.16    -0.19   0.04  -0.10
    29   1    -0.08  -0.30  -0.06     0.14   0.29   0.12    -0.02   0.10  -0.03
    30   1     0.03   0.18  -0.03     0.03  -0.29   0.04    -0.09  -0.09   0.00
    31   6     0.03   0.00  -0.02     0.03  -0.06   0.02    -0.09   0.03   0.02
    32   1     0.06  -0.07  -0.01     0.09  -0.23   0.03    -0.04  -0.28  -0.00
    33   1     0.07   0.06  -0.07     0.09   0.02  -0.09     0.08   0.26  -0.09
    34   1    -0.03   0.02   0.02    -0.08  -0.03   0.12    -0.37   0.11   0.20
    35   6    -0.01   0.01   0.00     0.01  -0.02   0.01     0.02  -0.02   0.02
    36   1    -0.11   0.06  -0.05     0.08  -0.06   0.05    -0.03  -0.02  -0.02
    37   1     0.08  -0.01  -0.05    -0.06   0.00   0.04     0.09  -0.08  -0.01
    38   1    -0.03  -0.00   0.12     0.02  -0.01  -0.09     0.04   0.02   0.10
    39   6     0.04   0.05   0.02    -0.01  -0.00  -0.02     0.13   0.03  -0.02
    40   1     0.15  -0.19  -0.16     0.07  -0.19  -0.08     0.17  -0.05  -0.18
    41   1    -0.22   0.05   0.19    -0.22  -0.01   0.05     0.06   0.03   0.06
    42   1     0.23   0.33   0.02     0.09   0.16  -0.03     0.27   0.14   0.02
    43   6    -0.03   0.01   0.01     0.06   0.05  -0.01     0.08  -0.01   0.05
    44   1     0.05   0.02   0.06     0.06   0.05  -0.03     0.20   0.00   0.14
    45   1    -0.06   0.09  -0.08     0.06   0.05   0.04     0.03   0.10   0.03
    46   1    -0.11  -0.08   0.02     0.10   0.07  -0.02     0.07  -0.14   0.01
    47   6    -0.02   0.01   0.02     0.03   0.02   0.00    -0.02  -0.02   0.02
    48   1    -0.11   0.00  -0.04    -0.01   0.02  -0.02    -0.13  -0.05  -0.03
    49   1     0.08   0.01  -0.03     0.09   0.05  -0.02     0.06  -0.02  -0.02
    50   1    -0.03   0.02   0.13     0.03   0.01   0.06    -0.04   0.02   0.14
    51   8     0.05   0.00   0.00     0.02  -0.01   0.00    -0.01   0.01  -0.00
    52   7    -0.03   0.03  -0.05    -0.03   0.02  -0.06     0.02  -0.01   0.05
    53   1    -0.11  -0.05   0.26    -0.14  -0.09   0.37     0.09   0.08  -0.28
    54   1    -0.07   0.03   0.21    -0.10   0.01   0.29     0.07   0.01  -0.24
                     19                     20                     21
                      A                      A                      A
 Frequencies --    274.6908               277.0676               279.1033
 Red. masses --      1.5068                 2.3595                 2.7770
 Frc consts  --      0.0670                 0.1067                 0.1275
 IR Inten    --     38.5957                81.2649                41.4814
  Atom  AN      X      Y      Z        X      Y      Z        X      Y      Z
     1   6    -0.01   0.01   0.03     0.01   0.02  -0.01     0.01   0.03   0.00
     2   6    -0.02   0.02   0.04     0.01   0.01   0.05     0.02   0.01  -0.06
     3   6     0.01   0.03   0.01     0.02   0.00  -0.11     0.01   0.03   0.10
     4   6     0.02   0.01  -0.03     0.00   0.02  -0.08    -0.01   0.04   0.09
     5   6     0.02  -0.00  -0.01    -0.01   0.04   0.10     0.01   0.04  -0.11
     6   6     0.00  -0.00   0.03    -0.01   0.04   0.07     0.00   0.04  -0.11
     7   6    -0.03   0.01  -0.04     0.03   0.00   0.02     0.04   0.01   0.02
     8   1     0.01   0.04   0.00     0.02  -0.01  -0.22    -0.00   0.03   0.22
     9   1     0.04   0.02  -0.07    -0.00   0.00  -0.18    -0.03   0.04   0.21
    10   1     0.02  -0.01  -0.05     0.00   0.04   0.20     0.03   0.03  -0.19
    11   7    -0.03   0.02  -0.00     0.02   0.00   0.13     0.04  -0.00  -0.13
    12   6     0.00  -0.03  -0.02     0.02  -0.01  -0.00     0.03  -0.02   0.01
    13   6    -0.01  -0.01  -0.05     0.02  -0.01   0.00     0.03  -0.01   0.01
    14   6    -0.00  -0.01  -0.01     0.01  -0.03  -0.01     0.01  -0.04  -0.01
    15   6     0.00  -0.01   0.03    -0.02  -0.02  -0.01    -0.02  -0.04  -0.01
    16   6     0.01  -0.03  -0.00    -0.01  -0.03   0.00    -0.02  -0.04  -0.01
    17   6     0.01  -0.03  -0.03     0.00  -0.01   0.00     0.00  -0.02  -0.00
    18   1     0.00  -0.01   0.00     0.01  -0.05  -0.02     0.02  -0.06  -0.03
    19   1     0.01  -0.03   0.01    -0.01  -0.03   0.01    -0.02  -0.04  -0.02
    20   6     0.00  -0.00   0.03    -0.02  -0.01  -0.00    -0.03  -0.01  -0.00
    21   6     0.00  -0.01  -0.02     0.00  -0.01   0.00    -0.00  -0.02  -0.00
    22   8    -0.02  -0.05   0.05     0.03  -0.00  -0.01     0.04  -0.01   0.01
    23   1    -0.04  -0.04   0.04     0.03  -0.00   0.04     0.05  -0.01  -0.05
    24   7    -0.03   0.00  -0.03     0.03   0.02  -0.11     0.02   0.04   0.17
    25   1    -0.03  -0.01  -0.05     0.04   0.03  -0.14     0.03   0.05   0.18
    26   6     0.01   0.01   0.01    -0.02   0.01   0.03    -0.02   0.01  -0.04
    27   6    -0.03   0.04   0.02    -0.06   0.03  -0.02    -0.07   0.03  -0.02
    28   1     0.06   0.02   0.12     0.04   0.00   0.07     0.06  -0.00   0.10
    29   1    -0.09  -0.04  -0.09    -0.12  -0.06  -0.13    -0.16  -0.09  -0.18
    30   1    -0.09   0.20   0.01    -0.13   0.18  -0.01    -0.17   0.24  -0.01
    31   6     0.03  -0.03   0.01    -0.06   0.03   0.01    -0.08   0.04   0.01
    32   1    -0.07   0.36   0.01    -0.13   0.16  -0.01    -0.18   0.23  -0.02
    33   1    -0.18  -0.32   0.19    -0.11  -0.03   0.12    -0.16  -0.06   0.17
    34   1     0.38  -0.14  -0.20     0.02   0.01  -0.06     0.04   0.00  -0.09
    35   6    -0.00  -0.00   0.00     0.03  -0.02   0.01     0.05  -0.04   0.01
    36   1     0.07  -0.03   0.04     0.06  -0.04   0.02     0.08  -0.06   0.03
    37   1    -0.07   0.03   0.04     0.03  -0.05   0.02     0.05  -0.08   0.03
    38   1     0.00  -0.00  -0.09     0.06   0.02  -0.01     0.09   0.02   0.00
    39   6     0.02   0.00  -0.02     0.02  -0.01  -0.00     0.02  -0.02  -0.01
    40   1     0.09  -0.16  -0.12     0.02  -0.03  -0.03     0.03  -0.04  -0.04
    41   1    -0.15  -0.00   0.06     0.00  -0.01   0.00    -0.01  -0.02  -0.00
    42   1     0.13   0.16  -0.02     0.04   0.00   0.01     0.05   0.00   0.00
    43   6     0.06   0.03   0.00     0.01  -0.01   0.01     0.02  -0.02   0.01
    44   1     0.13   0.03   0.04     0.05  -0.01   0.04     0.07  -0.01   0.04
    45   1     0.02   0.10   0.02    -0.00   0.02   0.00    -0.00   0.03  -0.00
    46   1     0.06  -0.03  -0.02     0.01  -0.05   0.00     0.01  -0.07  -0.00
    47   6    -0.06  -0.01   0.01    -0.02  -0.02  -0.00    -0.03  -0.02  -0.00
    48   1    -0.14  -0.05  -0.02    -0.03  -0.02  -0.00    -0.06  -0.04  -0.02
    49   1    -0.00  -0.01  -0.02    -0.02  -0.03  -0.00    -0.02  -0.04  -0.01
    50   1    -0.08   0.04   0.09    -0.03   0.00   0.00    -0.04   0.01   0.02
    51   8     0.02   0.01  -0.00    -0.07   0.00  -0.01    -0.07  -0.01   0.01
    52   7    -0.00   0.01   0.04     0.05  -0.00  -0.10     0.01  -0.01  -0.02
    53   1     0.04   0.07  -0.23    -0.00  -0.15   0.57    -0.04  -0.09   0.30
    54   1     0.06   0.06  -0.26    -0.08  -0.14   0.42    -0.08  -0.09   0.43
                     22                     23                     24
                      A                      A                      A
 Frequencies --    304.9797               311.0110               323.3185
 Red. masses --      1.5084                 2.3519                 1.3412
 Frc consts  --      0.0827                 0.1340                 0.0826
 IR Inten    --      4.1849                 2.8664                 2.6981
  Atom  AN      X      Y      Z        X      Y      Z        X      Y      Z
     1   6    -0.01  -0.00  -0.04    -0.03  -0.00   0.03    -0.01  -0.01  -0.03
     2   6    -0.01   0.01  -0.04    -0.03   0.01   0.02    -0.01   0.00  -0.03
     3   6     0.00   0.01  -0.03     0.00   0.03   0.02    -0.00   0.00  -0.03
     4   6     0.01   0.01   0.02     0.03   0.00  -0.02     0.00  -0.00   0.02
     5   6     0.01  -0.00   0.03     0.02  -0.02  -0.01    -0.00  -0.01   0.03
     6   6     0.00  -0.01  -0.02    -0.01  -0.03   0.03     0.00  -0.01  -0.02
     7   6    -0.02   0.01   0.05    -0.03   0.00  -0.04    -0.01   0.00   0.04
     8   1     0.00   0.02  -0.03     0.01   0.06   0.01    -0.00   0.01  -0.03
     9   1     0.01   0.01   0.06     0.06   0.01  -0.05     0.01   0.00   0.05
    10   1     0.00  -0.00   0.07     0.03  -0.03  -0.05    -0.01  -0.01   0.06
    11   7    -0.02   0.01   0.02    -0.03   0.01  -0.02    -0.01   0.01   0.03
    12   6    -0.00  -0.00   0.03     0.01   0.01  -0.01    -0.01   0.02   0.01
    13   6    -0.01   0.00   0.05     0.01   0.00  -0.02    -0.01   0.01   0.03
    14   6    -0.01  -0.01  -0.02     0.00  -0.01   0.04    -0.00   0.01  -0.03
    15   6    -0.01  -0.01  -0.00     0.00  -0.02  -0.01     0.00   0.00   0.01
    16   6    -0.01  -0.01   0.07     0.01   0.01  -0.06    -0.01   0.02   0.07
    17   6     0.01  -0.00   0.01     0.01   0.02   0.00    -0.00   0.01   0.00
[...]
 ! R11   R(5,10)                 0.8341                 37.9                    !
 ! A7    A(2,3,4)                0.0291                  1.3                    !
 ! A10   A(3,4,5)               -0.0615                  2.8                    !
 ! A12   A(5,4,9)                0.0408                  1.9                    !
 ! A13   A(4,5,6)                0.0597                  2.7                    !
 ! A14   A(4,5,10)              -0.0385                  1.7                    !
 --------------------------------------------------------------------------------
                           ----------------------------
                           ! Normal Mode   150        !
 --------------------------                            --------------------------
 ! Name  Definition              Value          Relative Weight (%)             !
 --------------------------------------------------------------------------------
 ! R19   R(13,14)               -0.0438                  2.8                    !
 ! R20   R(14,15)               -0.0451                  2.8                    !
 ! R21   R(14,18)                1.0807                 67.9                    !
 ! R33   R(22,23)               -0.0115                  0.7                    !
 ! R37   R(27,28)                0.0178                  1.1                    !
 ! R40   R(31,32)               -0.0114                  0.7                    !
 ! R42   R(31,34)                0.0353                  2.2                    !
 ! A27   A(7,13,14)              0.029                   1.8                    !
 ! A28   A(12,13,14)            -0.027                   1.7                    !
 ! A29   A(13,14,15)             0.0558                  3.5                    !
 ! A30   A(13,14,18)            -0.0317                  2.0                    !
 ! A31   A(15,14,18)            -0.024                   1.5                    !
 ! A32   A(14,15,16)            -0.0264                  1.7                    !
 ! A33   A(14,15,20)             0.0286                  1.8                    !
 --------------------------------------------------------------------------------
                           ----------------------------
                           ! Normal Mode   151        !
 --------------------------                            --------------------------
 ! Name  Definition              Value          Relative Weight (%)             !
 --------------------------------------------------------------------------------
 ! R4    R(2,3)                  0.0289                  1.3                    !
 ! R7    R(3,8)                 -0.6192                 27.0                    !
 ! R8    R(4,5)                 -0.0519                  2.3                    !
 ! R9    R(4,9)                  0.6031                 26.3                    !
 ! R11   R(5,10)                 0.6528                 28.5                    !
 ! A7    A(2,3,4)               -0.0484                  2.1                    !
 ! A9    A(4,3,8)                0.0369                  1.6                    !
 ! A10   A(3,4,5)                0.031                   1.4                    !
 ! A11   A(3,4,9)               -0.0346                  1.5                    !
 --------------------------------------------------------------------------------
                           ----------------------------
                           ! Normal Mode   152        !
 --------------------------                            --------------------------
 ! Name  Definition              Value          Relative Weight (%)             !
 --------------------------------------------------------------------------------
 ! R4    R(2,3)                  0.0383                  1.9                    !
 ! R6    R(3,4)                  0.0651                  3.2                    !
 ! R7    R(3,8)                 -0.8518                 41.2                    !
 ! R8    R(4,5)                  0.0342                  1.7                    !
 ! R9    R(4,9)                 -0.6355                 30.8                    !
 ! R11   R(5,10)                -0.2209                 10.7                    !
 ! A7    A(2,3,4)               -0.0282                  1.4                    !
 --------------------------------------------------------------------------------
                           ----------------------------
                           ! Normal Mode   153        !
 --------------------------                            --------------------------
 ! Name  Definition              Value          Relative Weight (%)             !
 --------------------------------------------------------------------------------
 ! R22   R(15,16)                0.0423                  2.7                    !
 ! R24   R(16,17)                0.0419                  2.6                    !
 ! R25   R(16,19)               -1.0806                 67.9                    !
 ! R33   R(22,23)                0.0104                  0.7                    !
 ! R43   R(35,36)               -0.0114                  0.7                    !
 ! R44   R(35,37)               -0.0175                  1.1                    !
 ! R52   R(47,48)               -0.0196                  1.2                    !
 ! R53   R(47,49)               -0.021                   1.3                    !
 ! R54   R(47,50)                0.0102                  0.6                    !
 ! A32   A(14,15,16)             0.0273                  1.7                    !
 ! A34   A(16,15,20)            -0.0287                  1.8                    !
 ! A35   A(15,16,17)            -0.0564                  3.5                    !
 ! A36   A(15,16,19)             0.0253                  1.6                    !
 ! A37   A(17,16,19)             0.0311                  2.0                    !
 ! A38   A(12,17,16)             0.0276                  1.7                    !
 ! A40   A(16,17,21)            -0.0291                  1.8                    !
 --------------------------------------------------------------------------------
                           ----------------------------
                           ! Normal Mode   154        !
 --------------------------                            --------------------------
 ! Name  Definition              Value          Relative Weight (%)             !
 --------------------------------------------------------------------------------
 ! R36   R(26,52)               -0.054                   3.2                    !
 ! R55   R(52,53)                0.6592                 38.9                    !
 ! R56   R(52,54)                0.8022                 47.4                    !
 ! A98   A(53,52,54)            -0.0426                  2.5                    !
 --------------------------------------------------------------------------------
                           ----------------------------
                           ! Normal Mode   155        !
 --------------------------                            --------------------------
 ! Name  Definition              Value          Relative Weight (%)             !
 --------------------------------------------------------------------------------
 ! R3    R(1,24)                -0.0431                  3.0                    !
 ! R15   R(7,24)                -0.0475                  3.3                    !
 ! R34   R(24,25)                1.0714                 74.1                    !
 ! R56   R(52,54)               -0.0207                  1.4                    !
 ! A2    A(2,1,24)              -0.0236                  1.6                    !
 ! A3    A(6,1,24)               0.0245                  1.7                    !
 ! A20   A(11,7,24)             -0.0228                  1.6                    !
 ! A21   A(13,7,24)              0.0236                  1.6                    !
 ! A54   A(1,24,7)               0.047                   3.3                    !
 ! A56   A(7,24,25)             -0.0412                  2.9                    !
 --------------------------------------------------------------------------------
                           ----------------------------
                           ! Normal Mode   156        !
 --------------------------                            --------------------------
 ! Name  Definition              Value          Relative Weight (%)             !
 --------------------------------------------------------------------------------
 ! R55   R(52,53)                0.846                  47.0                    !
 ! R56   R(52,54)               -0.7037                 39.1                    !
 ! A96   A(26,52,53)            -0.0554                  3.1                    !
 ! A97   A(26,52,54)             0.0548                  3.0                    !
 --------------------------------------------------------------------------------
 Max01P=     45 Av01P=   24.56 Stan. Dev.=    7.89
 Max05P=      9 Av05P=    1.35 Stan. Dev.=    2.19
 Max10P=      6 Av10P=    0.53 Stan. Dev.=    1.13
 MaxNDP=     95 AvNDP=   66.95 Stan. Dev.=   16.67
 -------------------------------------------------------------------
 Center     Atomic                   Forces (Hartrees/Bohr)
 Number     Number              X              Y              Z
 -------------------------------------------------------------------
      1        6           0.000007323   -0.000002201    0.000002606
      2        6           0.000007861    0.000000653   -0.000001251
      3        6           0.000010737    0.000001760   -0.000003474
      4        6           0.000012666   -0.000000064   -0.000000798
      5        6           0.000012017   -0.000002490    0.000002977
      6        6           0.000008898   -0.000003500    0.000005049
      7        6           0.000003411    0.000000020    0.000000453
      8        1           0.000011299    0.000003815   -0.000006450
      9        1           0.000015009    0.000000713   -0.000002171
     10        1           0.000014014   -0.000004088    0.000005003
     11        7           0.000005366    0.000002032   -0.000003785
     12        6          -0.000000320    0.000003417   -0.000004546
     13        6           0.000000307    0.000000743   -0.000001024
     14        6          -0.000001163   -0.000002596    0.000002958
     15        6          -0.000003795   -0.000000626    0.000001996
     16        6          -0.000005511    0.000001446   -0.000001470
     17        6          -0.000002841    0.000003150   -0.000005052
     18        1          -0.000000766   -0.000003328    0.000005174
     19        1          -0.000006848    0.000001669   -0.000001980
     20        6          -0.000005934   -0.000003201    0.000005389
     21        6          -0.000003857    0.000006095   -0.000008831
     22        8           0.000001679    0.000004954   -0.000007446
     23        1           0.000003291    0.000004450   -0.000007008
     24        7           0.000004528   -0.000002179    0.000002549
     25        1           0.000003210   -0.000004284    0.000005891
     26        6           0.000009501   -0.000005820    0.000009322
     27        6          -0.000002482   -0.000005436    0.000008447
     28        1           0.000000234   -0.000006254    0.000009063
     29        1          -0.000003180   -0.000007107    0.000010799
     30        1           0.000000168   -0.000004582    0.000006775
     31        6          -0.000008911   -0.000004992    0.000008272
     32        1          -0.000012260   -0.000003810    0.000006461
     33        1          -0.000010545   -0.000006884    0.000010718
     34        1          -0.000007243   -0.000005634    0.000008960
     35        6          -0.000008635   -0.000003144    0.000004971
     36        1          -0.000012257   -0.000001402    0.000002968
     37        1          -0.000007251   -0.000002108    0.000003128
     38        1          -0.000010405   -0.000004440    0.000007415
     39        6           0.000000660    0.000007691   -0.000011258
     40        1           0.000000071    0.000009332   -0.000013808
     41        1           0.000003085    0.000007463   -0.000011264
     42        1           0.000002387    0.000006063   -0.000009363
     43        6          -0.000006498    0.000007986   -0.000011622
     44        1          -0.000004406    0.000008310   -0.000011851
     45        1          -0.000007276    0.000009983   -0.000014290
     46        1          -0.000009744    0.000007346   -0.000010011
     47        6          -0.000006858    0.000006474   -0.000008680
     48        1          -0.000005472    0.000004989   -0.000007108
     49        1          -0.000010508    0.000005448   -0.000007449
     50        1          -0.000007623    0.000008184   -0.000011674
     51        8           0.000005926   -0.000006505    0.000010361
     52        7           0.000009097   -0.000009733    0.000011352
     53        1           0.000011045   -0.000007844    0.000010274
     54        1           0.000008796   -0.000009937    0.000014330
 -------------------------------------------------------------------
 Cartesian Forces:  Max     0.000015009 RMS     0.000006975
 FormGI is forming the generalized inverse of G from B-inverse, IUseBI=4.
 Leave Link  716 at Tue Feb 12 10:29:23 2019, MaxMem=  1342177280 cpu:              12.2 elap:               0.9
 (Enter /gpfs/apps/hpc/Apps/Restricted/Gaussian/g16/Rev_B.01-AVX/g16/l9999.exe)

 ----------------------------------------------------------------------

 Electric dipole moment (input orientation):
 (Debye = 10**-18 statcoulomb cm , SI units = C m)
                  (au)            (Debye)         (10**-30 SI)
   Tot        0.249564D+01      0.634329D+01      0.211589D+02
   x          0.179038D+01      0.455070D+01      0.151795D+02
   y          0.169958D+01      0.431990D+01      0.144096D+02
   z          0.366320D+00      0.931092D+00      0.310579D+01

 Dipole polarizability, Alpha (input orientation).
 (esu units = cm**3 , SI units = C**2 m**2 J**-1)
 Alpha(0;0):
               (au)            (10**-24 esu)      (10**-40 SI)
   iso        0.381701D+03      0.565622D+02      0.629340D+02
   aniso      0.311351D+03      0.461375D+02      0.513349D+02
   xx         0.421604D+03      0.624753D+02      0.695132D+02
   yx         0.307046D+02      0.454996D+01      0.506251D+01
   yy         0.534632D+03      0.792243D+02      0.881490D+02
   zx         0.152188D+02      0.225519D+01      0.250924D+01
   zy        -0.748089D+01     -0.110855D+01     -0.123343D+01
   zz         0.188866D+03      0.279870D+02      0.311397D+02

 ----------------------------------------------------------------------

 Dipole orientation:
     6         -3.22815772          2.91910949          2.97312235
     6         -4.68928649          4.39580061          1.28706513
     6         -6.12249647          6.41228210          2.20672712
     6         -6.04552160          6.89202273          4.79796583
     6         -4.59760646          5.40805160          6.45007764
     6         -3.15376644          3.36475355          5.58214790
     6         -2.75930055          1.54693170         -0.96567629
     1         -7.24121223          7.56788972          0.94114018
     1         -7.12835377          8.45300349          5.56148315
     1         -4.59354222          5.89373736          8.43955536
     7         -4.35923937          3.48688185         -1.14696848
     6         -2.72813298          0.67614503         -5.57475408
     6         -1.86338371          0.07822870         -3.10646387
     6         -0.12147307         -1.88727947         -2.75680007
     6          0.79185220         -3.28772126         -4.78061897
     6         -0.10789305         -2.66245608         -7.19467212
     6         -1.84364633         -0.72939238         -7.66775130
     1          0.53335689         -2.31324117         -0.86313838
     1          0.58033355         -3.73446868         -8.78624101
     6          2.74120015         -5.37942857         -4.32067296
     6         -2.75099224         -0.15334471        -10.36686091
     8         -4.38970162          2.58145311         -5.94814065
     1         -4.77558994          3.36528141         -4.27213092
     7         -2.04534770          1.14259814          1.49395925
     1         -0.82705924         -0.14173323          2.21399203
     6         -1.57605554          1.67831140          7.18325413
     6          5.14906438         -4.18989667         -3.18806030
     1          4.72890246         -3.20196091         -1.42425524
     1          6.55421281         -5.65257412         -2.78688802
     1          5.98682484         -2.83181597         -4.50050598
     6          1.66560467         -7.31691071         -2.43000472
     1         -0.03378631         -8.21868375         -3.18340208
     1          3.06397767         -8.79061413         -2.04752542
     1          1.17703251         -6.42157692         -0.63425453
     6          3.45645076         -6.77000652         -6.76286847
     1          1.81865415         -7.68893372         -7.62458758
     1          4.28867019         -5.48849949         -8.15406102
     1          4.85154685         -8.23243748         -6.33882288
     6         -2.01519182          2.57131231        -11.10221383
     1         -2.67293668          2.98110701        -13.01924061
     1         -2.84472582          3.94736640         -9.81586394
     1          0.03883381          2.79769196        -11.06757683
     6         -5.64451066         -0.48618689        -10.53460584
     1         -6.62456720          0.81490316         -9.27642442
     1         -6.28156843         -0.13629789        -12.47032664
     1         -6.17668213         -2.41609772        -10.02202287
     6         -1.54592357         -1.94288961        -12.31332273
     1          0.51279455         -1.77280359        -12.33940557
     1         -2.02597774         -3.91757153        -11.94124655
     1         -2.24721003         -1.46045137        -14.19440034
     8         -0.18099351          0.06093905          6.20607452
     7         -1.69338126          1.98632183          9.71616052
     1         -3.03369767          3.04873652         10.54899758
     1         -0.74692183          0.73736100         10.80107776

 Electric dipole moment (dipole orientation):
 (Debye = 10**-18 statcoulomb cm , SI units = C m)
                  (au)            (Debye)         (10**-30 SI)
   Tot        0.249564D+01      0.634329D+01      0.211589D+02
   x          0.000000D+00      0.000000D+00      0.000000D+00
   y          0.000000D+00      0.000000D+00      0.000000D+00
   z          0.249564D+01      0.634329D+01      0.211589D+02

 Dipole polarizability, Alpha (dipole orientation).
 (esu units = cm**3 , SI units = C**2 m**2 J**-1)
 Alpha(0;0):
               (au)            (10**-24 esu)      (10**-40 SI)
   iso        0.381701D+03      0.565622D+02      0.629340D+02
   aniso      0.311351D+03      0.461375D+02      0.513349D+02
   xx         0.291306D+03      0.431671D+02      0.480299D+02
   yx        -0.126770D+03     -0.187853D+02     -0.209015D+02
   yy         0.353074D+03      0.523201D+02      0.582140D+02
   zx        -0.862222D+01     -0.127768D+01     -0.142161D+01
   zy         0.677482D+02      0.100392D+02      0.111702D+02
   zz         0.500723D+03      0.741994D+02      0.825580D+02

 ----------------------------------------------------------------------

 This type of calculation cannot be archived.


 WHEN IT COMES TO CASH FLOW, IT SEEMS LIKE THE TIDE IS ALWAYS GOING OUT.
 Job cpu time:       0 days  0 hours  0 minutes 28.1 seconds.
 Elapsed time:       0 days  0 hours  0 minutes  2.2 seconds.
 File lengths (MBytes):  RWF=     72 Int=      0 D2E=      0 Chk=     44 Scr=      8
 Normal termination of Gaussian 16 at Tue Feb 12 10:29:24 2019.
