 Entering Gaussian System, Link 0=g16
 Input=cyclohexyl-diBIP-E2PT.com
 Output=cyclohexyl-diBIP-E2PT.log
 Initial command:
 /gpfs/apps/hpc/Apps/Restricted/Gaussian/Rev_A.03/g16/l1.exe "/gpfs/scratch60/fas/hammes_schiffer/jg2487/c42n02/Gau-75725.inp" -scrdir="/gpfs/scratch60/fas/hammes_schiffer/jg2487/c42n02/"
 Entering Link 1 = /gpfs/apps/hpc/Apps/Restricted/Gaussian/Rev_A.03/g16/l1.exe PID=     75728.
  
 Copyright (c) 1988,1990,1992,1993,1995,1998,2003,2009,2016,
            Gaussian, Inc.  All Rights Reserved.
  
 This is part of the Gaussian(R) 16 program.  It is based on
 the Gaussian(R) 09 system (copyright 2009, Gaussian, Inc.),
 the Gaussian(R) 03 system (copyright 2003, Gaussian, Inc.),
 the Gaussian(R) 98 system (copyright 1998, Gaussian, Inc.),
 the Gaussian(R) 94 system (copyright 1995, Gaussian, Inc.),
 the Gaussian 92(TM) system (copyright 1992, Gaussian, Inc.),
 the Gaussian 90(TM) system (copyright 1990, Gaussian, Inc.),
 the Gaussian 88(TM) system (copyright 1988, Gaussian, Inc.),
 the Gaussian 86(TM) system (copyright 1986, Carnegie Mellon
 University), and the Gaussian 82(TM) system (copyright 1983,
 Carnegie Mellon University). Gaussian is a federally registered
 trademark of Gaussian, Inc.
  
 This software contains proprietary and confidential information,
 including trade secrets, belonging to Gaussian, Inc.
  
 This software is provided under written license and may be
 used, copied, transmitted, or stored only in accord with that
 written license.
  
 The following legend is applicable only to US Government
 contracts under FAR:
  
                    RESTRICTED RIGHTS LEGEND
  
 Use, reproduction and disclosure by the US Government is
 subject to restrictions as set forth in subparagraphs (a)
 and (c) of the Commercial Computer Software - Restricted
 Rights clause in FAR 52.227-19.
  
 Gaussian, Inc.
 340 Quinnipiac St., Bldg. 40, Wallingford CT 06492
  
  
 ---------------------------------------------------------------
 Warning -- This program may not be used in any manner that
 competes with the business of Gaussian, Inc. or will provide
 assistance to any competitor of Gaussian, Inc.  The licensee
 of this program is prohibited from giving any competitor of
 Gaussian, Inc. access to this program.  By using this program,
 the user acknowledges that Gaussian, Inc. is engaged in the
 business of creating and licensing software in the field of
 computational chemistry and represents and warrants to the
 licensee that it is not a competitor of Gaussian, Inc. and that
 it will not use this program in any manner prohibited above.
 ---------------------------------------------------------------
  

 Cite this work as:
 Gaussian 16, Revision A.03,
 M. J. Frisch, G. W. Trucks, H. B. Schlegel, G. E. Scuseria, 
 M. A. Robb, J. R. Cheeseman, G. Scalmani, V. Barone, 
 G. A. Petersson, H. Nakatsuji, X. Li, M. Caricato, A. V. Marenich, 
 J. Bloino, B. G. Janesko, R. Gomperts, B. Mennucci, H. P. Hratchian, 
 J. V. Ortiz, A. F. Izmaylov, J. L. Sonnenberg, D. Williams-Young, 
 F. Ding, F. Lipparini, F. Egidi, J. Goings, B. Peng, A. Petrone, 
 T. Henderson, D. Ranasinghe, V. G. Zakrzewski, J. Gao, N. Rega, 
 G. Zheng, W. Liang, M. Hada, M. Ehara, K. Toyota, R. Fukuda, 
 J. Hasegawa, M. Ishida, T. Nakajima, Y. Honda, O. Kitao, H. Nakai, 
 T. Vreven, K. Throssell, J. A. Montgomery, Jr., J. E. Peralta, 
 F. Ogliaro, M. J. Bearpark, J. J. Heyd, E. N. Brothers, K. N. Kudin, 
 V. N. Staroverov, T. A. Keith, R. Kobayashi, J. Normand, 
 K. Raghavachari, A. P. Rendell, J. C. Burant, S. S. Iyengar, 
 J. Tomasi, M. Cossi, J. M. Millam, M. Klene, C. Adamo, R. Cammi, 
 J. W. Ochterski, R. L. Martin, K. Morokuma, O. Farkas, 
 J. B. Foresman, and D. J. Fox, Gaussian, Inc., Wallingford CT, 2016.
 
 ******************************************
 Gaussian 16:  ES64L-G16RevA.03 25-Dec-2016
                28-Dec-2018 
 ******************************************
 %chk=cyclohexyl-diBIP-E2PT.chk
 %mem=10GB
 %nprocshared=16
 Will use up to   16 processors via shared memory.
 ----------------------------------------------------------------
 #p freq(ReadFC,InternalModes) Geom(AllCheck) NoSymm scale=0.9631
 ----------------------------------------------------------------
 1/18=20,29=7,38=1,114=963100/1,3;
 2/9=110,12=2,15=1,40=1/2;
 7/8=21,25=11,30=1/16;
 99/5=2/99;
 Leave Link    1 at Fri Dec 28 14:03:25 2018, MaxMem=  1342177280 cpu:             100.2 elap:               6.7
 (Enter /gpfs/apps/hpc/Apps/Restricted/Gaussian/Rev_A.03/g16/l101.exe)
 Structure from the checkpoint file:  "cyclohexyl-diBIP-E2PT.chk"
 ----------------------------------------------------------------------
 cyclohexylimine diBIP oxidized, first and second proton transferred, o
 ptimization
 ----------------------------------------------------------------------
 Charge =  1 Multiplicity = 2
 Redundant internal coordinates found in file.  (old form).
 C,0,1.5341528989,1.1423253993,-0.1401008656
 C,0,0.3150247884,1.8278138696,-0.2537900137
 C,0,0.2733837899,3.2072127147,-0.4582797624
 C,0,1.5003660268,3.8610973985,-0.5489587523
 C,0,2.7207279392,3.1718480663,-0.4316080928
 C,0,2.7734436107,1.7899408885,-0.2263878435
 C,0,-0.1086946468,-0.3503618538,0.0553627578
 H,0,-0.665879611,3.7372217987,-0.5457254623
 H,0,1.516646642,4.9323653043,-0.7075795984
 H,0,3.6514269087,3.7226502992,-0.5025274529
 C,0,-2.2781018674,-1.5079030042,0.1683582991
 C,0,-3.0378879824,-2.700356848,0.2750503016
 C,0,-2.4414620659,-3.949887121,0.4336218163
 C,0,-1.0468157587,-3.9855267339,0.4817239555
 C,0,-0.270701733,-2.8235566549,0.3645017106
 C,0,-0.8659467684,-1.5666001946,0.2043744638
 C,0,-4.3489523754,-0.9220398167,0.0528030954
 H,0,-3.0313742312,-4.85387099,0.5173183375
 H,0,-0.5463912436,-4.9370902486,0.6101654893
 H,0,0.8086067925,-2.9057380339,0.4016467201
 N,0,-0.671792492,0.8628155356,-0.1206828781
 C,0,-6.8735919994,-0.7833103707,-0.1327872852
 C,0,-5.5613626715,-0.128729127,-0.0423499486
 C,0,-5.4672978298,1.2489970298,-0.0352087517
 C,0,-6.6117190319,2.065600288,-0.1060611525
 C,0,-7.8777788291,1.4441231238,-0.2110753937
 C,0,-8.0590044143,0.0759810552,-0.2278444445
 H,0,-4.4852649109,1.6984389965,0.04051833
 H,0,-8.7479423762,2.0784144253,-0.2737974657
 C,0,-6.4499597209,3.5813785774,-0.0679262616
 C,0,-9.4472414077,-0.5511839009,-0.3372187766
 O,0,-6.9625993064,-2.0398470505,-0.1272885478
 N,0,-3.106235871,-0.4215671374,0.035106107
 N,0,-4.3446078985,-2.2818209838,0.1918413436
 N,0,1.2304796861,-0.1922352995,0.0472996184
 H,0,1.9691663797,-0.8856368537,0.1484884873
 C,0,4.0300177463,1.0548553969,-0.097681284
 H,0,4.9409185536,1.6562061397,-0.1749513139
 N,0,4.0418720603,-0.2122299666,0.0915244033
 C,0,5.353621614,-0.8712380884,0.2080903909
 C,0,6.1945026735,-0.7176260711,-1.0709566216
 C,0,6.1378862128,-0.3836115115,1.4383607728
 H,0,5.1476085359,-1.9384690872,0.3459292467
 C,0,7.5348854286,-1.4473542928,-0.9416935912
 H,0,6.376807678,0.3489791168,-1.2473710234
 H,0,5.6256025562,-1.0918941207,-1.927139805
 C,0,7.4790283486,-1.1144449808,1.5609753876
 H,0,6.3169546026,0.6937129508,1.338194774
 H,0,5.5316659834,-0.526349399,2.3379633021
 C,0,8.3150265837,-0.9628412432,0.2853385539
 H,0,8.1224854376,-1.3047040279,-1.8536930478
 H,0,7.352473816,-2.525321153,-0.8486924271
 H,0,8.0295609234,-0.7372976651,2.4278936518
 H,0,7.2935012953,-2.1803183613,1.7437388517
 H,0,9.255061125,-1.5149205526,0.3798808748
 H,0,8.5782447615,0.0939285986,0.1498092258
 H,0,-5.2117558135,-2.8109841395,0.188414464
 H,0,-1.6910932332,0.9604867564,-0.1393041107
 C,0,-9.5269978879,-1.4003333707,-1.6253072939
 H,0,-8.7932649744,-2.2051222452,-1.6089020979
 H,0,-10.526367958,-1.8352580605,-1.7129669229
 H,0,-9.3463229525,-0.780988803,-2.5079127906
 C,0,-5.6226967034,4.0228196225,-1.2953647737
 H,0,-5.4848750586,5.1071994456,-1.2711835416
 H,0,-4.6356811703,3.5540165081,-1.3025903131
 H,0,-6.1345663254,3.7608288056,-2.2245588157
 C,0,-10.55180421,0.5147208989,-0.3969388326
 H,0,-10.5535396259,1.1461719595,0.4952348805
 H,0,-10.4553074304,1.1593293269,-1.2746487223
 H,0,-11.521079113,0.0144535741,-0.4558109266
 C,0,-9.7223050459,-1.4426714937,0.8960008754
 H,0,-8.9997667241,-2.2535104407,0.9675303518
 H,0,-9.6812221084,-0.8506222375,1.8141087492
 H,0,-10.726122336,-1.8686670601,0.8143773689
 C,0,-7.7985078404,4.3128127449,-0.0875777341
 H,0,-8.3567860715,4.101101464,-1.002756779
 H,0,-8.4171686613,4.031174151,0.7684162
 H,0,-7.6256696705,5.3898509104,-0.0392695834
 C,0,-5.6954332666,3.9748990126,1.2206126625
 H,0,-6.2488592629,3.6605386064,2.1088447186
 H,0,-4.700882872,3.5253035777,1.2590734869
 H,0,-5.5773950398,5.0611032572,1.2565790754
 Recover connectivity data from disk.
 ITRead=  0  0  0  0  0  0  0  0  0  0  0  0  0  0  0  0  0  0  0  0
 ITRead=  0  0  0  0  0  0  0  0  0  0  0  0  0  0  0  0  0  0  0  0
 ITRead=  0  0  0  0  0  0  0  0  0  0  0  0  0  0  0  0  0  0  0  0
 ITRead=  0  0  0  0  0  0  0  0  0  0  0  0  0  0  0  0  0  0  0  0
 ITRead=  0  0
 MicOpt= -1 -1 -1 -1 -1 -1 -1 -1 -1 -1 -1 -1 -1 -1 -1 -1 -1 -1 -1 -1
 MicOpt= -1 -1 -1 -1 -1 -1 -1 -1 -1 -1 -1 -1 -1 -1 -1 -1 -1 -1 -1 -1
 MicOpt= -1 -1 -1 -1 -1 -1 -1 -1 -1 -1 -1 -1 -1 -1 -1 -1 -1 -1 -1 -1
 MicOpt= -1 -1 -1 -1 -1 -1 -1 -1 -1 -1 -1 -1 -1 -1 -1 -1 -1 -1 -1 -1
 MicOpt= -1 -1
 NAtoms=     82 NQM=       82 NQMF=       0 NMMI=      0 NMMIF=      0
                NMic=       0 NMicF=      0.
                    Isotopes and Nuclear Properties:
 (Nuclear quadrupole moments (NQMom) in fm**2, nuclear magnetic moments (NMagM)
  in nuclear magnetons)

  Atom         1           2           3           4           5           6           7           8           9          10
 IAtWgt=          12          12          12          12          12          12          12           1           1           1
 AtmWgt=  12.0000000  12.0000000  12.0000000  12.0000000  12.0000000  12.0000000  12.0000000   1.0078250   1.0078250   1.0078250
 NucSpn=           0           0           0           0           0           0           0           1           1           1
 AtZEff=   3.6000000   3.6000000   3.6000000   3.6000000   3.6000000   3.6000000   3.6000000   1.0000000   1.0000000   1.0000000
 NQMom=    0.0000000   0.0000000   0.0000000   0.0000000   0.0000000   0.0000000   0.0000000   0.0000000   0.0000000   0.0000000
 NMagM=    0.0000000   0.0000000   0.0000000   0.0000000   0.0000000   0.0000000   0.0000000   2.7928460   2.7928460   2.7928460
 AtZNuc=   6.0000000   6.0000000   6.0000000   6.0000000   6.0000000   6.0000000   6.0000000   1.0000000   1.0000000   1.0000000

  Atom        11          12          13          14          15          16          17          18          19          20
 IAtWgt=          12          12          12          12          12          12          12           1           1           1
 AtmWgt=  12.0000000  12.0000000  12.0000000  12.0000000  12.0000000  12.0000000  12.0000000   1.0078250   1.0078250   1.0078250
 NucSpn=           0           0           0           0           0           0           0           1           1           1
 AtZEff=   3.6000000   3.6000000   3.6000000   3.6000000   3.6000000   3.6000000   3.6000000   1.0000000   1.0000000   1.0000000
 NQMom=    0.0000000   0.0000000   0.0000000   0.0000000   0.0000000   0.0000000   0.0000000   0.0000000   0.0000000   0.0000000
 NMagM=    0.0000000   0.0000000   0.0000000   0.0000000   0.0000000   0.0000000   0.0000000   2.7928460   2.7928460   2.7928460
 AtZNuc=   6.0000000   6.0000000   6.0000000   6.0000000   6.0000000   6.0000000   6.0000000   1.0000000   1.0000000   1.0000000

  Atom        21          22          23          24          25          26          27          28          29          30
 IAtWgt=          14          12          12          12          12          12          12           1           1          12
 AtmWgt=  14.0030740  12.0000000  12.0000000  12.0000000  12.0000000  12.0000000  12.0000000   1.0078250   1.0078250  12.0000000
 NucSpn=           2           0           0           0           0           0           0           1           1           0
 AtZEff=   4.5500000   3.6000000   3.6000000   3.6000000   3.6000000   3.6000000   3.6000000   1.0000000   1.0000000   3.6000000
 NQMom=    2.0440000   0.0000000   0.0000000   0.0000000   0.0000000   0.0000000   0.0000000   0.0000000   0.0000000   0.0000000
 NMagM=    0.4037610   0.0000000   0.0000000   0.0000000   0.0000000   0.0000000   0.0000000   2.7928460   2.7928460   0.0000000
 AtZNuc=   7.0000000   6.0000000   6.0000000   6.0000000   6.0000000   6.0000000   6.0000000   1.0000000   1.0000000   6.0000000

  Atom        31          32          33          34          35          36          37          38          39          40
 IAtWgt=          12          16          14          14          14           1          12           1          14          12
 AtmWgt=  12.0000000  15.9949146  14.0030740  14.0030740  14.0030740   1.0078250  12.0000000   1.0078250  14.0030740  12.0000000
 NucSpn=           0           0           2           2           2           1           0           1           2           0
 AtZEff=   3.6000000   5.6000000   4.5500000   4.5500000   4.5500000   1.0000000   3.6000000   1.0000000   4.5500000   3.6000000
 NQMom=    0.0000000   0.0000000   2.0440000   2.0440000   2.0440000   0.0000000   0.0000000   0.0000000   2.0440000   0.0000000
 NMagM=    0.0000000   0.0000000   0.4037610   0.4037610   0.4037610   2.7928460   0.0000000   2.7928460   0.4037610   0.0000000
 AtZNuc=   6.0000000   8.0000000   7.0000000   7.0000000   7.0000000   1.0000000   6.0000000   1.0000000   7.0000000   6.0000000

  Atom        41          42          43          44          45          46          47          48          49          50
 IAtWgt=          12          12           1          12           1           1          12           1           1          12
 AtmWgt=  12.0000000  12.0000000   1.0078250  12.0000000   1.0078250   1.0078250  12.0000000   1.0078250   1.0078250  12.0000000
 NucSpn=           0           0           1           0           1           1           0           1           1           0
 AtZEff=   3.6000000   3.6000000   1.0000000   3.6000000   1.0000000   1.0000000   3.6000000   1.0000000   1.0000000   3.6000000
 NQMom=    0.0000000   0.0000000   0.0000000   0.0000000   0.0000000   0.0000000   0.0000000   0.0000000   0.0000000   0.0000000
 NMagM=    0.0000000   0.0000000   2.7928460   0.0000000   2.7928460   2.7928460   0.0000000   2.7928460   2.7928460   0.0000000
 AtZNuc=   6.0000000   6.0000000   1.0000000   6.0000000   1.0000000   1.0000000   6.0000000   1.0000000   1.0000000   6.0000000

  Atom        51          52          53          54          55          56          57          58          59          60
 IAtWgt=           1           1           1           1           1           1           1           1          12           1
 AtmWgt=   1.0078250   1.0078250   1.0078250   1.0078250   1.0078250   1.0078250   1.0078250   1.0078250  12.0000000   1.0078250
 NucSpn=           1           1           1           1           1           1           1           1           0           1
 AtZEff=   1.0000000   1.0000000   1.0000000   1.0000000   1.0000000   1.0000000   1.0000000   1.0000000   3.6000000   1.0000000
 NQMom=    0.0000000   0.0000000   0.0000000   0.0000000   0.0000000   0.0000000   0.0000000   0.0000000   0.0000000   0.0000000
 NMagM=    2.7928460   2.7928460   2.7928460   2.7928460   2.7928460   2.7928460   2.7928460   2.7928460   0.0000000   2.7928460
 AtZNuc=   1.0000000   1.0000000   1.0000000   1.0000000   1.0000000   1.0000000   1.0000000   1.0000000   6.0000000   1.0000000

  Atom        61          62          63          64          65          66          67          68          69          70
 IAtWgt=           1           1          12           1           1           1          12           1           1           1
 AtmWgt=   1.0078250   1.0078250  12.0000000   1.0078250   1.0078250   1.0078250  12.0000000   1.0078250   1.0078250   1.0078250
 NucSpn=           1           1           0           1           1           1           0           1           1           1
 AtZEff=   1.0000000   1.0000000   3.6000000   1.0000000   1.0000000   1.0000000   3.6000000   1.0000000   1.0000000   1.0000000
 NQMom=    0.0000000   0.0000000   0.0000000   0.0000000   0.0000000   0.0000000   0.0000000   0.0000000   0.0000000   0.0000000
 NMagM=    2.7928460   2.7928460   0.0000000   2.7928460   2.7928460   2.7928460   0.0000000   2.7928460   2.7928460   2.7928460
 AtZNuc=   1.0000000   1.0000000   6.0000000   1.0000000   1.0000000   1.0000000   6.0000000   1.0000000   1.0000000   1.0000000

  Atom        71          72          73          74          75          76          77          78          79          80
 IAtWgt=          12           1           1           1          12           1           1           1          12           1
 AtmWgt=  12.0000000   1.0078250   1.0078250   1.0078250  12.0000000   1.0078250   1.0078250   1.0078250  12.0000000   1.0078250
 NucSpn=           0           1           1           1           0           1           1           1           0           1
 AtZEff=   3.6000000   1.0000000   1.0000000   1.0000000   3.6000000   1.0000000   1.0000000   1.0000000   3.6000000   1.0000000
 NQMom=    0.0000000   0.0000000   0.0000000   0.0000000   0.0000000   0.0000000   0.0000000   0.0000000   0.0000000   0.0000000
 NMagM=    0.0000000   2.7928460   2.7928460   2.7928460   0.0000000   2.7928460   2.7928460   2.7928460   0.0000000   2.7928460
 AtZNuc=   6.0000000   1.0000000   1.0000000   1.0000000   6.0000000   1.0000000   1.0000000   1.0000000   6.0000000   1.0000000

  Atom        81          82
 IAtWgt=           1           1
 AtmWgt=   1.0078250   1.0078250
 NucSpn=           1           1
 AtZEff=   1.0000000   1.0000000
 NQMom=    0.0000000   0.0000000
 NMagM=    2.7928460   2.7928460
 AtZNuc=   1.0000000   1.0000000
 Leave Link  101 at Fri Dec 28 14:03:30 2018, MaxMem=  1342177280 cpu:              13.9 elap:               2.6
 (Enter /gpfs/apps/hpc/Apps/Restricted/Gaussian/Rev_A.03/g16/l103.exe)

 GradGradGradGradGradGradGradGradGradGradGradGradGradGradGradGradGradGrad
 Berny optimization.
 Initialization pass.
                           ----------------------------
                           !    Initial Parameters    !
                           ! (Angstroms and Degrees)  !
 --------------------------                            --------------------------
 ! Name  Definition              Value          Derivative Info.                !
 --------------------------------------------------------------------------------
 ! R1    R(1,2)                  1.4032         estimate D2E/DX2                !
 ! R2    R(1,6)                  1.401          estimate D2E/DX2                !
 ! R3    R(1,35)                 1.3814         estimate D2E/DX2                !
 ! R4    R(2,3)                  1.3951         estimate D2E/DX2                !
 ! R5    R(2,21)                 1.3866         estimate D2E/DX2                !
 ! R6    R(3,4)                  1.3933         estimate D2E/DX2                !
 ! R7    R(3,8)                  1.082          estimate D2E/DX2                !
 ! R8    R(4,5)                  1.4065         estimate D2E/DX2                !
 ! R9    R(4,9)                  1.0831         estimate D2E/DX2                !
 ! R10   R(5,6)                  1.3981         estimate D2E/DX2                !
 ! R11   R(5,10)                 1.0838         estimate D2E/DX2                !
 ! R12   R(6,37)                 1.4615         estimate D2E/DX2                !
 ! R13   R(7,16)                 1.4404         estimate D2E/DX2                !
 ! R14   R(7,21)                 1.349          estimate D2E/DX2                !
 ! R15   R(7,35)                 1.3485         estimate D2E/DX2                !
 ! R16   R(11,12)                1.418          estimate D2E/DX2                !
 ! R17   R(11,16)                1.4138         estimate D2E/DX2                !
 ! R18   R(11,33)                1.3725         estimate D2E/DX2                !
 ! R19   R(12,13)                1.3936         estimate D2E/DX2                !
 ! R20   R(12,34)                1.3746         estimate D2E/DX2                !
 ! R21   R(13,14)                1.3959         estimate D2E/DX2                !
 ! R22   R(13,18)                1.0827         estimate D2E/DX2                !
 ! R23   R(14,15)                1.4022         estimate D2E/DX2                !
 ! R24   R(14,19)                1.0828         estimate D2E/DX2                !
 ! R25   R(15,16)                1.4            estimate D2E/DX2                !
 ! R26   R(15,20)                1.0831         estimate D2E/DX2                !
 ! R27   R(17,23)                1.452          estimate D2E/DX2                !
 ! R28   R(17,33)                1.3398         estimate D2E/DX2                !
 ! R29   R(17,34)                1.3669         estimate D2E/DX2                !
 ! R30   R(21,58)                1.0241         estimate D2E/DX2                !
 ! R31   R(22,23)                1.4692         estimate D2E/DX2                !
 ! R32   R(22,27)                1.4672         estimate D2E/DX2                !
 ! R33   R(22,32)                1.2597         estimate D2E/DX2                !
 ! R34   R(23,24)                1.381          estimate D2E/DX2                !
 ! R35   R(24,25)                1.4077         estimate D2E/DX2                !
 ! R36   R(24,28)                1.0826         estimate D2E/DX2                !
 ! R37   R(25,26)                1.4143         estimate D2E/DX2                !
 ! R38   R(25,30)                1.5249         estimate D2E/DX2                !
 ! R39   R(26,27)                1.3802         estimate D2E/DX2                !
 ! R40   R(26,29)                1.0786         estimate D2E/DX2                !
 ! R41   R(27,31)                1.5273         estimate D2E/DX2                !
 ! R42   R(30,63)                1.5446         estimate D2E/DX2                !
 ! R43   R(30,75)                1.5343         estimate D2E/DX2                !
 ! R44   R(30,79)                1.5442         estimate D2E/DX2                !
 ! R45   R(31,59)                1.5449         estimate D2E/DX2                !
 ! R46   R(31,67)                1.5362         estimate D2E/DX2                !
 ! R47   R(31,71)                1.5464         estimate D2E/DX2                !
 ! R48   R(34,57)                1.0159         estimate D2E/DX2                !
 ! R49   R(35,36)                1.0182         estimate D2E/DX2                !
 ! R50   R(37,38)                1.0942         estimate D2E/DX2                !
 ! R51   R(37,39)                1.2812         estimate D2E/DX2                !
 ! R52   R(39,40)                1.4726         estimate D2E/DX2                !
 ! R53   R(40,41)                1.5384         estimate D2E/DX2                !
 ! R54   R(40,42)                1.5383         estimate D2E/DX2                !
 ! R55   R(40,43)                1.0956         estimate D2E/DX2                !
 ! R56   R(41,44)                1.5316         estimate D2E/DX2                !
 ! R57   R(41,45)                1.0964         estimate D2E/DX2                !
 ! R58   R(41,46)                1.094          estimate D2E/DX2                !
 ! R59   R(42,47)                1.5323         estimate D2E/DX2                !
 ! R60   R(42,48)                1.0967         estimate D2E/DX2                !
 ! R61   R(42,49)                1.0941         estimate D2E/DX2                !
 ! R62   R(44,50)                1.5326         estimate D2E/DX2                !
 ! R63   R(44,51)                1.0942         estimate D2E/DX2                !
 ! R64   R(44,52)                1.0972         estimate D2E/DX2                !
 ! R65   R(47,50)                1.5327         estimate D2E/DX2                !
 ! R66   R(47,53)                1.094          estimate D2E/DX2                !
 ! R67   R(47,54)                1.0972         estimate D2E/DX2                !
 ! R68   R(50,55)                1.0943         estimate D2E/DX2                !
 ! R69   R(50,56)                1.0975         estimate D2E/DX2                !
 ! R70   R(59,60)                1.0892         estimate D2E/DX2                !
 ! R71   R(59,61)                1.0934         estimate D2E/DX2                !
 ! R72   R(59,62)                1.0933         estimate D2E/DX2                !
 ! R73   R(63,64)                1.0934         estimate D2E/DX2                !
 ! R74   R(63,65)                1.0927         estimate D2E/DX2                !
 ! R75   R(63,66)                1.0927         estimate D2E/DX2                !
 ! R76   R(67,68)                1.093          estimate D2E/DX2                !
 ! R77   R(67,69)                1.0933         estimate D2E/DX2                !
 ! R78   R(67,70)                1.0923         estimate D2E/DX2                !
 ! R79   R(71,72)                1.0884         estimate D2E/DX2                !
 ! R80   R(71,73)                1.0932         estimate D2E/DX2                !
 ! R81   R(71,74)                1.0935         estimate D2E/DX2                !
 ! R82   R(75,76)                1.0927         estimate D2E/DX2                !
 ! R83   R(75,77)                1.0931         estimate D2E/DX2                !
 ! R84   R(75,78)                1.0919         estimate D2E/DX2                !
 ! R85   R(79,80)                1.0927         estimate D2E/DX2                !
 ! R86   R(79,81)                1.0921         estimate D2E/DX2                !
 ! R87   R(79,82)                1.0932         estimate D2E/DX2                !
 ! A1    A(2,1,6)              122.529          estimate D2E/DX2                !
 ! A2    A(2,1,35)             106.9738         estimate D2E/DX2                !
 ! A3    A(6,1,35)             130.4954         estimate D2E/DX2                !
 ! A4    A(1,2,3)              121.3869         estimate D2E/DX2                !
 ! A5    A(1,2,21)             105.6969         estimate D2E/DX2                !
 ! A6    A(3,2,21)             132.9162         estimate D2E/DX2                !
 ! A7    A(2,3,4)              116.5694         estimate D2E/DX2                !
 ! A8    A(2,3,8)              121.4717         estimate D2E/DX2                !
 ! A9    A(4,3,8)              121.9584         estimate D2E/DX2                !
 ! A10   A(3,4,5)              121.9172         estimate D2E/DX2                !
 ! A11   A(3,4,9)              119.1412         estimate D2E/DX2                !
 ! A12   A(5,4,9)              118.9403         estimate D2E/DX2                !
 ! A13   A(4,5,6)              121.9626         estimate D2E/DX2                !
 ! A14   A(4,5,10)             119.38           estimate D2E/DX2                !
 ! A15   A(6,5,10)             118.6574         estimate D2E/DX2                !
 ! A16   A(1,6,5)              115.6334         estimate D2E/DX2                !
 ! A17   A(1,6,37)             121.51           estimate D2E/DX2                !
 ! A18   A(5,6,37)             122.8549         estimate D2E/DX2                !
 ! A19   A(16,7,21)            123.5997         estimate D2E/DX2                !
 ! A20   A(16,7,35)            128.4404         estimate D2E/DX2                !
 ! A21   A(21,7,35)            107.9562         estimate D2E/DX2                !
 ! A22   A(12,11,16)           119.8919         estimate D2E/DX2                !
 ! A23   A(12,11,33)           110.4646         estimate D2E/DX2                !
 ! A24   A(16,11,33)           129.6432         estimate D2E/DX2                !
 ! A25   A(11,12,13)           122.2257         estimate D2E/DX2                !
 ! A26   A(11,12,34)           104.4038         estimate D2E/DX2                !
 ! A27   A(13,12,34)           133.3695         estimate D2E/DX2                !
 ! A28   A(12,13,14)           117.0254         estimate D2E/DX2                !
 ! A29   A(12,13,18)           121.6167         estimate D2E/DX2                !
 ! A30   A(14,13,18)           121.3579         estimate D2E/DX2                !
 ! A31   A(13,14,15)           121.9336         estimate D2E/DX2                !
 ! A32   A(13,14,19)           119.2269         estimate D2E/DX2                !
 ! A33   A(15,14,19)           118.8392         estimate D2E/DX2                !
 ! A34   A(14,15,16)           121.214          estimate D2E/DX2                !
 ! A35   A(14,15,20)           119.066          estimate D2E/DX2                !
 ! A36   A(16,15,20)           119.7198         estimate D2E/DX2                !
 ! A37   A(7,16,11)            119.1695         estimate D2E/DX2                !
 ! A38   A(7,16,15)            123.121          estimate D2E/DX2                !
 ! A39   A(11,16,15)           117.7019         estimate D2E/DX2                !
 ! A40   A(23,17,33)           124.7168         estimate D2E/DX2                !
 ! A41   A(23,17,34)           123.5618         estimate D2E/DX2                !
 ! A42   A(33,17,34)           111.7151         estimate D2E/DX2                !
 ! A43   A(2,21,7)             109.9573         estimate D2E/DX2                !
 ! A44   A(2,21,58)            129.8058         estimate D2E/DX2                !
 ! A45   A(7,21,58)            120.2369         estimate D2E/DX2                !
 ! A46   A(23,22,27)           117.6891         estimate D2E/DX2                !
 ! A47   A(23,22,32)           120.4809         estimate D2E/DX2                !
 ! A48   A(27,22,32)           121.83           estimate D2E/DX2                !
 ! A49   A(17,23,22)           120.4233         estimate D2E/DX2                !
 ! A50   A(17,23,24)           119.2002         estimate D2E/DX2                !
 ! A51   A(22,23,24)           120.3742         estimate D2E/DX2                !
 ! A52   A(23,24,25)           121.5413         estimate D2E/DX2                !
 ! A53   A(23,24,28)           118.4447         estimate D2E/DX2                !
 ! A54   A(25,24,28)           120.0087         estimate D2E/DX2                !
 ! A55   A(24,25,26)           118.4639         estimate D2E/DX2                !
 ! A56   A(24,25,30)           119.2847         estimate D2E/DX2                !
 ! A57   A(26,25,30)           122.2514         estimate D2E/DX2                !
 ! A58   A(25,26,27)           123.6447         estimate D2E/DX2                !
 ! A59   A(25,26,29)           117.9107         estimate D2E/DX2                !
 ! A60   A(27,26,29)           118.443          estimate D2E/DX2                !
 ! A61   A(22,27,26)           118.2738         estimate D2E/DX2                !
 ! A62   A(22,27,31)           119.9036         estimate D2E/DX2                !
 ! A63   A(26,27,31)           121.8223         estimate D2E/DX2                !
 ! A64   A(25,30,63)           108.7254         estimate D2E/DX2                !
 ! A65   A(25,30,75)           112.3543         estimate D2E/DX2                !
 ! A66   A(25,30,79)           109.0277         estimate D2E/DX2                !
 ! A67   A(63,30,75)           108.9246         estimate D2E/DX2                !
 ! A68   A(63,30,79)           109.182          estimate D2E/DX2                !
 ! A69   A(75,30,79)           108.5829         estimate D2E/DX2                !
 ! A70   A(27,31,59)           109.4119         estimate D2E/DX2                !
 ! A71   A(27,31,67)           111.8043         estimate D2E/DX2                !
 ! A72   A(27,31,71)           109.957          estimate D2E/DX2                !
 ! A73   A(59,31,67)           108.1714         estimate D2E/DX2                !
 ! A74   A(59,31,71)           109.8086         estimate D2E/DX2                !
 ! A75   A(67,31,71)           107.6455         estimate D2E/DX2                !
 ! A76   A(11,33,17)           105.2311         estimate D2E/DX2                !
 ! A77   A(12,34,17)           108.184          estimate D2E/DX2                !
 ! A78   A(12,34,57)           130.7714         estimate D2E/DX2                !
 ! A79   A(17,34,57)           121.0069         estimate D2E/DX2                !
 ! A80   A(1,35,7)             109.4142         estimate D2E/DX2                !
 ! A81   A(1,35,36)            120.7909         estimate D2E/DX2                !
 ! A82   A(7,35,36)            129.7936         estimate D2E/DX2                !
 ! A83   A(6,37,38)            115.6652         estimate D2E/DX2                !
 ! A84   A(6,37,39)            121.2251         estimate D2E/DX2                !
 ! A85   A(38,37,39)           123.1096         estimate D2E/DX2                !
 ! A86   A(37,39,40)           117.5497         estimate D2E/DX2                !
 ! A87   A(39,40,41)           112.1106         estimate D2E/DX2                !
 ! A88   A(39,40,42)           112.0602         estimate D2E/DX2                !
 ! A89   A(39,40,43)           106.1633         estimate D2E/DX2                !
 ! A90   A(41,40,42)           110.7696         estimate D2E/DX2                !
 ! A91   A(41,40,43)           107.7365         estimate D2E/DX2                !
 ! A92   A(42,40,43)           107.699          estimate D2E/DX2                !
 ! A93   A(40,41,44)           111.1376         estimate D2E/DX2                !
 ! A94   A(40,41,45)           108.7728         estimate D2E/DX2                !
 ! A95   A(40,41,46)           109.4079         estimate D2E/DX2                !
 ! A96   A(44,41,45)           109.3643         estimate D2E/DX2                !
 ! A97   A(44,41,46)           110.9869         estimate D2E/DX2                !
 ! A98   A(45,41,46)           107.06           estimate D2E/DX2                !
 ! A99   A(40,42,47)           111.0411         estimate D2E/DX2                !
 ! A100  A(40,42,48)           108.759          estimate D2E/DX2                !
 ! A101  A(40,42,49)           109.4953         estimate D2E/DX2                !
 ! A102  A(47,42,48)           109.4471         estimate D2E/DX2                !
 ! A103  A(47,42,49)           110.912          estimate D2E/DX2                !
 ! A104  A(48,42,49)           107.0804         estimate D2E/DX2                !
 ! A105  A(41,44,50)           111.2485         estimate D2E/DX2                !
 ! A106  A(41,44,51)           109.7243         estimate D2E/DX2                !
 ! A107  A(41,44,52)           109.253          estimate D2E/DX2                !
 ! A108  A(50,44,51)           110.6533         estimate D2E/DX2                !
 ! A109  A(50,44,52)           109.1075         estimate D2E/DX2                !
 ! A110  A(51,44,52)           106.7377         estimate D2E/DX2                !
 ! A111  A(42,47,50)           111.3235         estimate D2E/DX2                !
 ! A112  A(42,47,53)           109.8427         estimate D2E/DX2                !
 ! A113  A(42,47,54)           109.1879         estimate D2E/DX2                !
 ! A114  A(50,47,53)           110.5449         estimate D2E/DX2                !
 ! A115  A(50,47,54)           109.0836         estimate D2E/DX2                !
 ! A116  A(53,47,54)           106.7372         estimate D2E/DX2                !
 ! A117  A(44,50,47)           110.9418         estimate D2E/DX2                !
 ! A118  A(44,50,55)           110.3011         estimate D2E/DX2                !
 ! A119  A(44,50,56)           109.1247         estimate D2E/DX2                !
 ! A120  A(47,50,55)           110.2893         estimate D2E/DX2                !
 ! A121  A(47,50,56)           109.199          estimate D2E/DX2                !
 ! A122  A(55,50,56)           106.8848         estimate D2E/DX2                !
 ! A123  A(31,59,60)           111.0267         estimate D2E/DX2                !
 ! A124  A(31,59,61)           109.4306         estimate D2E/DX2                !
 ! A125  A(31,59,62)           110.6837         estimate D2E/DX2                !
 ! A126  A(60,59,61)           108.8451         estimate D2E/DX2                !
 ! A127  A(60,59,62)           108.6279         estimate D2E/DX2                !
 ! A128  A(61,59,62)           108.1593         estimate D2E/DX2                !
 ! A129  A(30,63,64)           109.474          estimate D2E/DX2                !
 ! A130  A(30,63,65)           111.4946         estimate D2E/DX2                !
 ! A131  A(30,63,66)           110.8748         estimate D2E/DX2                !
 ! A132  A(64,63,65)           108.1668         estimate D2E/DX2                !
 ! A133  A(64,63,66)           108.3995         estimate D2E/DX2                !
 ! A134  A(65,63,66)           108.3388         estimate D2E/DX2                !
 ! A135  A(31,67,68)           111.7322         estimate D2E/DX2                !
 ! A136  A(31,67,69)           112.14           estimate D2E/DX2                !
 ! A137  A(31,67,70)           108.8049         estimate D2E/DX2                !
 ! A138  A(68,67,69)           108.3501         estimate D2E/DX2                !
 ! A139  A(68,67,70)           107.888          estimate D2E/DX2                !
 ! A140  A(69,67,70)           107.7632         estimate D2E/DX2                !
 ! A141  A(31,71,72)           111.3343         estimate D2E/DX2                !
 ! A142  A(31,71,73)           110.5395         estimate D2E/DX2                !
 ! A143  A(31,71,74)           109.1683         estimate D2E/DX2                !
 ! A144  A(72,71,73)           108.8634         estimate D2E/DX2                !
 ! A145  A(72,71,74)           108.9099         estimate D2E/DX2                !
 ! A146  A(73,71,74)           107.9482         estimate D2E/DX2                !
 ! A147  A(30,75,76)           111.5568         estimate D2E/DX2                !
 ! A148  A(30,75,77)           111.3837         estimate D2E/DX2                !
 ! A149  A(30,75,78)           109.3022         estimate D2E/DX2                !
 ! A150  A(76,75,77)           108.4688         estimate D2E/DX2                !
 ! A151  A(76,75,78)           108.0013         estimate D2E/DX2                !
 ! A152  A(77,75,78)           108.005          estimate D2E/DX2                !
 ! A153  A(30,79,80)           110.9469         estimate D2E/DX2                !
 ! A154  A(30,79,81)           111.6813         estimate D2E/DX2                !
 ! A155  A(30,79,82)           109.4768         estimate D2E/DX2                !
 ! A156  A(80,79,81)           108.3098         estimate D2E/DX2                !
 ! A157  A(80,79,82)           108.2876         estimate D2E/DX2                !
 ! A158  A(81,79,82)           108.0322         estimate D2E/DX2                !
 ! D1    D(6,1,2,3)             -0.1419         estimate D2E/DX2                !
 ! D2    D(6,1,2,21)           179.87           estimate D2E/DX2                !
 ! D3    D(35,1,2,3)          -179.7007         estimate D2E/DX2                !
 ! D4    D(35,1,2,21)            0.3113         estimate D2E/DX2                !
 ! D5    D(2,1,6,5)              0.1226         estimate D2E/DX2                !
 ! D6    D(2,1,6,37)           179.6708         estimate D2E/DX2                !
 ! D7    D(35,1,6,5)           179.5676         estimate D2E/DX2                !
 ! D8    D(35,1,6,37)           -0.8842         estimate D2E/DX2                !
 ! D9    D(2,1,35,7)            -0.1061         estimate D2E/DX2                !
 ! D10   D(2,1,35,36)          179.5109         estimate D2E/DX2                !
 ! D11   D(6,1,35,7)          -179.6169         estimate D2E/DX2                !
 ! D12   D(6,1,35,36)            0.0001         estimate D2E/DX2                !
 ! D13   D(1,2,3,4)              0.2865         estimate D2E/DX2                !
 ! D14   D(1,2,3,8)           -179.974          estimate D2E/DX2                !
 ! D15   D(21,2,3,4)          -179.7292         estimate D2E/DX2                !
 ! D16   D(21,2,3,8)             0.0103         estimate D2E/DX2                !
 ! D17   D(1,2,21,7)            -0.4143         estimate D2E/DX2                !
 ! D18   D(1,2,21,58)          179.5674         estimate D2E/DX2                !
 ! D19   D(3,2,21,7)           179.5996         estimate D2E/DX2                !
 ! D20   D(3,2,21,58)           -0.4187         estimate D2E/DX2                !
 ! D21   D(2,3,4,5)             -0.4345         estimate D2E/DX2                !
 ! D22   D(2,3,4,9)            179.9968         estimate D2E/DX2                !
 ! D23   D(8,3,4,5)            179.8273         estimate D2E/DX2                !
 ! D24   D(8,3,4,9)              0.2586         estimate D2E/DX2                !
 ! D25   D(3,4,5,6)              0.4454         estimate D2E/DX2                !
 ! D26   D(3,4,5,10)          -179.619          estimate D2E/DX2                !
 ! D27   D(9,4,5,6)           -179.9851         estimate D2E/DX2                !
 ! D28   D(9,4,5,10)            -0.0495         estimate D2E/DX2                !
 ! D29   D(4,5,6,1)             -0.2685         estimate D2E/DX2                !
 ! D30   D(4,5,6,37)          -179.81           estimate D2E/DX2                !
 ! D31   D(10,5,6,1)           179.7954         estimate D2E/DX2                !
 ! D32   D(10,5,6,37)            0.2539         estimate D2E/DX2                !
 ! D33   D(1,6,37,38)         -179.6772         estimate D2E/DX2                !
 ! D34   D(1,6,37,39)            0.4012         estimate D2E/DX2                !
 ! D35   D(5,6,37,38)           -0.1621         estimate D2E/DX2                !
 ! D36   D(5,6,37,39)          179.9163         estimate D2E/DX2                !
 ! D37   D(21,7,16,11)          -0.0594         estimate D2E/DX2                !
 ! D38   D(21,7,16,15)         178.9098         estimate D2E/DX2                !
 ! D39   D(35,7,16,11)        -179.281          estimate D2E/DX2                !
 ! D40   D(35,7,16,15)          -0.3118         estimate D2E/DX2                !
 ! D41   D(16,7,21,2)         -179.0025         estimate D2E/DX2                !
 ! D42   D(16,7,21,58)           1.0137         estimate D2E/DX2                !
 ! D43   D(35,7,21,2)            0.3566         estimate D2E/DX2                !
 ! D44   D(35,7,21,58)        -179.6272         estimate D2E/DX2                !
 ! D45   D(16,7,35,1)          179.1675         estimate D2E/DX2                !
 ! D46   D(16,7,35,36)          -0.4042         estimate D2E/DX2                !
 ! D47   D(21,7,35,1)           -0.151          estimate D2E/DX2                !
 ! D48   D(21,7,35,36)        -179.7227         estimate D2E/DX2                !
 ! D49   D(16,11,12,13)          0.8322         estimate D2E/DX2                !
 ! D50   D(16,11,12,34)       -179.4706         estimate D2E/DX2                !
 ! D51   D(33,11,12,13)       -179.3357         estimate D2E/DX2                !
 ! D52   D(33,11,12,34)          0.3615         estimate D2E/DX2                !
 ! D53   D(12,11,16,7)         178.1959         estimate D2E/DX2                !
 ! D54   D(12,11,16,15)         -0.8291         estimate D2E/DX2                !
 ! D55   D(33,11,16,7)          -1.5998         estimate D2E/DX2                !
 ! D56   D(33,11,16,15)        179.3752         estimate D2E/DX2                !
 ! D57   D(12,11,33,17)         -0.2279         estimate D2E/DX2                !
 ! D58   D(16,11,33,17)        179.583          estimate D2E/DX2                !
 ! D59   D(11,12,13,14)         -0.1232         estimate D2E/DX2                !
 ! D60   D(11,12,13,18)        179.7974         estimate D2E/DX2                !
 ! D61   D(34,12,13,14)       -179.7197         estimate D2E/DX2                !
 ! D62   D(34,12,13,18)          0.2009         estimate D2E/DX2                !
 ! D63   D(11,12,34,17)         -0.3486         estimate D2E/DX2                !
 ! D64   D(11,12,34,57)        177.3821         estimate D2E/DX2                !
 ! D65   D(13,12,34,17)        179.299          estimate D2E/DX2                !
 ! D66   D(13,12,34,57)         -2.9703         estimate D2E/DX2                !
 ! D67   D(12,13,14,15)         -0.5671         estimate D2E/DX2                !
 ! D68   D(12,13,14,19)        179.6253         estimate D2E/DX2                !
 ! D69   D(18,13,14,15)        179.5121         estimate D2E/DX2                !
 ! D70   D(18,13,14,19)         -0.2955         estimate D2E/DX2                !
 ! D71   D(13,14,15,16)          0.5554         estimate D2E/DX2                !
 ! D72   D(13,14,15,20)       -179.5957         estimate D2E/DX2                !
 ! D73   D(19,14,15,16)       -179.6363         estimate D2E/DX2                !
 ! D74   D(19,14,15,20)          0.2126         estimate D2E/DX2                !
 ! D75   D(14,15,16,7)        -178.8192         estimate D2E/DX2                !
 ! D76   D(14,15,16,11)          0.1642         estimate D2E/DX2                !
 ! D77   D(20,15,16,7)           1.3328         estimate D2E/DX2                !
 ! D78   D(20,15,16,11)       -179.6838         estimate D2E/DX2                !
 ! D79   D(33,17,23,22)        174.5785         estimate D2E/DX2                !
 ! D80   D(33,17,23,24)         -5.9759         estimate D2E/DX2                !
 ! D81   D(34,17,23,22)         -6.4069         estimate D2E/DX2                !
 ! D82   D(34,17,23,24)        173.0387         estimate D2E/DX2                !
 ! D83   D(23,17,33,11)        179.1167         estimate D2E/DX2                !
 ! D84   D(34,17,33,11)          0.0005         estimate D2E/DX2                !
 ! D85   D(23,17,34,12)       -178.8972         estimate D2E/DX2                !
 ! D86   D(23,17,34,57)          3.1078         estimate D2E/DX2                !
 ! D87   D(33,17,34,12)          0.231          estimate D2E/DX2                !
 ! D88   D(33,17,34,57)       -177.7641         estimate D2E/DX2                !
 ! D89   D(27,22,23,17)       -179.9415         estimate D2E/DX2                !
 ! D90   D(27,22,23,24)          0.6194         estimate D2E/DX2                !
 ! D91   D(32,22,23,17)          0.0832         estimate D2E/DX2                !
 ! D92   D(32,22,23,24)       -179.3559         estimate D2E/DX2                !
 ! D93   D(23,22,27,26)         -0.7544         estimate D2E/DX2                !
 ! D94   D(23,22,27,31)        179.4347         estimate D2E/DX2                !
 ! D95   D(32,22,27,26)        179.2206         estimate D2E/DX2                !
 ! D96   D(32,22,27,31)         -0.5903         estimate D2E/DX2                !
 ! D97   D(17,23,24,25)       -179.0965         estimate D2E/DX2                !
 ! D98   D(17,23,24,28)          0.0697         estimate D2E/DX2                !
 ! D99   D(22,23,24,25)          0.3494         estimate D2E/DX2                !
 ! D100  D(22,23,24,28)        179.5156         estimate D2E/DX2                !
 ! D101  D(23,24,25,26)         -1.161          estimate D2E/DX2                !
 ! D102  D(23,24,25,30)        178.8548         estimate D2E/DX2                !
 ! D103  D(28,24,25,26)        179.6856         estimate D2E/DX2                !
 ! D104  D(28,24,25,30)         -0.2986         estimate D2E/DX2                !
 ! D105  D(24,25,26,27)          1.0245         estimate D2E/DX2                !
 ! D106  D(24,25,26,29)       -179.4556         estimate D2E/DX2                !
 ! D107  D(30,25,26,27)       -178.9918         estimate D2E/DX2                !
 ! D108  D(30,25,26,29)          0.5281         estimate D2E/DX2                !
 ! D109  D(24,25,30,63)         62.0893         estimate D2E/DX2                !
 ! D110  D(24,25,30,75)       -177.2685         estimate D2E/DX2                !
 ! D111  D(24,25,30,79)        -56.8502         estimate D2E/DX2                !
 ! D112  D(26,25,30,63)       -117.8943         estimate D2E/DX2                !
 ! D113  D(26,25,30,75)          2.7479         estimate D2E/DX2                !
 ! D114  D(26,25,30,79)        123.1662         estimate D2E/DX2                !
 ! D115  D(25,26,27,22)         -0.0579         estimate D2E/DX2                !
 ! D116  D(25,26,27,31)        179.7492         estimate D2E/DX2                !
 ! D117  D(29,26,27,22)       -179.5755         estimate D2E/DX2                !
 ! D118  D(29,26,27,31)          0.2316         estimate D2E/DX2                !
 ! D119  D(22,27,31,59)        -61.359          estimate D2E/DX2                !
 ! D120  D(22,27,31,67)        178.8318         estimate D2E/DX2                !
 ! D121  D(22,27,31,71)         59.3194         estimate D2E/DX2                !
 ! D122  D(26,27,31,59)        118.8369         estimate D2E/DX2                !
 ! D123  D(26,27,31,67)         -0.9722         estimate D2E/DX2                !
 ! D124  D(26,27,31,71)       -120.4846         estimate D2E/DX2                !
 ! D125  D(25,30,63,64)       -179.0575         estimate D2E/DX2                !
 ! D126  D(25,30,63,65)        -59.4093         estimate D2E/DX2                !
 ! D127  D(25,30,63,66)         61.3937         estimate D2E/DX2                !
 ! D128  D(75,30,63,64)         58.2074         estimate D2E/DX2                !
 ! D129  D(75,30,63,65)        177.8556         estimate D2E/DX2                !
 ! D130  D(75,30,63,66)        -61.3414         estimate D2E/DX2                !
 ! D131  D(79,30,63,64)        -60.2148         estimate D2E/DX2                !
 ! D132  D(79,30,63,65)         59.4334         estimate D2E/DX2                !
 ! D133  D(79,30,63,66)       -179.7636         estimate D2E/DX2                !
 ! D134  D(25,30,75,76)        -61.7237         estimate D2E/DX2                !
 ! D135  D(25,30,75,77)         59.6411         estimate D2E/DX2                !
 ! D136  D(25,30,75,78)        178.9071         estimate D2E/DX2                !
 ! D137  D(63,30,75,76)         58.8035         estimate D2E/DX2                !
 ! D138  D(63,30,75,77)       -179.8316         estimate D2E/DX2                !
 ! D139  D(63,30,75,78)        -60.5656         estimate D2E/DX2                !
 ! D140  D(79,30,75,76)        177.6014         estimate D2E/DX2                !
 ! D141  D(79,30,75,77)        -61.0338         estimate D2E/DX2                !
 ! D142  D(79,30,75,78)         58.2322         estimate D2E/DX2                !
 ! D143  D(25,30,79,80)        -60.4128         estimate D2E/DX2                !
 ! D144  D(25,30,79,81)         60.5302         estimate D2E/DX2                !
 ! D145  D(25,30,79,82)       -179.8697         estimate D2E/DX2                !
 ! D146  D(63,30,79,80)       -179.0671         estimate D2E/DX2                !
 ! D147  D(63,30,79,81)        -58.124          estimate D2E/DX2                !
 ! D148  D(63,30,79,82)         61.476          estimate D2E/DX2                !
 ! D149  D(75,30,79,80)         62.2973         estimate D2E/DX2                !
 ! D150  D(75,30,79,81)       -176.7596         estimate D2E/DX2                !
 ! D151  D(75,30,79,82)        -57.1595         estimate D2E/DX2                !
 ! D152  D(27,31,59,60)         60.8184         estimate D2E/DX2                !
 ! D153  D(27,31,59,61)       -179.0126         estimate D2E/DX2                !
 ! D154  D(27,31,59,62)        -59.9061         estimate D2E/DX2                !
 ! D155  D(67,31,59,60)       -177.1652         estimate D2E/DX2                !
 ! D156  D(67,31,59,61)        -56.9962         estimate D2E/DX2                !
 ! D157  D(67,31,59,62)         62.1103         estimate D2E/DX2                !
 ! D158  D(71,31,59,60)        -59.9503         estimate D2E/DX2                !
 ! D159  D(71,31,59,61)         60.2186         estimate D2E/DX2                !
 ! D160  D(71,31,59,62)        179.3251         estimate D2E/DX2                !
 ! D161  D(27,31,67,68)        -59.9582         estimate D2E/DX2                !
 ! D162  D(27,31,67,69)         61.9167         estimate D2E/DX2                !
 ! D163  D(27,31,67,70)       -178.9731         estimate D2E/DX2                !
 ! D164  D(59,31,67,68)        179.5066         estimate D2E/DX2                !
 ! D165  D(59,31,67,69)        -58.6185         estimate D2E/DX2                !
 ! D166  D(59,31,67,70)         60.4917         estimate D2E/DX2                !
 ! D167  D(71,31,67,68)         60.9071         estimate D2E/DX2                !
 ! D168  D(71,31,67,69)       -177.218          estimate D2E/DX2                !
 ! D169  D(71,31,67,70)        -58.1078         estimate D2E/DX2                !
 ! D170  D(27,31,71,72)        -60.857          estimate D2E/DX2                !
 ! D171  D(27,31,71,73)         60.274          estimate D2E/DX2                !
 ! D172  D(27,31,71,74)        178.8703         estimate D2E/DX2                !
 ! D173  D(59,31,71,72)         59.5821         estimate D2E/DX2                !
 ! D174  D(59,31,71,73)       -179.2868         estimate D2E/DX2                !
 ! D175  D(59,31,71,74)        -60.6906         estimate D2E/DX2                !
 ! D176  D(67,31,71,72)        177.1251         estimate D2E/DX2                !
 ! D177  D(67,31,71,73)        -61.7438         estimate D2E/DX2                !
 ! D178  D(67,31,71,74)         56.8524         estimate D2E/DX2                !
 ! D179  D(6,37,39,40)         179.9294         estimate D2E/DX2                !
 ! D180  D(38,37,39,40)          0.0138         estimate D2E/DX2                !
 ! D181  D(37,39,40,41)        -61.6089         estimate D2E/DX2                !
 ! D182  D(37,39,40,42)         63.6755         estimate D2E/DX2                !
 ! D183  D(37,39,40,43)       -179.0028         estimate D2E/DX2                !
 ! D184  D(39,40,41,44)       -178.2346         estimate D2E/DX2                !
 ! D185  D(39,40,41,45)         61.3093         estimate D2E/DX2                !
 ! D186  D(39,40,41,46)        -55.3236         estimate D2E/DX2                !
 ! D187  D(42,40,41,44)         55.7748         estimate D2E/DX2                !
 ! D188  D(42,40,41,45)        -64.6813         estimate D2E/DX2                !
 ! D189  D(42,40,41,46)        178.6858         estimate D2E/DX2                !
 ! D190  D(43,40,41,44)        -61.785          estimate D2E/DX2                !
 ! D191  D(43,40,41,45)        177.7589         estimate D2E/DX2                !
 ! D192  D(43,40,41,46)         61.126          estimate D2E/DX2                !
 ! D193  D(39,40,42,47)        178.2662         estimate D2E/DX2                !
 ! D194  D(39,40,42,48)        -61.2439         estimate D2E/DX2                !
 ! D195  D(39,40,42,49)         55.4545         estimate D2E/DX2                !
 ! D196  D(41,40,42,47)        -55.7151         estimate D2E/DX2                !
 ! D197  D(41,40,42,48)         64.7747         estimate D2E/DX2                !
 ! D198  D(41,40,42,49)       -178.5268         estimate D2E/DX2                !
 ! D199  D(43,40,42,47)         61.8676         estimate D2E/DX2                !
 ! D200  D(43,40,42,48)       -177.6425         estimate D2E/DX2                !
 ! D201  D(43,40,42,49)        -60.9441         estimate D2E/DX2                !
 ! D202  D(40,41,44,50)        -55.9666         estimate D2E/DX2                !
 ! D203  D(40,41,44,51)       -178.7484         estimate D2E/DX2                !
 ! D204  D(40,41,44,52)         64.5534         estimate D2E/DX2                !
 ! D205  D(45,41,44,50)         64.1393         estimate D2E/DX2                !
 ! D206  D(45,41,44,51)        -58.6426         estimate D2E/DX2                !
 ! D207  D(45,41,44,52)       -175.3407         estimate D2E/DX2                !
 ! D208  D(46,41,44,50)       -177.9641         estimate D2E/DX2                !
 ! D209  D(46,41,44,51)         59.254          estimate D2E/DX2                !
 ! D210  D(46,41,44,52)        -57.4441         estimate D2E/DX2                !
 ! D211  D(40,42,47,50)         55.9547         estimate D2E/DX2                !
 ! D212  D(40,42,47,53)        178.7321         estimate D2E/DX2                !
 ! D213  D(40,42,47,54)        -64.5404         estimate D2E/DX2                !
 ! D214  D(48,42,47,50)        -64.127          estimate D2E/DX2                !
 ! D215  D(48,42,47,53)         58.6503         estimate D2E/DX2                !
 ! D216  D(48,42,47,54)        175.3779         estimate D2E/DX2                !
 ! D217  D(49,42,47,50)        177.945          estimate D2E/DX2                !
 ! D218  D(49,42,47,53)        -59.2777         estimate D2E/DX2                !
 ! D219  D(49,42,47,54)         57.4499         estimate D2E/DX2                !
 ! D220  D(41,44,50,47)         55.7807         estimate D2E/DX2                !
 ! D221  D(41,44,50,55)        178.2909         estimate D2E/DX2                !
 ! D222  D(41,44,50,56)        -64.5762         estimate D2E/DX2                !
 ! D223  D(51,44,50,47)        178.0266         estimate D2E/DX2                !
 ! D224  D(51,44,50,55)        -59.4632         estimate D2E/DX2                !
 ! D225  D(51,44,50,56)         57.6697         estimate D2E/DX2                !
 ! D226  D(52,44,50,47)        -64.8251         estimate D2E/DX2                !
 ! D227  D(52,44,50,55)         57.6851         estimate D2E/DX2                !
 ! D228  D(52,44,50,56)        174.8181         estimate D2E/DX2                !
 ! D229  D(42,47,50,44)        -55.8187         estimate D2E/DX2                !
 ! D230  D(42,47,50,55)       -178.3358         estimate D2E/DX2                !
 ! D231  D(42,47,50,56)         64.494          estimate D2E/DX2                !
 ! D232  D(53,47,50,44)       -178.1919         estimate D2E/DX2                !
 ! D233  D(53,47,50,55)         59.2911         estimate D2E/DX2                !
 ! D234  D(53,47,50,56)        -57.8791         estimate D2E/DX2                !
 ! D235  D(54,47,50,44)         64.7377         estimate D2E/DX2                !
 ! D236  D(54,47,50,55)        -57.7794         estimate D2E/DX2                !
 ! D237  D(54,47,50,56)       -174.9495         estimate D2E/DX2                !
 --------------------------------------------------------------------------------
 Trust Radius=3.00D-01 FncErr=1.00D-07 GrdErr=1.00D-07 EigMax=2.50D+02 EigMin=1.00D-04
 Number of steps in this run=    492 maximum allowed number of steps=    492.
 GradGradGradGradGradGradGradGradGradGradGradGradGradGradGradGradGradGrad

 Leave Link  103 at Fri Dec 28 14:03:35 2018, MaxMem=  1342177280 cpu:               0.8 elap:               2.7
 (Enter /gpfs/apps/hpc/Apps/Restricted/Gaussian/Rev_A.03/g16/l202.exe)
 Symmetry turned off by external request.
 Stoichiometry    C35H41N5O(1+,2)
 Framework group  C1[X(C35H41N5O)]
 Deg. of freedom   240
 Full point group                 C1      NOp   1
                          Input orientation:                          
 ---------------------------------------------------------------------
 Center     Atomic      Atomic             Coordinates (Angstroms)
 Number     Number       Type             X           Y           Z
 ---------------------------------------------------------------------
      1          6           0        1.534153    1.142325   -0.140101
      2          6           0        0.315025    1.827814   -0.253790
      3          6           0        0.273384    3.207213   -0.458280
      4          6           0        1.500366    3.861097   -0.548959
      5          6           0        2.720728    3.171848   -0.431608
      6          6           0        2.773444    1.789941   -0.226388
      7          6           0       -0.108695   -0.350362    0.055363
      8          1           0       -0.665880    3.737222   -0.545725
      9          1           0        1.516647    4.932365   -0.707580
     10          1           0        3.651427    3.722650   -0.502527
     11          6           0       -2.278102   -1.507903    0.168358
     12          6           0       -3.037888   -2.700357    0.275050
     13          6           0       -2.441462   -3.949887    0.433622
     14          6           0       -1.046816   -3.985527    0.481724
     15          6           0       -0.270702   -2.823557    0.364502
     16          6           0       -0.865947   -1.566600    0.204374
     17          6           0       -4.348952   -0.922040    0.052803
     18          1           0       -3.031374   -4.853871    0.517318
     19          1           0       -0.546391   -4.937090    0.610165
     20          1           0        0.808607   -2.905738    0.401647
     21          7           0       -0.671792    0.862816   -0.120683
     22          6           0       -6.873592   -0.783310   -0.132787
     23          6           0       -5.561363   -0.128729   -0.042350
     24          6           0       -5.467298    1.248997   -0.035209
     25          6           0       -6.611719    2.065600   -0.106061
     26          6           0       -7.877779    1.444123   -0.211075
     27          6           0       -8.059004    0.075981   -0.227844
     28          1           0       -4.485265    1.698439    0.040518
     29          1           0       -8.747942    2.078414   -0.273797
     30          6           0       -6.449960    3.581379   -0.067926
     31          6           0       -9.447241   -0.551184   -0.337219
     32          8           0       -6.962599   -2.039847   -0.127289
     33          7           0       -3.106236   -0.421567    0.035106
     34          7           0       -4.344608   -2.281821    0.191841
     35          7           0        1.230480   -0.192235    0.047300
     36          1           0        1.969166   -0.885637    0.148488
     37          6           0        4.030018    1.054855   -0.097681
     38          1           0        4.940919    1.656206   -0.174951
     39          7           0        4.041872   -0.212230    0.091524
     40          6           0        5.353622   -0.871238    0.208090
     41          6           0        6.194503   -0.717626   -1.070957
     42          6           0        6.137886   -0.383612    1.438361
     43          1           0        5.147609   -1.938469    0.345929
     44          6           0        7.534885   -1.447354   -0.941694
     45          1           0        6.376808    0.348979   -1.247371
     46          1           0        5.625603   -1.091894   -1.927140
     47          6           0        7.479028   -1.114445    1.560975
     48          1           0        6.316955    0.693713    1.338195
     49          1           0        5.531666   -0.526349    2.337963
     50          6           0        8.315027   -0.962841    0.285339
     51          1           0        8.122485   -1.304704   -1.853693
     52          1           0        7.352474   -2.525321   -0.848692
     53          1           0        8.029561   -0.737298    2.427894
     54          1           0        7.293501   -2.180318    1.743739
     55          1           0        9.255061   -1.514921    0.379881
     56          1           0        8.578245    0.093929    0.149809
     57          1           0       -5.211756   -2.810984    0.188414
     58          1           0       -1.691093    0.960487   -0.139304
     59          6           0       -9.526998   -1.400333   -1.625307
     60          1           0       -8.793265   -2.205122   -1.608902
     61          1           0      -10.526368   -1.835258   -1.712967
     62          1           0       -9.346323   -0.780989   -2.507913
     63          6           0       -5.622697    4.022820   -1.295365
     64          1           0       -5.484875    5.107199   -1.271184
     65          1           0       -4.635681    3.554017   -1.302590
     66          1           0       -6.134566    3.760829   -2.224559
     67          6           0      -10.551804    0.514721   -0.396939
     68          1           0      -10.553540    1.146172    0.495235
     69          1           0      -10.455307    1.159329   -1.274649
     70          1           0      -11.521079    0.014454   -0.455811
     71          6           0       -9.722305   -1.442671    0.896001
     72          1           0       -8.999767   -2.253510    0.967530
     73          1           0       -9.681222   -0.850622    1.814109
     74          1           0      -10.726122   -1.868667    0.814377
     75          6           0       -7.798508    4.312813   -0.087578
     76          1           0       -8.356786    4.101101   -1.002757
     77          1           0       -8.417169    4.031174    0.768416
     78          1           0       -7.625670    5.389851   -0.039270
     79          6           0       -5.695433    3.974899    1.220613
     80          1           0       -6.248859    3.660539    2.108845
     81          1           0       -4.700883    3.525304    1.259073
     82          1           0       -5.577395    5.061103    1.256579
 ---------------------------------------------------------------------
 Rotational constants (GHZ):           0.1783467           0.0311786           0.0271963
 Leave Link  202 at Fri Dec 28 14:03:38 2018, MaxMem=  1342177280 cpu:               0.8 elap:               0.6
 (Enter /gpfs/apps/hpc/Apps/Restricted/Gaussian/Rev_A.03/g16/l716.exe)
 Electric field and nuclear coordinate derivatives read from checkpoint file.
 Dipole        =-1.58883093D+00 1.37428164D+00-1.70596953D-03
 Polarizability= 9.06446163D+02-4.23484071D+01 7.86095266D+02
                 1.99066498D+01-4.67922718D+01 3.06010414D+02
 Full mass-weighted force constant matrix:
 Low frequencies ---   -6.1534   -0.0031    0.0013    0.0037    2.4247   11.4026
 Low frequencies ---   15.5487   22.6715   30.9163
 Diagonal vibrational polarizability:
      121.2534219      50.6860906     103.3333464
 Harmonic frequencies (cm**-1), IR intensities (KM/Mole), Raman scattering
 activities (A**4/AMU), depolarization ratios for plane and unpolarized
 incident light, reduced masses (AMU), force constants (mDyne/A),
 and normal coordinates:
                      1                      2                      3
                      A                      A                      A
 Frequencies --     11.2280                22.0877                30.3709
 Red. masses --      4.6653                 4.6257                 4.9365
 Frc consts  --      0.0003                 0.0013                 0.0027
 IR Inten    --      0.1707                 0.0388                 0.6520
  Atom  AN      X      Y      Z        X      Y      Z        X      Y      Z
     1   6     0.00   0.01  -0.05    -0.01  -0.00   0.09    -0.05  -0.05  -0.02
     2   6     0.01   0.01  -0.07    -0.01  -0.00   0.10    -0.06  -0.07  -0.02
     3   6     0.01   0.01  -0.06    -0.02   0.00   0.13    -0.09  -0.07  -0.03
     4   6     0.01   0.01  -0.04    -0.02   0.01   0.16    -0.10  -0.05  -0.05
     5   6     0.01   0.01  -0.01    -0.02   0.01   0.15    -0.09  -0.03  -0.05
     6   6     0.01   0.01  -0.02    -0.01   0.01   0.11    -0.06  -0.02  -0.03
     7   6     0.01   0.00  -0.08    -0.01  -0.01   0.04    -0.02  -0.08   0.00
     8   1     0.01   0.01  -0.08    -0.02  -0.00   0.14    -0.10  -0.09  -0.03
     9   1     0.01   0.01  -0.03    -0.03   0.01   0.19    -0.13  -0.05  -0.06
    10   1     0.01   0.01   0.01    -0.02   0.02   0.16    -0.10  -0.01  -0.06
    11   6     0.01  -0.00  -0.10    -0.00  -0.02  -0.02    -0.02  -0.08   0.01
    12   6     0.01  -0.00  -0.10    -0.01  -0.02  -0.04    -0.03  -0.07   0.01
    13   6     0.01  -0.00  -0.10    -0.01  -0.02  -0.05    -0.03  -0.07   0.01
    14   6     0.01  -0.00  -0.10    -0.01  -0.02  -0.03    -0.03  -0.08   0.01
    15   6     0.01   0.00  -0.10    -0.01  -0.02  -0.00    -0.03  -0.08   0.01
    16   6     0.01  -0.00  -0.10    -0.00  -0.02   0.00    -0.02  -0.08   0.01
    17   6     0.01  -0.00  -0.08    -0.00  -0.02  -0.04    -0.01  -0.06   0.00
    18   1     0.01  -0.00  -0.10    -0.01  -0.02  -0.07    -0.04  -0.07   0.00
    19   1     0.01  -0.00  -0.10    -0.01  -0.02  -0.03    -0.04  -0.08   0.01
    20   1     0.01   0.00  -0.09    -0.01  -0.02   0.02    -0.03  -0.09   0.01
    21   7     0.01   0.00  -0.09    -0.01  -0.01   0.06    -0.04  -0.08  -0.00
    22   6     0.00  -0.00   0.00    -0.00  -0.00  -0.01    -0.01   0.01  -0.01
    23   6     0.00  -0.00  -0.05     0.00  -0.01  -0.05     0.01  -0.03   0.00
    24   6     0.01  -0.00  -0.05     0.01  -0.01  -0.08     0.04  -0.03   0.01
    25   6     0.00  -0.00  -0.01     0.02  -0.00  -0.08     0.07   0.00   0.01
    26   6    -0.00  -0.00   0.04     0.01   0.01  -0.05     0.05   0.04   0.01
    27   6    -0.00  -0.00   0.05     0.00   0.01  -0.01     0.01   0.04   0.00
    28   1     0.01  -0.01  -0.09     0.02  -0.02  -0.10     0.06  -0.06   0.02
    29   1    -0.00  -0.00   0.07     0.02   0.01  -0.04     0.07   0.06   0.02
    30   6     0.01  -0.00  -0.00     0.03  -0.00  -0.12     0.12  -0.00   0.02
    31   6    -0.01   0.00   0.12    -0.01   0.02   0.07    -0.00   0.08  -0.01
    32   8    -0.00  -0.00   0.01    -0.01  -0.00   0.01    -0.04   0.01  -0.03
    33   7     0.01  -0.00  -0.09    -0.00  -0.02  -0.02    -0.01  -0.07   0.00
    34   7     0.01  -0.01  -0.09    -0.01  -0.02  -0.06    -0.03  -0.06   0.00
    35   7     0.01   0.01  -0.06    -0.01  -0.01   0.06    -0.03  -0.05  -0.00
    36   1     0.01   0.01  -0.04    -0.00  -0.01   0.04    -0.02  -0.05   0.00
    37   6     0.00   0.01   0.01    -0.01   0.01   0.08    -0.04   0.01  -0.03
    38   1     0.00   0.01   0.04    -0.01   0.01   0.08    -0.06   0.04  -0.03
    39   7    -0.01   0.01   0.01    -0.00   0.01   0.05    -0.00   0.02  -0.02
    40   6    -0.02   0.00   0.06     0.01   0.01   0.00     0.02   0.07  -0.00
    41   6     0.03  -0.00   0.08    -0.05   0.02  -0.03     0.04   0.09   0.01
    42   6    -0.06  -0.00   0.08     0.06   0.01  -0.03    -0.01   0.09   0.01
    43   1    -0.03   0.00   0.05     0.02   0.01   0.00     0.06   0.06  -0.01
    44   6     0.02  -0.01   0.13    -0.04   0.03  -0.10     0.05   0.13   0.03
    45   1     0.04  -0.00   0.09    -0.07   0.03  -0.03     0.02   0.10   0.01
    46   1     0.06   0.00   0.06    -0.08   0.03  -0.01     0.06   0.08  -0.00
    47   6    -0.06  -0.01   0.13     0.07   0.01  -0.09     0.01   0.13   0.03
    48   1    -0.05  -0.00   0.09     0.05   0.01  -0.03    -0.04   0.10   0.00
    49   1    -0.09  -0.00   0.06     0.10  -0.00  -0.00    -0.02   0.08  -0.00
    50   6    -0.02  -0.01   0.16     0.01   0.02  -0.12     0.02   0.15   0.04
    51   1     0.06  -0.01   0.15    -0.08   0.04  -0.12     0.06   0.14   0.04
    52   1     0.02  -0.01   0.13    -0.03   0.03  -0.10     0.08   0.12   0.03
    53   1    -0.09  -0.01   0.15     0.10   0.01  -0.11    -0.01   0.15   0.03
    54   1    -0.07  -0.01   0.12     0.08   0.01  -0.09     0.03   0.13   0.03
    55   1    -0.02  -0.01   0.19     0.02   0.02  -0.17     0.03   0.17   0.06
    56   1    -0.01  -0.01   0.17     0.00   0.03  -0.13    -0.00   0.16   0.04
    57   1     0.01  -0.00  -0.07    -0.01  -0.01  -0.05    -0.03  -0.05  -0.00
    58   1     0.01  -0.00  -0.10    -0.01  -0.02   0.05    -0.05  -0.10   0.00
    59   6    -0.08  -0.04   0.15    -0.08  -0.05   0.12    -0.03   0.12  -0.03
    60   1    -0.09  -0.05   0.14    -0.09  -0.06   0.13    -0.05   0.09  -0.04
    61   1    -0.09  -0.04   0.22    -0.09  -0.04   0.19    -0.04   0.15  -0.05
    62   1    -0.12  -0.07   0.12    -0.11  -0.10   0.08     0.00   0.13  -0.01
    63   6    -0.06   0.00  -0.04     0.06  -0.04  -0.11     0.15  -0.02   0.04
    64   1    -0.07   0.01  -0.05     0.07  -0.04  -0.13     0.18  -0.03   0.05
    65   1    -0.05   0.02  -0.09     0.05  -0.05  -0.09     0.13  -0.05   0.05
    66   1    -0.10  -0.00  -0.02     0.07  -0.05  -0.11     0.15  -0.00   0.03
    67   6    -0.01   0.01   0.14    -0.00   0.03   0.06     0.02   0.11   0.02
    68   1     0.03   0.03   0.12     0.04   0.07   0.03     0.05   0.10   0.03
    69   1    -0.04  -0.02   0.12    -0.02  -0.02   0.03     0.03   0.13   0.03
    70   1    -0.01   0.01   0.19    -0.01   0.04   0.12     0.01   0.14   0.02
    71   6     0.04   0.04   0.16     0.03   0.08   0.13    -0.03   0.06  -0.03
    72   1     0.04   0.04   0.16     0.03   0.08   0.14    -0.06   0.03  -0.05
    73   1     0.08   0.07   0.14     0.06   0.13   0.10    -0.00   0.04  -0.01
    74   1     0.04   0.04   0.22     0.02   0.08   0.18    -0.04   0.10  -0.03
    75   6     0.01  -0.00   0.08     0.04   0.01  -0.15     0.14   0.04   0.01
    76   1    -0.04   0.02   0.10     0.05  -0.02  -0.15     0.14   0.05   0.00
    77   1     0.05  -0.02   0.10     0.03   0.05  -0.15     0.12   0.06  -0.00
    78   1     0.01  -0.00   0.09     0.05   0.01  -0.20     0.17   0.03   0.01
    79   6     0.08  -0.01  -0.04     0.02   0.01  -0.11     0.11  -0.04   0.04
    80   1     0.12  -0.00  -0.01     0.01   0.03  -0.11     0.09  -0.04   0.03
    81   1     0.07  -0.02  -0.09     0.02   0.01  -0.10     0.10  -0.06   0.04
    82   1     0.09  -0.01  -0.05     0.02   0.01  -0.13     0.13  -0.04   0.06
                      4                      5                      6
                      A                      A                      A
 Frequencies --     36.1123                44.8788                48.7227
 Red. masses --      3.1931                 4.5020                 4.5380
 Frc consts  --      0.0025                 0.0053                 0.0063
 IR Inten    --      0.1168                 1.0148                 0.8275
  Atom  AN      X      Y      Z        X      Y      Z        X      Y      Z
     1   6     0.00  -0.01   0.03    -0.03   0.06  -0.01     0.02  -0.05  -0.02
     2   6     0.01  -0.01   0.01    -0.04   0.04   0.01     0.02  -0.03   0.02
     3   6     0.01  -0.01  -0.02    -0.05   0.05   0.04     0.03  -0.03   0.08
     4   6     0.01  -0.02  -0.02    -0.06   0.06   0.05     0.03  -0.03   0.10
     5   6     0.01  -0.02  -0.00    -0.05   0.07   0.03     0.02  -0.04   0.06
     6   6     0.00  -0.01   0.03    -0.04   0.07   0.00     0.02  -0.05   0.00
     7   6    -0.00  -0.00   0.04    -0.00   0.03  -0.03     0.00  -0.04  -0.04
     8   1     0.01  -0.02  -0.04    -0.06   0.04   0.06     0.03  -0.02   0.11
     9   1     0.01  -0.02  -0.05    -0.07   0.06   0.08     0.03  -0.02   0.14
    10   1     0.01  -0.02  -0.01    -0.06   0.08   0.04     0.03  -0.04   0.08
    11   6    -0.01   0.00   0.01     0.03  -0.01   0.01    -0.02  -0.00  -0.00
    12   6    -0.01   0.00   0.01     0.04  -0.02   0.02    -0.03   0.01   0.00
    13   6    -0.02   0.00   0.03     0.06  -0.01  -0.00    -0.05  -0.01  -0.04
    14   6    -0.02   0.00   0.07     0.07   0.00  -0.05    -0.05  -0.03  -0.10
    15   6    -0.01   0.00   0.08     0.05   0.02  -0.06    -0.04  -0.04  -0.10
    16   6    -0.01   0.00   0.05     0.03   0.01  -0.03    -0.02  -0.03  -0.05
    17   6    -0.01  -0.00  -0.04     0.02  -0.03   0.06    -0.02   0.03   0.07
    18   1    -0.02   0.00   0.03     0.08  -0.02   0.01    -0.06   0.00  -0.03
    19   1    -0.02   0.01   0.10     0.08   0.01  -0.07    -0.06  -0.04  -0.13
    20   1    -0.01   0.00   0.10     0.05   0.03  -0.09    -0.04  -0.06  -0.14
    21   7     0.00  -0.01   0.01    -0.03   0.02   0.00     0.01  -0.03   0.00
    22   6    -0.01  -0.00  -0.05     0.02  -0.02   0.07    -0.02   0.02   0.10
    23   6    -0.01  -0.00  -0.05     0.02  -0.03   0.07    -0.02   0.03   0.09
    24   6    -0.01  -0.00  -0.04     0.04  -0.03   0.05    -0.03   0.03   0.06
    25   6    -0.01   0.00   0.00     0.05  -0.02   0.03    -0.04   0.02   0.03
    26   6    -0.01   0.00   0.01     0.05  -0.01   0.03    -0.03   0.01   0.03
    27   6    -0.01   0.00  -0.02     0.03  -0.01   0.04    -0.02   0.01   0.05
    28   1    -0.01  -0.00  -0.05     0.05  -0.04   0.05    -0.03   0.04   0.05
    29   1    -0.01   0.00   0.04     0.05   0.00   0.01    -0.03   0.00  -0.01
    30   6    -0.01  -0.00   0.01     0.08  -0.02  -0.03    -0.05   0.02  -0.05
    31   6    -0.01   0.00  -0.02     0.03   0.01  -0.02    -0.01  -0.00  -0.01
    32   8    -0.01  -0.00  -0.07     0.01  -0.02   0.08    -0.02   0.02   0.14
    33   7    -0.01  -0.00  -0.02     0.01  -0.02   0.04    -0.01   0.01   0.04
    34   7    -0.01   0.00  -0.03     0.03  -0.03   0.06    -0.03   0.02   0.06
    35   7    -0.00  -0.01   0.05    -0.01   0.05  -0.04     0.01  -0.05  -0.06
    36   1    -0.01  -0.01   0.07     0.02   0.07  -0.05    -0.01  -0.07  -0.08
    37   6     0.01  -0.01   0.03    -0.05   0.05  -0.00     0.03  -0.04  -0.02
    38   1     0.00  -0.01   0.01    -0.03   0.04   0.01     0.02  -0.02   0.02
    39   7     0.01  -0.01   0.05    -0.08   0.05  -0.02     0.05  -0.04  -0.07
    40   6     0.02   0.00   0.02    -0.10   0.00  -0.01     0.08  -0.01  -0.06
    41   6    -0.01  -0.00  -0.00    -0.09  -0.02  -0.01     0.12   0.07  -0.02
    42   6     0.05   0.02  -0.00    -0.10  -0.03  -0.01     0.01  -0.03  -0.01
    43   1     0.03   0.00   0.04    -0.14   0.01  -0.02     0.11  -0.02  -0.11
    44   6    -0.00   0.01  -0.03    -0.11  -0.05  -0.00     0.14   0.10   0.01
    45   1    -0.02  -0.00  -0.02    -0.06  -0.02  -0.00     0.10   0.08   0.03
    46   1    -0.03  -0.02   0.02    -0.10  -0.00  -0.01     0.17   0.09  -0.05
    47   6     0.06   0.03  -0.03    -0.12  -0.06  -0.00     0.03   0.01   0.02
    48   1     0.05   0.02  -0.02    -0.07  -0.03   0.00    -0.02  -0.02   0.04
    49   1     0.08   0.03   0.02    -0.11  -0.01  -0.01    -0.02  -0.08  -0.04
    50   6     0.03   0.02  -0.06    -0.11  -0.08   0.00     0.08   0.08   0.06
    51   1    -0.03   0.00  -0.05    -0.10  -0.07   0.00     0.17   0.15   0.04
    52   1     0.01   0.01  -0.02    -0.14  -0.05  -0.01     0.16   0.09  -0.03
    53   1     0.08   0.04  -0.05    -0.11  -0.08   0.00    -0.02  -0.01   0.06
    54   1     0.07   0.03  -0.02    -0.15  -0.06  -0.01     0.05  -0.00  -0.02
    55   1     0.03   0.03  -0.08    -0.12  -0.11   0.01     0.09   0.10   0.08
    56   1     0.02   0.02  -0.07    -0.08  -0.09   0.01     0.05   0.09   0.11
    57   1    -0.01  -0.00  -0.04     0.04  -0.04   0.07    -0.04   0.04   0.08
    58   1     0.00  -0.00  -0.00    -0.03   0.01   0.02     0.01  -0.01   0.02
    59   6    -0.02   0.04  -0.04     0.09   0.05  -0.05     0.06   0.01  -0.02
    60   1    -0.02   0.03  -0.06     0.08   0.05  -0.05     0.07   0.02   0.01
    61   1    -0.02   0.04  -0.04     0.09   0.06  -0.12     0.08  -0.00  -0.08
    62   1    -0.03   0.06  -0.02     0.14   0.08  -0.02     0.10   0.03  -0.00
    63   6    -0.18   0.01  -0.10     0.01  -0.09  -0.11    -0.12  -0.04  -0.12
    64   1    -0.21   0.01  -0.14     0.01  -0.09  -0.17    -0.13  -0.03  -0.19
    65   1    -0.16   0.04  -0.21     0.00  -0.10  -0.13    -0.11  -0.02  -0.13
    66   1    -0.28  -0.03  -0.04    -0.05  -0.14  -0.06    -0.15  -0.10  -0.08
    67   6    -0.01   0.01   0.02     0.04   0.01  -0.03    -0.02  -0.01  -0.05
    68   1    -0.00  -0.02   0.04     0.02  -0.01  -0.01    -0.06  -0.02  -0.05
    69   1    -0.02   0.03   0.04     0.07   0.03  -0.01     0.01  -0.01  -0.04
    70   1    -0.01   0.01   0.01     0.04   0.02  -0.07    -0.01  -0.02  -0.09
    71   6     0.00  -0.02  -0.04    -0.02  -0.03  -0.06    -0.07  -0.02  -0.03
    72   1    -0.00  -0.03  -0.07    -0.03  -0.04  -0.07    -0.06  -0.01  -0.00
    73   1     0.02  -0.05  -0.02    -0.05  -0.07  -0.04    -0.12  -0.02  -0.02
    74   1    -0.00  -0.01  -0.03    -0.02  -0.02  -0.11    -0.06  -0.03  -0.09
    75   6    -0.01  -0.00   0.22     0.09  -0.00   0.03    -0.06   0.01  -0.02
    76   1    -0.11   0.07   0.26     0.04  -0.01   0.06    -0.09  -0.03   0.01
    77   1     0.08  -0.08   0.26     0.13   0.02   0.06    -0.02   0.03   0.01
[...]
 ! Name  Definition              Value          Relative Weight (%)             !
 --------------------------------------------------------------------------------
 ! R37   R(25,26)                0.0416                  2.7                    !
 ! R39   R(26,27)                0.0431                  2.8                    !
 ! R40   R(26,29)               -1.0811                 69.6                    !
 ! R77   R(67,69)               -0.0119                  0.8                    !
 ! R82   R(75,76)               -0.019                   1.2                    !
 ! A55   A(24,25,26)             0.0276                  1.8                    !
 ! A57   A(26,25,30)            -0.0288                  1.9                    !
 ! A58   A(25,26,27)            -0.0567                  3.6                    !
 ! A59   A(25,26,29)             0.0266                  1.7                    !
 ! A60   A(27,26,29)             0.0301                  1.9                    !
 ! A61   A(22,27,26)             0.028                   1.8                    !
 ! A63   A(26,27,31)            -0.0294                  1.9                    !
 --------------------------------------------------------------------------------
                           ----------------------------
                           ! Normal Mode   238        !
 --------------------------                            --------------------------
 ! Name  Definition              Value          Relative Weight (%)             !
 --------------------------------------------------------------------------------
 ! R5    R(2,21)                 0.0484                  3.1                    !
 ! R14   R(7,21)                 0.0424                  2.7                    !
 ! R30   R(21,58)               -1.0715                 69.4                    !
 ! R49   R(35,36)                0.0507                  3.3                    !
 ! A5    A(1,2,21)               0.0246                  1.6                    !
 ! A6    A(3,2,21)              -0.0255                  1.7                    !
 ! A19   A(16,7,21)             -0.0261                  1.7                    !
 ! A21   A(21,7,35)              0.025                   1.6                    !
 ! A43   A(2,21,7)              -0.0506                  3.3                    !
 ! A44   A(2,21,58)              0.0602                  3.9                    !
 --------------------------------------------------------------------------------
                           ----------------------------
                           ! Normal Mode   239        !
 --------------------------                            --------------------------
 ! Name  Definition              Value          Relative Weight (%)             !
 --------------------------------------------------------------------------------
 ! R3    R(1,35)                 0.0419                  2.7                    !
 ! R15   R(7,35)                 0.0479                  3.1                    !
 ! R30   R(21,58)               -0.0507                  3.3                    !
 ! R48   R(34,57)                0.0202                  1.3                    !
 ! R49   R(35,36)               -1.0703                 69.9                    !
 ! A2    A(2,1,35)               0.0243                  1.6                    !
 ! A3    A(6,1,35)              -0.0249                  1.6                    !
 ! A20   A(16,7,35)             -0.0252                  1.6                    !
 ! A21   A(21,7,35)              0.0255                  1.7                    !
 ! A80   A(1,35,7)              -0.0489                  3.2                    !
 ! A82   A(7,35,36)              0.0554                  3.6                    !
 --------------------------------------------------------------------------------
                           ----------------------------
                           ! Normal Mode   240        !
 --------------------------                            --------------------------
 ! Name  Definition              Value          Relative Weight (%)             !
 --------------------------------------------------------------------------------
 ! R20   R(12,34)                0.0488                  3.3                    !
 ! R29   R(17,34)                0.0423                  2.9                    !
 ! R48   R(34,57)               -1.0713                 72.9                    !
 ! R49   R(35,36)               -0.0207                  1.4                    !
 ! A26   A(11,12,34)             0.0232                  1.6                    !
 ! A27   A(13,12,34)            -0.0244                  1.7                    !
 ! A41   A(23,17,34)            -0.0245                  1.7                    !
 ! A42   A(33,17,34)             0.0242                  1.6                    !
 ! A77   A(12,34,17)            -0.048                   3.3                    !
 ! A78   A(12,34,57)             0.0532                  3.6                    !
 --------------------------------------------------------------------------------
 -------------------------------------------------------------------
 Center     Atomic                   Forces (Hartrees/Bohr)
 Number     Number              X              Y              Z
 -------------------------------------------------------------------
      1        6          -0.000000361    0.000001813   -0.000001610
      2        6          -0.000000886    0.000000443   -0.000003669
      3        6          -0.000001663    0.000000119   -0.000007503
      4        6          -0.000001828    0.000000593   -0.000009082
      5        6          -0.000001601    0.000001545   -0.000006961
      6        6          -0.000000832    0.000002243   -0.000003221
      7        6           0.000000321    0.000001471    0.000002223
      8        1          -0.000001930   -0.000000662   -0.000009122
      9        1          -0.000002576    0.000000157   -0.000012015
     10        1          -0.000001933    0.000001951   -0.000008334
     11        6           0.000001177    0.000000262    0.000004952
     12        6           0.000001715    0.000000106    0.000008243
     13        6           0.000002503    0.000000927    0.000011700
     14        6           0.000002441    0.000001908    0.000012020
     15        6           0.000001764    0.000001992    0.000009005
     16        6           0.000001158    0.000001275    0.000005351
     17        6           0.000000511   -0.000001180    0.000003126
     18        1           0.000002955    0.000000862    0.000014055
     19        1           0.000002973    0.000002566    0.000014693
     20        1           0.000001827    0.000002772    0.000009384
     21        7          -0.000000395    0.000000549   -0.000001221
     22        6           0.000000797   -0.000003618    0.000001833
     23        6           0.000000399   -0.000002101    0.000000783
     24        6          -0.000000477   -0.000002202   -0.000003080
     25        6          -0.000000925   -0.000002929   -0.000005558
     26        6          -0.000000685   -0.000003945   -0.000004048
     27        6           0.000000152   -0.000004148   -0.000000199
     28        1          -0.000000805   -0.000001290   -0.000004173
     29        1          -0.000001004   -0.000004685   -0.000005961
     30        6          -0.000001901   -0.000002727   -0.000009656
     31        6           0.000000533   -0.000005285    0.000001147
     32        8           0.000001290   -0.000002996    0.000005820
     33        7           0.000000255   -0.000000459    0.000001933
     34        7           0.000001592   -0.000000704    0.000006598
     35        7           0.000000425    0.000002058    0.000001954
     36        1           0.000000700    0.000002748    0.000004042
     37        6          -0.000000491    0.000003410   -0.000000868
     38        1          -0.000000781    0.000003632   -0.000002491
     39        7           0.000000206    0.000003828    0.000002499
     40        6           0.000000698    0.000004929    0.000004586
     41        6           0.000000797    0.000001888    0.000004287
     42        6           0.000000183    0.000008773    0.000003362
     43        1           0.000001284    0.000005199    0.000007447
     44        6           0.000001254    0.000003011    0.000006509
     45        1           0.000000218    0.000001529    0.000001380
     46        1           0.000001152   -0.000000773    0.000005211
     47        6           0.000000592    0.000009882    0.000005597
     48        1          -0.000000391    0.000008542    0.000000471
     49        1           0.000000113    0.000010857    0.000003640
     50        6           0.000000711    0.000006858    0.000005312
     51        1           0.000001256    0.000000882    0.000006229
     52        1           0.000001806    0.000003175    0.000009443
     53        1           0.000000221    0.000012562    0.000004658
     54        1           0.000001151    0.000010244    0.000008500
     55        1           0.000001012    0.000007670    0.000007005
     56        1           0.000000095    0.000006631    0.000002465
     57        1           0.000001782   -0.000001293    0.000008085
     58        1          -0.000000258   -0.000000203   -0.000001704
     59        6           0.000001272   -0.000008887    0.000003438
     60        1           0.000001750   -0.000008337    0.000005808
     61        1           0.000001559   -0.000009652    0.000004497
     62        1           0.000001074   -0.000011146    0.000001792
     63        6          -0.000001954   -0.000005654   -0.000010748
     64        1          -0.000002588   -0.000005491   -0.000013689
     65        1          -0.000001658   -0.000005092   -0.000009244
     66        1          -0.000001623   -0.000008476   -0.000010096
     67        6          -0.000000042   -0.000006051   -0.000001953
     68        1          -0.000000575   -0.000003632   -0.000003688
     69        1          -0.000000246   -0.000008414   -0.000003718
     70        1           0.000000270   -0.000006795   -0.000000747
     71        6           0.000000934   -0.000002017    0.000003547
     72        1           0.000001372   -0.000001427    0.000005893
     73        1           0.000000372    0.000000493    0.000001930
     74        1           0.000001146   -0.000002863    0.000004544
     75        6          -0.000002336   -0.000003571   -0.000011892
     76        1          -0.000002036   -0.000006448   -0.000011428
     77        1          -0.000002304   -0.000001619   -0.000011227
     78        1          -0.000002957   -0.000003378   -0.000014832
     79        6          -0.000002317    0.000001216   -0.000010609
     80        1          -0.000002334    0.000003329   -0.000009838
     81        1          -0.000002090    0.000001870   -0.000009224
     82        1          -0.000002983    0.000001380   -0.000013588
 -------------------------------------------------------------------
 Cartesian Forces:  Max     0.000014832 RMS     0.000005038
 FormGI is forming the generalized inverse of G from B-inverse, IUseBI=4.
 GSVD:  received Info=                   1 from GESDD.
 Leave Link  716 at Fri Dec 28 14:03:49 2018, MaxMem=  1342177280 cpu:              49.9 elap:               7.4
 (Enter /gpfs/apps/hpc/Apps/Restricted/Gaussian/Rev_A.03/g16/l9999.exe)

 ----------------------------------------------------------------------

 Electric dipole moment (input orientation):
 (Debye = 10**-18 statcoulomb cm , SI units = C m)
                  (au)            (Debye)         (10**-30 SI)
   Tot        0.210072D+01      0.533950D+01      0.178107D+02
   x         -0.158883D+01     -0.403841D+01     -0.134707D+02
   y          0.137428D+01      0.349308D+01      0.116516D+02
   z         -0.170597D-02     -0.433614D-02     -0.144638D-01

 Dipole polarizability, Alpha (input orientation).
 (esu units = cm**3 , SI units = C**2 m**2 J**-1)
 Alpha(0;0):
               (au)            (10**-24 esu)      (10**-40 SI)
   iso        0.666184D+03      0.987183D+02      0.109839D+03
   aniso      0.562034D+03      0.832848D+02      0.926669D+02
   xx         0.906446D+03      0.134321D+03      0.149453D+03
   yx        -0.423484D+02     -0.627539D+01     -0.698231D+01
   yy         0.786095D+03      0.116487D+03      0.129610D+03
   zx         0.199066D+02      0.294986D+01      0.328216D+01
   zy        -0.467923D+02     -0.693390D+01     -0.771500D+01
   zz         0.306010D+03      0.453461D+02      0.504543D+02

 ----------------------------------------------------------------------

 Dipole orientation:
     6          2.10810712          2.84288748         -0.78027266
     6          1.60217739          2.58316402          1.80977322
     6          2.56706571          4.28719225          3.57488239
     6          4.04058847          6.25386889          2.62972294
     6          4.54922886          6.50615742          0.03325868
     6          3.59198430          4.80887961         -1.75078099
     6         -0.33654095         -0.54865843         -0.27786767
     1          2.17924625          4.08894571          5.57268055
     1          4.82948930          7.62251238          3.93105086
     1          5.71517358          8.05979203         -0.61590418
     6         -3.01082958         -3.96892474          1.39157250
     6         -4.58800715         -6.10003874          1.00316254
     6         -5.04880329         -7.08785155         -1.39425190
     6         -3.88671091         -5.88075641         -3.43168147
     6         -2.33991854         -3.75427757         -3.10427750
     6         -1.87344275         -2.75541379         -0.69936784
     6         -4.30073331         -5.13098210          5.07578269
     1         -6.25167047         -8.71993469         -1.66879805
     1         -4.18929956         -6.59925607         -5.32347878
     1         -1.49179077         -2.87899937         -4.74853136
     7          0.09218725          0.45267123          2.02699828
     6         -6.47575017         -7.11414753          8.85590933
     6         -4.67384677         -5.29085182          7.78949377
     6         -3.29841780         -3.72327009          9.35825292
     6         -3.56007684         -3.82439606         12.00354879
     6         -5.31453759         -5.55070413         13.04492386
     6         -6.76517324         -7.17759166         11.61260217
     1         -1.97625726         -2.41239204          8.51018954
     1         -5.51361332         -5.60219556         15.07284196
     6         -1.95647725         -2.08264332         13.64617492
     6         -8.62989137         -9.01898357         12.82157399
     8         -7.71562263         -8.56169908          7.42972264
     7         -2.85374773         -3.40554006          3.91836768
     7         -5.37094126         -6.76780345          3.38833230
     7          0.88178307          0.88529189         -1.99638463
     1          0.97430781          0.70233905         -3.90952363
     6          4.10321792          5.03149783         -4.45568385
     1          5.29139322          6.62906562         -5.01404994
     7          3.19752033          3.43982578         -6.03934959
     6          3.80716728          3.81127211         -8.72904265
     6          2.80215863          6.34531117         -9.73900525
     6          6.65541806          3.55103417         -9.24901204
     1          2.83906227          2.29513616         -9.75417320
     6          3.38690721          6.65145435        -12.55706940
     1          3.69539095          7.88627478         -8.68070444
     1          0.76863511          6.46707887         -9.38728000
     6          7.23024362          3.86491302        -12.06951769
     1          7.66504427          5.00628734         -8.17295063
     1          7.31785728          1.71741820         -8.56041269
     6          6.22428499          6.38799748        -13.07498948
     1          2.69162498          8.48287716        -13.21914513
     1          2.36373863          5.20123622        -13.62913569
     1          9.26696598          3.71579688        -12.39144814
     1          6.34416749          2.31387589        -13.12231844
     1          6.60221768          6.55434951        -15.10118498
     1          7.23211597          7.94350749        -12.14455539
     1         -6.57155512         -8.14668149          3.97353027
     1         -0.66649207         -0.37261967          3.60460696
     6        -11.32992879         -8.41857377         11.88778264
     1        -11.46681556         -8.62168262          9.84415152
     1        -12.66956528         -9.71524043         12.77859040
     1        -11.86586762         -6.48929301         12.39657161
     6         -2.62938531          0.68579940         13.01142495
     1         -1.46875582          1.95635319         14.15496957
     1         -2.28102257          1.11189012         11.02118820
     1         -4.61612099          1.07248943         13.42055406
     6         -8.61015104         -8.82724789         15.71808392
     1         -6.74552409         -9.24965022         16.49982566
     1         -9.18345675         -6.95549733         16.37840931
     1         -9.94547547        -10.20193210         16.48505428
     6         -7.92375393        -11.76403841         12.11071543
     1         -7.99655962        -12.05230612         10.07552017
     1         -6.02433985        -12.22100044         12.78250886
     1         -9.25000050        -13.06268246         13.01890872
     6         -2.38956384         -2.53009155         16.47785016
     1         -4.34671081         -2.14983710         17.01544522
     1         -1.92948118         -4.47149537         17.01258132
     1         -1.17303226         -1.26452868         17.56223433
     6          0.86296781         -2.54440853         13.05228072
     1          1.39120803         -4.49997219         13.45327332
     1          1.30068882         -2.14699617         11.07495014
     1          2.02616606         -1.30496585         14.22633812

 Electric dipole moment (dipole orientation):
 (Debye = 10**-18 statcoulomb cm , SI units = C m)
                  (au)            (Debye)         (10**-30 SI)
   Tot        0.210072D+01      0.533950D+01      0.178107D+02
   x          0.000000D+00      0.000000D+00      0.000000D+00
   y          0.000000D+00      0.000000D+00      0.000000D+00
   z          0.210072D+01      0.533950D+01      0.178107D+02

 Dipole polarizability, Alpha (dipole orientation).
 (esu units = cm**3 , SI units = C**2 m**2 J**-1)
 Alpha(0;0):
               (au)            (10**-24 esu)      (10**-40 SI)
   iso        0.666184D+03      0.987183D+02      0.109839D+03
   aniso      0.562034D+03      0.832848D+02      0.926669D+02
   xx         0.493362D+03      0.731087D+02      0.813444D+02
   yx         0.239097D+03      0.354305D+02      0.394217D+02
   yy         0.608270D+03      0.901363D+02      0.100290D+03
   zx        -0.691293D+02     -0.102439D+02     -0.113979D+02
   zy        -0.108484D+02     -0.160757D+01     -0.178866D+01
   zz         0.896920D+03      0.132910D+03      0.147882D+03

 ----------------------------------------------------------------------

 This type of calculation cannot be archived.


 EVANS BOLDLY PUT 50 ATM. OF ETHYLENE IN A CELL WITH 25 ATM. OF OXYGEN.
 THE APPARATUS SUBSEQUENTLY BLEW UP, BUT LUCKILY NOT BEFORE HE
 OBTAINED THE SPECTRA SHOWN IN FIGURE 8.
 A.J.MERER AND R.S.MULLIKEN, CHEM.REV. 69, 645 (1969)
 Job cpu time:       0 days  0 hours  2 minutes 46.3 seconds.
 Elapsed time:       0 days  0 hours  0 minutes 24.0 seconds.
 File lengths (MBytes):  RWF=     72 Int=      0 D2E=      0 Chk=    104 Scr=      8
 Normal termination of Gaussian 16 at Fri Dec 28 14:03:56 2018.
