 Entering Gaussian System, Link 0=g16
 Input=cyclohexyl-diBIP-E2PT.com
 Output=cyclohexyl-diBIP-E2PT.log
 Initial command:
 /gpfs/apps/hpc/Apps/Restricted/Gaussian/Rev_A.03/g16/l1.exe "/gpfs/scratch60/fas/hammes_schiffer/jg2487/c44n01/Gau-178716.inp" -scrdir="/gpfs/scratch60/fas/hammes_schiffer/jg2487/c44n01/"
 Entering Link 1 = /gpfs/apps/hpc/Apps/Restricted/Gaussian/Rev_A.03/g16/l1.exe PID=    178717.
  
 Copyright (c) 1988,1990,1992,1993,1995,1998,2003,2009,2016,
            Gaussian, Inc.  All Rights Reserved.
  
 This is part of the Gaussian(R) 16 program.  It is based on
 the Gaussian(R) 09 system (copyright 2009, Gaussian, Inc.),
 the Gaussian(R) 03 system (copyright 2003, Gaussian, Inc.),
 the Gaussian(R) 98 system (copyright 1998, Gaussian, Inc.),
 the Gaussian(R) 94 system (copyright 1995, Gaussian, Inc.),
 the Gaussian 92(TM) system (copyright 1992, Gaussian, Inc.),
 the Gaussian 90(TM) system (copyright 1990, Gaussian, Inc.),
 the Gaussian 88(TM) system (copyright 1988, Gaussian, Inc.),
 the Gaussian 86(TM) system (copyright 1986, Carnegie Mellon
 University), and the Gaussian 82(TM) system (copyright 1983,
 Carnegie Mellon University). Gaussian is a federally registered
 trademark of Gaussian, Inc.
  
 This software contains proprietary and confidential information,
 including trade secrets, belonging to Gaussian, Inc.
  
 This software is provided under written license and may be
 used, copied, transmitted, or stored only in accord with that
 written license.
  
 The following legend is applicable only to US Government
 contracts under FAR:
  
                    RESTRICTED RIGHTS LEGEND
  
 Use, reproduction and disclosure by the US Government is
 subject to restrictions as set forth in subparagraphs (a)
 and (c) of the Commercial Computer Software - Restricted
 Rights clause in FAR 52.227-19.
  
 Gaussian, Inc.
 340 Quinnipiac St., Bldg. 40, Wallingford CT 06492
  
  
 ---------------------------------------------------------------
 Warning -- This program may not be used in any manner that
 competes with the business of Gaussian, Inc. or will provide
 assistance to any competitor of Gaussian, Inc.  The licensee
 of this program is prohibited from giving any competitor of
 Gaussian, Inc. access to this program.  By using this program,
 the user acknowledges that Gaussian, Inc. is engaged in the
 business of creating and licensing software in the field of
 computational chemistry and represents and warrants to the
 licensee that it is not a competitor of Gaussian, Inc. and that
 it will not use this program in any manner prohibited above.
 ---------------------------------------------------------------
  

 Cite this work as:
 Gaussian 16, Revision A.03,
 M. J. Frisch, G. W. Trucks, H. B. Schlegel, G. E. Scuseria, 
 M. A. Robb, J. R. Cheeseman, G. Scalmani, V. Barone, 
 G. A. Petersson, H. Nakatsuji, X. Li, M. Caricato, A. V. Marenich, 
 J. Bloino, B. G. Janesko, R. Gomperts, B. Mennucci, H. P. Hratchian, 
 J. V. Ortiz, A. F. Izmaylov, J. L. Sonnenberg, D. Williams-Young, 
 F. Ding, F. Lipparini, F. Egidi, J. Goings, B. Peng, A. Petrone, 
 T. Henderson, D. Ranasinghe, V. G. Zakrzewski, J. Gao, N. Rega, 
 G. Zheng, W. Liang, M. Hada, M. Ehara, K. Toyota, R. Fukuda, 
 J. Hasegawa, M. Ishida, T. Nakajima, Y. Honda, O. Kitao, H. Nakai, 
 T. Vreven, K. Throssell, J. A. Montgomery, Jr., J. E. Peralta, 
 F. Ogliaro, M. J. Bearpark, J. J. Heyd, E. N. Brothers, K. N. Kudin, 
 V. N. Staroverov, T. A. Keith, R. Kobayashi, J. Normand, 
 K. Raghavachari, A. P. Rendell, J. C. Burant, S. S. Iyengar, 
 J. Tomasi, M. Cossi, J. M. Millam, M. Klene, C. Adamo, R. Cammi, 
 J. W. Ochterski, R. L. Martin, K. Morokuma, O. Farkas, 
 J. B. Foresman, and D. J. Fox, Gaussian, Inc., Wallingford CT, 2016.
 
 ******************************************
 Gaussian 16:  ES64L-G16RevA.03 25-Dec-2016
                14-Dec-2018 
 ******************************************
 %chk=cyclohexyl-diBIP-E2PT.chk
 %mem=10GB
 %nprocshared=16
 Will use up to   16 processors via shared memory.
 ----------------------------------------------------------------
 #p freq(ReadFC,InternalModes) Geom(AllCheck) NoSymm scale=0.9649
 ----------------------------------------------------------------
 1/18=20,29=7,38=1,114=964900/1,3;
 2/9=110,12=2,15=1,40=1/2;
 7/8=21,25=11,30=1/16;
 99/5=2/99;
 Leave Link    1 at Fri Dec 14 13:59:37 2018, MaxMem=  1342177280 cpu:               7.0 elap:               0.5
 (Enter /gpfs/apps/hpc/Apps/Restricted/Gaussian/Rev_A.03/g16/l101.exe)
 Structure from the checkpoint file:  "cyclohexyl-diBIP-E2PT.chk"
 ----------------------------------------------------------------------
 cyclohexylimine diBIP oxidized, first and second proton transferred, o
 ptimization
 ----------------------------------------------------------------------
 Charge =  1 Multiplicity = 2
 Redundant internal coordinates found in file.  (old form).
 C,0,1.5364086316,1.1454644149,0.1610944346
 C,0,0.3204874374,1.844782449,0.1309464709
 C,0,0.2835337777,3.2360872351,0.0351336158
 C,0,1.5123025432,3.8883125469,-0.0362390976
 C,0,2.7296389832,3.1853313858,-0.0117380144
 C,0,2.7777517867,1.7910625496,0.0876046437
 C,0,-0.1135192175,-0.3485485298,0.2690927622
 H,0,-0.6533495543,3.7766336596,0.0134521249
 H,0,1.5322212165,4.9682606376,-0.1126190194
 H,0,3.6615435934,3.7356726316,-0.0726394022
 C,0,-2.292295523,-1.4924234531,0.2838502681
 C,0,-3.0649017423,-2.680586361,0.3275523011
 C,0,-2.4824121772,-3.9413467161,0.4433379216
 C,0,-1.089369407,-3.9924329362,0.5089117725
 C,0,-0.3003671193,-2.8343052811,0.4562719137
 C,0,-0.8810999126,-1.565691096,0.3415879063
 C,0,-4.3544606957,-0.8836787874,0.1428443445
 H,0,-3.0815762323,-4.8423200419,0.4788967207
 H,0,-0.6001943501,-4.9539552055,0.6005759171
 H,0,0.7771460503,-2.929390115,0.5102585215
 N,0,-0.6706309728,0.87809784,0.2030808866
 C,0,-6.8702011493,-0.7441208234,-0.0918455202
 C,0,-5.5604182362,-0.089510787,0.0075371021
 C,0,-5.4757235031,1.2900650252,-0.0399347163
 C,0,-6.6219677274,2.0932314563,-0.1976661343
 C,0,-7.8879828927,1.474223212,-0.3146156134
 C,0,-8.0451254147,0.1077791041,-0.2599386938
 H,0,-4.5022904782,1.7595438221,0.0430766727
 H,0,-8.7621527626,2.1038583691,-0.4394789621
 C,0,-6.4919440491,3.5846703017,-0.2492610256
 H,0,-5.9056557651,3.9525356336,0.597696673
 H,0,-5.962072623,3.8902820413,-1.1580182493
 H,0,-7.4680744238,4.0704668619,-0.2409204807
 C,0,-9.3826893618,-0.5532168572,-0.3564771216
 H,0,-9.4031140744,-1.2753495212,-1.1775194406
 H,0,-9.6023071287,-1.1153656861,0.5565271091
 H,0,-10.1693974103,0.1859385142,-0.5086955973
 O,0,-7.0005704075,-1.9947707449,-0.0351810802
 N,0,-3.1083158462,-0.3935103806,0.175109326
 N,0,-4.3658850364,-2.2474466472,0.2350407603
 N,0,1.2267583107,-0.1983174853,0.2489370701
 H,0,1.9617435413,-0.9022531072,0.2673682676
 C,0,4.0316993338,1.04112762,0.1037580938
 H,0,4.9444107237,1.6394949374,0.0236408365
 N,0,4.0425051902,-0.2367718431,0.1969905444
 C,0,5.3562876271,-0.9039128164,0.1758525181
 C,0,6.0712969655,-0.6904014435,-1.1690956236
 C,0,6.2550732034,-0.4685352421,1.3455479699
 H,0,5.1584820903,-1.9755466079,0.287388409
 C,0,7.42420746,-1.4085029521,-1.2040746199
 H,0,6.2248641882,0.3862173667,-1.310847636
 H,0,5.4263459686,-1.0340585801,-1.9837080189
 C,0,7.6062980942,-1.1908721377,1.305950188
 H,0,6.4204019899,0.6129753397,1.2805581807
 H,0,5.7401346402,-0.6608004634,2.2917176993
 C,0,8.3166280944,-0.9776969927,-0.035240401
 H,0,7.9206703035,-1.2099771882,-2.1591805922
 H,0,7.2603638616,-2.4918715283,-1.1499826874
 H,0,8.2331009662,-0.8422529488,2.1326986042
 H,0,7.4460780306,-2.2653287462,1.4612886846
 H,0,9.2608419092,-1.5303415427,-0.0561581732
 H,0,8.5660115041,0.0851743782,-0.1461607937
 H,0,-5.2397233032,-2.766604258,0.2056382982
 H,0,-1.6900375187,0.980083521,0.1890241815
 Recover connectivity data from disk.
 ITRead=  0  0  0  0  0  0  0  0  0  0  0  0  0  0  0  0  0  0  0  0
 ITRead=  0  0  0  0  0  0  0  0  0  0  0  0  0  0  0  0  0  0  0  0
 ITRead=  0  0  0  0  0  0  0  0  0  0  0  0  0  0  0  0  0  0  0  0
 ITRead=  0  0  0  0
 MicOpt= -1 -1 -1 -1 -1 -1 -1 -1 -1 -1 -1 -1 -1 -1 -1 -1 -1 -1 -1 -1
 MicOpt= -1 -1 -1 -1 -1 -1 -1 -1 -1 -1 -1 -1 -1 -1 -1 -1 -1 -1 -1 -1
 MicOpt= -1 -1 -1 -1 -1 -1 -1 -1 -1 -1 -1 -1 -1 -1 -1 -1 -1 -1 -1 -1
 MicOpt= -1 -1 -1 -1
 NAtoms=     64 NQM=       64 NQMF=       0 NMMI=      0 NMMIF=      0
                NMic=       0 NMicF=      0.
                    Isotopes and Nuclear Properties:
 (Nuclear quadrupole moments (NQMom) in fm**2, nuclear magnetic moments (NMagM)
  in nuclear magnetons)

  Atom         1           2           3           4           5           6           7           8           9          10
 IAtWgt=          12          12          12          12          12          12          12           1           1           1
 AtmWgt=  12.0000000  12.0000000  12.0000000  12.0000000  12.0000000  12.0000000  12.0000000   1.0078250   1.0078250   1.0078250
 NucSpn=           0           0           0           0           0           0           0           1           1           1
 AtZEff=   3.6000000   3.6000000   3.6000000   3.6000000   3.6000000   3.6000000   3.6000000   1.0000000   1.0000000   1.0000000
 NQMom=    0.0000000   0.0000000   0.0000000   0.0000000   0.0000000   0.0000000   0.0000000   0.0000000   0.0000000   0.0000000
 NMagM=    0.0000000   0.0000000   0.0000000   0.0000000   0.0000000   0.0000000   0.0000000   2.7928460   2.7928460   2.7928460
 AtZNuc=   6.0000000   6.0000000   6.0000000   6.0000000   6.0000000   6.0000000   6.0000000   1.0000000   1.0000000   1.0000000

  Atom        11          12          13          14          15          16          17          18          19          20
 IAtWgt=          12          12          12          12          12          12          12           1           1           1
 AtmWgt=  12.0000000  12.0000000  12.0000000  12.0000000  12.0000000  12.0000000  12.0000000   1.0078250   1.0078250   1.0078250
 NucSpn=           0           0           0           0           0           0           0           1           1           1
 AtZEff=   3.6000000   3.6000000   3.6000000   3.6000000   3.6000000   3.6000000   3.6000000   1.0000000   1.0000000   1.0000000
 NQMom=    0.0000000   0.0000000   0.0000000   0.0000000   0.0000000   0.0000000   0.0000000   0.0000000   0.0000000   0.0000000
 NMagM=    0.0000000   0.0000000   0.0000000   0.0000000   0.0000000   0.0000000   0.0000000   2.7928460   2.7928460   2.7928460
 AtZNuc=   6.0000000   6.0000000   6.0000000   6.0000000   6.0000000   6.0000000   6.0000000   1.0000000   1.0000000   1.0000000

  Atom        21          22          23          24          25          26          27          28          29          30
 IAtWgt=          14          12          12          12          12          12          12           1           1          12
 AtmWgt=  14.0030740  12.0000000  12.0000000  12.0000000  12.0000000  12.0000000  12.0000000   1.0078250   1.0078250  12.0000000
 NucSpn=           2           0           0           0           0           0           0           1           1           0
 AtZEff=   4.5500000   3.6000000   3.6000000   3.6000000   3.6000000   3.6000000   3.6000000   1.0000000   1.0000000   3.6000000
 NQMom=    2.0440000   0.0000000   0.0000000   0.0000000   0.0000000   0.0000000   0.0000000   0.0000000   0.0000000   0.0000000
 NMagM=    0.4037610   0.0000000   0.0000000   0.0000000   0.0000000   0.0000000   0.0000000   2.7928460   2.7928460   0.0000000
 AtZNuc=   7.0000000   6.0000000   6.0000000   6.0000000   6.0000000   6.0000000   6.0000000   1.0000000   1.0000000   6.0000000

  Atom        31          32          33          34          35          36          37          38          39          40
 IAtWgt=           1           1           1          12           1           1           1          16          14          14
 AtmWgt=   1.0078250   1.0078250   1.0078250  12.0000000   1.0078250   1.0078250   1.0078250  15.9949146  14.0030740  14.0030740
 NucSpn=           1           1           1           0           1           1           1           0           2           2
 AtZEff=   1.0000000   1.0000000   1.0000000   3.6000000   1.0000000   1.0000000   1.0000000   5.6000000   4.5500000   4.5500000
 NQMom=    0.0000000   0.0000000   0.0000000   0.0000000   0.0000000   0.0000000   0.0000000   0.0000000   2.0440000   2.0440000
 NMagM=    2.7928460   2.7928460   2.7928460   0.0000000   2.7928460   2.7928460   2.7928460   0.0000000   0.4037610   0.4037610
 AtZNuc=   1.0000000   1.0000000   1.0000000   6.0000000   1.0000000   1.0000000   1.0000000   8.0000000   7.0000000   7.0000000

  Atom        41          42          43          44          45          46          47          48          49          50
 IAtWgt=          14           1          12           1          14          12          12          12           1          12
 AtmWgt=  14.0030740   1.0078250  12.0000000   1.0078250  14.0030740  12.0000000  12.0000000  12.0000000   1.0078250  12.0000000
 NucSpn=           2           1           0           1           2           0           0           0           1           0
 AtZEff=   4.5500000   1.0000000   3.6000000   1.0000000   4.5500000   3.6000000   3.6000000   3.6000000   1.0000000   3.6000000
 NQMom=    2.0440000   0.0000000   0.0000000   0.0000000   2.0440000   0.0000000   0.0000000   0.0000000   0.0000000   0.0000000
 NMagM=    0.4037610   2.7928460   0.0000000   2.7928460   0.4037610   0.0000000   0.0000000   0.0000000   2.7928460   0.0000000
 AtZNuc=   7.0000000   1.0000000   6.0000000   1.0000000   7.0000000   6.0000000   6.0000000   6.0000000   1.0000000   6.0000000

  Atom        51          52          53          54          55          56          57          58          59          60
 IAtWgt=           1           1          12           1           1          12           1           1           1           1
 AtmWgt=   1.0078250   1.0078250  12.0000000   1.0078250   1.0078250  12.0000000   1.0078250   1.0078250   1.0078250   1.0078250
 NucSpn=           1           1           0           1           1           0           1           1           1           1
 AtZEff=   1.0000000   1.0000000   3.6000000   1.0000000   1.0000000   3.6000000   1.0000000   1.0000000   1.0000000   1.0000000
 NQMom=    0.0000000   0.0000000   0.0000000   0.0000000   0.0000000   0.0000000   0.0000000   0.0000000   0.0000000   0.0000000
 NMagM=    2.7928460   2.7928460   0.0000000   2.7928460   2.7928460   0.0000000   2.7928460   2.7928460   2.7928460   2.7928460
 AtZNuc=   1.0000000   1.0000000   6.0000000   1.0000000   1.0000000   6.0000000   1.0000000   1.0000000   1.0000000   1.0000000

  Atom        61          62          63          64
 IAtWgt=           1           1           1           1
 AtmWgt=   1.0078250   1.0078250   1.0078250   1.0078250
 NucSpn=           1           1           1           1
 AtZEff=   1.0000000   1.0000000   1.0000000   1.0000000
 NQMom=    0.0000000   0.0000000   0.0000000   0.0000000
 NMagM=    2.7928460   2.7928460   2.7928460   2.7928460
 AtZNuc=   1.0000000   1.0000000   1.0000000   1.0000000
 Leave Link  101 at Fri Dec 14 13:59:37 2018, MaxMem=  1342177280 cpu:               6.9 elap:               0.5
 (Enter /gpfs/apps/hpc/Apps/Restricted/Gaussian/Rev_A.03/g16/l103.exe)

 GradGradGradGradGradGradGradGradGradGradGradGradGradGradGradGradGradGrad
 Berny optimization.
 Initialization pass.
                           ----------------------------
                           !    Initial Parameters    !
                           ! (Angstroms and Degrees)  !
 --------------------------                            --------------------------
 ! Name  Definition              Value          Derivative Info.                !
 --------------------------------------------------------------------------------
 ! R1    R(1,2)                  1.403          estimate D2E/DX2                !
 ! R2    R(1,6)                  1.4011         estimate D2E/DX2                !
 ! R3    R(1,41)                 1.3818         estimate D2E/DX2                !
 ! R4    R(2,3)                  1.3951         estimate D2E/DX2                !
 ! R5    R(2,21)                 1.3864         estimate D2E/DX2                !
 ! R6    R(3,4)                  1.393          estimate D2E/DX2                !
 ! R7    R(3,8)                  1.0819         estimate D2E/DX2                !
 ! R8    R(4,5)                  1.4059         estimate D2E/DX2                !
 ! R9    R(4,9)                  1.0828         estimate D2E/DX2                !
 ! R10   R(5,6)                  1.3986         estimate D2E/DX2                !
 ! R11   R(5,10)                 1.084          estimate D2E/DX2                !
 ! R12   R(6,43)                 1.4612         estimate D2E/DX2                !
 ! R13   R(7,16)                 1.4408         estimate D2E/DX2                !
 ! R14   R(7,21)                 1.3488         estimate D2E/DX2                !
 ! R15   R(7,41)                 1.3488         estimate D2E/DX2                !
 ! R16   R(11,12)                1.4179         estimate D2E/DX2                !
 ! R17   R(11,16)                1.4143         estimate D2E/DX2                !
 ! R18   R(11,39)                1.3731         estimate D2E/DX2                !
 ! R19   R(12,13)                1.3936         estimate D2E/DX2                !
 ! R20   R(12,40)                1.3743         estimate D2E/DX2                !
 ! R21   R(13,14)                1.3955         estimate D2E/DX2                !
 ! R22   R(13,18)                1.0826         estimate D2E/DX2                !
 ! R23   R(14,15)                1.4023         estimate D2E/DX2                !
 ! R24   R(14,19)                1.0827         estimate D2E/DX2                !
 ! R25   R(15,16)                1.3999         estimate D2E/DX2                !
 ! R26   R(15,20)                1.083          estimate D2E/DX2                !
 ! R27   R(17,23)                1.4503         estimate D2E/DX2                !
 ! R28   R(17,39)                1.3395         estimate D2E/DX2                !
 ! R29   R(17,40)                1.3669         estimate D2E/DX2                !
 ! R30   R(21,64)                1.0246         estimate D2E/DX2                !
 ! R31   R(22,23)                1.4676         estimate D2E/DX2                !
 ! R32   R(22,27)                1.461          estimate D2E/DX2                !
 ! R33   R(22,38)                1.2587         estimate D2E/DX2                !
 ! R34   R(23,24)                1.383          estimate D2E/DX2                !
 ! R35   R(24,25)                1.4085         estimate D2E/DX2                !
 ! R36   R(24,28)                1.0839         estimate D2E/DX2                !
 ! R37   R(25,26)                1.4141         estimate D2E/DX2                !
 ! R38   R(25,30)                1.498          estimate D2E/DX2                !
 ! R39   R(26,27)                1.3765         estimate D2E/DX2                !
 ! R40   R(26,29)                1.0845         estimate D2E/DX2                !
 ! R41   R(27,34)                1.4951         estimate D2E/DX2                !
 ! R42   R(30,31)                1.0938         estimate D2E/DX2                !
 ! R43   R(30,32)                1.0954         estimate D2E/DX2                !
 ! R44   R(30,33)                1.0904         estimate D2E/DX2                !
 ! R45   R(34,35)                1.0936         estimate D2E/DX2                !
 ! R46   R(34,36)                1.0944         estimate D2E/DX2                !
 ! R47   R(34,37)                1.0902         estimate D2E/DX2                !
 ! R48   R(40,63)                1.0168         estimate D2E/DX2                !
 ! R49   R(41,42)                1.0179         estimate D2E/DX2                !
 ! R50   R(43,44)                1.0943         estimate D2E/DX2                !
 ! R51   R(43,45)                1.2813         estimate D2E/DX2                !
 ! R52   R(45,46)                1.4736         estimate D2E/DX2                !
 ! R53   R(46,47)                1.5381         estimate D2E/DX2                !
 ! R54   R(46,48)                1.538          estimate D2E/DX2                !
 ! R55   R(46,49)                1.0954         estimate D2E/DX2                !
 ! R56   R(47,50)                1.5321         estimate D2E/DX2                !
 ! R57   R(47,51)                1.0967         estimate D2E/DX2                !
 ! R58   R(47,52)                1.0944         estimate D2E/DX2                !
 ! R59   R(48,53)                1.5327         estimate D2E/DX2                !
 ! R60   R(48,54)                1.096          estimate D2E/DX2                !
 ! R61   R(48,55)                1.0942         estimate D2E/DX2                !
 ! R62   R(50,56)                1.5324         estimate D2E/DX2                !
 ! R63   R(50,57)                1.0946         estimate D2E/DX2                !
 ! R64   R(50,58)                1.097          estimate D2E/DX2                !
 ! R65   R(53,56)                1.5326         estimate D2E/DX2                !
 ! R66   R(53,59)                1.0945         estimate D2E/DX2                !
 ! R67   R(53,60)                1.0974         estimate D2E/DX2                !
 ! R68   R(56,61)                1.0943         estimate D2E/DX2                !
 ! R69   R(56,62)                1.0974         estimate D2E/DX2                !
 ! A1    A(2,1,6)              122.4818         estimate D2E/DX2                !
 ! A2    A(2,1,41)             106.9709         estimate D2E/DX2                !
 ! A3    A(6,1,41)             130.5395         estimate D2E/DX2                !
 ! A4    A(1,2,3)              121.4345         estimate D2E/DX2                !
 ! A5    A(1,2,21)             105.7181         estimate D2E/DX2                !
 ! A6    A(3,2,21)             132.8457         estimate D2E/DX2                !
 ! A7    A(2,3,4)              116.5584         estimate D2E/DX2                !
 ! A8    A(2,3,8)              121.5073         estimate D2E/DX2                !
 ! A9    A(4,3,8)              121.9338         estimate D2E/DX2                !
 ! A10   A(3,4,5)              121.9227         estimate D2E/DX2                !
 ! A11   A(3,4,9)              119.1319         estimate D2E/DX2                !
 ! A12   A(5,4,9)              118.9454         estimate D2E/DX2                !
 ! A13   A(4,5,6)              121.9695         estimate D2E/DX2                !
 ! A14   A(4,5,10)             119.3102         estimate D2E/DX2                !
 ! A15   A(6,5,10)             118.7203         estimate D2E/DX2                !
 ! A16   A(1,6,5)              115.6317         estimate D2E/DX2                !
 ! A17   A(1,6,43)             121.5503         estimate D2E/DX2                !
 ! A18   A(5,6,43)             122.8161         estimate D2E/DX2                !
 ! A19   A(16,7,21)            123.4125         estimate D2E/DX2                !
 ! A20   A(16,7,41)            128.6248         estimate D2E/DX2                !
 ! A21   A(21,7,41)            107.9623         estimate D2E/DX2                !
 ! A22   A(12,11,16)           119.9354         estimate D2E/DX2                !
 ! A23   A(12,11,39)           110.4418         estimate D2E/DX2                !
 ! A24   A(16,11,39)           129.6208         estimate D2E/DX2                !
 ! A25   A(11,12,13)           122.2            estimate D2E/DX2                !
 ! A26   A(11,12,40)           104.456          estimate D2E/DX2                !
 ! A27   A(13,12,40)           133.3439         estimate D2E/DX2                !
 ! A28   A(12,13,14)           117.0162         estimate D2E/DX2                !
 ! A29   A(12,13,18)           121.6206         estimate D2E/DX2                !
 ! A30   A(14,13,18)           121.3631         estimate D2E/DX2                !
 ! A31   A(13,14,15)           121.981          estimate D2E/DX2                !
 ! A32   A(13,14,19)           119.1764         estimate D2E/DX2                !
 ! A33   A(15,14,19)           118.8424         estimate D2E/DX2                !
 ! A34   A(14,15,16)           121.2028         estimate D2E/DX2                !
 ! A35   A(14,15,20)           119.0375         estimate D2E/DX2                !
 ! A36   A(16,15,20)           119.7591         estimate D2E/DX2                !
 ! A37   A(7,16,11)            119.0631         estimate D2E/DX2                !
 ! A38   A(7,16,15)            123.275          estimate D2E/DX2                !
 ! A39   A(11,16,15)           117.6597         estimate D2E/DX2                !
 ! A40   A(23,17,39)           125.1313         estimate D2E/DX2                !
 ! A41   A(23,17,40)           123.0704         estimate D2E/DX2                !
 ! A42   A(39,17,40)           111.7925         estimate D2E/DX2                !
 ! A43   A(2,21,7)             109.961          estimate D2E/DX2                !
 ! A44   A(2,21,64)            129.879          estimate D2E/DX2                !
 ! A45   A(7,21,64)            120.1409         estimate D2E/DX2                !
 ! A46   A(23,22,27)           117.7376         estimate D2E/DX2                !
 ! A47   A(23,22,38)           122.179          estimate D2E/DX2                !
 ! A48   A(27,22,38)           120.0833         estimate D2E/DX2                !
 ! A49   A(17,23,22)           120.2763         estimate D2E/DX2                !
 ! A50   A(17,23,24)           119.9022         estimate D2E/DX2                !
 ! A51   A(22,23,24)           119.8191         estimate D2E/DX2                !
 ! A52   A(23,24,25)           121.5225         estimate D2E/DX2                !
 ! A53   A(23,24,28)           118.9753         estimate D2E/DX2                !
 ! A54   A(25,24,28)           119.5019         estimate D2E/DX2                !
 ! A55   A(24,25,26)           119.2251         estimate D2E/DX2                !
 ! A56   A(24,25,30)           120.0636         estimate D2E/DX2                !
 ! A57   A(26,25,30)           120.71           estimate D2E/DX2                !
 ! A58   A(25,26,27)           122.2391         estimate D2E/DX2                !
 ! A59   A(25,26,29)           118.4909         estimate D2E/DX2                !
 ! A60   A(27,26,29)           119.2658         estimate D2E/DX2                !
 ! A61   A(22,27,26)           119.4454         estimate D2E/DX2                !
 ! A62   A(22,27,34)           117.9762         estimate D2E/DX2                !
 ! A63   A(26,27,34)           122.577          estimate D2E/DX2                !
 ! A64   A(25,30,31)           110.7753         estimate D2E/DX2                !
 ! A65   A(25,30,32)           110.3848         estimate D2E/DX2                !
 ! A66   A(25,30,33)           111.4457         estimate D2E/DX2                !
 ! A67   A(31,30,32)           106.814          estimate D2E/DX2                !
 ! A68   A(31,30,33)           108.9104         estimate D2E/DX2                !
 ! A69   A(32,30,33)           108.3654         estimate D2E/DX2                !
 ! A70   A(27,34,35)           110.9232         estimate D2E/DX2                !
 ! A71   A(27,34,36)           110.655          estimate D2E/DX2                !
 ! A72   A(27,34,37)           110.7852         estimate D2E/DX2                !
 ! A73   A(35,34,36)           106.4622         estimate D2E/DX2                !
 ! A74   A(35,34,37)           109.2328         estimate D2E/DX2                !
 ! A75   A(36,34,37)           108.6588         estimate D2E/DX2                !
 ! A76   A(11,39,17)           105.1845         estimate D2E/DX2                !
 ! A77   A(12,40,17)           108.1237         estimate D2E/DX2                !
 ! A78   A(12,40,63)           130.885          estimate D2E/DX2                !
 ! A79   A(17,40,63)           120.9712         estimate D2E/DX2                !
 ! A80   A(1,41,7)             109.3865         estimate D2E/DX2                !
 ! A81   A(1,41,42)            120.7897         estimate D2E/DX2                !
 ! A82   A(7,41,42)            129.8072         estimate D2E/DX2                !
 ! A83   A(6,43,44)            115.7418         estimate D2E/DX2                !
 ! A84   A(6,43,45)            121.3257         estimate D2E/DX2                !
 ! A85   A(44,43,45)           122.9308         estimate D2E/DX2                !
 ! A86   A(43,45,46)           117.257          estimate D2E/DX2                !
 ! A87   A(45,46,47)           111.355          estimate D2E/DX2                !
 ! A88   A(45,46,48)           112.453          estimate D2E/DX2                !
 ! A89   A(45,46,49)           106.2865         estimate D2E/DX2                !
 ! A90   A(47,46,48)           110.736          estimate D2E/DX2                !
 ! A91   A(47,46,49)           107.9856         estimate D2E/DX2                !
 ! A92   A(48,46,49)           107.7589         estimate D2E/DX2                !
 ! A93   A(46,47,50)           111.4325         estimate D2E/DX2                !
 ! A94   A(46,47,51)           108.3238         estimate D2E/DX2                !
 ! A95   A(46,47,52)           109.4716         estimate D2E/DX2                !
 ! A96   A(50,47,51)           109.4827         estimate D2E/DX2                !
 ! A97   A(50,47,52)           110.8691         estimate D2E/DX2                !
 ! A98   A(51,47,52)           107.1323         estimate D2E/DX2                !
 ! A99   A(46,48,53)           111.2309         estimate D2E/DX2                !
 ! A100  A(46,48,54)           108.8072         estimate D2E/DX2                !
 ! A101  A(46,48,55)           109.4426         estimate D2E/DX2                !
 ! A102  A(53,48,54)           109.3013         estimate D2E/DX2                !
 ! A103  A(53,48,55)           110.7569         estimate D2E/DX2                !
 ! A104  A(54,48,55)           107.1961         estimate D2E/DX2                !
 ! A105  A(47,50,56)           111.4128         estimate D2E/DX2                !
 ! A106  A(47,50,57)           109.5989         estimate D2E/DX2                !
 ! A107  A(47,50,58)           109.2606         estimate D2E/DX2                !
 ! A108  A(56,50,57)           110.5136         estimate D2E/DX2                !
 ! A109  A(56,50,58)           109.0872         estimate D2E/DX2                !
 ! A110  A(57,50,58)           106.8507         estimate D2E/DX2                !
 ! A111  A(48,53,56)           111.4485         estimate D2E/DX2                !
 ! A112  A(48,53,59)           109.5878         estimate D2E/DX2                !
 ! A113  A(48,53,60)           109.2121         estimate D2E/DX2                !
 ! A114  A(56,53,59)           110.5668         estimate D2E/DX2                !
 ! A115  A(56,53,60)           109.1313         estimate D2E/DX2                !
 ! A116  A(59,53,60)           106.7713         estimate D2E/DX2                !
 ! A117  A(50,56,53)           111.0067         estimate D2E/DX2                !
 ! A118  A(50,56,61)           110.2402         estimate D2E/DX2                !
 ! A119  A(50,56,62)           109.1202         estimate D2E/DX2                !
 ! A120  A(53,56,61)           110.2681         estimate D2E/DX2                !
 ! A121  A(53,56,62)           109.1785         estimate D2E/DX2                !
 ! A122  A(61,56,62)           106.9263         estimate D2E/DX2                !
 ! D1    D(6,1,2,3)             -0.4884         estimate D2E/DX2                !
 ! D2    D(6,1,2,21)           179.0948         estimate D2E/DX2                !
 ! D3    D(41,1,2,3)          -179.5722         estimate D2E/DX2                !
 ! D4    D(41,1,2,21)            0.011          estimate D2E/DX2                !
 ! D5    D(2,1,6,5)              0.3017         estimate D2E/DX2                !
 ! D6    D(2,1,6,43)          -179.2137         estimate D2E/DX2                !
 ! D7    D(41,1,6,5)           179.1486         estimate D2E/DX2                !
 ! D8    D(41,1,6,43)           -0.3667         estimate D2E/DX2                !
 ! D9    D(2,1,41,7)             0.1988         estimate D2E/DX2                !
 ! D10   D(2,1,41,42)          178.8593         estimate D2E/DX2                !
 ! D11   D(6,1,41,7)          -178.7842         estimate D2E/DX2                !
 ! D12   D(6,1,41,42)           -0.1238         estimate D2E/DX2                !
 ! D13   D(1,2,3,4)              0.3538         estimate D2E/DX2                !
 ! D14   D(1,2,3,8)           -179.8967         estimate D2E/DX2                !
 ! D15   D(21,2,3,4)          -179.099          estimate D2E/DX2                !
 ! D16   D(21,2,3,8)             0.6505         estimate D2E/DX2                !
 ! D17   D(1,2,21,7)            -0.2179         estimate D2E/DX2                !
 ! D18   D(1,2,21,64)         -178.5993         estimate D2E/DX2                !
 ! D19   D(3,2,21,7)           179.297          estimate D2E/DX2                !
 ! D20   D(3,2,21,64)            0.9157         estimate D2E/DX2                !
 ! D21   D(2,3,4,5)             -0.0737         estimate D2E/DX2                !
 ! D22   D(2,3,4,9)            179.941          estimate D2E/DX2                !
 ! D23   D(8,3,4,5)           -179.8221         estimate D2E/DX2                !
 ! D24   D(8,3,4,9)              0.1927         estimate D2E/DX2                !
 ! D25   D(3,4,5,6)             -0.0934         estimate D2E/DX2                !
 ! D26   D(3,4,5,10)           179.8282         estimate D2E/DX2                !
 ! D27   D(9,4,5,6)            179.8919         estimate D2E/DX2                !
 ! D28   D(9,4,5,10)            -0.1865         estimate D2E/DX2                !
 ! D29   D(4,5,6,1)             -0.0177         estimate D2E/DX2                !
 ! D30   D(4,5,6,43)           179.4909         estimate D2E/DX2                !
 ! D31   D(10,5,6,1)          -179.9398         estimate D2E/DX2                !
 ! D32   D(10,5,6,43)           -0.4312         estimate D2E/DX2                !
 ! D33   D(1,6,43,44)          178.9498         estimate D2E/DX2                !
 ! D34   D(1,6,43,45)           -0.581          estimate D2E/DX2                !
 ! D35   D(5,6,43,44)           -0.5302         estimate D2E/DX2                !
 ! D36   D(5,6,43,45)          179.9389         estimate D2E/DX2                !
 ! D37   D(21,7,16,11)           2.8283         estimate D2E/DX2                !
 ! D38   D(21,7,16,15)        -177.7297         estimate D2E/DX2                !
 ! D39   D(41,7,16,11)        -176.9215         estimate D2E/DX2                !
 ! D40   D(41,7,16,15)           2.5205         estimate D2E/DX2                !
 ! D41   D(16,7,21,2)         -179.4497         estimate D2E/DX2                !
 ! D42   D(16,7,21,64)          -0.886          estimate D2E/DX2                !
 ! D43   D(41,7,21,2)            0.3448         estimate D2E/DX2                !
 ! D44   D(41,7,21,64)         178.9085         estimate D2E/DX2                !
 ! D45   D(16,7,41,1)          179.445          estimate D2E/DX2                !
 ! D46   D(16,7,41,42)           0.943          estimate D2E/DX2                !
 ! D47   D(21,7,41,1)           -0.3354         estimate D2E/DX2                !
 ! D48   D(21,7,41,42)        -178.8374         estimate D2E/DX2                !
 ! D49   D(16,11,12,13)          0.7998         estimate D2E/DX2                !
 ! D50   D(16,11,12,40)       -179.2757         estimate D2E/DX2                !
 ! D51   D(39,11,12,13)       -179.6698         estimate D2E/DX2                !
 ! D52   D(39,11,12,40)          0.2547         estimate D2E/DX2                !
 ! D53   D(12,11,16,7)         178.7826         estimate D2E/DX2                !
 ! D54   D(12,11,16,15)         -0.6907         estimate D2E/DX2                !
 ! D55   D(39,11,16,7)          -0.6462         estimate D2E/DX2                !
 ! D56   D(39,11,16,15)        179.8805         estimate D2E/DX2                !
 ! D57   D(12,11,39,17)         -0.3931         estimate D2E/DX2                !
 ! D58   D(16,11,39,17)        179.0786         estimate D2E/DX2                !
 ! D59   D(11,12,13,14)         -0.3171         estimate D2E/DX2                !
 ! D60   D(11,12,13,18)        179.8094         estimate D2E/DX2                !
 ! D61   D(40,12,13,14)        179.7834         estimate D2E/DX2                !
 ! D62   D(40,12,13,18)         -0.0901         estimate D2E/DX2                !
 ! D63   D(11,12,40,17)         -0.0141         estimate D2E/DX2                !
 ! D64   D(11,12,40,63)        178.325          estimate D2E/DX2                !
 ! D65   D(13,12,40,17)        179.898          estimate D2E/DX2                !
 ! D66   D(13,12,40,63)         -1.7628         estimate D2E/DX2                !
 ! D67   D(12,13,14,15)         -0.247          estimate D2E/DX2                !
 ! D68   D(12,13,14,19)        179.9177         estimate D2E/DX2                !
 ! D69   D(18,13,14,15)        179.627          estimate D2E/DX2                !
 ! D70   D(18,13,14,19)         -0.2083         estimate D2E/DX2                !
 ! D71   D(13,14,15,16)          0.3332         estimate D2E/DX2                !
 ! D72   D(13,14,15,20)       -179.9435         estimate D2E/DX2                !
 ! D73   D(19,14,15,16)       -179.831          estimate D2E/DX2                !
 ! D74   D(19,14,15,20)         -0.1077         estimate D2E/DX2                !
 ! D75   D(14,15,16,7)        -179.3012         estimate D2E/DX2                !
 ! D76   D(14,15,16,11)          0.1482         estimate D2E/DX2                !
 ! D77   D(20,15,16,7)           0.9775         estimate D2E/DX2                !
 ! D78   D(20,15,16,11)       -179.5732         estimate D2E/DX2                !
 ! D79   D(39,17,23,22)        176.5386         estimate D2E/DX2                !
 ! D80   D(39,17,23,24)         -2.8921         estimate D2E/DX2                !
 ! D81   D(40,17,23,22)         -2.5139         estimate D2E/DX2                !
 ! D82   D(40,17,23,24)        178.0553         estimate D2E/DX2                !
 ! D83   D(23,17,39,11)       -178.7571         estimate D2E/DX2                !
 ! D84   D(40,17,39,11)          0.3879         estimate D2E/DX2                !
 ! D85   D(23,17,40,12)        178.9266         estimate D2E/DX2                !
 ! D86   D(23,17,40,63)          0.3909         estimate D2E/DX2                !
 ! D87   D(39,17,40,12)         -0.239          estimate D2E/DX2                !
 ! D88   D(39,17,40,63)       -178.7746         estimate D2E/DX2                !
 ! D89   D(27,22,23,17)       -178.5084         estimate D2E/DX2                !
 ! D90   D(27,22,23,24)          0.9229         estimate D2E/DX2                !
 ! D91   D(38,22,23,17)          1.5731         estimate D2E/DX2                !
 ! D92   D(38,22,23,24)       -178.9957         estimate D2E/DX2                !
 ! D93   D(23,22,27,26)         -0.1922         estimate D2E/DX2                !
 ! D94   D(23,22,27,34)       -179.7688         estimate D2E/DX2                !
 ! D95   D(38,22,27,26)        179.7281         estimate D2E/DX2                !
 ! D96   D(38,22,27,34)          0.1515         estimate D2E/DX2                !
 ! D97   D(17,23,24,25)        178.7074         estimate D2E/DX2                !
 ! D98   D(17,23,24,28)         -1.0752         estimate D2E/DX2                !
 ! D99   D(22,23,24,25)         -0.726          estimate D2E/DX2                !
 ! D100  D(22,23,24,28)        179.4913         estimate D2E/DX2                !
 ! D101  D(23,24,25,26)         -0.2132         estimate D2E/DX2                !
 ! D102  D(23,24,25,30)       -179.8043         estimate D2E/DX2                !
 ! D103  D(28,24,25,26)        179.5683         estimate D2E/DX2                !
 ! D104  D(28,24,25,30)         -0.0227         estimate D2E/DX2                !
 ! D105  D(24,25,26,27)          0.9854         estimate D2E/DX2                !
 ! D106  D(24,25,26,29)       -179.7659         estimate D2E/DX2                !
 ! D107  D(30,25,26,27)       -179.4263         estimate D2E/DX2                !
 ! D108  D(30,25,26,29)         -0.1776         estimate D2E/DX2                !
 ! D109  D(24,25,30,31)        -51.0368         estimate D2E/DX2                !
 ! D110  D(24,25,30,32)         67.064          estimate D2E/DX2                !
 ! D111  D(24,25,30,33)       -172.4653         estimate D2E/DX2                !
 ! D112  D(26,25,30,31)        129.3784         estimate D2E/DX2                !
 ! D113  D(26,25,30,32)       -112.5208         estimate D2E/DX2                !
 ! D114  D(26,25,30,33)          7.9498         estimate D2E/DX2                !
 ! D115  D(25,26,27,22)         -0.758          estimate D2E/DX2                !
 ! D116  D(25,26,27,34)        178.7983         estimate D2E/DX2                !
 ! D117  D(29,26,27,22)        179.999          estimate D2E/DX2                !
 ! D118  D(29,26,27,34)         -0.4447         estimate D2E/DX2                !
 ! D119  D(22,27,34,35)        -56.844          estimate D2E/DX2                !
 ! D120  D(22,27,34,36)         61.0835         estimate D2E/DX2                !
 ! D121  D(22,27,34,37)       -178.3327         estimate D2E/DX2                !
 ! D122  D(26,27,34,35)        123.5935         estimate D2E/DX2                !
 ! D123  D(26,27,34,36)       -118.479          estimate D2E/DX2                !
 ! D124  D(26,27,34,37)          2.1048         estimate D2E/DX2                !
 ! D125  D(6,43,45,46)         178.7189         estimate D2E/DX2                !
 ! D126  D(44,43,45,46)         -0.7776         estimate D2E/DX2                !
 ! D127  D(43,45,46,47)        -63.8474         estimate D2E/DX2                !
 ! D128  D(43,45,46,48)         61.107          estimate D2E/DX2                !
 ! D129  D(43,45,46,49)        178.7891         estimate D2E/DX2                !
 ! D130  D(45,46,47,50)       -178.7728         estimate D2E/DX2                !
 ! D131  D(45,46,47,51)         60.7337         estimate D2E/DX2                !
 ! D132  D(45,46,47,52)        -55.7683         estimate D2E/DX2                !
 ! D133  D(48,46,47,50)         55.3176         estimate D2E/DX2                !
 ! D134  D(48,46,47,51)        -65.176          estimate D2E/DX2                !
 ! D135  D(48,46,47,52)        178.322          estimate D2E/DX2                !
 ! D136  D(49,46,47,50)        -62.4444         estimate D2E/DX2                !
 ! D137  D(49,46,47,51)        177.0621         estimate D2E/DX2                !
 ! D138  D(49,46,47,52)         60.5601         estimate D2E/DX2                !
 ! D139  D(45,46,48,53)        179.3228         estimate D2E/DX2                !
 ! D140  D(45,46,48,54)        -60.2188         estimate D2E/DX2                !
 ! D141  D(45,46,48,55)         56.6162         estimate D2E/DX2                !
 ! D142  D(47,46,48,53)        -55.3842         estimate D2E/DX2                !
 ! D143  D(47,46,48,54)         65.0742         estimate D2E/DX2                !
 ! D144  D(47,46,48,55)       -178.0908         estimate D2E/DX2                !
 ! D145  D(49,46,48,53)         62.5162         estimate D2E/DX2                !
 ! D146  D(49,46,48,54)       -177.0254         estimate D2E/DX2                !
 ! D147  D(49,46,48,55)        -60.1904         estimate D2E/DX2                !
 ! D148  D(46,47,50,56)        -55.5175         estimate D2E/DX2                !
 ! D149  D(46,47,50,57)       -178.1461         estimate D2E/DX2                !
 ! D150  D(46,47,50,58)         65.0867         estimate D2E/DX2                !
 ! D151  D(51,47,50,56)         64.2929         estimate D2E/DX2                !
 ! D152  D(51,47,50,57)        -58.3357         estimate D2E/DX2                !
 ! D153  D(51,47,50,58)       -175.1029         estimate D2E/DX2                !
 ! D154  D(52,47,50,56)       -177.7193         estimate D2E/DX2                !
 ! D155  D(52,47,50,57)         59.6521         estimate D2E/DX2                !
 ! D156  D(52,47,50,58)        -57.1151         estimate D2E/DX2                !
 ! D157  D(46,48,53,56)         55.7933         estimate D2E/DX2                !
 ! D158  D(46,48,53,59)        178.5059         estimate D2E/DX2                !
 ! D159  D(46,48,53,60)        -64.8567         estimate D2E/DX2                !
 ! D160  D(54,48,53,56)        -64.3732         estimate D2E/DX2                !
 ! D161  D(54,48,53,59)         58.3394         estimate D2E/DX2                !
 ! D162  D(54,48,53,60)        174.9768         estimate D2E/DX2                !
 ! D163  D(55,48,53,56)        177.7399         estimate D2E/DX2                !
 ! D164  D(55,48,53,59)        -59.5475         estimate D2E/DX2                !
 ! D165  D(55,48,53,60)         57.0898         estimate D2E/DX2                !
 ! D166  D(47,50,56,53)         55.2854         estimate D2E/DX2                !
 ! D167  D(47,50,56,61)        177.771          estimate D2E/DX2                !
 ! D168  D(47,50,56,62)        -65.0837         estimate D2E/DX2                !
 ! D169  D(57,50,56,53)        177.3871         estimate D2E/DX2                !
 ! D170  D(57,50,56,61)        -60.1273         estimate D2E/DX2                !
 ! D171  D(57,50,56,62)         57.0179         estimate D2E/DX2                !
 ! D172  D(58,50,56,53)        -65.4205         estimate D2E/DX2                !
 ! D173  D(58,50,56,61)         57.065          estimate D2E/DX2                !
 ! D174  D(58,50,56,62)        174.2103         estimate D2E/DX2                !
 ! D175  D(48,53,56,50)        -55.4871         estimate D2E/DX2                !
 ! D176  D(48,53,56,61)       -177.9565         estimate D2E/DX2                !
 ! D177  D(48,53,56,62)         64.8475         estimate D2E/DX2                !
 ! D178  D(59,53,56,50)       -177.6364         estimate D2E/DX2                !
 ! D179  D(59,53,56,61)         59.8942         estimate D2E/DX2                !
 ! D180  D(59,53,56,62)        -57.3018         estimate D2E/DX2                !
 ! D181  D(60,53,56,50)         65.2104         estimate D2E/DX2                !
 ! D182  D(60,53,56,61)        -57.259          estimate D2E/DX2                !
 ! D183  D(60,53,56,62)       -174.4551         estimate D2E/DX2                !
 --------------------------------------------------------------------------------
 Trust Radius=3.00D-01 FncErr=1.00D-07 GrdErr=1.00D-07 EigMax=2.50D+02 EigMin=1.00D-04
 Number of steps in this run=    384 maximum allowed number of steps=    384.
 GradGradGradGradGradGradGradGradGradGradGradGradGradGradGradGradGradGrad

 Leave Link  103 at Fri Dec 14 13:59:37 2018, MaxMem=  1342177280 cpu:               0.7 elap:               0.1
 (Enter /gpfs/apps/hpc/Apps/Restricted/Gaussian/Rev_A.03/g16/l202.exe)
 Symmetry turned off by external request.
 Stoichiometry    C29H29N5O(1+,2)
 Framework group  C1[X(C29H29N5O)]
 Deg. of freedom   186
 Full point group                 C1      NOp   1
                          Input orientation:                          
 ---------------------------------------------------------------------
 Center     Atomic      Atomic             Coordinates (Angstroms)
 Number     Number       Type             X           Y           Z
 ---------------------------------------------------------------------
      1          6           0        1.536409    1.145464    0.161094
      2          6           0        0.320487    1.844782    0.130946
      3          6           0        0.283534    3.236087    0.035134
      4          6           0        1.512303    3.888313   -0.036239
      5          6           0        2.729639    3.185331   -0.011738
      6          6           0        2.777752    1.791063    0.087605
      7          6           0       -0.113519   -0.348549    0.269093
      8          1           0       -0.653350    3.776634    0.013452
      9          1           0        1.532221    4.968261   -0.112619
     10          1           0        3.661544    3.735673   -0.072639
     11          6           0       -2.292296   -1.492423    0.283850
     12          6           0       -3.064902   -2.680586    0.327552
     13          6           0       -2.482412   -3.941347    0.443338
     14          6           0       -1.089369   -3.992433    0.508912
     15          6           0       -0.300367   -2.834305    0.456272
     16          6           0       -0.881100   -1.565691    0.341588
     17          6           0       -4.354461   -0.883679    0.142844
     18          1           0       -3.081576   -4.842320    0.478897
     19          1           0       -0.600194   -4.953955    0.600576
     20          1           0        0.777146   -2.929390    0.510259
     21          7           0       -0.670631    0.878098    0.203081
     22          6           0       -6.870201   -0.744121   -0.091846
     23          6           0       -5.560418   -0.089511    0.007537
     24          6           0       -5.475724    1.290065   -0.039935
     25          6           0       -6.621968    2.093231   -0.197666
     26          6           0       -7.887983    1.474223   -0.314616
     27          6           0       -8.045125    0.107779   -0.259939
     28          1           0       -4.502290    1.759544    0.043077
     29          1           0       -8.762153    2.103858   -0.439479
     30          6           0       -6.491944    3.584670   -0.249261
     31          1           0       -5.905656    3.952536    0.597697
     32          1           0       -5.962073    3.890282   -1.158018
     33          1           0       -7.468074    4.070467   -0.240920
     34          6           0       -9.382689   -0.553217   -0.356477
     35          1           0       -9.403114   -1.275350   -1.177519
     36          1           0       -9.602307   -1.115366    0.556527
     37          1           0      -10.169397    0.185939   -0.508696
     38          8           0       -7.000570   -1.994771   -0.035181
     39          7           0       -3.108316   -0.393510    0.175109
     40          7           0       -4.365885   -2.247447    0.235041
     41          7           0        1.226758   -0.198317    0.248937
     42          1           0        1.961744   -0.902253    0.267368
     43          6           0        4.031699    1.041128    0.103758
     44          1           0        4.944411    1.639495    0.023641
     45          7           0        4.042505   -0.236772    0.196991
     46          6           0        5.356288   -0.903913    0.175853
     47          6           0        6.071297   -0.690401   -1.169096
     48          6           0        6.255073   -0.468535    1.345548
     49          1           0        5.158482   -1.975547    0.287388
     50          6           0        7.424207   -1.408503   -1.204075
     51          1           0        6.224864    0.386217   -1.310848
     52          1           0        5.426346   -1.034059   -1.983708
     53          6           0        7.606298   -1.190872    1.305950
     54          1           0        6.420402    0.612975    1.280558
     55          1           0        5.740135   -0.660800    2.291718
     56          6           0        8.316628   -0.977697   -0.035240
     57          1           0        7.920670   -1.209977   -2.159181
     58          1           0        7.260364   -2.491872   -1.149983
     59          1           0        8.233101   -0.842253    2.132699
     60          1           0        7.446078   -2.265329    1.461289
     61          1           0        9.260842   -1.530342   -0.056158
     62          1           0        8.566012    0.085174   -0.146161
     63          1           0       -5.239723   -2.766604    0.205638
     64          1           0       -1.690038    0.980084    0.189024
 ---------------------------------------------------------------------
 Rotational constants (GHZ):           0.2576329           0.0429146           0.0374174
 Leave Link  202 at Fri Dec 14 13:59:37 2018, MaxMem=  1342177280 cpu:               1.2 elap:               0.1
 (Enter /gpfs/apps/hpc/Apps/Restricted/Gaussian/Rev_A.03/g16/l716.exe)
 Electric field and nuclear coordinate derivatives read from checkpoint file.
 Dipole        =-1.56364659D+00 1.32381511D+00 1.48900176D-01
 Polarizability= 8.05937406D+02-4.76594432D+01 6.93655124D+02
                 2.47338219D+01-3.38808862D+01 2.15255059D+02
 Full mass-weighted force constant matrix:
 Low frequencies ---  -11.4370   -6.7631   -0.0026    0.0014    0.0025    5.0575
 Low frequencies ---   20.1582   32.8292   37.3741
 Diagonal vibrational polarizability:
      106.9756056      46.5168334     114.7168293
 Harmonic frequencies (cm**-1), IR intensities (KM/Mole), Raman scattering
 activities (A**4/AMU), depolarization ratios for plane and unpolarized
 incident light, reduced masses (AMU), force constants (mDyne/A),
 and normal coordinates:
                      1                      2                      3
                      A                      A                      A
 Frequencies --     17.1216                32.5099                34.9346
 Red. masses --      5.5314                 5.2325                 5.2888
 Frc consts  --      0.0010                 0.0033                 0.0038
 IR Inten    --      0.1863                 0.8283                 0.5971
  Atom  AN      X      Y      Z        X      Y      Z        X      Y      Z
     1   6    -0.00  -0.02  -0.10    -0.03  -0.08   0.03     0.01   0.02  -0.01
     2   6    -0.01  -0.03  -0.12    -0.04  -0.09   0.04     0.01   0.02  -0.03
     3   6    -0.01  -0.03  -0.13    -0.06  -0.09   0.05     0.01   0.03   0.06
     4   6    -0.01  -0.02  -0.11    -0.08  -0.07   0.05     0.02   0.03   0.17
     5   6    -0.01  -0.02  -0.08    -0.07  -0.05   0.03     0.02   0.03   0.18
     6   6    -0.01  -0.01  -0.07    -0.04  -0.05   0.02     0.01   0.02   0.09
     7   6    -0.00  -0.03  -0.11    -0.02  -0.09   0.03     0.01   0.01  -0.11
     8   1    -0.02  -0.03  -0.15    -0.07  -0.11   0.06     0.02   0.03   0.05
     9   1    -0.02  -0.02  -0.12    -0.09  -0.07   0.06     0.02   0.04   0.25
    10   1    -0.01  -0.01  -0.06    -0.08  -0.04   0.02     0.02   0.04   0.27
    11   6    -0.00  -0.02  -0.08    -0.02  -0.07   0.02     0.01   0.01  -0.08
    12   6    -0.01  -0.02  -0.07    -0.05  -0.05   0.02     0.01   0.01  -0.01
    13   6    -0.02  -0.02  -0.09    -0.07  -0.06   0.02     0.02   0.01   0.01
    14   6    -0.01  -0.03  -0.13    -0.08  -0.09   0.02     0.02   0.02  -0.04
    15   6    -0.01  -0.03  -0.13    -0.05  -0.10   0.02     0.02   0.02  -0.10
    16   6    -0.00  -0.03  -0.11    -0.03  -0.09   0.02     0.01   0.01  -0.11
    17   6    -0.00  -0.01  -0.02    -0.01  -0.02   0.01     0.00  -0.00  -0.02
    18   1    -0.02  -0.02  -0.09    -0.09  -0.05   0.02     0.02   0.01   0.06
    19   1    -0.02  -0.03  -0.15    -0.10  -0.10   0.02     0.03   0.02  -0.03
    20   1    -0.01  -0.04  -0.15    -0.05  -0.12   0.02     0.02   0.02  -0.13
    21   7    -0.00  -0.03  -0.12    -0.03  -0.10   0.04     0.01   0.02  -0.10
    22   6    -0.01   0.02   0.08    -0.01   0.06   0.01    -0.01  -0.01   0.11
    23   6    -0.00   0.01   0.03     0.01   0.01  -0.01    -0.00  -0.01  -0.01
    24   6     0.01   0.00   0.05     0.06   0.01  -0.06     0.00  -0.01  -0.11
    25   6     0.01   0.02   0.09     0.09   0.05  -0.07    -0.00  -0.02  -0.12
    26   6     0.00   0.03   0.13     0.07   0.09  -0.04    -0.01  -0.02  -0.03
    27   6    -0.01   0.03   0.12     0.02   0.09  -0.00    -0.01  -0.02   0.08
    28   1     0.02  -0.01   0.02     0.08  -0.02  -0.08     0.01  -0.01  -0.20
    29   1     0.00   0.04   0.16     0.09   0.11  -0.06    -0.01  -0.03  -0.05
    30   6     0.02   0.02   0.10     0.14   0.04  -0.12     0.00  -0.03  -0.24
    31   1     0.02   0.01   0.11     0.17   0.04  -0.14     0.03   0.03  -0.28
    32   1     0.03   0.02   0.11     0.14  -0.01  -0.14    -0.02  -0.09  -0.27
    33   1     0.02   0.02   0.10     0.16   0.07  -0.12     0.01  -0.02  -0.24
    34   6    -0.02   0.04   0.15    -0.00   0.14   0.02    -0.02  -0.02   0.16
    35   1    -0.05   0.05   0.14    -0.03   0.12   0.04    -0.05  -0.05   0.18
    36   1     0.00   0.03   0.15    -0.02   0.17   0.04     0.01   0.02   0.18
    37   1    -0.02   0.05   0.18     0.02   0.16   0.01    -0.02  -0.02   0.15
    38   8    -0.02   0.02   0.08    -0.05   0.06   0.05    -0.01  -0.00   0.23
    39   7    -0.00  -0.01  -0.05    -0.00  -0.05   0.01     0.00   0.00  -0.08
    40   7    -0.01  -0.01  -0.03    -0.04  -0.02   0.01     0.01   0.00   0.03
    41   7    -0.00  -0.02  -0.10    -0.02  -0.08   0.02     0.01   0.02  -0.08
    42   1     0.01  -0.02  -0.08    -0.02  -0.08   0.02     0.01   0.03  -0.07
    43   6    -0.00  -0.00  -0.02    -0.02  -0.01  -0.01     0.01   0.02   0.10
    44   1    -0.00   0.00   0.02    -0.04   0.02  -0.02     0.01   0.01   0.16
    45   7     0.01  -0.00  -0.01     0.03  -0.01  -0.01    -0.01   0.01   0.04
    46   6     0.02   0.01   0.05     0.06   0.05  -0.03    -0.02  -0.00   0.04
    47   6     0.08   0.01   0.08     0.05   0.10  -0.03    -0.05  -0.02   0.02
    48   6    -0.04   0.03   0.09     0.04   0.06  -0.02     0.02  -0.01   0.01
    49   1     0.03   0.01   0.05     0.11   0.03  -0.05    -0.03  -0.00   0.05
    50   6     0.09   0.03   0.16     0.08   0.15  -0.04    -0.06  -0.04  -0.02
    51   1     0.07   0.01   0.08     0.01   0.11  -0.00    -0.04  -0.02   0.01
    52   1     0.13  -0.00   0.05     0.06   0.09  -0.03    -0.08  -0.02   0.04
    53   6    -0.03   0.05   0.16     0.07   0.12  -0.04     0.01  -0.03  -0.02
    54   1    -0.05   0.03   0.09    -0.00   0.07  -0.01     0.03  -0.01   0.01
    55   1    -0.09   0.04   0.07     0.05   0.03  -0.03     0.04  -0.00   0.03
    56   6     0.03   0.05   0.20     0.06   0.16  -0.03    -0.02  -0.04  -0.04
    57   1     0.13   0.03   0.18     0.07   0.19  -0.04    -0.08  -0.05  -0.03
    58   1     0.10   0.03   0.15     0.12   0.14  -0.06    -0.07  -0.04  -0.01
    59   1    -0.08   0.06   0.19     0.06   0.13  -0.03     0.04  -0.04  -0.04
    60   1    -0.03   0.05   0.16     0.11   0.11  -0.05    -0.00  -0.03  -0.02
    61   1     0.04   0.06   0.24     0.08   0.20  -0.04    -0.03  -0.06  -0.07
    62   1     0.02   0.05   0.20     0.02   0.17  -0.02    -0.02  -0.05  -0.05
    63   1    -0.01  -0.00  -0.00    -0.05  -0.00   0.02     0.01   0.00   0.11
    64   1    -0.00  -0.03  -0.12    -0.03  -0.11   0.04     0.01   0.02  -0.10
                      4                      5                      6
                      A                      A                      A
 Frequencies --     43.5246                52.2036                61.9442
 Red. masses --      4.5857                 5.2400                 5.2102
 Frc consts  --      0.0051                 0.0084                 0.0118
 IR Inten    --      0.1878                 1.5328                 1.2227
  Atom  AN      X      Y      Z        X      Y      Z        X      Y      Z
     1   6    -0.02   0.01   0.06     0.04  -0.05  -0.00     0.02   0.00   0.10
     2   6    -0.03  -0.01  -0.06     0.05  -0.02  -0.06     0.03   0.02   0.11
     3   6    -0.05  -0.02  -0.16     0.08  -0.02  -0.07     0.04   0.01   0.02
     4   6    -0.05  -0.00  -0.13     0.10  -0.05  -0.00     0.04  -0.01  -0.10
     5   6    -0.04   0.02  -0.01     0.08  -0.07   0.07     0.03  -0.03  -0.11
     6   6    -0.02   0.03   0.08     0.05  -0.07   0.07     0.02  -0.02  -0.01
     7   6     0.01  -0.01   0.02    -0.01  -0.01  -0.05    -0.00   0.03   0.16
     8   1    -0.06  -0.04  -0.25     0.09  -0.01  -0.12     0.04   0.02   0.02
     9   1    -0.07  -0.01  -0.21     0.12  -0.05  -0.00     0.06  -0.02  -0.18
    10   1    -0.05   0.03  -0.00     0.09  -0.09   0.12     0.04  -0.05  -0.21
    11   6     0.02  -0.03  -0.03    -0.05   0.04  -0.03    -0.01   0.03  -0.01
    12   6     0.02  -0.03  -0.05    -0.06   0.04   0.01    -0.00   0.01  -0.14
    13   6     0.02  -0.03  -0.04    -0.07   0.04   0.06    -0.00   0.01  -0.18
    14   6     0.02  -0.02  -0.00    -0.08   0.02   0.06    -0.01   0.02  -0.07
    15   6     0.02  -0.02   0.03    -0.06   0.01   0.02    -0.01   0.03   0.07
    16   6     0.02  -0.02   0.01    -0.04   0.01  -0.03    -0.01   0.03   0.09
    17   6     0.02  -0.02  -0.06    -0.05   0.04  -0.03    -0.01   0.01  -0.08
    18   1     0.02  -0.03  -0.06    -0.09   0.05   0.09     0.00   0.00  -0.29
    19   1     0.01  -0.02   0.01    -0.09   0.02   0.10    -0.01   0.02  -0.09
    20   1     0.01  -0.03   0.06    -0.06  -0.00   0.03    -0.02   0.04   0.16
    21   7    -0.01  -0.03  -0.06     0.03   0.00  -0.10     0.01   0.03   0.16
    22   6     0.02   0.01  -0.02    -0.05  -0.00  -0.02    -0.02  -0.01   0.03
    23   6     0.03  -0.01  -0.03    -0.06   0.03  -0.02    -0.02   0.00  -0.06
    24   6     0.05  -0.01  -0.01    -0.10   0.03   0.01    -0.03   0.00  -0.10
    25   6     0.06   0.01   0.04    -0.12   0.00   0.03    -0.05  -0.01  -0.06
    26   6     0.05   0.03   0.06    -0.11  -0.02   0.02    -0.05  -0.02   0.04
    27   6     0.03   0.03   0.03    -0.07  -0.03  -0.01    -0.04  -0.02   0.09
    28   1     0.06  -0.03  -0.02    -0.11   0.05   0.02    -0.03   0.01  -0.17
    29   1     0.05   0.05   0.10    -0.12  -0.04   0.03    -0.07  -0.03   0.09
    30   6     0.08   0.01   0.07    -0.16   0.01   0.07    -0.06  -0.01  -0.14
    31   1     0.07  -0.01   0.08    -0.19   0.01   0.09    -0.04   0.03  -0.17
    32   1     0.10   0.02   0.08    -0.15   0.05   0.08    -0.08  -0.05  -0.16
    33   1     0.08   0.02   0.07    -0.18  -0.02   0.06    -0.06  -0.02  -0.14
    34   6     0.02   0.05   0.05    -0.06  -0.06  -0.02    -0.05  -0.03   0.21
    35   1    -0.01   0.06   0.04    -0.04  -0.05  -0.03    -0.11  -0.03   0.20
    36   1     0.03   0.04   0.05    -0.04  -0.09  -0.03     0.04  -0.04   0.22
    37   1     0.02   0.06   0.08    -0.07  -0.08  -0.00    -0.06  -0.04   0.27
    38   8     0.01   0.01  -0.05    -0.03  -0.01  -0.04    -0.01  -0.01   0.05
    39   7     0.02  -0.03  -0.04    -0.04   0.04  -0.06    -0.01   0.03   0.01
    40   7     0.02  -0.03  -0.07    -0.05   0.05   0.01     0.00   0.01  -0.19
    41   7     0.01   0.01   0.09    -0.00  -0.04  -0.01    -0.00   0.01   0.15
    42   1     0.03   0.04   0.15    -0.04  -0.08   0.03    -0.02  -0.01   0.12
    43   6    -0.02   0.04   0.15     0.06  -0.06   0.11     0.02  -0.03  -0.04
    44   1    -0.02   0.04   0.14     0.05  -0.04   0.14     0.01  -0.04  -0.12
    45   7    -0.02   0.04   0.17     0.08  -0.06   0.08     0.02  -0.02   0.01
    46   6    -0.03   0.03   0.13     0.11  -0.02   0.06     0.03  -0.02  -0.01
    47   6    -0.14  -0.03   0.06     0.05   0.01   0.03     0.03  -0.00  -0.00
    48   6     0.07   0.06   0.04     0.15   0.02   0.02     0.02  -0.02  -0.00
    49   1    -0.03   0.03   0.19     0.16  -0.02   0.07     0.03  -0.02  -0.02
    50   6    -0.16  -0.05  -0.04     0.08   0.06  -0.04     0.04   0.01   0.00
    51   1    -0.14  -0.04   0.01     0.01   0.01   0.02     0.03  -0.00   0.00
    52   1    -0.23  -0.05   0.13     0.03  -0.01   0.05     0.04  -0.00  -0.01
    53   6     0.06   0.03  -0.06     0.17   0.06  -0.05     0.03  -0.00   0.00
    54   1     0.09   0.05  -0.01     0.11   0.02   0.02     0.01  -0.02   0.00
    55   1     0.15   0.10   0.09     0.20  -0.01   0.04     0.02  -0.03  -0.00
    56   6    -0.05  -0.02  -0.13     0.11   0.09  -0.08     0.03   0.01   0.01
    57   1    -0.24  -0.09  -0.09     0.03   0.08  -0.06     0.04   0.02   0.01
    58   1    -0.17  -0.05   0.01     0.12   0.05  -0.03     0.05   0.01  -0.00
    59   1     0.14   0.04  -0.13     0.20   0.08  -0.07     0.02  -0.00   0.01
    60   1     0.05   0.04  -0.02     0.22   0.06  -0.05     0.04  -0.01  -0.00
    61   1    -0.06  -0.03  -0.19     0.13   0.13  -0.12     0.04   0.02   0.01
    62   1    -0.05  -0.03  -0.19     0.07   0.10  -0.09     0.02   0.01   0.02
    63   1     0.02  -0.02  -0.08    -0.05   0.05   0.02     0.00   0.01  -0.20
    64   1    -0.01  -0.05  -0.10     0.03   0.03  -0.11     0.01   0.05   0.13
                      7                      8                      9
                      A                      A                      A
 Frequencies --     72.1942                80.5635               106.9343
 Red. masses --      4.0528                 3.6281                 3.6841
 Frc consts  --      0.0124                 0.0139                 0.0248
 IR Inten    --      4.0471                 2.8302                 2.6529
  Atom  AN      X      Y      Z        X      Y      Z        X      Y      Z
     1   6    -0.01   0.01   0.00    -0.00  -0.01  -0.04    -0.00   0.01  -0.01
     2   6    -0.00   0.01  -0.04    -0.00   0.00   0.04     0.02   0.04  -0.00
     3   6     0.00   0.01  -0.04    -0.00   0.01   0.13     0.08   0.04   0.00
     4   6     0.01   0.01   0.02    -0.00   0.01   0.13     0.11  -0.00   0.00
     5   6     0.00   0.01   0.05    -0.01   0.00   0.03     0.08  -0.05  -0.00
     6   6    -0.00   0.01   0.04    -0.00  -0.00  -0.06     0.02  -0.05  -0.01
     7   6    -0.01   0.01  -0.02    -0.01  -0.00  -0.02    -0.03   0.05  -0.00
     8   1     0.00   0.01  -0.07    -0.00   0.01   0.21     0.10   0.09   0.01
     9   1     0.01   0.01   0.03    -0.00   0.01   0.20     0.15  -0.00   0.01
    10   1     0.01   0.01   0.08    -0.01   0.00   0.03     0.10  -0.08  -0.00
    11   6     0.00  -0.01  -0.05    -0.01  -0.01  -0.04    -0.01   0.00  -0.00
    12   6     0.01  -0.01   0.01    -0.00  -0.01  -0.01     0.02  -0.02  -0.01
    13   6     0.02   0.00   0.13     0.00  -0.00   0.05     0.06  -0.00  -0.02
    14   6     0.02   0.02   0.20     0.00   0.01   0.09     0.06   0.04  -0.00
    15   6     0.01   0.03   0.13    -0.00   0.01   0.05     0.03   0.06   0.01
    16   6     0.00   0.01   0.01    -0.01  -0.00  -0.01    -0.01   0.04  -0.00
    17   6     0.01  -0.03  -0.11    -0.00  -0.02  -0.08    -0.01  -0.04   0.00
    18   1     0.03  -0.00   0.18     0.00  -0.00   0.08     0.09  -0.02  -0.03
    19   1     0.03   0.04   0.31     0.00   0.01   0.15     0.09   0.05  -0.00
    20   1     0.01   0.05   0.18    -0.00   0.02   0.07     0.03   0.09   0.02
    21   7    -0.01   0.01  -0.06    -0.00   0.00   0.03    -0.01   0.06   0.00
    22   6    -0.00  -0.01  -0.05    -0.01  -0.00  -0.06    -0.02  -0.01   0.01
    23   6     0.01  -0.02  -0.10    -0.00  -0.01  -0.07    -0.01  -0.04   0.01
    24   6     0.02  -0.02  -0.08     0.01  -0.01  -0.04     0.02  -0.04   0.02
    25   6     0.02  -0.01   0.01     0.01   0.00   0.02     0.04  -0.02   0.01
    26   6     0.01   0.01   0.08    -0.00   0.01   0.07     0.03   0.01  -0.01
    27   6    -0.00   0.01   0.05    -0.01   0.01   0.04     0.00   0.01  -0.01
    28   1     0.03  -0.04  -0.11     0.01  -0.02  -0.05     0.03  -0.06   0.02
    29   1     0.01   0.03   0.16    -0.01   0.02   0.13     0.05   0.03  -0.03
    30   6     0.04  -0.01   0.04     0.02   0.00   0.04     0.08  -0.02   0.02
    31   1     0.03  -0.03   0.06     0.01  -0.02   0.05     0.09  -0.04   0.02
    32   1     0.06   0.01   0.06     0.03   0.01   0.05     0.09  -0.03   0.02
    33   1     0.05   0.00   0.04     0.02   0.01   0.04     0.09   0.01   0.02
    34   6    -0.02   0.03   0.14    -0.02   0.03   0.09    -0.01   0.04  -0.04
    35   1    -0.09   0.06   0.11    -0.08   0.05   0.07    -0.00   0.02  -0.02
    36   1     0.05  -0.00   0.13     0.03  -0.00   0.09    -0.06   0.07  -0.03
    37   1    -0.02   0.05   0.23    -0.03   0.04   0.17     0.01   0.06  -0.08
    38   8    -0.01  -0.01  -0.10    -0.01  -0.01  -0.12    -0.03  -0.01   0.03
    39   7     0.00  -0.02  -0.13    -0.01  -0.01  -0.07    -0.02  -0.02   0.01
    40   7     0.01  -0.03  -0.05    -0.00  -0.01  -0.05     0.01  -0.04  -0.01
    41   7    -0.01   0.01   0.01    -0.01  -0.01  -0.07    -0.03   0.02  -0.02
    42   1    -0.02   0.00   0.02    -0.02  -0.02  -0.09    -0.05   0.00  -0.03
    43   6    -0.01  -0.00   0.02     0.00   0.00  -0.08    -0.03  -0.11   0.01
    44   1    -0.00  -0.01   0.06    -0.00   0.01  -0.10     0.00  -0.15   0.02
    45   7    -0.02  -0.01  -0.04     0.01   0.01  -0.04    -0.07  -0.11   0.01
    46   6    -0.02  -0.01  -0.07     0.02   0.02   0.02    -0.07  -0.11   0.02
    47   6     0.03   0.11  -0.02    -0.00  -0.14  -0.02    -0.10  -0.10   0.00
    48   6    -0.07  -0.13   0.01     0.03   0.16  -0.05    -0.09  -0.06   0.02
    49   1    -0.03  -0.02  -0.18     0.03   0.03   0.14    -0.05  -0.11   0.04
    50   6     0.03   0.12  -0.03    -0.00  -0.16   0.06    -0.02   0.06   0.01
    51   1     0.03   0.12   0.08     0.00  -0.16  -0.14    -0.21  -0.10  -0.04
    52   1     0.06   0.18  -0.08    -0.01  -0.24   0.03    -0.08  -0.20   0.03
    53   6    -0.07  -0.12  -0.00     0.03   0.15   0.03    -0.00   0.11  -0.01
    54   1    -0.08  -0.12   0.12     0.04   0.15  -0.19    -0.21  -0.04   0.06
    55   1    -0.11  -0.22  -0.03     0.04   0.29  -0.02    -0.06  -0.15   0.02
    56   6    -0.01   0.00   0.04     0.01  -0.01  -0.00    -0.06   0.23  -0.02
    57   1     0.07   0.21   0.01    -0.01  -0.28   0.03    -0.06   0.09  -0.01
    58   1     0.03   0.11  -0.15    -0.01  -0.15   0.20     0.13   0.04   0.05
    59   1    -0.10  -0.19   0.05     0.03   0.24  -0.02    -0.04   0.18  -0.02
    60   1    -0.06  -0.13  -0.10     0.02   0.17   0.15     0.14   0.09  -0.04
    61   1    -0.02   0.00   0.03     0.01  -0.01   0.05     0.04   0.39  -0.03
    62   1    -0.00   0.01   0.15     0.01  -0.02  -0.13    -0.25   0.27  -0.04
    63   1     0.02  -0.03  -0.03     0.00  -0.02  -0.05     0.02  -0.06   0.00
    64   1    -0.01   0.01  -0.09    -0.00   0.01   0.05    -0.00   0.08   0.01
                     10                     11                     12
                      A                      A                      A
 Frequencies --    110.7060               118.4414               142.0047
 Red. masses --      5.5135                 4.7786                 4.2850
 Frc consts  --      0.0398                 0.0395                 0.0509
 IR Inten    --      0.4673                 2.4896                 0.7970
  Atom  AN      X      Y      Z        X      Y      Z        X      Y      Z
     1   6    -0.00   0.00   0.03     0.02  -0.03   0.02     0.00  -0.00  -0.05
     2   6    -0.01   0.00   0.02     0.00  -0.06   0.02     0.01   0.01   0.09
     3   6    -0.01   0.00   0.01    -0.03  -0.06   0.03     0.01   0.01   0.16
     4   6    -0.01   0.01   0.00    -0.04  -0.03   0.02     0.00   0.00  -0.01
     5   6    -0.01   0.01  -0.01    -0.03  -0.01  -0.00    -0.00  -0.01  -0.18
     6   6    -0.01   0.01   0.00    -0.00  -0.00  -0.00     0.00  -0.01  -0.14
     7   6    -0.01   0.01   0.02     0.06  -0.07   0.00     0.00  -0.00  -0.03
     8   1    -0.01  -0.00   0.01    -0.04  -0.08   0.04     0.01   0.02   0.30
     9   1    -0.01   0.00  -0.01    -0.07  -0.03   0.02     0.00   0.00   0.01
    10   1    -0.01   0.01  -0.03    -0.04   0.01  -0.02    -0.00  -0.02  -0.29
    11   6    -0.00  -0.01  -0.10     0.06   0.01  -0.03     0.00  -0.00  -0.05
    12   6     0.00  -0.02  -0.10     0.01   0.05  -0.01    -0.00  -0.00   0.03
    13   6     0.01  -0.01  -0.00    -0.06   0.02   0.03     0.00   0.00   0.07
    14   6     0.01   0.01   0.11    -0.07  -0.05   0.04     0.00   0.00   0.01
    15   6    -0.00   0.02   0.11    -0.01  -0.08   0.01     0.00  -0.00  -0.07
    16   6    -0.01   0.00  -0.00     0.05  -0.06  -0.01     0.00  -0.00  -0.07
    17   6    -0.01  -0.03  -0.12     0.08   0.10  -0.05    -0.00  -0.01  -0.03
    18   1     0.02  -0.01   0.01    -0.11   0.06   0.06    -0.00   0.01   0.15
    19   1     0.01   0.02   0.22    -0.12  -0.07   0.06     0.01   0.01   0.03
    20   1    -0.00   0.04   0.21    -0.01  -0.14   0.00     0.00  -0.00  -0.10
    21   7    -0.01   0.01   0.01     0.03  -0.08   0.01     0.00   0.01   0.10
    22   6    -0.03   0.00   0.09     0.10   0.04   0.00    -0.01  -0.00  -0.01
    23   6    -0.01  -0.02  -0.05     0.08   0.10  -0.05    -0.00  -0.01  -0.03
    24   6     0.01  -0.02  -0.03     0.01   0.10  -0.05     0.00  -0.01  -0.04
    25   6     0.01  -0.00   0.03    -0.04   0.04  -0.01     0.00  -0.00  -0.01
    26   6     0.01   0.00  -0.07    -0.01  -0.02   0.00    -0.00   0.00  -0.00
    27   6    -0.00   0.01  -0.07     0.06  -0.03   0.00    -0.01   0.00  -0.01
    28   1     0.01  -0.03  -0.04    -0.01   0.16  -0.07     0.00  -0.01  -0.04
    29   1     0.03   0.01  -0.13    -0.05  -0.07   0.03    -0.00   0.00   0.01
    30   6     0.00   0.01   0.20    -0.15   0.06   0.04     0.00  -0.00   0.04
    31   1    -0.10  -0.08   0.31    -0.22   0.07   0.08    -0.04  -0.03   0.07
    32   1     0.11   0.12   0.30    -0.13   0.13   0.07     0.04   0.03   0.07
    33   1    -0.00  -0.00   0.15    -0.19  -0.02   0.01     0.00  -0.00   0.01
    34   6     0.00   0.02  -0.19     0.11  -0.12   0.02    -0.01   0.01   0.01
    35   1     0.10  -0.05  -0.13     0.14  -0.09  -0.01    -0.03   0.01   0.01
    36   1    -0.14   0.11  -0.17     0.19  -0.19   0.00    -0.00   0.01   0.01
    37   1     0.04   0.02  -0.37     0.04  -0.18   0.08    -0.01   0.01   0.02
    38   8    -0.06   0.02   0.36     0.15   0.04   0.06    -0.01  -0.00   0.01
    39   7    -0.01  -0.02  -0.13     0.10   0.05  -0.06    -0.00  -0.01  -0.08
    40   7     0.00  -0.03  -0.14     0.03   0.10  -0.03    -0.00  -0.00   0.05
    41   7    -0.01   0.00   0.04     0.06  -0.04   0.01     0.00  -0.01  -0.11
    42   1    -0.03  -0.01   0.03     0.10   0.00   0.02     0.00  -0.00  -0.09
    43   6     0.00   0.02  -0.03    -0.02  -0.02  -0.02     0.00  -0.01  -0.14
    44   1    -0.00   0.03  -0.04    -0.00  -0.05  -0.04    -0.01  -0.04  -0.43
    45   7     0.02   0.02  -0.03    -0.06  -0.02  -0.01     0.01   0.02   0.21
    46   6     0.02   0.03  -0.02    -0.08  -0.05  -0.01     0.00   0.01   0.12
    47   6     0.04   0.00  -0.02    -0.09  -0.06  -0.01    -0.05   0.08   0.11
    48   6     0.02   0.04  -0.03    -0.11  -0.03   0.01     0.06  -0.06   0.11
    49   1     0.02   0.03  -0.01    -0.09  -0.05  -0.00     0.00   0.00   0.08
    50   6     0.02  -0.04   0.01    -0.04   0.03   0.01    -0.07   0.08  -0.02
    51   1     0.06  -0.00  -0.03    -0.14  -0.05  -0.04    -0.04   0.09   0.17
    52   1     0.04   0.01  -0.02    -0.07  -0.11   0.00    -0.11   0.15   0.12
    53   6     0.00  -0.00   0.01    -0.06   0.06   0.00     0.06  -0.08  -0.02
    54   1     0.05   0.03  -0.06    -0.17  -0.02   0.03     0.05  -0.06   0.14
    55   1     0.01   0.08  -0.03    -0.10  -0.08  -0.00     0.12  -0.12   0.12
    56   6     0.02  -0.05   0.01    -0.08   0.13   0.00    -0.00  -0.01  -0.04
    57   1     0.04  -0.06   0.01    -0.06   0.04   0.00    -0.12   0.15  -0.04
    58   1    -0.02  -0.03   0.02     0.03   0.02   0.04    -0.07   0.08  -0.09
    59   1     0.00   0.00   0.01    -0.09   0.09   0.01     0.11  -0.13  -0.03
    60   1    -0.03   0.01   0.03     0.01   0.04  -0.02     0.06  -0.08  -0.07
    61   1     0.00  -0.09   0.03    -0.03   0.22   0.00    -0.02  -0.02  -0.12
    62   1     0.07  -0.06  -0.00    -0.19   0.15  -0.01     0.01  -0.00   0.01
    63   1    -0.00  -0.03   0.00     0.00   0.15  -0.00    -0.00  -0.00   0.08
    64   1    -0.01   0.01  -0.01     0.03  -0.12  -0.01     0.01   0.01   0.11
                     13                     14                     15
                      A                      A                      A
 Frequencies --    162.1334               169.8760               173.3681
 Red. masses --      4.7945                 1.3246                 1.9311
 Frc consts  --      0.0743                 0.0225                 0.0342
 IR Inten    --      2.7818                 0.8095                 0.6107
  Atom  AN      X      Y      Z        X      Y      Z        X      Y      Z
     1   6     0.01   0.03   0.19     0.00  -0.00  -0.04    -0.01  -0.00  -0.06
     2   6     0.01   0.02   0.13     0.00  -0.00  -0.03    -0.01   0.00  -0.05
     3   6     0.01   0.01  -0.01    -0.00  -0.00  -0.00    -0.00   0.00  -0.02
     4   6     0.01   0.00  -0.11    -0.00   0.00   0.02     0.00   0.00   0.02
     5   6     0.01   0.00  -0.04    -0.00   0.00   0.02     0.00  -0.00   0.02
     6   6     0.01   0.02   0.10     0.00   0.00  -0.01    -0.00  -0.01  -0.02
     7   6     0.01   0.01   0.03     0.00  -0.00   0.00    -0.01   0.01   0.01
     8   1     0.01   0.01  -0.09    -0.00  -0.00   0.01     0.00   0.01  -0.00
     9   1     0.01  -0.01  -0.25    -0.00   0.00   0.05     0.01   0.00   0.06
    10   1     0.01  -0.00  -0.14    -0.00   0.01   0.04     0.00  -0.00   0.07
    11   6     0.00  -0.00  -0.06     0.00   0.00   0.05    -0.01   0.00   0.10
    12   6    -0.00   0.00   0.12     0.00   0.00   0.01    -0.00  -0.00   0.04
    13   6    -0.00   0.00   0.11     0.00  -0.00  -0.02     0.00  -0.00  -0.03
    14   6     0.01  -0.01  -0.11    -0.00  -0.00  -0.01     0.01   0.00  -0.04
    15   6     0.01  -0.01  -0.19     0.00  -0.00   0.01     0.00   0.01   0.01
    16   6     0.01  -0.00  -0.11     0.00  -0.00   0.03    -0.01   0.01   0.07
    17   6    -0.01  -0.01  -0.01     0.00   0.00   0.01    -0.00  -0.00   0.02
    18   1    -0.01   0.01   0.24    -0.00  -0.00  -0.05     0.01  -0.01  -0.09
    19   1     0.01  -0.01  -0.18    -0.00  -0.01  -0.04     0.01  -0.00  -0.11
    20   1     0.01  -0.03  -0.27     0.00  -0.00   0.00     0.00   0.01  -0.03
    21   7     0.01   0.01   0.06     0.00  -0.00  -0.01    -0.01   0.01  -0.01
    22   6    -0.02  -0.01  -0.04     0.00  -0.00  -0.02     0.00   0.00  -0.03
    23   6    -0.01  -0.02  -0.08     0.00   0.00  -0.02     0.01  -0.00  -0.07
    24   6     0.00  -0.03  -0.12     0.00   0.00  -0.03     0.02  -0.01  -0.12
    25   6     0.01  -0.01  -0.06    -0.00  -0.00  -0.04     0.01  -0.00  -0.07
    26   6    -0.00  -0.00  -0.05     0.01  -0.01  -0.06     0.01  -0.00  -0.05
    27   6    -0.02   0.00  -0.03     0.00  -0.00  -0.03     0.00  -0.00  -0.03
    28   1     0.01  -0.04  -0.12    -0.00   0.00  -0.01     0.02  -0.01  -0.14
    29   1     0.00   0.01  -0.01     0.00  -0.01  -0.07     0.01   0.00  -0.01
    30   6     0.01  -0.01   0.10    -0.02   0.00   0.05    -0.01   0.01   0.09
    31   1    -0.18  -0.10   0.27    -0.14  -0.04   0.15    -0.25  -0.08   0.30
    32   1     0.20   0.10   0.25     0.09   0.07   0.14     0.23   0.13   0.28
    33   1    -0.00  -0.02  -0.04    -0.03  -0.02  -0.04    -0.02  -0.02  -0.10
    34   6    -0.04   0.03   0.06    -0.01   0.01   0.07     0.00  -0.00   0.04
    35   1    -0.10  -0.02   0.11     0.07  -0.39   0.43    -0.16   0.29  -0.22
    36   1    -0.02   0.10   0.11    -0.19   0.48   0.32     0.23  -0.34  -0.12
    37   1    -0.02   0.05   0.05     0.05  -0.02  -0.39    -0.05   0.03   0.46
    38   8    -0.03  -0.01  -0.01     0.01  -0.01  -0.01    -0.01   0.00   0.04
    39   7    -0.01  -0.01  -0.14     0.00   0.01   0.05    -0.01   0.00   0.09
    40   7    -0.01   0.00   0.19     0.00   0.00  -0.01    -0.00  -0.00   0.00
    41   7     0.01   0.02   0.15     0.00  -0.00  -0.03    -0.01   0.00  -0.04
    42   1     0.03   0.04   0.07     0.00  -0.00  -0.01    -0.02  -0.00  -0.02
    43   6     0.01   0.01   0.04     0.00   0.00   0.00    -0.00  -0.00   0.01
    44   1     0.01   0.01   0.08     0.00   0.00   0.02    -0.00   0.00   0.05
    45   7     0.00  -0.00  -0.06     0.00   0.00   0.00    -0.00  -0.01  -0.00
    46   6    -0.00  -0.01  -0.06    -0.00   0.00   0.01     0.00   0.00   0.01
[...]
 ! Name  Definition              Value          Relative Weight (%)             !
 --------------------------------------------------------------------------------
 ! R7    R(3,8)                 -0.5239                 24.8                    !
 ! R8    R(4,5)                 -0.0486                  2.3                    !
 ! R9    R(4,9)                  0.9158                 43.4                    !
 ! R11   R(5,10)                 0.243                  11.5                    !
 ! A7    A(2,3,4)               -0.0512                  2.4                    !
 ! A9    A(4,3,8)                0.0438                  2.1                    !
 ! A10   A(3,4,5)                0.0558                  2.6                    !
 ! A11   A(3,4,9)               -0.0398                  1.9                    !
 --------------------------------------------------------------------------------
                           ----------------------------
                           ! Normal Mode   182        !
 --------------------------                            --------------------------
 ! Name  Definition              Value          Relative Weight (%)             !
 --------------------------------------------------------------------------------
 ! R19   R(12,13)                0.0273                  1.2                    !
 ! R21   R(13,14)                0.0607                  2.8                    !
 ! R22   R(13,18)               -0.6024                 27.4                    !
 ! R23   R(14,15)                0.05                    2.3                    !
 ! R24   R(14,19)               -0.7981                 36.2                    !
 ! R25   R(15,16)                0.0172                  0.8                    !
 ! R26   R(15,20)               -0.4232                 19.2                    !
 ! A25   A(11,12,13)             0.0157                  0.7                    !
 ! A27   A(13,12,40)            -0.0174                  0.8                    !
 ! A29   A(12,13,18)             0.0173                  0.8                    !
 ! A31   A(13,14,15)            -0.0166                  0.8                    !
 ! A36   A(16,15,20)             0.0142                  0.6                    !
 --------------------------------------------------------------------------------
                           ----------------------------
                           ! Normal Mode   183        !
 --------------------------                            --------------------------
 ! Name  Definition              Value          Relative Weight (%)             !
 --------------------------------------------------------------------------------
 ! R4    R(2,3)                  0.0441                  2.3                    !
 ! R6    R(3,4)                  0.0653                  3.3                    !
 ! R7    R(3,8)                 -0.949                  48.6                    !
 ! R8    R(4,5)                  0.024                   1.2                    !
 ! R9    R(4,9)                 -0.5188                 26.6                    !
 ! R11   R(5,10)                -0.091                   4.7                    !
 ! A4    A(1,2,3)                0.024                   1.2                    !
 ! A6    A(3,2,21)              -0.0265                  1.4                    !
 ! A7    A(2,3,4)               -0.0364                  1.9                    !
 ! A8    A(2,3,8)                0.0225                  1.2                    !
 ! A9    A(4,3,8)                0.0139                  0.7                    !
 ! A11   A(3,4,9)               -0.0135                  0.7                    !
 ! A12   A(5,4,9)                0.0148                  0.8                    !
 ! A14   A(4,5,10)              -0.0143                  0.7                    !
 --------------------------------------------------------------------------------
                           ----------------------------
                           ! Normal Mode   184        !
 --------------------------                            --------------------------
 ! Name  Definition              Value          Relative Weight (%)             !
 --------------------------------------------------------------------------------
 ! R5    R(2,21)                 0.0483                  3.1                    !
 ! R14   R(7,21)                 0.0422                  2.7                    !
 ! R30   R(21,64)               -1.0711                 69.6                    !
 ! R49   R(41,42)                0.0504                  3.3                    !
 ! A5    A(1,2,21)               0.0245                  1.6                    !
 ! A6    A(3,2,21)              -0.0255                  1.7                    !
 ! A19   A(16,7,21)             -0.026                   1.7                    !
 ! A21   A(21,7,41)              0.0249                  1.6                    !
 ! A43   A(2,21,7)              -0.0504                  3.3                    !
 ! A44   A(2,21,64)              0.0607                  3.9                    !
 --------------------------------------------------------------------------------
                           ----------------------------
                           ! Normal Mode   185        !
 --------------------------                            --------------------------
 ! Name  Definition              Value          Relative Weight (%)             !
 --------------------------------------------------------------------------------
 ! R3    R(1,41)                 0.0418                  2.6                    !
 ! R15   R(7,41)                 0.0479                  3.0                    !
 ! R30   R(21,64)               -0.0511                  3.2                    !
 ! R48   R(40,63)                0.0758                  4.7                    !
 ! R49   R(41,42)               -1.0679                 66.5                    !
 ! A2    A(2,1,41)               0.0243                  1.5                    !
 ! A3    A(6,1,41)              -0.0248                  1.5                    !
 ! A20   A(16,7,41)             -0.0251                  1.6                    !
 ! A21   A(21,7,41)              0.0254                  1.6                    !
 ! A80   A(1,41,7)              -0.0487                  3.0                    !
 ! A82   A(7,41,42)              0.0546                  3.4                    !
 --------------------------------------------------------------------------------
                           ----------------------------
                           ! Normal Mode   186        !
 --------------------------                            --------------------------
 ! Name  Definition              Value          Relative Weight (%)             !
 --------------------------------------------------------------------------------
 ! R20   R(12,40)                0.0489                  3.2                    !
 ! R29   R(17,40)                0.0422                  2.7                    !
 ! R48   R(40,63)               -1.0688                 69.5                    !
 ! R49   R(41,42)               -0.0764                  5.0                    !
 ! A26   A(11,12,40)             0.0232                  1.5                    !
 ! A27   A(13,12,40)            -0.0242                  1.6                    !
 ! A41   A(23,17,40)            -0.0246                  1.6                    !
 ! A42   A(39,17,40)             0.0242                  1.6                    !
 ! A77   A(12,40,17)            -0.048                   3.1                    !
 ! A78   A(12,40,63)             0.0538                  3.5                    !
 --------------------------------------------------------------------------------
 -------------------------------------------------------------------
 Center     Atomic                   Forces (Hartrees/Bohr)
 Number     Number              X              Y              Z
 -------------------------------------------------------------------
      1        6          -0.000000753    0.000001915   -0.000015637
      2        6          -0.000000979    0.000001212   -0.000023192
      3        6          -0.000001443   -0.000000141   -0.000040102
      4        6          -0.000001947   -0.000000421   -0.000048843
      5        6          -0.000001619    0.000000795   -0.000041195
      6        6          -0.000000660    0.000001771   -0.000024360
      7        6           0.000000218    0.000002739    0.000003694
      8        1          -0.000001758   -0.000000781   -0.000046010
      9        1          -0.000002410   -0.000001303   -0.000061985
     10        1          -0.000001806    0.000000155   -0.000048510
     11        6           0.000001180    0.000001549    0.000018910
     12        6           0.000000961    0.000002171    0.000034085
     13        6           0.000002138    0.000003489    0.000048930
     14        6           0.000002402    0.000005212    0.000048526
     15        6           0.000001461    0.000004878    0.000033959
     16        6           0.000000985    0.000002850    0.000018928
     17        6          -0.000000042   -0.000001385    0.000013156
     18        1           0.000002464    0.000003731    0.000060230
     19        1           0.000002606    0.000006371    0.000059842
     20        1           0.000001553    0.000005936    0.000034353
     21        7          -0.000000358    0.000001614   -0.000010892
     22        6           0.000000588   -0.000004141    0.000012012
     23        6           0.000000096   -0.000002905    0.000004595
     24        6          -0.000000799   -0.000003856   -0.000012419
     25        6          -0.000001066   -0.000006158   -0.000021541
     26        6          -0.000000893   -0.000008071   -0.000012965
     27        6          -0.000000327   -0.000007511    0.000004054
     28        1          -0.000000880   -0.000002186   -0.000018895
     29        1          -0.000001332   -0.000010001   -0.000020117
     30        6          -0.000001909   -0.000006676   -0.000039542
     31        1          -0.000001474    0.000003911   -0.000044520
     32        1          -0.000002661   -0.000017396   -0.000043703
     33        1          -0.000002082   -0.000006966   -0.000044835
     34        6          -0.000000085   -0.000009249    0.000012485
     35        1          -0.000000300   -0.000019231    0.000021339
     36        1           0.000000833    0.000001701    0.000019565
     37        1          -0.000000501   -0.000011466    0.000004163
     38        8           0.000000734   -0.000004683    0.000028843
     39        7           0.000000258    0.000000413    0.000006418
     40        7           0.000001050    0.000000417    0.000029496
     41        7           0.000000265    0.000002829    0.000000894
     42        1           0.000000547    0.000003542    0.000008951
     43        6          -0.000000292    0.000002084   -0.000015966
     44        1          -0.000000779    0.000002037   -0.000024053
     45        7           0.000000234    0.000003757   -0.000000637
     46        6           0.000000286    0.000004162    0.000006634
     47        6          -0.000000421   -0.000012009    0.000003428
     48        6           0.000001236    0.000018524    0.000000775
     49        1           0.000000926    0.000005246    0.000019714
     50        6          -0.000000141   -0.000011809    0.000011340
     51        1          -0.000001237   -0.000013635   -0.000009751
     52        1          -0.000000948   -0.000022298    0.000008161
     53        6           0.000001477    0.000018716    0.000008439
     54        1           0.000000480    0.000017910   -0.000012510
     55        1           0.000001847    0.000029751    0.000003366
     56        6           0.000000360    0.000002755    0.000005475
     57        1          -0.000000977   -0.000023171    0.000008519
     58        1           0.000000237   -0.000011228    0.000024511
     59        1           0.000001820    0.000028996    0.000003847
     60        1           0.000001936    0.000020546    0.000021619
     61        1           0.000000634    0.000003024    0.000011468
     62        1          -0.000000304    0.000001540   -0.000007632
     63        1           0.000001620   -0.000000468    0.000036553
     64        1          -0.000000246    0.000000892   -0.000011465
 -------------------------------------------------------------------
 Cartesian Forces:  Max     0.000061985 RMS     0.000016934
 FormGI is forming the generalized inverse of G from B-inverse, IUseBI=4.
 Leave Link  716 at Fri Dec 14 13:59:38 2018, MaxMem=  1342177280 cpu:              14.6 elap:               1.0
 (Enter /gpfs/apps/hpc/Apps/Restricted/Gaussian/Rev_A.03/g16/l9999.exe)

 ----------------------------------------------------------------------

 Electric dipole moment (input orientation):
 (Debye = 10**-18 statcoulomb cm , SI units = C m)
                  (au)            (Debye)         (10**-30 SI)
   Tot        0.205418D+01      0.522120D+01      0.174160D+02
   x         -0.156365D+01     -0.397439D+01     -0.132571D+02
   y          0.132382D+01      0.336480D+01      0.112238D+02
   z          0.148900D+00      0.378466D+00      0.126243D+01

 Dipole polarizability, Alpha (input orientation).
 (esu units = cm**3 , SI units = C**2 m**2 J**-1)
 Alpha(0;0):
               (au)            (10**-24 esu)      (10**-40 SI)
   iso        0.571616D+03      0.847047D+02      0.942467D+02
   aniso      0.554331D+03      0.821434D+02      0.913969D+02
   xx         0.805937D+03      0.119428D+03      0.132881D+03
   yx        -0.476594D+02     -0.706240D+01     -0.785798D+01
   yy         0.693655D+03      0.102789D+03      0.114368D+03
   zx         0.247338D+02      0.366517D+01      0.407806D+01
   zy        -0.338809D+02     -0.502063D+01     -0.558620D+01
   zz         0.215255D+03      0.318975D+02      0.354908D+02

 ----------------------------------------------------------------------

 Dipole orientation:
     6          2.55660950          2.45820677         -0.79301815
     6          2.06135481          2.25369021          1.80356566
     6          3.09402109          3.94947742          3.53797598
     6          4.62262890          5.85373749          2.55496047
     6          5.10782400          6.06211263         -0.04889371
     6          4.08736790          4.36824009         -1.80248228
     6         -0.01281413         -0.82942977         -0.22432057
     1          2.71612778          3.79199274          5.54097584
     1          5.46353209          7.21448531          3.83104309
     1          6.30552347          7.57904624         -0.72752400
     6         -2.87316125         -4.05519401          1.51874495
     6         -4.50851821         -6.15204770          1.18911324
     6         -4.92567237         -7.24945445         -1.16831416
     6         -3.66527294         -6.18437104         -3.22538986
     6         -2.05448975         -4.09723935         -2.95714557
     6         -1.62743616         -2.99056145         -0.59252966
     6         -4.34135921         -4.96104522          5.20713261
     1         -6.17382574         -8.85392617         -1.39880262
     1         -3.93954299         -6.98656044         -5.08746945
     1         -1.12291097         -3.34172472         -4.61551316
     7          0.46849835          0.18979461          2.06187456
     6         -6.74391802         -6.68814817          8.96374822
     6         -4.89724085         -4.91905266          7.89049089
     6         -3.69949156         -3.19056972          9.44225203
     6         -4.22797466         -3.05923457         12.04760172
     6         -6.03112422         -4.72788064         13.09885145
     6         -7.27009896         -6.51255376         11.66828311
     1         -2.32859461         -1.90663600          8.62512065
     1         -6.42595249         -4.60234047         15.10600165
     6         -2.90008555         -1.15701926         13.66982458
     1         -0.85444843         -1.25574136         13.39048415
     1         -3.48280604          0.76157735         13.15532614
     1         -3.31621360         -1.44838647         15.66671610
     6         -9.14233989         -8.31652046         12.77411509
     1        -10.96531050         -8.17046640         11.81159161
     1         -8.50571326        -10.26917111         12.53048664
     1         -9.40586819         -7.95524983         14.78508485
     8         -7.85668569         -8.31801744          7.63595782
     7         -2.78865256         -3.35563121          4.01596007
     7         -5.39745493         -6.66235837          3.57535238
     7          1.25243701          0.52756248         -1.97206751
     1          1.30902454          0.32529747         -3.88407012
     6          4.55177662          4.56405704         -4.51732561
     1          5.74667230          6.14341366         -5.11249153
     7          3.59070564          2.98012743         -6.07636784
     6          4.12501862          3.36894859         -8.78156046
     6          2.99608633          5.87213337         -9.73428554
     6          6.96474552          3.22547192         -9.38399015
     1          3.18733026          1.82125506         -9.78681794
     6          3.50043431          6.25262229        -12.55971990
     1          3.85618591          7.42415944         -8.66346085
     1          0.96693721          5.90878990         -9.33664864
     6          7.45732422          3.60522447        -12.21279050
     1          7.94971121          4.69984500         -8.31361183
     1          7.71222844          1.40546875         -8.74781012
     6          6.32944116          6.09939918        -13.15867929
     1          2.72945719          8.07478790        -13.16292303
     1          2.49947673          4.79065329        -13.63599012
     1          9.49245310          3.54384744        -12.57661662
     1          6.61285749          2.03340553        -13.26955104
     1          6.64196821          6.30109002        -15.19279253
     1          7.30525017          7.68077886        -12.23820164
     1         -6.64765316         -7.98301771          4.19606297
     1         -0.34919664         -0.55613198          3.65053146

 Electric dipole moment (dipole orientation):
 (Debye = 10**-18 statcoulomb cm , SI units = C m)
                  (au)            (Debye)         (10**-30 SI)
   Tot        0.205418D+01      0.522120D+01      0.174160D+02
   x          0.000000D+00      0.000000D+00      0.000000D+00
   y          0.000000D+00      0.000000D+00      0.000000D+00
   z          0.205418D+01      0.522120D+01      0.174160D+02

 Dipole polarizability, Alpha (dipole orientation).
 (esu units = cm**3 , SI units = C**2 m**2 J**-1)
 Alpha(0;0):
               (au)            (10**-24 esu)      (10**-40 SI)
   iso        0.571616D+03      0.847047D+02      0.942467D+02
   aniso      0.554331D+03      0.821434D+02      0.913969D+02
   xx         0.413861D+03      0.613279D+02      0.682365D+02
   yx         0.230364D+03      0.341365D+02      0.379820D+02
   yy         0.503921D+03      0.746733D+02      0.830853D+02
   zx        -0.944673D+02     -0.139986D+02     -0.155756D+02
   zy         0.169549D+02      0.251246D+01      0.279549D+01
   zz         0.797066D+03      0.118113D+03      0.131418D+03

 ----------------------------------------------------------------------

 This type of calculation cannot be archived.


 MANHOOD BEGINS BY TRYING TO SHAVE FACE,
 AND ENDS BY TRYING TO SAVE FACE.
 Job cpu time:       0 days  0 hours  0 minutes 31.0 seconds.
 Elapsed time:       0 days  0 hours  0 minutes  2.2 seconds.
 File lengths (MBytes):  RWF=     72 Int=      0 D2E=      0 Chk=     76 Scr=      8
 Normal termination of Gaussian 16 at Fri Dec 14 13:59:39 2018.
