 Entering Gaussian System, Link 0=g16
 Input=cyclohexyl-monoBIP-TS2_rev.com
 Output=cyclohexyl-monoBIP-TS2_rev.log
 Initial command:
 /gpfs/apps/hpc/Apps/Restricted/Gaussian/Rev_A.03/g16/l1.exe "/gpfs/scratch60/fas/hammes_schiffer/jg2487/c01n02/Gau-10368.inp" -scrdir="/gpfs/scratch60/fas/hammes_schiffer/jg2487/c01n02/"
 Entering Link 1 = /gpfs/apps/hpc/Apps/Restricted/Gaussian/Rev_A.03/g16/l1.exe PID=     10369.
  
 Copyright (c) 1988,1990,1992,1993,1995,1998,2003,2009,2016,
            Gaussian, Inc.  All Rights Reserved.
  
 This is part of the Gaussian(R) 16 program.  It is based on
 the Gaussian(R) 09 system (copyright 2009, Gaussian, Inc.),
 the Gaussian(R) 03 system (copyright 2003, Gaussian, Inc.),
 the Gaussian(R) 98 system (copyright 1998, Gaussian, Inc.),
 the Gaussian(R) 94 system (copyright 1995, Gaussian, Inc.),
 the Gaussian 92(TM) system (copyright 1992, Gaussian, Inc.),
 the Gaussian 90(TM) system (copyright 1990, Gaussian, Inc.),
 the Gaussian 88(TM) system (copyright 1988, Gaussian, Inc.),
 the Gaussian 86(TM) system (copyright 1986, Carnegie Mellon
 University), and the Gaussian 82(TM) system (copyright 1983,
 Carnegie Mellon University). Gaussian is a federally registered
 trademark of Gaussian, Inc.
  
 This software contains proprietary and confidential information,
 including trade secrets, belonging to Gaussian, Inc.
  
 This software is provided under written license and may be
 used, copied, transmitted, or stored only in accord with that
 written license.
  
 The following legend is applicable only to US Government
 contracts under FAR:
  
                    RESTRICTED RIGHTS LEGEND
  
 Use, reproduction and disclosure by the US Government is
 subject to restrictions as set forth in subparagraphs (a)
 and (c) of the Commercial Computer Software - Restricted
 Rights clause in FAR 52.227-19.
  
 Gaussian, Inc.
 340 Quinnipiac St., Bldg. 40, Wallingford CT 06492
  
  
 ---------------------------------------------------------------
 Warning -- This program may not be used in any manner that
 competes with the business of Gaussian, Inc. or will provide
 assistance to any competitor of Gaussian, Inc.  The licensee
 of this program is prohibited from giving any competitor of
 Gaussian, Inc. access to this program.  By using this program,
 the user acknowledges that Gaussian, Inc. is engaged in the
 business of creating and licensing software in the field of
 computational chemistry and represents and warrants to the
 licensee that it is not a competitor of Gaussian, Inc. and that
 it will not use this program in any manner prohibited above.
 ---------------------------------------------------------------
  

 Cite this work as:
 Gaussian 16, Revision A.03,
 M. J. Frisch, G. W. Trucks, H. B. Schlegel, G. E. Scuseria, 
 M. A. Robb, J. R. Cheeseman, G. Scalmani, V. Barone, 
 G. A. Petersson, H. Nakatsuji, X. Li, M. Caricato, A. V. Marenich, 
 J. Bloino, B. G. Janesko, R. Gomperts, B. Mennucci, H. P. Hratchian, 
 J. V. Ortiz, A. F. Izmaylov, J. L. Sonnenberg, D. Williams-Young, 
 F. Ding, F. Lipparini, F. Egidi, J. Goings, B. Peng, A. Petrone, 
 T. Henderson, D. Ranasinghe, V. G. Zakrzewski, J. Gao, N. Rega, 
 G. Zheng, W. Liang, M. Hada, M. Ehara, K. Toyota, R. Fukuda, 
 J. Hasegawa, M. Ishida, T. Nakajima, Y. Honda, O. Kitao, H. Nakai, 
 T. Vreven, K. Throssell, J. A. Montgomery, Jr., J. E. Peralta, 
 F. Ogliaro, M. J. Bearpark, J. J. Heyd, E. N. Brothers, K. N. Kudin, 
 V. N. Staroverov, T. A. Keith, R. Kobayashi, J. Normand, 
 K. Raghavachari, A. P. Rendell, J. C. Burant, S. S. Iyengar, 
 J. Tomasi, M. Cossi, J. M. Millam, M. Klene, C. Adamo, R. Cammi, 
 J. W. Ochterski, R. L. Martin, K. Morokuma, O. Farkas, 
 J. B. Foresman, and D. J. Fox, Gaussian, Inc., Wallingford CT, 2016.
 
 ******************************************
 Gaussian 16:  ES64L-G16RevA.03 25-Dec-2016
                17-Dec-2018 
 ******************************************
 %chk=cyclohexyl-monoBIP-TS2_rev.chk
 %mem=10GB
 %nprocshared=4
 Will use up to    4 processors via shared memory.
 ----------------------------------------------------------------
 #p freq(ReadFC,InternalModes) Geom(AllCheck) NoSymm scale=0.9649
 ----------------------------------------------------------------
 1/18=20,29=7,38=1,114=964900/1,3;
 2/9=110,12=2,15=1,40=1/2;
 7/8=21,25=11,30=1/16;
 99/5=2/99;
 Leave Link    1 at Mon Dec 17 15:50:01 2018, MaxMem=  1342177280 cpu:               1.4 elap:               0.4
 (Enter /gpfs/apps/hpc/Apps/Restricted/Gaussian/Rev_A.03/g16/l101.exe)
 Structure from the checkpoint file:  "cyclohexyl-monoBIP-TS2_rev.chk"
 ----------------------------------------------------------------------
 cyclohexylimine monoBIP oxidized, optimize to transition state of firs
 t proton transferred
 ----------------------------------------------------------------------
 Charge =  1 Multiplicity = 2
 Redundant internal coordinates found in file.  (old form).
 C,0,-0.5046398361,2.6162604682,0.2718916388
 C,0,-1.9311406609,2.7811965956,0.2406743787
 C,0,-2.5092473438,4.0564088748,0.1732458498
 C,0,-1.6573559998,5.1578426081,0.1457887963
 C,0,-0.2584302991,5.0139681799,0.183508861
 C,0,0.3487500959,3.7525510097,0.2455193403
 C,0,-1.4025730327,0.6860587117,0.3350122558
 H,0,-3.5848085066,4.1812299062,0.1448564604
 H,0,-2.0780839484,6.154369629,0.0970122032
 H,0,0.3679406796,5.897969749,0.1656787555
 N,0,-2.4706634871,1.5317871635,0.2835899844
 C,0,-3.0122524114,-1.1966781692,0.3814121328
 C,0,-1.6312133502,-0.7303438566,0.3831647881
 C,0,-0.5991399996,-1.6673385484,0.4197455827
 C,0,-0.8759539589,-3.0313291294,0.4597474065
 C,0,-2.2368149766,-3.4710046006,0.4724169401
 C,0,-3.2980422919,-2.6036927569,0.4362575466
 H,0,0.4253319406,-1.317138485,0.4145178198
 H,0,-2.4286193774,-4.5380305884,0.5116695281
 C,0,0.2195148151,-4.0486191732,0.4868725222
 H,0,0.1195120356,-4.7423864079,-0.3538680834
 H,0,1.2026523898,-3.5807270249,0.4433211146
 H,0,0.1582066215,-4.6532698041,1.3977266906
 C,0,-4.7271993678,-3.0514587498,0.4428938176
 H,0,-5.2722601668,-2.6046502079,1.2788043955
 H,0,-5.2376851138,-2.7376611987,-0.4721223701
 H,0,-4.7878449568,-4.1367786114,0.5233705736
 O,0,-4.0001734249,-0.3581859091,0.326980688
 N,0,-0.1870403329,1.3013317658,0.3297777189
 H,0,1.7691748778,1.6511357216,0.3431294743
 C,0,1.7712566661,3.6294505591,0.2908768345
 H,0,2.3828013584,4.5253746999,0.2890253857
 N,0,2.3761466009,2.4806264052,0.3446786323
 C,0,3.8379068997,2.292453011,0.4113330346
 C,0,4.5090966342,2.6868732921,-0.911655259
 C,0,4.447426803,3.0546804762,1.5943524041
 H,0,3.9736466104,1.2208720502,0.5704879809
 C,0,6.0189777739,2.4317158219,-0.8318837583
 H,0,4.3209266657,3.7506862444,-1.0975251119
 H,0,4.0619831723,2.1245139927,-1.7352042851
 C,0,5.9566628209,2.7962102768,1.6690587765
 H,0,4.2717435943,4.127890519,1.4567373177
 H,0,3.9490160838,2.7559558569,2.5200985781
 C,0,6.6518830525,3.16730564,0.3540343355
 H,0,6.4928172388,2.7332337373,-1.7700556565
 H,0,6.1908935289,1.3539628428,-0.7223051818
 H,0,6.3812897489,3.3625096029,2.5026437466
 H,0,6.1286328708,1.7348075712,1.8848304202
 H,0,7.7199044556,2.9387270679,0.414592003
 H,0,6.5644937653,4.2492914805,0.1952747733
 H,0,-3.5567481072,0.6663448504,0.294396119
 Recover connectivity data from disk.
 ITRead=  0  0  0  0  0  0  0  0  0  0  0  0  0  0  0  0  0  0  0  0
 ITRead=  0  0  0  0  0  0  0  0  0  0  0  0  0  0  0  0  0  0  0  0
 ITRead=  0  0  0  0  0  0  0  0  0  0  0
 MicOpt= -1 -1 -1 -1 -1 -1 -1 -1 -1 -1 -1 -1 -1 -1 -1 -1 -1 -1 -1 -1
 MicOpt= -1 -1 -1 -1 -1 -1 -1 -1 -1 -1 -1 -1 -1 -1 -1 -1 -1 -1 -1 -1
 MicOpt= -1 -1 -1 -1 -1 -1 -1 -1 -1 -1 -1
 NAtoms=     51 NQM=       51 NQMF=       0 NMMI=      0 NMMIF=      0
                NMic=       0 NMicF=      0.
                    Isotopes and Nuclear Properties:
 (Nuclear quadrupole moments (NQMom) in fm**2, nuclear magnetic moments (NMagM)
  in nuclear magnetons)

  Atom         1           2           3           4           5           6           7           8           9          10
 IAtWgt=          12          12          12          12          12          12          12           1           1           1
 AtmWgt=  12.0000000  12.0000000  12.0000000  12.0000000  12.0000000  12.0000000  12.0000000   1.0078250   1.0078250   1.0078250
 NucSpn=           0           0           0           0           0           0           0           1           1           1
 AtZEff=   3.6000000   3.6000000   3.6000000   3.6000000   3.6000000   3.6000000   3.6000000   1.0000000   1.0000000   1.0000000
 NQMom=    0.0000000   0.0000000   0.0000000   0.0000000   0.0000000   0.0000000   0.0000000   0.0000000   0.0000000   0.0000000
 NMagM=    0.0000000   0.0000000   0.0000000   0.0000000   0.0000000   0.0000000   0.0000000   2.7928460   2.7928460   2.7928460
 AtZNuc=   6.0000000   6.0000000   6.0000000   6.0000000   6.0000000   6.0000000   6.0000000   1.0000000   1.0000000   1.0000000

  Atom        11          12          13          14          15          16          17          18          19          20
 IAtWgt=          14          12          12          12          12          12          12           1           1          12
 AtmWgt=  14.0030740  12.0000000  12.0000000  12.0000000  12.0000000  12.0000000  12.0000000   1.0078250   1.0078250  12.0000000
 NucSpn=           2           0           0           0           0           0           0           1           1           0
 AtZEff=   4.5500000   3.6000000   3.6000000   3.6000000   3.6000000   3.6000000   3.6000000   1.0000000   1.0000000   3.6000000
 NQMom=    2.0440000   0.0000000   0.0000000   0.0000000   0.0000000   0.0000000   0.0000000   0.0000000   0.0000000   0.0000000
 NMagM=    0.4037610   0.0000000   0.0000000   0.0000000   0.0000000   0.0000000   0.0000000   2.7928460   2.7928460   0.0000000
 AtZNuc=   7.0000000   6.0000000   6.0000000   6.0000000   6.0000000   6.0000000   6.0000000   1.0000000   1.0000000   6.0000000

  Atom        21          22          23          24          25          26          27          28          29          30
 IAtWgt=           1           1           1          12           1           1           1          16          14           1
 AtmWgt=   1.0078250   1.0078250   1.0078250  12.0000000   1.0078250   1.0078250   1.0078250  15.9949146  14.0030740   1.0078250
 NucSpn=           1           1           1           0           1           1           1           0           2           1
 AtZEff=   1.0000000   1.0000000   1.0000000   3.6000000   1.0000000   1.0000000   1.0000000   5.6000000   4.5500000   1.0000000
 NQMom=    0.0000000   0.0000000   0.0000000   0.0000000   0.0000000   0.0000000   0.0000000   0.0000000   2.0440000   0.0000000
 NMagM=    2.7928460   2.7928460   2.7928460   0.0000000   2.7928460   2.7928460   2.7928460   0.0000000   0.4037610   2.7928460
 AtZNuc=   1.0000000   1.0000000   1.0000000   6.0000000   1.0000000   1.0000000   1.0000000   8.0000000   7.0000000   1.0000000

  Atom        31          32          33          34          35          36          37          38          39          40
 IAtWgt=          12           1          14          12          12          12           1          12           1           1
 AtmWgt=  12.0000000   1.0078250  14.0030740  12.0000000  12.0000000  12.0000000   1.0078250  12.0000000   1.0078250   1.0078250
 NucSpn=           0           1           2           0           0           0           1           0           1           1
 AtZEff=   3.6000000   1.0000000   4.5500000   3.6000000   3.6000000   3.6000000   1.0000000   3.6000000   1.0000000   1.0000000
 NQMom=    0.0000000   0.0000000   2.0440000   0.0000000   0.0000000   0.0000000   0.0000000   0.0000000   0.0000000   0.0000000
 NMagM=    0.0000000   2.7928460   0.4037610   0.0000000   0.0000000   0.0000000   2.7928460   0.0000000   2.7928460   2.7928460
 AtZNuc=   6.0000000   1.0000000   7.0000000   6.0000000   6.0000000   6.0000000   1.0000000   6.0000000   1.0000000   1.0000000

  Atom        41          42          43          44          45          46          47          48          49          50
 IAtWgt=          12           1           1          12           1           1           1           1           1           1
 AtmWgt=  12.0000000   1.0078250   1.0078250  12.0000000   1.0078250   1.0078250   1.0078250   1.0078250   1.0078250   1.0078250
 NucSpn=           0           1           1           0           1           1           1           1           1           1
 AtZEff=   3.6000000   1.0000000   1.0000000   3.6000000   1.0000000   1.0000000   1.0000000   1.0000000   1.0000000   1.0000000
 NQMom=    0.0000000   0.0000000   0.0000000   0.0000000   0.0000000   0.0000000   0.0000000   0.0000000   0.0000000   0.0000000
 NMagM=    0.0000000   2.7928460   2.7928460   0.0000000   2.7928460   2.7928460   2.7928460   2.7928460   2.7928460   2.7928460
 AtZNuc=   6.0000000   1.0000000   1.0000000   6.0000000   1.0000000   1.0000000   1.0000000   1.0000000   1.0000000   1.0000000

  Atom        51
 IAtWgt=           1
 AtmWgt=   1.0078250
 NucSpn=           1
 AtZEff=   1.0000000
 NQMom=    0.0000000
 NMagM=    2.7928460
 AtZNuc=   1.0000000
 Leave Link  101 at Mon Dec 17 15:50:01 2018, MaxMem=  1342177280 cpu:               1.1 elap:               0.3
 (Enter /gpfs/apps/hpc/Apps/Restricted/Gaussian/Rev_A.03/g16/l103.exe)

 GradGradGradGradGradGradGradGradGradGradGradGradGradGradGradGradGradGrad
 Berny optimization.
 Initialization pass.
                           ----------------------------
                           !    Initial Parameters    !
                           ! (Angstroms and Degrees)  !
 --------------------------                            --------------------------
 ! Name  Definition              Value          Derivative Info.                !
 --------------------------------------------------------------------------------
 ! R1    R(1,2)                  1.4363         estimate D2E/DX2                !
 ! R2    R(1,6)                  1.4213         estimate D2E/DX2                !
 ! R3    R(1,29)                 1.354          estimate D2E/DX2                !
 ! R4    R(2,3)                  1.4018         estimate D2E/DX2                !
 ! R5    R(2,11)                 1.3616         estimate D2E/DX2                !
 ! R6    R(3,4)                  1.3927         estimate D2E/DX2                !
 ! R7    R(3,8)                  1.0832         estimate D2E/DX2                !
 ! R8    R(4,5)                  1.4068         estimate D2E/DX2                !
 ! R9    R(4,9)                  1.0828         estimate D2E/DX2                !
 ! R10   R(5,6)                  1.4013         estimate D2E/DX2                !
 ! R11   R(5,10)                 1.0836         estimate D2E/DX2                !
 ! R12   R(6,31)                 1.4285         estimate D2E/DX2                !
 ! R13   R(7,11)                 1.3633         estimate D2E/DX2                !
 ! R14   R(7,13)                 1.4355         estimate D2E/DX2                !
 ! R15   R(7,29)                 1.3624         estimate D2E/DX2                !
 ! R16   R(12,13)                1.4576         estimate D2E/DX2                !
 ! R17   R(12,17)                1.4368         estimate D2E/DX2                !
 ! R18   R(12,28)                1.2969         estimate D2E/DX2                !
 ! R19   R(13,14)                1.3944         estimate D2E/DX2                !
 ! R20   R(14,15)                1.3924         estimate D2E/DX2                !
 ! R21   R(14,18)                1.0827         estimate D2E/DX2                !
 ! R22   R(15,16)                1.4302         estimate D2E/DX2                !
 ! R23   R(15,20)                1.4952         estimate D2E/DX2                !
 ! R24   R(16,17)                1.371          estimate D2E/DX2                !
 ! R25   R(16,19)                1.0848         estimate D2E/DX2                !
 ! R26   R(17,24)                1.4977         estimate D2E/DX2                !
 ! R27   R(20,21)                1.0946         estimate D2E/DX2                !
 ! R28   R(20,22)                1.0897         estimate D2E/DX2                !
 ! R29   R(20,23)                1.095          estimate D2E/DX2                !
 ! R30   R(24,25)                1.0934         estimate D2E/DX2                !
 ! R31   R(24,26)                1.0938         estimate D2E/DX2                !
 ! R32   R(24,27)                1.09           estimate D2E/DX2                !
 ! R33   R(28,51)                1.1168         estimate D2E/DX2                !
 ! R34   R(29,30)                1.9873         estimate D2E/DX2                !
 ! R35   R(30,33)                1.0278         estimate D2E/DX2                !
 ! R36   R(31,32)                1.0847         estimate D2E/DX2                !
 ! R37   R(31,33)                1.2995         estimate D2E/DX2                !
 ! R38   R(33,34)                1.4753         estimate D2E/DX2                !
 ! R39   R(34,35)                1.535          estimate D2E/DX2                !
 ! R40   R(34,36)                1.5336         estimate D2E/DX2                !
 ! R41   R(34,37)                1.0918         estimate D2E/DX2                !
 ! R42   R(35,38)                1.5334         estimate D2E/DX2                !
 ! R43   R(35,39)                1.0962         estimate D2E/DX2                !
 ! R44   R(35,40)                1.0929         estimate D2E/DX2                !
 ! R45   R(36,41)                1.533          estimate D2E/DX2                !
 ! R46   R(36,42)                1.0962         estimate D2E/DX2                !
 ! R47   R(36,43)                1.093          estimate D2E/DX2                !
 ! R48   R(38,44)                1.5323         estimate D2E/DX2                !
 ! R49   R(38,45)                1.0934         estimate D2E/DX2                !
 ! R50   R(38,46)                1.0969         estimate D2E/DX2                !
 ! R51   R(41,44)                1.5331         estimate D2E/DX2                !
 ! R52   R(41,47)                1.0936         estimate D2E/DX2                !
 ! R53   R(41,48)                1.0967         estimate D2E/DX2                !
 ! R54   R(44,49)                1.0939         estimate D2E/DX2                !
 ! R55   R(44,50)                1.0971         estimate D2E/DX2                !
 ! A1    A(2,1,6)              120.2719         estimate D2E/DX2                !
 ! A2    A(2,1,29)             110.2067         estimate D2E/DX2                !
 ! A3    A(6,1,29)             129.5211         estimate D2E/DX2                !
 ! A4    A(1,2,3)              121.0041         estimate D2E/DX2                !
 ! A5    A(1,2,11)             106.7067         estimate D2E/DX2                !
 ! A6    A(3,2,11)             132.2888         estimate D2E/DX2                !
 ! A7    A(2,3,4)              117.914          estimate D2E/DX2                !
 ! A8    A(2,3,8)              121.039          estimate D2E/DX2                !
 ! A9    A(4,3,8)              121.0469         estimate D2E/DX2                !
 ! A10   A(3,4,5)              121.7924         estimate D2E/DX2                !
 ! A11   A(3,4,9)              119.4104         estimate D2E/DX2                !
 ! A12   A(5,4,9)              118.7969         estimate D2E/DX2                !
 ! A13   A(4,5,6)              121.6084         estimate D2E/DX2                !
 ! A14   A(4,5,10)             119.4029         estimate D2E/DX2                !
 ! A15   A(6,5,10)             118.9886         estimate D2E/DX2                !
 ! A16   A(1,6,5)              117.4074         estimate D2E/DX2                !
 ! A17   A(1,6,31)             121.8978         estimate D2E/DX2                !
 ! A18   A(5,6,31)             120.6929         estimate D2E/DX2                !
 ! A19   A(11,7,13)            119.2451         estimate D2E/DX2                !
 ! A20   A(11,7,29)            114.7518         estimate D2E/DX2                !
 ! A21   A(13,7,29)            126.0026         estimate D2E/DX2                !
 ! A22   A(2,11,7)             105.0689         estimate D2E/DX2                !
 ! A23   A(13,12,17)           120.1125         estimate D2E/DX2                !
 ! A24   A(13,12,28)           120.992          estimate D2E/DX2                !
 ! A25   A(17,12,28)           118.8952         estimate D2E/DX2                !
 ! A26   A(7,13,12)            117.8084         estimate D2E/DX2                !
 ! A27   A(7,13,14)            123.0921         estimate D2E/DX2                !
 ! A28   A(12,13,14)           119.0973         estimate D2E/DX2                !
 ! A29   A(13,14,15)           120.788          estimate D2E/DX2                !
 ! A30   A(13,14,18)           118.8727         estimate D2E/DX2                !
 ! A31   A(15,14,18)           120.3392         estimate D2E/DX2                !
 ! A32   A(14,15,16)           119.3791         estimate D2E/DX2                !
 ! A33   A(14,15,20)           121.4236         estimate D2E/DX2                !
 ! A34   A(16,15,20)           119.1971         estimate D2E/DX2                !
 ! A35   A(15,16,17)           122.8066         estimate D2E/DX2                !
 ! A36   A(15,16,19)           118.095          estimate D2E/DX2                !
 ! A37   A(17,16,19)           119.0984         estimate D2E/DX2                !
 ! A38   A(12,17,16)           117.8093         estimate D2E/DX2                !
 ! A39   A(12,17,24)           118.8655         estimate D2E/DX2                !
 ! A40   A(16,17,24)           123.3241         estimate D2E/DX2                !
 ! A41   A(15,20,21)           110.5088         estimate D2E/DX2                !
 ! A42   A(15,20,22)           111.602          estimate D2E/DX2                !
 ! A43   A(15,20,23)           110.4728         estimate D2E/DX2                !
 ! A44   A(21,20,22)           108.8977         estimate D2E/DX2                !
 ! A45   A(21,20,23)           106.4879         estimate D2E/DX2                !
 ! A46   A(22,20,23)           108.7154         estimate D2E/DX2                !
 ! A47   A(17,24,25)           110.9109         estimate D2E/DX2                !
 ! A48   A(17,24,26)           110.848          estimate D2E/DX2                !
 ! A49   A(17,24,27)           110.5555         estimate D2E/DX2                !
 ! A50   A(25,24,26)           106.8383         estimate D2E/DX2                !
 ! A51   A(25,24,27)           108.8273         estimate D2E/DX2                !
 ! A52   A(26,24,27)           108.7517         estimate D2E/DX2                !
 ! A53   A(12,28,51)           106.97           estimate D2E/DX2                !
 ! A54   A(1,29,7)             103.2658         estimate D2E/DX2                !
 ! A55   A(1,29,30)             93.4538         estimate D2E/DX2                !
 ! A56   A(7,29,30)            163.28           estimate D2E/DX2                !
 ! A57   A(29,30,33)           136.3321         estimate D2E/DX2                !
 ! A58   A(6,31,32)            119.3511         estimate D2E/DX2                !
 ! A59   A(6,31,33)            122.7535         estimate D2E/DX2                !
 ! A60   A(32,31,33)           117.8935         estimate D2E/DX2                !
 ! A61   A(30,33,31)           116.0094         estimate D2E/DX2                !
 ! A62   A(30,33,34)           118.8312         estimate D2E/DX2                !
 ! A63   A(31,33,34)           125.1589         estimate D2E/DX2                !
 ! A64   A(33,34,35)           111.1931         estimate D2E/DX2                !
 ! A65   A(33,34,36)           111.4222         estimate D2E/DX2                !
 ! A66   A(33,34,37)           104.7708         estimate D2E/DX2                !
 ! A67   A(35,34,36)           111.3056         estimate D2E/DX2                !
 ! A68   A(35,34,37)           108.8722         estimate D2E/DX2                !
 ! A69   A(36,34,37)           109.0227         estimate D2E/DX2                !
 ! A70   A(34,35,38)           110.057          estimate D2E/DX2                !
 ! A71   A(34,35,39)           108.689          estimate D2E/DX2                !
 ! A72   A(34,35,40)           109.777          estimate D2E/DX2                !
 ! A73   A(38,35,39)           109.8364         estimate D2E/DX2                !
 ! A74   A(38,35,40)           110.8808         estimate D2E/DX2                !
 ! A75   A(39,35,40)           107.5395         estimate D2E/DX2                !
 ! A76   A(34,36,41)           110.1855         estimate D2E/DX2                !
 ! A77   A(34,36,42)           109.0298         estimate D2E/DX2                !
 ! A78   A(34,36,43)           109.6501         estimate D2E/DX2                !
 ! A79   A(41,36,42)           109.2063         estimate D2E/DX2                !
 ! A80   A(41,36,43)           111.1966         estimate D2E/DX2                !
 ! A81   A(42,36,43)           107.5075         estimate D2E/DX2                !
 ! A82   A(35,38,44)           111.5361         estimate D2E/DX2                !
 ! A83   A(35,38,45)           109.6449         estimate D2E/DX2                !
 ! A84   A(35,38,46)           108.8465         estimate D2E/DX2                !
 ! A85   A(44,38,45)           110.6508         estimate D2E/DX2                !
 ! A86   A(44,38,46)           109.2461         estimate D2E/DX2                !
 ! A87   A(45,38,46)           106.7827         estimate D2E/DX2                !
 ! A88   A(36,41,44)           111.3356         estimate D2E/DX2                !
 ! A89   A(36,41,47)           109.3968         estimate D2E/DX2                !
 ! A90   A(36,41,48)           109.0953         estimate D2E/DX2                !
 ! A91   A(44,41,47)           110.635          estimate D2E/DX2                !
 ! A92   A(44,41,48)           109.3858         estimate D2E/DX2                !
 ! A93   A(47,41,48)           106.8776         estimate D2E/DX2                !
 ! A94   A(38,44,41)           111.1216         estimate D2E/DX2                !
 ! A95   A(38,44,49)           110.2307         estimate D2E/DX2                !
 ! A96   A(38,44,50)           109.1808         estimate D2E/DX2                !
 ! A97   A(41,44,49)           110.1629         estimate D2E/DX2                !
 ! A98   A(41,44,50)           109.0711         estimate D2E/DX2                !
 ! A99   A(49,44,50)           106.9703         estimate D2E/DX2                !
 ! D1    D(6,1,2,3)              0.5098         estimate D2E/DX2                !
 ! D2    D(6,1,2,11)          -179.6983         estimate D2E/DX2                !
 ! D3    D(29,1,2,3)          -179.6844         estimate D2E/DX2                !
 ! D4    D(29,1,2,11)            0.1075         estimate D2E/DX2                !
 ! D5    D(2,1,6,5)             -0.2426         estimate D2E/DX2                !
 ! D6    D(2,1,6,31)           179.2572         estimate D2E/DX2                !
 ! D7    D(29,1,6,5)           179.9937         estimate D2E/DX2                !
 ! D8    D(29,1,6,31)           -0.5066         estimate D2E/DX2                !
 ! D9    D(2,1,29,7)            -0.0741         estimate D2E/DX2                !
 ! D10   D(2,1,29,30)          179.8123         estimate D2E/DX2                !
 ! D11   D(6,1,29,7)           179.7085         estimate D2E/DX2                !
 ! D12   D(6,1,29,30)           -0.4052         estimate D2E/DX2                !
 ! D13   D(1,2,3,4)             -0.3857         estimate D2E/DX2                !
 ! D14   D(1,2,3,8)            179.7021         estimate D2E/DX2                !
 ! D15   D(11,2,3,4)           179.8837         estimate D2E/DX2                !
 ! D16   D(11,2,3,8)            -0.0284         estimate D2E/DX2                !
 ! D17   D(1,2,11,7)            -0.0904         estimate D2E/DX2                !
 ! D18   D(3,2,11,7)           179.6684         estimate D2E/DX2                !
 ! D19   D(2,3,4,5)              0.013          estimate D2E/DX2                !
 ! D20   D(2,3,4,9)           -179.8053         estimate D2E/DX2                !
 ! D21   D(8,3,4,5)            179.9251         estimate D2E/DX2                !
 ! D22   D(8,3,4,9)              0.1069         estimate D2E/DX2                !
 ! D23   D(3,4,5,6)              0.2498         estimate D2E/DX2                !
 ! D24   D(3,4,5,10)          -179.6664         estimate D2E/DX2                !
 ! D25   D(9,4,5,6)           -179.9308         estimate D2E/DX2                !
 ! D26   D(9,4,5,10)             0.153          estimate D2E/DX2                !
 ! D27   D(4,5,6,1)             -0.1265         estimate D2E/DX2                !
 ! D28   D(4,5,6,31)          -179.6326         estimate D2E/DX2                !
 ! D29   D(10,5,6,1)           179.79           estimate D2E/DX2                !
 ! D30   D(10,5,6,31)            0.2839         estimate D2E/DX2                !
 ! D31   D(1,6,31,32)         -178.7495         estimate D2E/DX2                !
 ! D32   D(1,6,31,33)            0.7349         estimate D2E/DX2                !
 ! D33   D(5,6,31,32)            0.734          estimate D2E/DX2                !
 ! D34   D(5,6,31,33)         -179.7816         estimate D2E/DX2                !
 ! D35   D(13,7,11,2)         -179.704          estimate D2E/DX2                !
 ! D36   D(29,7,11,2)            0.0496         estimate D2E/DX2                !
 ! D37   D(11,7,13,12)          -0.3094         estimate D2E/DX2                !
 ! D38   D(11,7,13,14)         179.1403         estimate D2E/DX2                !
 ! D39   D(29,7,13,12)         179.9672         estimate D2E/DX2                !
 ! D40   D(29,7,13,14)          -0.5831         estimate D2E/DX2                !
 ! D41   D(11,7,29,1)            0.0164         estimate D2E/DX2                !
 ! D42   D(11,7,29,30)        -179.5894         estimate D2E/DX2                !
 ! D43   D(13,7,29,1)          179.7507         estimate D2E/DX2                !
 ! D44   D(13,7,29,30)           0.1449         estimate D2E/DX2                !
 ! D45   D(17,12,13,7)        -179.6406         estimate D2E/DX2                !
 ! D46   D(17,12,13,14)          0.8871         estimate D2E/DX2                !
 ! D47   D(28,12,13,7)           0.5551         estimate D2E/DX2                !
 ! D48   D(28,12,13,14)       -178.9172         estimate D2E/DX2                !
 ! D49   D(13,12,17,16)         -0.794          estimate D2E/DX2                !
 ! D50   D(13,12,17,24)        179.5672         estimate D2E/DX2                !
 ! D51   D(28,12,17,16)        179.0144         estimate D2E/DX2                !
 ! D52   D(28,12,17,24)         -0.6244         estimate D2E/DX2                !
 ! D53   D(13,12,28,51)         -0.3505         estimate D2E/DX2                !
 ! D54   D(17,12,28,51)        179.8428         estimate D2E/DX2                !
 ! D55   D(7,13,14,15)        -179.7059         estimate D2E/DX2                !
 ! D56   D(7,13,14,18)           0.1698         estimate D2E/DX2                !
 ! D57   D(12,13,14,15)         -0.263          estimate D2E/DX2                !
 ! D58   D(12,13,14,18)        179.6127         estimate D2E/DX2                !
 ! D59   D(13,14,15,16)         -0.4248         estimate D2E/DX2                !
 ! D60   D(13,14,15,20)        179.4433         estimate D2E/DX2                !
 ! D61   D(18,14,15,16)        179.7013         estimate D2E/DX2                !
 ! D62   D(18,14,15,20)         -0.4307         estimate D2E/DX2                !
 ! D63   D(14,15,16,17)          0.5221         estimate D2E/DX2                !
 ! D64   D(14,15,16,19)       -179.5239         estimate D2E/DX2                !
 ! D65   D(20,15,16,17)       -179.3489         estimate D2E/DX2                !
 ! D66   D(20,15,16,19)          0.6051         estimate D2E/DX2                !
 ! D67   D(14,15,20,21)       -122.9165         estimate D2E/DX2                !
 ! D68   D(14,15,20,22)         -1.582          estimate D2E/DX2                !
 ! D69   D(14,15,20,23)        119.4962         estimate D2E/DX2                !
 ! D70   D(16,15,20,21)         56.9518         estimate D2E/DX2                !
 ! D71   D(16,15,20,22)        178.2863         estimate D2E/DX2                !
 ! D72   D(16,15,20,23)        -60.6355         estimate D2E/DX2                !
 ! D73   D(15,16,17,12)          0.0978         estimate D2E/DX2                !
 ! D74   D(15,16,17,24)        179.7192         estimate D2E/DX2                !
 ! D75   D(19,16,17,12)       -179.8558         estimate D2E/DX2                !
 ! D76   D(19,16,17,24)         -0.2344         estimate D2E/DX2                !
 ! D77   D(12,17,24,25)        -57.118          estimate D2E/DX2                !
 ! D78   D(12,17,24,26)         61.393          estimate D2E/DX2                !
 ! D79   D(12,17,24,27)       -177.9309         estimate D2E/DX2                !
 ! D80   D(16,17,24,25)        123.2644         estimate D2E/DX2                !
 ! D81   D(16,17,24,26)       -118.2246         estimate D2E/DX2                !
 ! D82   D(16,17,24,27)          2.4514         estimate D2E/DX2                !
 ! D83   D(1,29,30,33)           2.1533         estimate D2E/DX2                !
 ! D84   D(7,29,30,33)        -178.2311         estimate D2E/DX2                !
 ! D85   D(29,30,33,31)         -2.2156         estimate D2E/DX2                !
 ! D86   D(29,30,33,34)        177.5585         estimate D2E/DX2                !
 ! D87   D(6,31,33,30)           0.6172         estimate D2E/DX2                !
 ! D88   D(6,31,33,34)        -179.1408         estimate D2E/DX2                !
 ! D89   D(32,31,33,30)       -179.8913         estimate D2E/DX2                !
 ! D90   D(32,31,33,34)          0.3507         estimate D2E/DX2                !
 ! D91   D(30,33,34,35)        110.7911         estimate D2E/DX2                !
 ! D92   D(30,33,34,36)       -124.4067         estimate D2E/DX2                !
 ! D93   D(30,33,34,37)         -6.6612         estimate D2E/DX2                !
 ! D94   D(31,33,34,35)        -69.4572         estimate D2E/DX2                !
 ! D95   D(31,33,34,36)         55.345          estimate D2E/DX2                !
 ! D96   D(31,33,34,37)        173.0905         estimate D2E/DX2                !
 ! D97   D(33,34,35,38)       -177.8782         estimate D2E/DX2                !
 ! D98   D(33,34,35,39)         61.8002         estimate D2E/DX2                !
 ! D99   D(33,34,35,40)        -55.5683         estimate D2E/DX2                !
 ! D100  D(36,34,35,38)         57.254          estimate D2E/DX2                !
 ! D101  D(36,34,35,39)        -63.0676         estimate D2E/DX2                !
 ! D102  D(36,34,35,40)        179.5639         estimate D2E/DX2                !
 ! D103  D(37,34,35,38)        -62.9475         estimate D2E/DX2                !
 ! D104  D(37,34,35,39)        176.7309         estimate D2E/DX2                !
 ! D105  D(37,34,35,40)         59.3625         estimate D2E/DX2                !
 ! D106  D(33,34,36,41)        177.8136         estimate D2E/DX2                !
 ! D107  D(33,34,36,42)        -62.3475         estimate D2E/DX2                !
 ! D108  D(33,34,36,43)         55.1078         estimate D2E/DX2                !
 ! D109  D(35,34,36,41)        -57.4472         estimate D2E/DX2                !
 ! D110  D(35,34,36,42)         62.3917         estimate D2E/DX2                !
 ! D111  D(35,34,36,43)        179.847          estimate D2E/DX2                !
 ! D112  D(37,34,36,41)         62.6654         estimate D2E/DX2                !
 ! D113  D(37,34,36,42)       -177.4957         estimate D2E/DX2                !
 ! D114  D(37,34,36,43)        -60.0404         estimate D2E/DX2                !
 ! D115  D(34,35,38,44)        -55.9715         estimate D2E/DX2                !
 ! D116  D(34,35,38,45)       -178.8899         estimate D2E/DX2                !
 ! D117  D(34,35,38,46)         64.6354         estimate D2E/DX2                !
 ! D118  D(39,35,38,44)         63.6549         estimate D2E/DX2                !
 ! D119  D(39,35,38,45)        -59.2636         estimate D2E/DX2                !
 ! D120  D(39,35,38,46)       -175.7382         estimate D2E/DX2                !
 ! D121  D(40,35,38,44)       -177.6265         estimate D2E/DX2                !
 ! D122  D(40,35,38,45)         59.455          estimate D2E/DX2                !
 ! D123  D(40,35,38,46)        -57.0196         estimate D2E/DX2                !
 ! D124  D(34,36,41,44)         56.1739         estimate D2E/DX2                !
 ! D125  D(34,36,41,47)        178.7647         estimate D2E/DX2                !
 ! D126  D(34,36,41,48)        -64.6447         estimate D2E/DX2                !
 ! D127  D(42,36,41,44)        -63.5582         estimate D2E/DX2                !
 ! D128  D(42,36,41,47)         59.0327         estimate D2E/DX2                !
 ! D129  D(42,36,41,48)        175.6232         estimate D2E/DX2                !
 ! D130  D(43,36,41,44)        177.9669         estimate D2E/DX2                !
 ! D131  D(43,36,41,47)        -59.4422         estimate D2E/DX2                !
 ! D132  D(43,36,41,48)         57.1483         estimate D2E/DX2                !
 ! D133  D(35,38,44,41)         55.3041         estimate D2E/DX2                !
 ! D134  D(35,38,44,49)        177.7278         estimate D2E/DX2                !
 ! D135  D(35,38,44,50)        -65.0432         estimate D2E/DX2                !
 ! D136  D(45,38,44,41)        177.6461         estimate D2E/DX2                !
 ! D137  D(45,38,44,49)        -59.9301         estimate D2E/DX2                !
 ! D138  D(45,38,44,50)         57.2989         estimate D2E/DX2                !
 ! D139  D(46,38,44,41)        -65.0685         estimate D2E/DX2                !
 ! D140  D(46,38,44,49)         57.3552         estimate D2E/DX2                !
 ! D141  D(46,38,44,50)        174.5842         estimate D2E/DX2                !
 ! D142  D(36,41,44,38)        -55.3108         estimate D2E/DX2                !
 ! D143  D(36,41,44,49)       -177.7737         estimate D2E/DX2                !
 ! D144  D(36,41,44,50)         65.1013         estimate D2E/DX2                !
 ! D145  D(47,41,44,38)       -177.1863         estimate D2E/DX2                !
 ! D146  D(47,41,44,49)         60.3508         estimate D2E/DX2                !
 ! D147  D(47,41,44,50)        -56.7742         estimate D2E/DX2                !
 ! D148  D(48,41,44,38)         65.3373         estimate D2E/DX2                !
 ! D149  D(48,41,44,49)        -57.1257         estimate D2E/DX2                !
 ! D150  D(48,41,44,50)       -174.2506         estimate D2E/DX2                !
 --------------------------------------------------------------------------------
 Trust Radius=3.00D-01 FncErr=1.00D-07 GrdErr=1.00D-07 EigMax=2.50D+02 EigMin=1.00D-04
 Number of steps in this run=    306 maximum allowed number of steps=    306.
 GradGradGradGradGradGradGradGradGradGradGradGradGradGradGradGradGradGrad

 Leave Link  103 at Mon Dec 17 15:50:02 2018, MaxMem=  1342177280 cpu:               0.1 elap:               0.0
 (Enter /gpfs/apps/hpc/Apps/Restricted/Gaussian/Rev_A.03/g16/l202.exe)
 Symmetry turned off by external request.
 Stoichiometry    C22H25N3O(1+,2)
 Framework group  C1[X(C22H25N3O)]
 Deg. of freedom   147
 Full point group                 C1      NOp   1
                          Input orientation:                          
 ---------------------------------------------------------------------
 Center     Atomic      Atomic             Coordinates (Angstroms)
 Number     Number       Type             X           Y           Z
 ---------------------------------------------------------------------
      1          6           0       -0.504640    2.616260    0.271892
      2          6           0       -1.931141    2.781197    0.240674
      3          6           0       -2.509247    4.056409    0.173246
      4          6           0       -1.657356    5.157843    0.145789
      5          6           0       -0.258430    5.013968    0.183509
      6          6           0        0.348750    3.752551    0.245519
      7          6           0       -1.402573    0.686059    0.335012
      8          1           0       -3.584809    4.181230    0.144856
      9          1           0       -2.078084    6.154370    0.097012
     10          1           0        0.367941    5.897970    0.165679
     11          7           0       -2.470663    1.531787    0.283590
     12          6           0       -3.012252   -1.196678    0.381412
     13          6           0       -1.631213   -0.730344    0.383165
     14          6           0       -0.599140   -1.667339    0.419746
     15          6           0       -0.875954   -3.031329    0.459747
     16          6           0       -2.236815   -3.471005    0.472417
     17          6           0       -3.298042   -2.603693    0.436258
     18          1           0        0.425332   -1.317138    0.414518
     19          1           0       -2.428619   -4.538031    0.511670
     20          6           0        0.219515   -4.048619    0.486873
     21          1           0        0.119512   -4.742386   -0.353868
     22          1           0        1.202652   -3.580727    0.443321
     23          1           0        0.158207   -4.653270    1.397727
     24          6           0       -4.727199   -3.051459    0.442894
     25          1           0       -5.272260   -2.604650    1.278804
     26          1           0       -5.237685   -2.737661   -0.472122
     27          1           0       -4.787845   -4.136779    0.523371
     28          8           0       -4.000173   -0.358186    0.326981
     29          7           0       -0.187040    1.301332    0.329778
     30          1           0        1.769175    1.651136    0.343129
     31          6           0        1.771257    3.629451    0.290877
     32          1           0        2.382801    4.525375    0.289025
     33          7           0        2.376147    2.480626    0.344679
     34          6           0        3.837907    2.292453    0.411333
     35          6           0        4.509097    2.686873   -0.911655
     36          6           0        4.447427    3.054680    1.594352
     37          1           0        3.973647    1.220872    0.570488
     38          6           0        6.018978    2.431716   -0.831884
     39          1           0        4.320927    3.750686   -1.097525
     40          1           0        4.061983    2.124514   -1.735204
     41          6           0        5.956663    2.796210    1.669059
     42          1           0        4.271744    4.127891    1.456737
     43          1           0        3.949016    2.755956    2.520099
     44          6           0        6.651883    3.167306    0.354034
     45          1           0        6.492817    2.733234   -1.770056
     46          1           0        6.190894    1.353963   -0.722305
     47          1           0        6.381290    3.362510    2.502644
     48          1           0        6.128633    1.734808    1.884830
     49          1           0        7.719904    2.938727    0.414592
     50          1           0        6.564494    4.249291    0.195275
     51          1           0       -3.556748    0.666345    0.294396
 ---------------------------------------------------------------------
 Rotational constants (GHZ):           0.2883475           0.1046291           0.0792907
 Leave Link  202 at Mon Dec 17 15:50:02 2018, MaxMem=  1342177280 cpu:               0.1 elap:               0.0
 (Enter /gpfs/apps/hpc/Apps/Restricted/Gaussian/Rev_A.03/g16/l716.exe)
 Electric field and nuclear coordinate derivatives read from checkpoint file.
 Dipole        = 1.91501493D+00 2.20127569D+00 6.85366736D-01
 Polarizability= 5.12431848D+02 1.06288774D+02 9.33291115D+02
                 1.35479325D+00-2.58700095D+01 1.76030032D+02
 Full mass-weighted force constant matrix:
 Low frequencies --- -724.1026  -13.5406   -4.2849   -0.0018    0.0007    0.0021
 Low frequencies ---   17.8822   36.9175   39.9197
 ******    1 imaginary frequencies (negative Signs) ****** 
 Diagonal vibrational polarizability:
       78.6772686     246.3250411      57.0201474
 Harmonic frequencies (cm**-1), IR intensities (KM/Mole), Raman scattering
 activities (A**4/AMU), depolarization ratios for plane and unpolarized
 incident light, reduced masses (AMU), force constants (mDyne/A),
 and normal coordinates:
                      1                      2                      3
                      A                      A                      A
 Frequencies --   -724.1018                35.9250                39.5113
 Red. masses --      1.3352                 4.3811                 4.4712
 Frc consts  --      0.4125                 0.0033                 0.0041
 IR Inten    --    356.8064                 0.0475                 0.1107
  Atom  AN      X      Y      Z        X      Y      Z        X      Y      Z
     1   6    -0.04   0.01  -0.00     0.00  -0.01  -0.10     0.04  -0.06   0.01
     2   6    -0.02   0.02  -0.00    -0.00  -0.00  -0.01     0.04  -0.04   0.01
     3   6    -0.01  -0.01  -0.00    -0.00   0.00   0.06     0.05  -0.03   0.00
     4   6     0.01   0.01   0.00    -0.00   0.00   0.05     0.06  -0.04  -0.02
     5   6    -0.01   0.01  -0.00    -0.00  -0.00  -0.02     0.06  -0.06  -0.03
     6   6    -0.02  -0.01   0.00     0.00  -0.00  -0.09     0.04  -0.07  -0.02
     7   6     0.03  -0.01   0.00     0.00  -0.00  -0.08    -0.00  -0.05   0.03
     8   1    -0.01   0.01  -0.00    -0.00   0.00   0.13     0.05  -0.02   0.01
     9   1    -0.00   0.00   0.00    -0.00   0.00   0.10     0.07  -0.04  -0.03
    10   1    -0.00   0.00  -0.00    -0.00  -0.00  -0.02     0.07  -0.07  -0.05
    11   7     0.00  -0.08   0.00    -0.00  -0.00  -0.01     0.01  -0.02   0.03
    12   6    -0.03   0.03  -0.00    -0.00   0.00   0.06    -0.05  -0.01   0.01
    13   6     0.01  -0.03   0.00     0.00  -0.00  -0.07    -0.04  -0.04   0.02
    14   6    -0.01   0.02  -0.00    -0.00  -0.01  -0.15    -0.07  -0.07   0.03
    15   6    -0.02  -0.02   0.00    -0.00  -0.01  -0.10    -0.11  -0.07   0.01
    16   6    -0.00  -0.01   0.00    -0.00  -0.00   0.03    -0.12  -0.03  -0.01
    17   6    -0.00  -0.02   0.00    -0.00   0.00   0.11    -0.09   0.00  -0.01
    18   1    -0.00   0.00   0.00     0.00  -0.01  -0.25    -0.06  -0.10   0.04
    19   1     0.00  -0.01  -0.00    -0.01   0.00   0.07    -0.15  -0.02  -0.02
    20   6    -0.00   0.00  -0.00    -0.01  -0.01  -0.16    -0.14  -0.10   0.01
    21   1    -0.00  -0.00   0.00    -0.10  -0.07  -0.10    -0.17  -0.11   0.03
    22   1    -0.01   0.01  -0.00    -0.01  -0.02  -0.29    -0.12  -0.13  -0.00
    23   1    -0.00   0.00  -0.00     0.09   0.05  -0.11    -0.14  -0.08   0.02
    24   6     0.00  -0.01   0.00    -0.01   0.01   0.24    -0.11   0.04  -0.03
    25   1     0.01   0.01  -0.00     0.07   0.02   0.28    -0.10   0.05  -0.03
    26   1     0.01   0.01   0.00    -0.08   0.01   0.28    -0.09   0.05  -0.03
    27   1    -0.01  -0.00   0.00    -0.01   0.01   0.25    -0.13   0.04  -0.03
    28   8     0.08   0.05  -0.00    -0.00   0.00   0.14    -0.04   0.02   0.00
    29   7    -0.03  -0.01   0.00     0.00  -0.01  -0.14     0.01  -0.07   0.02
    30   1     0.01  -0.00  -0.00     0.01  -0.01  -0.12     0.10  -0.06   0.02
    31   6    -0.01  -0.01  -0.00     0.00  -0.00  -0.09     0.04  -0.06  -0.04
    32   1    -0.02  -0.00  -0.00    -0.00  -0.00  -0.06     0.03  -0.05  -0.07
    33   7    -0.00  -0.00  -0.00     0.00  -0.00  -0.10     0.07  -0.04  -0.02
    34   6    -0.00   0.00  -0.00     0.00   0.00  -0.02     0.08   0.03  -0.03
    35   6    -0.00   0.00   0.00     0.08  -0.00   0.02     0.06   0.13  -0.01
    36   6    -0.00   0.00  -0.00    -0.07   0.02   0.01     0.04   0.01   0.01
    37   1     0.00   0.00  -0.00    -0.00   0.00  -0.00     0.14   0.03  -0.08
    38   6    -0.00  -0.00  -0.00     0.08  -0.01   0.11     0.08   0.23  -0.01
    39   1     0.00   0.00  -0.00     0.09  -0.01   0.00    -0.00   0.13   0.04
    40   1     0.00   0.00   0.00     0.13  -0.01  -0.00     0.10   0.14  -0.03
    41   6    -0.00   0.00  -0.00    -0.07   0.02   0.10     0.06   0.10  -0.00
    42   1    -0.00   0.00  -0.00    -0.06   0.01  -0.01    -0.03   0.00   0.05
    43   1    -0.00   0.00  -0.00    -0.12   0.02  -0.01     0.05  -0.06  -0.01
    44   6     0.00  -0.00  -0.00     0.01   0.00   0.14     0.02   0.23   0.02
    45   1     0.00  -0.00   0.00     0.13  -0.01   0.13     0.07   0.28   0.00
    46   1    -0.00  -0.00   0.00     0.07  -0.01   0.13     0.15   0.23  -0.04
    47   1     0.00  -0.00  -0.00    -0.12   0.04   0.12     0.02   0.09   0.03
    48   1    -0.00  -0.00  -0.00    -0.08   0.03   0.13     0.13   0.10  -0.06
    49   1     0.00  -0.00   0.00     0.00  -0.00   0.21     0.04   0.33   0.00
    50   1     0.00  -0.00  -0.00     0.03   0.00   0.12    -0.08   0.23   0.07
    51   1     0.68   0.71  -0.02    -0.00   0.00   0.09    -0.02  -0.00   0.01
                      4                      5                      6
                      A                      A                      A
 Frequencies --     55.9967                63.0573                66.4700
 Red. masses --      4.6787                 3.1186                 4.4201
 Frc consts  --      0.0086                 0.0073                 0.0115
 IR Inten    --      2.4648                 0.1584                 2.1660
  Atom  AN      X      Y      Z        X      Y      Z        X      Y      Z
     1   6    -0.01   0.01   0.02     0.01  -0.01   0.03    -0.00  -0.01  -0.06
     2   6    -0.01   0.01   0.12     0.01  -0.01   0.02    -0.00  -0.00   0.01
     3   6    -0.01   0.01   0.11     0.00  -0.02   0.00    -0.01   0.00   0.16
     4   6    -0.01   0.01  -0.02    -0.00  -0.01  -0.02    -0.01   0.01   0.24
     5   6    -0.01   0.00  -0.13    -0.00  -0.01  -0.01    -0.00   0.00   0.16
     6   6    -0.01   0.01  -0.11     0.00  -0.01   0.01    -0.00  -0.01   0.01
     7   6    -0.00   0.01   0.14     0.00  -0.01   0.03    -0.00  -0.01  -0.11
     8   1    -0.01   0.01   0.19     0.00  -0.02  -0.00    -0.01   0.01   0.24
     9   1    -0.01   0.00  -0.03    -0.00  -0.02  -0.04    -0.01   0.01   0.37
    10   1    -0.00   0.00  -0.23    -0.01  -0.01  -0.03    -0.00   0.00   0.23
    11   7    -0.01   0.01   0.19     0.00  -0.01   0.03    -0.00  -0.01  -0.04
    12   6     0.01   0.00   0.04    -0.01  -0.00   0.01    -0.01  -0.01  -0.08
    13   6     0.00   0.01   0.12    -0.01  -0.01   0.01    -0.01  -0.01  -0.07
    14   6     0.01   0.02   0.11    -0.02  -0.02  -0.02    -0.01  -0.01   0.02
    15   6     0.02   0.01   0.01    -0.03  -0.02  -0.05    -0.01  -0.00   0.10
    16   6     0.02   0.00  -0.10    -0.03  -0.01  -0.06    -0.01  -0.00   0.07
    17   6     0.01  -0.00  -0.09    -0.02  -0.00  -0.03    -0.01  -0.00  -0.03
    18   1     0.01   0.03   0.17    -0.01  -0.03  -0.01    -0.01  -0.01   0.03
    19   1     0.03  -0.00  -0.19    -0.04  -0.01  -0.09    -0.01   0.00   0.14
    20   6     0.02   0.02   0.00    -0.04  -0.03  -0.09    -0.02  -0.00   0.22
    21   1     0.11   0.11  -0.08    -0.05  -0.01  -0.10    -0.01  -0.09   0.29
    22   1     0.02   0.04   0.14    -0.03  -0.04  -0.08    -0.01  -0.01   0.19
    23   1    -0.05  -0.08  -0.07    -0.04  -0.05  -0.10    -0.03   0.09   0.28
    24   6     0.02  -0.02  -0.19    -0.03   0.01  -0.03    -0.01  -0.00  -0.06
    25   1    -0.04  -0.06  -0.21    -0.02   0.00  -0.02    -0.04   0.03  -0.10
    26   1     0.07   0.01  -0.21    -0.03   0.02  -0.02     0.02  -0.03  -0.09
    27   1     0.03  -0.02  -0.25    -0.04   0.01  -0.04    -0.01   0.00  -0.03
    28   8     0.00   0.00   0.08    -0.01   0.00   0.03    -0.01  -0.01  -0.13
    29   7    -0.00   0.01   0.05     0.00  -0.01   0.03    -0.00  -0.01  -0.13
    30   1    -0.02   0.00  -0.06     0.04   0.01   0.05     0.03  -0.01  -0.18
    31   6    -0.00  -0.00  -0.19     0.00   0.01   0.03    -0.00  -0.00  -0.03
    32   1     0.00  -0.01  -0.27    -0.01   0.02   0.03    -0.01   0.00   0.04
    33   7    -0.01  -0.00  -0.15     0.02   0.02   0.05     0.01   0.00  -0.11
    34   6    -0.01  -0.01  -0.09     0.02   0.04   0.08     0.01   0.02  -0.06
    35   6     0.07  -0.01  -0.04     0.02  -0.16   0.01     0.07  -0.04  -0.05
    36   6    -0.08  -0.01  -0.05     0.03   0.20  -0.04    -0.03   0.07  -0.07
    37   1    -0.02  -0.01  -0.08     0.03   0.06   0.23     0.02   0.02  -0.00
    38   6     0.07  -0.03   0.06     0.02  -0.15   0.03     0.06  -0.05   0.02
    39   1     0.10  -0.01  -0.06     0.02  -0.18  -0.13     0.08  -0.05  -0.10
    40   1     0.12  -0.01  -0.07     0.01  -0.27   0.09     0.10  -0.08  -0.05
    41   6    -0.09  -0.01   0.05     0.03   0.22  -0.01    -0.03   0.08   0.00
    42   1    -0.08  -0.01  -0.06     0.03   0.19  -0.17    -0.02   0.07  -0.13
    43   1    -0.14  -0.01  -0.08     0.05   0.32   0.01    -0.06   0.12  -0.08
    44   6     0.00  -0.04   0.09     0.03   0.01  -0.07     0.03  -0.00   0.01
    45   1     0.13  -0.04   0.08     0.01  -0.26  -0.01     0.10  -0.09   0.02
    46   1     0.04  -0.03   0.07     0.02  -0.13   0.17     0.06  -0.05   0.07
    47   1    -0.14  -0.00   0.07     0.04   0.34  -0.10    -0.07   0.12  -0.01
    48   1    -0.11  -0.01   0.08     0.03   0.25   0.16    -0.04   0.09   0.07
    49   1    -0.01  -0.06   0.17     0.03   0.00  -0.04     0.02  -0.02   0.07
    50   1     0.04  -0.04   0.08     0.05  -0.01  -0.23     0.05  -0.01  -0.05
    51   1    -0.00   0.01   0.15    -0.01  -0.01   0.04    -0.00  -0.00  -0.10
                      7                      8                      9
                      A                      A                      A
 Frequencies --    100.1291               109.7126               133.0824
 Red. masses --      3.2052                 1.1128                 5.4621
 Frc consts  --      0.0189                 0.0079                 0.0570
 IR Inten    --      1.7223                 0.6047                 0.6324
  Atom  AN      X      Y      Z        X      Y      Z        X      Y      Z
     1   6    -0.00   0.00  -0.02    -0.00  -0.00  -0.00     0.01  -0.01  -0.18
     2   6     0.00   0.03   0.00    -0.00  -0.00  -0.02     0.01  -0.01  -0.07
     3   6     0.04   0.05   0.03    -0.00  -0.00  -0.01    -0.00  -0.01   0.03
     4   6     0.08   0.03   0.03     0.00  -0.00   0.01    -0.01  -0.00   0.04
     5   6     0.07  -0.01  -0.00     0.00  -0.00   0.02    -0.01   0.00  -0.01
     6   6     0.03  -0.03  -0.03    -0.00  -0.01   0.01     0.00   0.00  -0.10
     7   6    -0.02   0.02  -0.01    -0.01  -0.00  -0.01     0.01  -0.01  -0.11
     8   1     0.05   0.08   0.06    -0.00   0.00  -0.02    -0.01  -0.01   0.12
     9   1     0.10   0.04   0.06     0.00  -0.00   0.02    -0.02  -0.00   0.11
    10   1     0.10  -0.02   0.00     0.00  -0.00   0.04    -0.01   0.01   0.05
    11   7    -0.01   0.03   0.00    -0.01  -0.00  -0.02     0.01  -0.01  -0.03
    12   6     0.00   0.01  -0.00    -0.01  -0.00  -0.00    -0.00   0.00   0.11
    13   6    -0.01   0.02  -0.01    -0.01  -0.00   0.00     0.00  -0.01  -0.02
    14   6     0.01   0.05  -0.01    -0.01   0.00   0.03    -0.00  -0.01  -0.01
    15   6     0.03   0.04  -0.00    -0.00   0.00   0.02    -0.01  -0.01   0.03
    16   6     0.04   0.02  -0.00    -0.00  -0.00   0.02    -0.01  -0.01  -0.06
    17   6     0.02   0.01  -0.00    -0.00  -0.00   0.02    -0.01  -0.00  -0.04
    18   1     0.00   0.06  -0.01    -0.01   0.00   0.05     0.00  -0.02  -0.03
    19   1     0.05   0.02   0.00    -0.00  -0.00   0.03    -0.02  -0.01  -0.13
    20   6     0.05   0.07  -0.00     0.01   0.01  -0.03    -0.01  -0.01   0.12
    21   1     0.11   0.11  -0.05     0.31   0.39  -0.39     0.16   0.11  -0.00
    22   1     0.05   0.09   0.07     0.01   0.05   0.47    -0.00  -0.01   0.37
    23   1     0.03   0.01  -0.04    -0.28  -0.40  -0.33    -0.19  -0.14   0.02
    24   6     0.03  -0.02  -0.01    -0.00  -0.00   0.04    -0.00  -0.00  -0.19
    25   1     0.02  -0.02  -0.01     0.01  -0.00   0.05    -0.08  -0.06  -0.21
    26   1     0.03  -0.02  -0.01    -0.02  -0.00   0.05     0.07   0.04  -0.21
    27   1     0.05  -0.02  -0.01    -0.00  -0.00   0.04    -0.01  -0.01  -0.26
    28   8     0.00   0.02   0.00    -0.01  -0.00  -0.03    -0.01   0.01   0.34
    29   7    -0.02   0.00  -0.03    -0.01  -0.00  -0.00     0.01  -0.01  -0.23
    30   1    -0.06  -0.10   0.05     0.01  -0.00  -0.03     0.01   0.02   0.01
    31   6     0.02  -0.10  -0.03    -0.00  -0.00   0.01    -0.00   0.02   0.03
    32   1     0.06  -0.12  -0.07    -0.00  -0.00   0.02    -0.01   0.02   0.11
    33   7    -0.03  -0.12   0.03     0.01  -0.00  -0.01     0.00   0.02   0.10
    34   6    -0.03  -0.14   0.04     0.01   0.01  -0.01     0.00   0.02   0.09
    35   6    -0.06  -0.17   0.01     0.02   0.01  -0.01    -0.06   0.04   0.06
    36   6    -0.05  -0.10   0.03     0.00   0.01  -0.01     0.06   0.01   0.07
    37   1    -0.03  -0.13   0.07     0.01   0.01  -0.01     0.00   0.02   0.08
    38   6    -0.03   0.02   0.02     0.01   0.00   0.00    -0.06   0.01  -0.03
    39   1    -0.18  -0.21  -0.07     0.02   0.01  -0.00    -0.06   0.04   0.10
    40   1    -0.01  -0.28   0.05     0.02   0.01  -0.01    -0.11   0.06   0.08
    41   6    -0.03   0.07  -0.01     0.00   0.00   0.00     0.06  -0.02  -0.01
    42   1    -0.14  -0.11   0.04     0.01   0.01  -0.01     0.07   0.01   0.08
    43   1    -0.01  -0.14   0.03    -0.00   0.01  -0.01     0.10   0.01   0.09
    44   6    -0.14   0.18  -0.03     0.01  -0.00   0.01     0.01  -0.02  -0.04
    45   1    -0.08   0.01  -0.01     0.02   0.00   0.01    -0.10   0.03  -0.04
    46   1     0.11   0.05   0.09     0.01   0.00   0.00    -0.07   0.01  -0.06
    47   1    -0.07   0.11  -0.02    -0.00   0.01   0.00     0.12  -0.05  -0.03
    48   1     0.11   0.09  -0.04    -0.00   0.00   0.01     0.05  -0.03  -0.04
    49   1    -0.08   0.42  -0.07     0.01  -0.01   0.01     0.01  -0.04  -0.10
    50   1    -0.38   0.16  -0.06     0.03  -0.00   0.01     0.03  -0.02  -0.02
    51   1     0.01   0.04   0.01    -0.00   0.00  -0.03    -0.00   0.01   0.24
                     10                     11                     12
                      A                      A                      A
 Frequencies --    141.9327               152.6519               182.8496
 Red. masses --      4.5519                 4.5042                 1.7901
 Frc consts  --      0.0540                 0.0618                 0.0353
 IR Inten    --      4.0989                 4.9150                 0.3247
  Atom  AN      X      Y      Z        X      Y      Z        X      Y      Z
     1   6    -0.06  -0.02   0.04    -0.06  -0.03  -0.03    -0.00   0.00   0.05
     2   6    -0.06   0.02  -0.08    -0.06   0.02   0.07    -0.00   0.00   0.04
     3   6    -0.00   0.03  -0.16    -0.01   0.04   0.13    -0.00  -0.00   0.00
     4   6     0.04   0.01  -0.03     0.04   0.00  -0.00    -0.00  -0.00  -0.04
     5   6     0.03  -0.03   0.14     0.03  -0.05  -0.13    -0.00  -0.00  -0.02
     6   6    -0.01  -0.05   0.13    -0.01  -0.07  -0.11    -0.00   0.00   0.03
     7   6    -0.10   0.01  -0.01    -0.10   0.00   0.00    -0.00  -0.00  -0.01
     8   1     0.01   0.07  -0.31    -0.01   0.09   0.25    -0.00  -0.00  -0.02
     9   1     0.07   0.02  -0.06     0.07   0.02   0.01    -0.00  -0.00  -0.08
    10   1     0.06  -0.05   0.23     0.06  -0.07  -0.21    -0.00  -0.00  -0.05
    11   7    -0.08   0.01  -0.10    -0.09   0.02   0.09    -0.00  -0.00   0.02
    12   6    -0.07  -0.01   0.07    -0.08  -0.02  -0.06     0.00  -0.00  -0.05
    13   6    -0.08   0.02   0.03    -0.09   0.01  -0.04     0.00  -0.00  -0.07
    14   6    -0.04   0.07   0.02    -0.05   0.07  -0.05     0.00  -0.00  -0.07
    15   6     0.02   0.06  -0.00     0.01   0.06  -0.01     0.00  -0.00  -0.05
    16   6     0.03   0.01  -0.03     0.03   0.01   0.03     0.00  -0.00  -0.12
    17   6    -0.01  -0.03   0.00    -0.02  -0.04   0.00     0.00  -0.00  -0.07
    18   1    -0.06   0.12   0.01    -0.07   0.12  -0.05     0.00  -0.00  -0.03
    19   1     0.07   0.00  -0.09     0.07   0.00   0.08     0.00  -0.00  -0.13
    20   6     0.07   0.13  -0.01     0.08   0.14   0.01     0.00   0.01   0.14
    21   1     0.03   0.02   0.08     0.11   0.09   0.04     0.14  -0.01   0.14
    22   1     0.04   0.18  -0.16     0.04   0.21  -0.03     0.01   0.01   0.29
    23   1     0.20   0.23   0.07     0.14   0.17   0.03    -0.14   0.03   0.14
    24   6     0.02  -0.12  -0.06     0.01  -0.13   0.05    -0.00   0.01   0.08
    25   1    -0.04  -0.20  -0.06     0.00  -0.13   0.05     0.22  -0.32   0.41
    26   1     0.03  -0.10  -0.06    -0.03  -0.19   0.05    -0.24   0.38   0.34
    27   1     0.08  -0.13  -0.12     0.08  -0.13   0.09     0.01  -0.02  -0.32
    28   8    -0.06  -0.00   0.16    -0.06  -0.02  -0.11    -0.00   0.00   0.03
    29   7    -0.09  -0.02   0.06    -0.09  -0.03  -0.06    -0.00   0.00   0.03
    30   1     0.07  -0.08  -0.18     0.08  -0.06   0.18    -0.00   0.00   0.00
    31   6    -0.01  -0.07   0.10    -0.00  -0.07  -0.07    -0.00   0.00   0.01
    32   1    -0.03  -0.06   0.21    -0.02  -0.06  -0.16    -0.00   0.00  -0.00
    33   7     0.04  -0.06  -0.09     0.04  -0.04   0.11     0.00   0.00  -0.01
    34   6     0.06  -0.01  -0.08     0.06   0.03   0.08     0.00  -0.00  -0.01
    35   6     0.11   0.00  -0.05     0.01   0.08   0.07     0.01  -0.01  -0.01
    36   6     0.01   0.01  -0.07     0.11   0.04   0.05    -0.00  -0.00  -0.01
    37   1     0.08  -0.01  -0.07     0.11   0.03   0.06    -0.00  -0.00  -0.01
    38   6     0.11   0.01   0.01     0.01   0.01  -0.02     0.01  -0.00   0.00
    39   1     0.11   0.00  -0.05     0.04   0.09   0.14     0.01  -0.01  -0.01
    40   1     0.16   0.00  -0.08    -0.04   0.14   0.06     0.01  -0.01  -0.01
    41   6     0.01   0.02   0.00     0.12   0.01  -0.01    -0.00  -0.00  -0.00
    42   1     0.02   0.01  -0.09     0.10   0.04   0.04    -0.00  -0.00  -0.01
    43   1    -0.02   0.03  -0.08     0.16   0.05   0.08    -0.01  -0.01  -0.01
    44   6     0.07   0.01   0.03     0.11  -0.05  -0.03    -0.00   0.01   0.00
    45   1     0.14   0.01   0.03    -0.03   0.02  -0.03     0.01  -0.00   0.00
    46   1     0.11   0.01   0.02    -0.04   0.00  -0.07     0.01   0.00   0.01
    47   1    -0.04   0.04   0.02     0.16   0.01  -0.03    -0.01  -0.00   0.00
    48   1     0.01   0.03   0.03     0.09   0.01   0.02     0.00  -0.00  -0.00
    49   1     0.07  -0.01   0.08     0.09  -0.16  -0.06     0.00   0.01   0.01
    50   1     0.10   0.01   0.02     0.21  -0.05  -0.02    -0.01   0.00   0.00
    51   1    -0.03   0.05   0.06    -0.02   0.06  -0.03    -0.00   0.00   0.03
                     13                     14                     15
                      A                      A                      A
 Frequencies --    188.9010               202.1474               225.1737
 Red. masses --      2.0475                 3.2687                 2.0088
 Frc consts  --      0.0430                 0.0787                 0.0600
 IR Inten    --      2.1812                 4.3079                 0.9337
  Atom  AN      X      Y      Z        X      Y      Z        X      Y      Z
     1   6     0.00  -0.01  -0.09     0.03  -0.02   0.04     0.00   0.00   0.05
     2   6     0.00  -0.00  -0.08     0.04   0.01  -0.01     0.00   0.00   0.03
     3   6     0.01   0.00  -0.01     0.10   0.04  -0.01     0.00   0.00   0.02
     4   6     0.01   0.00   0.06     0.13   0.02   0.03     0.00   0.00  -0.01
     5   6     0.01   0.00   0.03     0.11  -0.02   0.02     0.00   0.00  -0.02
     6   6     0.00  -0.01  -0.06     0.04  -0.05   0.02     0.00   0.01   0.02
     7   6    -0.00   0.00   0.01     0.01  -0.01  -0.01     0.00   0.00  -0.02
     8   1     0.01   0.01   0.03     0.10   0.07  -0.04     0.00   0.00   0.01
     9   1     0.01   0.01   0.15     0.15   0.03   0.04     0.00   0.00  -0.04
    10   1     0.01   0.00   0.09     0.16  -0.05   0.02     0.00   0.00  -0.07
    11   7     0.00  -0.00  -0.04     0.02   0.01  -0.05     0.00   0.00  -0.02
    12   6     0.00   0.00   0.03     0.01  -0.00  -0.00    -0.00   0.00   0.02
    13   6    -0.00   0.00   0.12     0.01  -0.01  -0.02     0.00  -0.00  -0.05
    14   6     0.00   0.01   0.18     0.01  -0.01  -0.03    -0.00  -0.01  -0.10
    15   6     0.00   0.00   0.03     0.01  -0.01  -0.01    -0.00  -0.00   0.06
    16   6     0.00  -0.00  -0.05     0.01  -0.00  -0.01    -0.00   0.01   0.21
    17   6     0.00  -0.00   0.00     0.01  -0.00  -0.00    -0.00   0.00   0.07
    18   1    -0.00   0.01   0.24     0.01  -0.01  -0.03     0.00  -0.01  -0.23
    19   1     0.00  -0.00  -0.15     0.00  -0.00  -0.00    -0.00   0.01   0.30
    20   6    -0.00  -0.01  -0.08     0.01  -0.01   0.02    -0.01  -0.01  -0.05
    21   1    -0.13  -0.05  -0.03     0.03  -0.00   0.01    -0.06   0.05  -0.10
    22   1    -0.00  -0.01  -0.24     0.01  -0.01   0.05    -0.01  -0.02  -0.09
    23   1     0.13   0.04  -0.04    -0.02  -0.01   0.02     0.03  -0.08  -0.10
    24   6     0.00  -0.00   0.03     0.01   0.00  -0.00     0.01  -0.02  -0.13
    25   1     0.14  -0.37   0.32    -0.00   0.04  -0.03    -0.02  -0.42   0.07
    26   1    -0.16   0.40   0.26     0.02  -0.04  -0.02     0.00   0.38   0.02
    27   1     0.01  -0.03  -0.42     0.00   0.01   0.05     0.03  -0.06  -0.61
    28   8     0.00  -0.00  -0.06     0.02   0.01   0.03    -0.00   0.00   0.01
    29   7     0.00  -0.00  -0.04     0.01  -0.03   0.05     0.00   0.00   0.03
    30   1     0.00  -0.01  -0.00    -0.02  -0.11   0.13    -0.00   0.01   0.06
    31   6     0.00  -0.01  -0.02     0.02  -0.10  -0.05     0.00   0.01  -0.02
    32   1     0.00  -0.01  -0.00     0.05  -0.12  -0.17     0.01   0.01  -0.08
    33   7    -0.00  -0.01   0.01    -0.02  -0.11   0.03     0.00   0.01   0.01
    34   6    -0.00   0.01   0.02    -0.04   0.02  -0.01    -0.00   0.00  -0.01
    35   6    -0.02   0.01   0.02    -0.10   0.14   0.00     0.00   0.00  -0.00
    36   6     0.00   0.01   0.01    -0.11   0.11  -0.04    -0.00  -0.00  -0.00
    37   1     0.01   0.01   0.02     0.09   0.03  -0.03    -0.01  -0.00  -0.01
    38   6    -0.02   0.00  -0.00    -0.13   0.02  -0.03     0.00  -0.00   0.00
    39   1    -0.01   0.02   0.03    -0.05   0.17   0.13     0.01   0.00  -0.01
    40   1    -0.03   0.03   0.01    -0.16   0.26  -0.05     0.00   0.00  -0.00
    41   6     0.00   0.00   0.00    -0.12   0.09   0.03    -0.00   0.00   0.00
    42   1     0.00   0.01   0.01    -0.11   0.09  -0.12    -0.01  -0.00   0.00
    43   1     0.01   0.02   0.02    -0.14   0.16  -0.03    -0.00  -0.01  -0.00
    44   6    -0.00  -0.01  -0.00    -0.04  -0.12   0.01    -0.00   0.00   0.00
    45   1    -0.02   0.01  -0.01    -0.09   0.04  -0.01     0.01  -0.01   0.00
    46   1    -0.03  -0.00  -0.02    -0.23  -0.01  -0.12    -0.00  -0.00   0.01
    47   1     0.01   0.01  -0.01    -0.12   0.19  -0.04    -0.01   0.01  -0.00
    48   1    -0.01   0.01   0.01    -0.17   0.12   0.19     0.00   0.01   0.01
    49   1    -0.00  -0.04  -0.01    -0.09  -0.35   0.05    -0.00   0.00   0.00
    50   1     0.02  -0.01  -0.01     0.21  -0.10  -0.02    -0.00   0.00  -0.00
    51   1     0.00  -0.00  -0.05     0.02   0.01  -0.00     0.00   0.00  -0.01
                     16                     17                     18
                      A                      A                      A
 Frequencies --    232.1399               248.3885               261.5231
 Red. masses --      3.6562                 3.5385                 1.9796
 Frc consts  --      0.1161                 0.1286                 0.0798
 IR Inten    --      0.5918                49.7823                 0.2352
  Atom  AN      X      Y      Z        X      Y      Z        X      Y      Z
     1   6     0.01  -0.02  -0.08     0.01  -0.07   0.01     0.02  -0.02   0.01
     2   6     0.01   0.00   0.10     0.00  -0.09   0.00     0.02  -0.02  -0.01
     3   6     0.03   0.00  -0.01    -0.06  -0.13   0.01     0.02  -0.02   0.02
     4   6     0.04  -0.01  -0.15    -0.08  -0.12   0.01     0.01  -0.01   0.03
     5   6     0.04  -0.02  -0.01    -0.07  -0.09   0.00     0.01  -0.01  -0.02
     6   6     0.01  -0.02   0.04    -0.02  -0.07   0.00     0.01  -0.01  -0.01
     7   6     0.00  -0.00   0.02     0.02  -0.04  -0.00     0.01  -0.01  -0.00
     8   1     0.03   0.01  -0.00    -0.07  -0.18   0.01     0.02  -0.03   0.04
     9   1     0.06  -0.01  -0.28    -0.09  -0.12   0.01     0.00  -0.01   0.05
    10   1     0.05  -0.03   0.05    -0.11  -0.07  -0.01     0.01  -0.01  -0.04
    11   7     0.00   0.01   0.22     0.02  -0.06  -0.01     0.02  -0.01  -0.04
    12   6     0.00   0.00  -0.01     0.01   0.05   0.00    -0.02   0.00   0.00
    13   6     0.00   0.00   0.01     0.01   0.01  -0.00    -0.01  -0.00  -0.00
    14   6     0.00   0.00   0.01     0.02   0.03  -0.01    -0.01   0.00  -0.00
    15   6     0.00   0.01   0.02     0.02   0.05   0.01    -0.01   0.01  -0.00
    16   6     0.00   0.01   0.04     0.00   0.06   0.02    -0.01   0.00  -0.00
    17   6     0.00   0.01   0.01     0.01   0.08   0.00    -0.01   0.00   0.00
    18   1     0.00   0.01   0.00     0.01   0.05  -0.02    -0.02   0.01  -0.01
    19   1     0.00   0.01   0.07    -0.01   0.06   0.03    -0.01   0.00  -0.00
    20   6     0.01   0.01  -0.02     0.12   0.16  -0.01     0.02   0.04  -0.00
    21   1    -0.01   0.02  -0.02     0.19   0.14  -0.00     0.05   0.03   0.00
    22   1     0.00   0.01  -0.05     0.06   0.29  -0.05     0.00   0.09  -0.01
    23   1     0.04  -0.00  -0.03     0.24   0.17   0.00     0.06   0.05   0.00
    24   6     0.00   0.02  -0.01    -0.05   0.27  -0.03    -0.01  -0.00  -0.00
    25   1     0.01  -0.04   0.02     0.02   0.34  -0.02    -0.01  -0.00  -0.00
    26   1    -0.01   0.08   0.02     0.01   0.39  -0.02    -0.01  -0.00  -0.00
    27   1    -0.01   0.01  -0.09    -0.23   0.28  -0.07    -0.01  -0.00  -0.00
    28   8     0.01   0.01  -0.07    -0.01   0.03   0.01    -0.01   0.01   0.01
    29   7     0.01  -0.02  -0.19     0.03  -0.05   0.01     0.01  -0.02   0.04
    30   1     0.01  -0.05  -0.43     0.02  -0.07   0.02     0.01   0.01   0.06
    31   6    -0.00  -0.03   0.24    -0.01  -0.06  -0.00     0.01   0.01  -0.02
    32   1    -0.02  -0.02   0.62    -0.02  -0.06  -0.02     0.01   0.01  -0.06
    33   7    -0.01  -0.04  -0.06     0.00  -0.05   0.01     0.01   0.01   0.03
    34   6    -0.01   0.00  -0.00     0.01  -0.02  -0.01    -0.00   0.03   0.04
    35   6    -0.03   0.00  -0.01     0.00   0.03   0.01    -0.03  -0.11  -0.02
    36   6    -0.04   0.06  -0.03    -0.00  -0.02  -0.00     0.01   0.14  -0.04
    37   1     0.02   0.01   0.03     0.03  -0.02  -0.03     0.01   0.05   0.17
    38   6    -0.02   0.04  -0.02    -0.00  -0.01  -0.00     0.01   0.11  -0.03
    39   1    -0.07  -0.01  -0.01     0.02   0.04   0.06    -0.19  -0.16  -0.19
    40   1    -0.01  -0.02  -0.01    -0.01   0.07  -0.02     0.04  -0.30   0.07
    41   6    -0.06  -0.01   0.00     0.01   0.04   0.00    -0.05  -0.13  -0.01
    42   1     0.04   0.06  -0.09    -0.04  -0.02   0.00     0.18   0.15  -0.19
    43   1    -0.08   0.13  -0.03     0.01  -0.04   0.00    -0.07   0.32  -0.02
    44   6    -0.03  -0.01   0.02     0.02  -0.01  -0.01    -0.01  -0.00   0.05
    45   1    -0.02   0.10  -0.00     0.00  -0.02  -0.00    -0.04   0.28  -0.01
    46   1     0.00   0.04  -0.08    -0.02  -0.01  -0.00     0.15   0.12  -0.17
    47   1    -0.05  -0.04   0.01    -0.01   0.09  -0.02     0.04  -0.35   0.09
    48   1    -0.12  -0.02  -0.01     0.04   0.05   0.06    -0.24  -0.20  -0.20
    49   1    -0.04  -0.06   0.03     0.01  -0.05   0.00    -0.02  -0.02   0.03
    50   1     0.02  -0.01   0.05     0.06  -0.01  -0.03    -0.00   0.02   0.19
    51   1     0.01   0.01   0.06    -0.03  -0.02   0.00     0.01   0.01  -0.01
                     19                     20                     21
                      A                      A                      A
 Frequencies --    275.0505               304.9975               307.6822
 Red. masses --      4.0336                 3.6495                 4.3739
 Frc consts  --      0.1798                 0.2000                 0.2440
 IR Inten    --      3.3918                72.1399                 2.7663
  Atom  AN      X      Y      Z        X      Y      Z        X      Y      Z
     1   6    -0.13   0.05   0.00     0.03  -0.03   0.03     0.01  -0.01  -0.13
     2   6    -0.13   0.05   0.00     0.02  -0.05   0.01     0.01  -0.02  -0.07
     3   6    -0.08   0.08  -0.00    -0.05  -0.09   0.05    -0.02  -0.04  -0.22
     4   6    -0.01   0.04  -0.00    -0.08  -0.09  -0.01    -0.03  -0.02   0.06
     5   6    -0.01  -0.00  -0.01    -0.06  -0.06  -0.04    -0.03   0.00   0.21
     6   6    -0.06  -0.02  -0.00     0.00  -0.03   0.02    -0.00  -0.00  -0.08
     7   6    -0.07   0.04  -0.00     0.03  -0.01  -0.04     0.01   0.01   0.18
     8   1    -0.07   0.15  -0.01    -0.06  -0.16   0.09    -0.01  -0.07  -0.40
     9   1     0.03   0.06  -0.01    -0.09  -0.10  -0.02    -0.04  -0.02   0.14
    10   1     0.01  -0.01  -0.00    -0.11  -0.04  -0.10    -0.05   0.02   0.46
    11   7    -0.11   0.03  -0.00     0.04  -0.01  -0.04     0.01   0.00   0.22
    12   6     0.10  -0.01  -0.00    -0.04   0.11  -0.01    -0.01   0.03   0.03
    13   6     0.07   0.01  -0.00    -0.00   0.05  -0.01    -0.00   0.01   0.05
    14   6     0.09  -0.01  -0.00     0.06   0.09   0.03     0.01   0.01  -0.17
    15   6     0.06  -0.02   0.01     0.06   0.12   0.01     0.01   0.02  -0.09
    16   6     0.05  -0.00   0.01     0.05   0.18  -0.02     0.01   0.04   0.02
    17   6     0.08   0.01  -0.00     0.02   0.12  -0.01    -0.00   0.03   0.03
    18   1     0.09  -0.02  -0.00     0.04   0.16   0.06     0.01   0.02  -0.26
    19   1     0.05  -0.00   0.02     0.05   0.18  -0.03     0.01   0.04   0.08
    20   6    -0.07  -0.17   0.00    -0.14  -0.08  -0.01    -0.03  -0.01   0.06
    21   1    -0.18  -0.13  -0.01    -0.30  -0.04  -0.02     0.06  -0.03   0.06
    22   1     0.02  -0.34   0.03    -0.03  -0.32   0.02    -0.00  -0.05   0.18
    23   1    -0.19  -0.18  -0.02    -0.30  -0.09  -0.02    -0.18   0.02   0.06
    24   6     0.04   0.17  -0.02     0.10  -0.13   0.02     0.02  -0.03  -0.01
    25   1     0.10   0.24  -0.02     0.01  -0.24   0.01    -0.03  -0.10  -0.01
    26   1     0.09   0.25  -0.01     0.02  -0.27   0.01     0.03  -0.02  -0.01
    27   1    -0.10   0.18  -0.03     0.33  -0.14   0.05     0.08  -0.04  -0.06
    28   8     0.06  -0.06   0.01    -0.05   0.11   0.00    -0.01   0.02  -0.06
    29   7    -0.10   0.07  -0.00     0.04  -0.02   0.00     0.02  -0.00  -0.00
    30   1    -0.00  -0.13   0.06    -0.00  -0.06  -0.02    -0.01  -0.01   0.15
    31   6    -0.05  -0.13  -0.00     0.00  -0.05   0.03     0.00  -0.02  -0.14
    32   1    -0.03  -0.14  -0.04     0.01  -0.05   0.05     0.02  -0.03  -0.26
    33   7    -0.02  -0.12   0.04    -0.00  -0.05   0.01    -0.00  -0.01   0.01
    34   6     0.02  -0.05   0.02     0.01  -0.04  -0.00     0.00  -0.01   0.03
    35   6     0.02  -0.04   0.02    -0.01  -0.01   0.00    -0.01  -0.02   0.02
    36   6     0.04   0.04  -0.04    -0.01  -0.01  -0.02     0.01   0.01   0.01
    37   1     0.07  -0.04   0.07     0.03  -0.04   0.00     0.00  -0.00   0.05
    38   6     0.06   0.08  -0.02     0.00   0.03  -0.01    -0.00   0.02  -0.01
    39   1    -0.06  -0.05   0.00    -0.04  -0.01   0.02    -0.04  -0.02   0.01
    40   1     0.08  -0.08   0.01     0.01  -0.00  -0.01    -0.01  -0.03   0.04
    41   6     0.03  -0.01  -0.01    -0.01   0.02   0.01     0.02  -0.01  -0.00
    42   1     0.07   0.03  -0.14    -0.02  -0.01  -0.05     0.01   0.01  -0.01
    43   1     0.04   0.14  -0.01    -0.01   0.01  -0.01     0.03   0.03   0.03
    44   6     0.09  -0.01   0.02     0.02  -0.02   0.01     0.02  -0.01  -0.00
    45   1     0.00   0.20  -0.01    -0.01   0.08  -0.00    -0.03   0.06  -0.01
    46   1     0.13   0.08  -0.13     0.02   0.03  -0.07     0.02   0.02  -0.05
    47   1     0.03  -0.03   0.01    -0.03   0.07  -0.01     0.03  -0.02   0.00
    48   1    -0.01  -0.02  -0.02     0.01   0.04   0.06     0.00  -0.01  -0.01
    49   1     0.07  -0.12   0.03     0.01  -0.09   0.02     0.01  -0.04  -0.01
    50   1     0.20   0.00   0.07     0.09  -0.01   0.01     0.05  -0.00   0.01
    51   1    -0.05  -0.05   0.01    -0.03   0.06  -0.01    -0.01   0.01   0.03
                     22                     23                     24
                      A                      A                      A
 Frequencies --    336.7952               341.2933               374.7197
 Red. masses --      3.0638                 2.4694                 3.7737
 Frc consts  --      0.2048                 0.1695                 0.3122
 IR Inten    --      9.6617                23.8718                 0.3373
  Atom  AN      X      Y      Z        X      Y      Z        X      Y      Z
     1   6    -0.01  -0.03  -0.08    -0.02  -0.04   0.05    -0.00   0.00  -0.00
     2   6    -0.01  -0.01  -0.13    -0.02  -0.01   0.07    -0.00   0.00   0.02
     3   6     0.01   0.01   0.06     0.02  -0.00  -0.04    -0.01   0.00   0.05
     4   6     0.04  -0.01   0.07     0.04  -0.02  -0.02    -0.00  -0.00  -0.04
     5   6     0.03  -0.04  -0.10     0.03  -0.05   0.07    -0.00  -0.00  -0.02
     6   6    -0.00  -0.05  -0.09    -0.00  -0.05   0.04    -0.00   0.00   0.07
     7   6    -0.03  -0.00   0.11    -0.04  -0.02  -0.05     0.00  -0.00  -0.05
     8   1     0.01   0.05   0.26     0.02   0.02  -0.17    -0.01   0.00   0.10
     9   1     0.05   0.01   0.21     0.06  -0.01  -0.10    -0.00  -0.00  -0.09
    10   1     0.05  -0.06  -0.12     0.06  -0.06   0.09    -0.00  -0.00  -0.05
    11   7    -0.03  -0.00  -0.05    -0.04  -0.00   0.03     0.00  -0.00  -0.03
    12   6     0.01   0.01   0.05     0.00   0.01  -0.04     0.00   0.01   0.21
    13   6    -0.00   0.00   0.05    -0.00  -0.00  -0.03     0.00   0.01   0.09
    14   6     0.02   0.01  -0.11     0.03   0.03   0.05    -0.00  -0.00  -0.05
    15   6     0.03   0.02  -0.07     0.04   0.03   0.04    -0.00  -0.00  -0.11
    16   6     0.03   0.03  -0.00     0.04   0.04   0.01    -0.00  -0.00  -0.10
    17   6     0.02   0.02   0.05     0.02   0.02  -0.04    -0.00   0.01   0.22
    18   1     0.02   0.03  -0.17     0.02   0.06   0.09     0.00  -0.01  -0.13
    19   1     0.03   0.02  -0.01     0.04   0.04   0.03    -0.01  -0.01  -0.36
    20   6    -0.02  -0.03   0.04    -0.02  -0.04  -0.02     0.00   0.01   0.05
    21   1     0.03  -0.05   0.05    -0.13  -0.01  -0.04     0.13  -0.05   0.08
    22   1     0.02  -0.09   0.13     0.02  -0.13  -0.06     0.00   0.01   0.17
    23   1    -0.15  -0.00   0.05    -0.03  -0.06  -0.04    -0.12   0.07   0.08
    24   6     0.02   0.03  -0.02     0.03   0.04   0.01     0.00   0.00  -0.03
    25   1    -0.02   0.01  -0.03     0.06   0.07   0.02    -0.18  -0.08  -0.11
    26   1     0.07   0.07  -0.03     0.00   0.03   0.02     0.18   0.06  -0.11
    27   1    -0.00   0.03  -0.06     0.00   0.04   0.03     0.00  -0.01  -0.14
    28   8     0.00  -0.00  -0.03    -0.01   0.01   0.02     0.01  -0.00  -0.11
    29   7    -0.03  -0.02   0.16    -0.03  -0.04  -0.07     0.00   0.00  -0.09
    30   1     0.06  -0.02  -0.34     0.07  -0.00   0.14    -0.01   0.00   0.38
    31   6    -0.01  -0.01   0.12    -0.01  -0.01  -0.09    -0.00  -0.01   0.04
    32   1    -0.05   0.01   0.43    -0.03  -0.00  -0.23     0.01  -0.01  -0.20
    33   7     0.02   0.00  -0.09     0.03   0.02   0.01    -0.01  -0.00   0.19
[...]
 ! A59   A(6,31,33)             -0.0177                  0.8                    !
 --------------------------------------------------------------------------------
                           ----------------------------
                           ! Normal Mode   143        !
 --------------------------                            --------------------------
 ! Name  Definition              Value          Relative Weight (%)             !
 --------------------------------------------------------------------------------
 ! R7    R(3,8)                  0.0244                  1.1                    !
 ! R8    R(4,5)                 -0.0074                  0.3                    !
 ! R9    R(4,9)                 -0.1224                  5.4                    !
 ! R10   R(5,6)                 -0.0112                  0.5                    !
 ! R11   R(5,10)                 0.3026                 13.4                    !
 ! R12   R(6,31)                -0.0428                  1.9                    !
 ! R34   R(29,30)               -0.0517                  2.3                    !
 ! R35   R(30,33)                0.0784                  3.5                    !
 ! R36   R(31,32)                1.0299                 45.6                    !
 ! R37   R(31,33)               -0.0451                  2.0                    !
 ! R41   R(34,37)                0.0082                  0.4                    !
 ! R43   R(35,39)                0.0119                  0.5                    !
 ! R46   R(36,42)                0.0186                  0.8                    !
 ! A10   A(3,4,5)               -0.0149                  0.7                    !
 ! A12   A(5,4,9)                0.012                   0.5                    !
 ! A13   A(4,5,6)                0.02                    0.9                    !
 ! A14   A(4,5,10)              -0.0128                  0.6                    !
 ! A15   A(6,5,10)              -0.0072                  0.3                    !
 ! A16   A(1,6,5)               -0.0094                  0.4                    !
 ! A17   A(1,6,31)              -0.0267                  1.2                    !
 ! A18   A(5,6,31)               0.0361                  1.6                    !
 ! A55   A(1,29,30)              0.0125                  0.6                    !
 ! A56   A(7,29,30)             -0.0128                  0.6                    !
 ! A57   A(29,30,33)            -0.0136                  0.6                    !
 ! A58   A(6,31,32)             -0.0246                  1.1                    !
 ! A59   A(6,31,33)              0.0596                  2.6                    !
 ! A60   A(32,31,33)            -0.0349                  1.5                    !
 ! A61   A(30,33,31)            -0.0315                  1.4                    !
 ! A63   A(31,33,34)             0.035                   1.6                    !
 --------------------------------------------------------------------------------
                           ----------------------------
                           ! Normal Mode   144        !
 --------------------------                            --------------------------
 ! Name  Definition              Value          Relative Weight (%)             !
 --------------------------------------------------------------------------------
 ! R7    R(3,8)                 -0.0498                  3.0                    !
 ! R9    R(4,9)                  0.0241                  1.5                    !
 ! R19   R(13,14)               -0.0453                  2.8                    !
 ! R20   R(14,15)               -0.0471                  2.9                    !
 ! R21   R(14,18)                1.0814                 66.0                    !
 ! R25   R(16,19)                0.0308                  1.9                    !
 ! A27   A(7,13,14)              0.0299                  1.8                    !
 ! A28   A(12,13,14)            -0.0279                  1.7                    !
 ! A29   A(13,14,15)             0.0571                  3.5                    !
 ! A30   A(13,14,18)            -0.0261                  1.6                    !
 ! A31   A(15,14,18)            -0.031                   1.9                    !
 ! A32   A(14,15,16)            -0.0279                  1.7                    !
 ! A33   A(14,15,20)             0.029                   1.8                    !
 --------------------------------------------------------------------------------
                           ----------------------------
                           ! Normal Mode   145        !
 --------------------------                            --------------------------
 ! Name  Definition              Value          Relative Weight (%)             !
 --------------------------------------------------------------------------------
 ! R4    R(2,3)                  0.0384                  1.7                    !
 ! R7    R(3,8)                 -0.8386                 37.2                    !
 ! R8    R(4,5)                 -0.0361                  1.6                    !
 ! R9    R(4,9)                  0.6499                 28.8                    !
 ! R11   R(5,10)                 0.2023                  9.0                    !
 ! R21   R(14,18)               -0.0545                  2.4                    !
 ! R36   R(31,32)                0.0373                  1.7                    !
 ! A7    A(2,3,4)               -0.0607                  2.7                    !
 ! A9    A(4,3,8)                0.0431                  1.9                    !
 ! A10   A(3,4,5)                0.0505                  2.2                    !
 ! A11   A(3,4,9)               -0.0432                  1.9                    !
 --------------------------------------------------------------------------------
                           ----------------------------
                           ! Normal Mode   146        !
 --------------------------                            --------------------------
 ! Name  Definition              Value          Relative Weight (%)             !
 --------------------------------------------------------------------------------
 ! R4    R(2,3)                 -0.0301                  1.4                    !
 ! R6    R(3,4)                 -0.066                   3.1                    !
 ! R7    R(3,8)                  0.683                  32.4                    !
 ! R8    R(4,5)                 -0.0408                  1.9                    !
 ! R9    R(4,9)                  0.8214                 39.0                    !
 ! R11   R(5,10)                 0.1913                  9.1                    !
 ! R36   R(31,32)                0.0247                  1.2                    !
 ! A4    A(1,2,3)               -0.0178                  0.8                    !
 ! A6    A(3,2,11)               0.0194                  0.9                    !
 ! A7    A(2,3,4)                0.0147                  0.7                    !
 ! A8    A(2,3,8)               -0.0195                  0.9                    !
 ! A10   A(3,4,5)                0.0215                  1.0                    !
 ! A12   A(5,4,9)               -0.0198                  0.9                    !
 ! A14   A(4,5,10)               0.0198                  0.9                    !
 --------------------------------------------------------------------------------
                           ----------------------------
                           ! Normal Mode   147        !
 --------------------------                            --------------------------
 ! Name  Definition              Value          Relative Weight (%)             !
 --------------------------------------------------------------------------------
 ! R34   R(29,30)                0.6776                 21.8                    !
 ! R35   R(30,33)               -1.0675                 34.3                    !
 ! R36   R(31,32)                0.081                   2.6                    !
 ! R37   R(31,33)                0.0324                  1.0                    !
 ! R38   R(33,34)                0.0344                  1.1                    !
 ! A55   A(1,29,30)             -0.1935                  6.2                    !
 ! A56   A(7,29,30)              0.1931                  6.2                    !
 ! A57   A(29,30,33)             0.2245                  7.2                    !
 ! A59   A(6,31,33)             -0.0238                  0.8                    !
 ! A60   A(32,31,33)             0.0299                  1.0                    !
 ! A62   A(30,33,34)             0.0555                  1.8                    !
 ! A63   A(31,33,34)            -0.05                    1.6                    !
 ! A66   A(33,34,37)            -0.0254                  0.8                    !
 ! D84   D(7,29,30,33)           0.0205                  0.7                    !
 ! D97   D(33,34,35,38)          0.0243                  0.8                    !
 ! D98   D(33,34,35,39)          0.025                   0.8                    !
 ! D99   D(33,34,35,40)          0.0253                  0.8                    !
 ! D106  D(33,34,36,41)         -0.0217                  0.7                    !
 ! D107  D(33,34,36,42)         -0.0211                  0.7                    !
 ! D108  D(33,34,36,43)         -0.0219                  0.7                    !
 --------------------------------------------------------------------------------
 -------------------------------------------------------------------
 Center     Atomic                   Forces (Hartrees/Bohr)
 Number     Number              X              Y              Z
 -------------------------------------------------------------------
      1        6           0.000001531    0.000001130   -0.000003375
      2        6           0.000001664    0.000002311   -0.000005788
      3        6           0.000002835    0.000002774   -0.000007742
      4        6           0.000003875    0.000002058   -0.000007317
      5        6           0.000003708    0.000000811   -0.000005026
      6        6           0.000002589    0.000000312   -0.000003041
      7        6          -0.000000243    0.000002021   -0.000003298
      8        1           0.000003010    0.000003673   -0.000009517
      9        1           0.000004796    0.000002334   -0.000008797
     10        1           0.000004469    0.000000280   -0.000004777
     11        7           0.000000497    0.000002758   -0.000005591
     12        6          -0.000001962    0.000003355   -0.000004181
     13        6          -0.000001596    0.000002126   -0.000002419
     14        6          -0.000002479    0.000001378   -0.000000048
     15        6          -0.000003714    0.000001507    0.000000583
     16        6          -0.000004070    0.000002776   -0.000001091
     17        6          -0.000003274    0.000003652   -0.000003432
     18        1          -0.000002142    0.000000433    0.000001255
     19        1          -0.000005091    0.000002964   -0.000000533
     20        6          -0.000004731    0.000000687    0.000003299
     21        1          -0.000003938    0.000000134    0.000003597
     22        1          -0.000004084   -0.000000237    0.000004409
     23        1          -0.000006506    0.000001454    0.000003601
     24        6          -0.000003689    0.000004908   -0.000005331
     25        1          -0.000004615    0.000006085   -0.000006548
     26        1          -0.000001985    0.000004568   -0.000006396
     27        1          -0.000004753    0.000005031   -0.000004505
     28        8          -0.000001179    0.000004213   -0.000006424
     29        7           0.000000193    0.000000889   -0.000001779
     30        1           0.000000532   -0.000000734    0.000000968
     31        6           0.000002066   -0.000000801   -0.000000785
     32        1           0.000003075   -0.000001397   -0.000000446
     33        7           0.000001232   -0.000001275    0.000001136
     34        6           0.000001063   -0.000002585    0.000003656
     35        6           0.000003411   -0.000004154    0.000004333
     36        6          -0.000000236   -0.000002138    0.000004003
     37        1          -0.000000150   -0.000002492    0.000004637
     38        6           0.000003045   -0.000005417    0.000006882
     39        1           0.000004682   -0.000004219    0.000003164
     40        1           0.000004138   -0.000004492    0.000004089
     41        6          -0.000000521   -0.000003308    0.000006492
     42        1           0.000000871   -0.000002009    0.000002703
     43        1          -0.000001913   -0.000000826    0.000003413
     44        6           0.000001799   -0.000004986    0.000007327
     45        1           0.000004757   -0.000006650    0.000007383
     46        1           0.000001929   -0.000005508    0.000008100
     47        1          -0.000001356   -0.000003002    0.000006711
     48        1          -0.000001826   -0.000003245    0.000007629
     49        1           0.000001539   -0.000005845    0.000009124
     50        1           0.000003002   -0.000005067    0.000006259
     51        1          -0.000000252    0.000003764   -0.000006566
 -------------------------------------------------------------------
 Cartesian Forces:  Max     0.000009517 RMS     0.000003931
 FormGI is forming the generalized inverse of G from B-inverse, IUseBI=4.
 GSVD:  received Info=                   1 from GESDD.
 Leave Link  716 at Mon Dec 17 15:50:02 2018, MaxMem=  1342177280 cpu:               1.3 elap:               0.4
 (Enter /gpfs/apps/hpc/Apps/Restricted/Gaussian/Rev_A.03/g16/l9999.exe)

 ----------------------------------------------------------------------

 Electric dipole moment (input orientation):
 (Debye = 10**-18 statcoulomb cm , SI units = C m)
                  (au)            (Debye)         (10**-30 SI)
   Tot        0.299710D+01      0.761787D+01      0.254105D+02
   x          0.191501D+01      0.486748D+01      0.162362D+02
   y          0.220128D+01      0.559508D+01      0.186632D+02
   z          0.685367D+00      0.174203D+01      0.581078D+01

 Dipole polarizability, Alpha (input orientation).
 (esu units = cm**3 , SI units = C**2 m**2 J**-1)
 Alpha(0;0):
               (au)            (10**-24 esu)      (10**-40 SI)
   iso        0.540584D+03      0.801063D+02      0.891303D+02
   aniso      0.683938D+03      0.101349D+03      0.112766D+03
   xx         0.512432D+03      0.759346D+02      0.844886D+02
   yx         0.106289D+03      0.157504D+02      0.175247D+02
   yy         0.933291D+03      0.138299D+03      0.153879D+03
   zx         0.135479D+01      0.200760D+00      0.223375D+00
   zy        -0.258700D+02     -0.383354D+01     -0.426539D+01
   zz         0.176030D+03      0.260850D+02      0.290234D+02

 ----------------------------------------------------------------------

 Dipole orientation:
     6         -2.85341863          2.76024368          3.13938724
     6         -4.73474425          4.00803194          1.63238968
     6         -6.30321017          5.87067733          2.67513824
     6         -5.99012567          6.46148646          5.22061730
     6         -4.16664831          5.24690236          6.72636179
     6         -2.56491192          3.38541565          5.73552379
     6         -2.66947315          1.27462952         -0.59655650
     1         -7.71617728          6.81871539          1.53742758
     1         -7.18138163          7.88923007          6.07465380
     1         -3.99281333          5.75663624          8.70191279
     7         -4.56553897          3.01344384         -0.73462146
     6         -3.39768503          0.37626207         -5.13324576
     6         -1.99378463         -0.12863743         -2.81770625
     6         -0.05937104         -1.91760327         -2.85621606
     6          0.52754323         -3.21922725         -5.06631047
     6         -0.88755224         -2.72064924         -7.31425267
     6         -2.80896571         -0.98509306         -7.40747857
     1          0.98686168         -2.27855989         -1.13541801
     1         -0.40681053         -3.76779327         -9.00985602
     6          2.61132255         -5.12594402         -5.14380495
     1          4.00103815         -4.62229396         -6.59077700
     1          3.56672534         -5.27911542         -3.32612720
     1          1.87057641         -6.98686860         -5.66343957
     6         -4.29711330         -0.43742289         -9.75172128
     1         -6.31669403         -0.73056464         -9.42848356
     1         -4.06290451          1.53366792        -10.32798576
     1         -3.68744624         -1.65584398        -11.29653323
     8         -5.18373597          2.05371753         -5.18585386
     7         -1.57347442          1.05676996          1.72284132
     1          0.62629225         -0.00290731          4.57615255
     6         -0.73589606          2.16523256          7.30187453
     1         -0.60866793          2.67612884          9.28297632
     7          0.79159442          0.43614681          6.46099636
     6          2.69139435         -0.91090850          7.99362965
     6          4.85106608          0.85897933          8.77978047
     6          1.48189403         -2.18480971         10.29874834
     1          3.44394562         -2.36571341          6.73901173
     6          6.84409481         -0.61202109         10.28321558
     1          4.07022157          2.38047161          9.94876541
     1          5.68718877          1.72860531          7.10350522
     6          3.48261569         -3.65182605         11.79461779
     1          0.65175754         -0.72934358         11.51670566
     1         -0.04918452         -3.42661397          9.68237725
     6          5.67982881         -1.93506197         12.58085206
     1          8.35715644          0.66772545         10.86842542
     1          7.70660919         -2.03067062          9.04228832
     1          2.60315756         -4.51497439         13.45354708
     1          4.20517439         -5.20057256         10.62233917
     1          7.11933066         -3.03229423         13.57935033
     1          4.98029910         -0.50467447         13.90846296
     1         -5.32435928          2.86494464         -3.24253013

 Electric dipole moment (dipole orientation):
 (Debye = 10**-18 statcoulomb cm , SI units = C m)
                  (au)            (Debye)         (10**-30 SI)
   Tot        0.299710D+01      0.761787D+01      0.254105D+02
   x          0.000000D+00      0.000000D+00      0.000000D+00
   y          0.000000D+00      0.000000D+00      0.000000D+00
   z          0.299710D+01      0.761787D+01      0.254105D+02

 Dipole polarizability, Alpha (dipole orientation).
 (esu units = cm**3 , SI units = C**2 m**2 J**-1)
 Alpha(0;0):
               (au)            (10**-24 esu)      (10**-40 SI)
   iso        0.540584D+03      0.801063D+02      0.891303D+02
   aniso      0.683938D+03      0.101349D+03      0.112766D+03
   xx         0.368490D+03      0.546046D+02      0.607559D+02
   yx        -0.191044D+03     -0.283097D+02     -0.314988D+02
   yy         0.439926D+03      0.651903D+02      0.725339D+02
   zx        -0.286701D+02     -0.424847D+01     -0.472706D+01
   zy         0.248059D+03      0.367585D+02      0.408993D+02
   zz         0.813337D+03      0.120524D+03      0.134101D+03

 ----------------------------------------------------------------------

 This type of calculation cannot be archived.


 ABALONE: AN EXPRESSION OF DISBELIEF.
 Job cpu time:       0 days  0 hours  0 minutes  4.0 seconds.
 Elapsed time:       0 days  0 hours  0 minutes  1.2 seconds.
 File lengths (MBytes):  RWF=     72 Int=      0 D2E=      0 Chk=     56 Scr=      8
 Normal termination of Gaussian 16 at Mon Dec 17 15:50:02 2018.
