 Entering Gaussian System, Link 0=g16
 Initial command:
 /gpfs/apps/hpc/Apps/Restricted/Gaussian/Rev_A.03/g16/l1.exe "/gpfs/scratch60/fas/hammes_schiffer/jg2487/c03n07/Gau-29155.inp" -scrdir="/gpfs/scratch60/fas/hammes_schiffer/jg2487/c03n07/"
 Entering Link 1 = /gpfs/apps/hpc/Apps/Restricted/Gaussian/Rev_A.03/g16/l1.exe PID=     29156.
  
 Copyright (c) 1988,1990,1992,1993,1995,1998,2003,2009,2016,
            Gaussian, Inc.  All Rights Reserved.
  
 This is part of the Gaussian(R) 16 program.  It is based on
 the Gaussian(R) 09 system (copyright 2009, Gaussian, Inc.),
 the Gaussian(R) 03 system (copyright 2003, Gaussian, Inc.),
 the Gaussian(R) 98 system (copyright 1998, Gaussian, Inc.),
 the Gaussian(R) 94 system (copyright 1995, Gaussian, Inc.),
 the Gaussian 92(TM) system (copyright 1992, Gaussian, Inc.),
 the Gaussian 90(TM) system (copyright 1990, Gaussian, Inc.),
 the Gaussian 88(TM) system (copyright 1988, Gaussian, Inc.),
 the Gaussian 86(TM) system (copyright 1986, Carnegie Mellon
 University), and the Gaussian 82(TM) system (copyright 1983,
 Carnegie Mellon University). Gaussian is a federally registered
 trademark of Gaussian, Inc.
  
 This software contains proprietary and confidential information,
 including trade secrets, belonging to Gaussian, Inc.
  
 This software is provided under written license and may be
 used, copied, transmitted, or stored only in accord with that
 written license.
  
 The following legend is applicable only to US Government
 contracts under FAR:
  
                    RESTRICTED RIGHTS LEGEND
  
 Use, reproduction and disclosure by the US Government is
 subject to restrictions as set forth in subparagraphs (a)
 and (c) of the Commercial Computer Software - Restricted
 Rights clause in FAR 52.227-19.
  
 Gaussian, Inc.
 340 Quinnipiac St., Bldg. 40, Wallingford CT 06492
  
  
 ---------------------------------------------------------------
 Warning -- This program may not be used in any manner that
 competes with the business of Gaussian, Inc. or will provide
 assistance to any competitor of Gaussian, Inc.  The licensee
 of this program is prohibited from giving any competitor of
 Gaussian, Inc. access to this program.  By using this program,
 the user acknowledges that Gaussian, Inc. is engaged in the
 business of creating and licensing software in the field of
 computational chemistry and represents and warrants to the
 licensee that it is not a competitor of Gaussian, Inc. and that
 it will not use this program in any manner prohibited above.
 ---------------------------------------------------------------
  

 Cite this work as:
 Gaussian 16, Revision A.03,
 M. J. Frisch, G. W. Trucks, H. B. Schlegel, G. E. Scuseria, 
 M. A. Robb, J. R. Cheeseman, G. Scalmani, V. Barone, 
 G. A. Petersson, H. Nakatsuji, X. Li, M. Caricato, A. V. Marenich, 
 J. Bloino, B. G. Janesko, R. Gomperts, B. Mennucci, H. P. Hratchian, 
 J. V. Ortiz, A. F. Izmaylov, J. L. Sonnenberg, D. Williams-Young, 
 F. Ding, F. Lipparini, F. Egidi, J. Goings, B. Peng, A. Petrone, 
 T. Henderson, D. Ranasinghe, V. G. Zakrzewski, J. Gao, N. Rega, 
 G. Zheng, W. Liang, M. Hada, M. Ehara, K. Toyota, R. Fukuda, 
 J. Hasegawa, M. Ishida, T. Nakajima, Y. Honda, O. Kitao, H. Nakai, 
 T. Vreven, K. Throssell, J. A. Montgomery, Jr., J. E. Peralta, 
 F. Ogliaro, M. J. Bearpark, J. J. Heyd, E. N. Brothers, K. N. Kudin, 
 V. N. Staroverov, T. A. Keith, R. Kobayashi, J. Normand, 
 K. Raghavachari, A. P. Rendell, J. C. Burant, S. S. Iyengar, 
 J. Tomasi, M. Cossi, J. M. Millam, M. Klene, C. Adamo, R. Cammi, 
 J. W. Ochterski, R. L. Martin, K. Morokuma, O. Farkas, 
 J. B. Foresman, and D. J. Fox, Gaussian, Inc., Wallingford CT, 2016.
 
 ******************************************
 Gaussian 16:  ES64L-G16RevA.03 25-Dec-2016
                21-Dec-2018 
 ******************************************
 %chk=cyclohexyl-triBIP-E4PT.chk
 %mem=10GB
 %nprocshared=16
 Will use up to   16 processors via shared memory.
 ----------------------------------------------------------------------
 #p opt=(tight,recalcfc=10) freq=internalmodes b3lyp/6-31g(d,p) scrf=(c
 pcm,solvent=dichloromethane,read) nosymm empiricaldispersion=gd3bj int
 =grid=ultrafine
 ----------------------------------------------------------------------
 1/7=10,10=4,18=20,19=15,26=6,38=1,40=2,71=10/1,3;
 2/9=110,12=2,15=1,17=6,18=5,40=1/2;
 3/5=1,6=6,7=101,11=2,25=1,30=1,70=2103,71=2,72=9,74=-5,75=-5,124=41,140=1/1,2,3;
 4//1;
 5/5=2,38=5,53=9/2;
 8/6=4,10=90,11=11/1;
 11/6=1,8=1,9=11,15=111,16=1,31=1/1,2,10;
 10/6=1,31=1/2;
 6/7=2,8=2,9=2,10=2,28=1/1;
 7/10=1,25=1,30=1/1,2,3,16;
 1/7=10,10=4,18=20,19=15,26=6,71=10/3(3);
 2/9=110,15=1/2;
 7/9=1,25=1,30=1,44=-1/16;
 99//99;
 2/9=110,15=1/2;
 3/5=1,6=6,7=101,11=2,25=1,30=1,70=2105,71=2,72=9,74=-5,75=-5,124=41,140=1/1,2,3;
 4/5=5,16=3,69=1/1;
 5/5=2,38=5,53=9/2;
 8/6=4,10=90,11=11/1;
 11/6=1,8=1,9=11,15=111,16=1,31=1/1,2,10;
 10/6=1,31=1/2;
 7/10=1,25=1,30=1/1,2,3,16;
 1/7=10,18=20,19=15,26=6,71=10/3(-8);
 2/9=110,15=1/2;
 6/7=2,8=2,9=2,10=2,19=2,28=1/1;
 7/9=1,25=1,30=1,44=-1/16;
 99/9=1/99;
 Leave Link    1 at Fri Dec 21 14:16:33 2018, MaxMem=  1342177280 cpu:               6.6 elap:               0.4
 (Enter /gpfs/apps/hpc/Apps/Restricted/Gaussian/Rev_A.03/g16/l101.exe)
 ---------------------------------------------------------------------
 cyclohexylimine triBIP oxidized, all protons transferred optimization
 ---------------------------------------------------------------------
 Symbolic Z-matrix:
 Charge =  1 Multiplicity = 2
 C                     1.60484   0.34219   1.14332 
 C                     0.53236   1.21483   0.83087 
 C                     0.70343   2.5901    0.6907 
 C                     1.99528   3.08749   0.8718 
 C                     3.07257   2.24606   1.18192 
 C                     2.90449   0.86282   1.32304 
 C                    -0.15302  -0.89317   0.9649 
 H                    -0.12713   3.24168   0.4492 
 H                     2.171     4.15159   0.7691 
 H                     4.06357   2.66197   1.31386 
 C                    -2.45256  -1.80076   0.62647 
 C                    -3.34681  -2.90367   0.59193 
 C                    -2.93257  -4.21171   0.84329 
 C                    -1.58293  -4.39391   1.13755 
 C                    -0.67727  -3.31936   1.17507 
 C                    -1.08568  -2.00665   0.92768 
 C                    -4.39461  -1.0026    0.1231 
 H                    -3.62572  -5.0429    0.81281 
 H                    -1.21525  -5.39274   1.33984 
 H                     0.36528  -3.50293   1.40174 
 N                    -0.56634   0.39109   0.72907 
 C                    -6.82293  -0.61101  -0.47825 
 C                    -5.4689   -0.09771  -0.2322 
 C                    -5.19986   1.26059  -0.34142 
 C                    -6.19708   2.17249  -0.69728 
 C                    -7.50751   1.67969  -0.95586 
 C                    -7.8578    0.35473  -0.86792 
 H                    -4.19149   1.59659  -0.14593 
 H                    -8.2622    2.39939  -1.2399 
 C                    -5.93454   3.6691   -0.81918 
 C                    -9.2722   -0.13405  -1.17505 
 O                    -7.07429  -1.84022  -0.36192 
 N                    -3.12347  -0.63655   0.33447 
 N                    -4.56333  -2.35315   0.27149 
 N                     1.15448  -0.96128   1.22038 
 C                     4.01665  -0.01078   1.64013 
 N                     3.85834  -1.36495   1.74333 
 N                     5.28492   0.3636    1.85838 
 C                     7.33059  -0.99877   2.40787 
 C                     7.76966  -2.32029   2.61439 
 C                     6.88536  -3.39942   2.54018 
 C                     5.52717  -3.21655   2.25139 
 C                     5.08627  -1.91387   2.04223 
 C                     5.96217  -0.80268   2.10938 
 H                     8.81544  -2.49523   2.83826 
 H                     7.2593   -4.40149   2.70823 
 H                     4.84818  -4.05829   2.19612 
 C                     8.24421   0.09828   2.50775 
 H                     9.28499  -0.09854   2.73724 
 N                     7.8779    1.33346   2.34607 
 C                     8.72208   2.53403   2.43487 
 C                     10.19167   2.22512   2.70582 
 C                     8.54378   3.36433   1.15696 
 H                     8.32074   3.11001   3.27665 
 C                     10.98671   3.53389   2.80917 
 H                     10.5905   1.61752   1.88434 
 H                     10.29692   1.64707   3.62865 
 C                     9.33999   4.6694    1.26098 
 H                     8.90038   2.77371   0.30619 
 H                     7.48087   3.56856   0.99606 
 C                     10.81936   4.39451   1.55211 
 H                     12.04196   3.30394   2.97877 
 H                     10.63863   4.09491   3.68437 
 H                     9.22981   5.23857   0.33394 
 H                     8.91846   5.28367   2.06572 
 H                     11.36382   5.33644   1.66592 
 H                     11.26192   3.86918   0.69706 
 H                     6.88261   1.47925   2.12514 
 H                     2.95144  -1.81454   1.61323 
 H                    -1.53522   0.61981   0.51244 
 H                    -5.47259  -2.78422   0.13515 
 C                    -9.22282  -1.13562  -2.35164 
 H                    -8.63712  -2.01534  -2.08896 
 H                    -10.23868  -1.45145  -2.60593 
 H                    -8.77972  -0.66715  -3.23471 
 C                    -6.24369   4.11284  -2.26608 
 H                    -7.27764   3.89523  -2.54298 
 H                    -6.08839   5.19087  -2.36004 
 H                    -5.58452   3.6076   -2.97615 
 C                    -10.19986   1.02315  -1.57437 
 H                    -10.29702   1.76214  -0.77398 
 H                    -9.84878   1.53676  -2.4733 
 H                    -11.19408   0.62253  -1.78332 
 C                    -9.87525  -0.81713   0.07239 
 H                    -9.28052  -1.67704   0.37634 
 H                    -9.92679  -0.11351   0.90769 
 H                    -10.89194  -1.15192  -0.15191 
 C                    -6.86543   4.42408   0.15518 
 H                    -6.70413   5.50061   0.05379 
 H                    -7.91848   4.22066  -0.05063 
 H                    -6.65681   4.14018   1.18948 
 C                    -4.48114   4.03559  -0.48842 
 H                    -4.22111   3.75704   0.5361 
 H                    -3.77736   3.54796  -1.16792 
 H                    -4.35023   5.11543  -0.58823 
 
 ITRead=  0  0  0  0  0  0  0  0  0  0  0  0  0  0  0  0  0  0  0  0
 ITRead=  0  0  0  0  0  0  0  0  0  0  0  0  0  0  0  0  0  0  0  0
 ITRead=  0  0  0  0  0  0  0  0  0  0  0  0  0  0  0  0  0  0  0  0
 ITRead=  0  0  0  0  0  0  0  0  0  0  0  0  0  0  0  0  0  0  0  0
 ITRead=  0  0  0  0  0  0  0  0  0  0  0  0  0  0  0
 MicOpt= -1 -1 -1 -1 -1 -1 -1 -1 -1 -1 -1 -1 -1 -1 -1 -1 -1 -1 -1 -1
 MicOpt= -1 -1 -1 -1 -1 -1 -1 -1 -1 -1 -1 -1 -1 -1 -1 -1 -1 -1 -1 -1
 MicOpt= -1 -1 -1 -1 -1 -1 -1 -1 -1 -1 -1 -1 -1 -1 -1 -1 -1 -1 -1 -1
 MicOpt= -1 -1 -1 -1 -1 -1 -1 -1 -1 -1 -1 -1 -1 -1 -1 -1 -1 -1 -1 -1
 MicOpt= -1 -1 -1 -1 -1 -1 -1 -1 -1 -1 -1 -1 -1 -1 -1
 NAtoms=     95 NQM=       95 NQMF=       0 NMMI=      0 NMMIF=      0
                NMic=       0 NMicF=      0.
                    Isotopes and Nuclear Properties:
 (Nuclear quadrupole moments (NQMom) in fm**2, nuclear magnetic moments (NMagM)
  in nuclear magnetons)

  Atom         1           2           3           4           5           6           7           8           9          10
 IAtWgt=          12          12          12          12          12          12          12           1           1           1
 AtmWgt=  12.0000000  12.0000000  12.0000000  12.0000000  12.0000000  12.0000000  12.0000000   1.0078250   1.0078250   1.0078250
 NucSpn=           0           0           0           0           0           0           0           1           1           1
 AtZEff=  -0.0000000  -0.0000000  -0.0000000  -0.0000000  -0.0000000  -0.0000000  -0.0000000  -0.0000000  -0.0000000  -0.0000000
 NQMom=    0.0000000   0.0000000   0.0000000   0.0000000   0.0000000   0.0000000   0.0000000   0.0000000   0.0000000   0.0000000
 NMagM=    0.0000000   0.0000000   0.0000000   0.0000000   0.0000000   0.0000000   0.0000000   2.7928460   2.7928460   2.7928460
 AtZNuc=   6.0000000   6.0000000   6.0000000   6.0000000   6.0000000   6.0000000   6.0000000   1.0000000   1.0000000   1.0000000

  Atom        11          12          13          14          15          16          17          18          19          20
 IAtWgt=          12          12          12          12          12          12          12           1           1           1
 AtmWgt=  12.0000000  12.0000000  12.0000000  12.0000000  12.0000000  12.0000000  12.0000000   1.0078250   1.0078250   1.0078250
 NucSpn=           0           0           0           0           0           0           0           1           1           1
 AtZEff=  -0.0000000  -0.0000000  -0.0000000  -0.0000000  -0.0000000  -0.0000000  -0.0000000  -0.0000000  -0.0000000  -0.0000000
 NQMom=    0.0000000   0.0000000   0.0000000   0.0000000   0.0000000   0.0000000   0.0000000   0.0000000   0.0000000   0.0000000
 NMagM=    0.0000000   0.0000000   0.0000000   0.0000000   0.0000000   0.0000000   0.0000000   2.7928460   2.7928460   2.7928460
 AtZNuc=   6.0000000   6.0000000   6.0000000   6.0000000   6.0000000   6.0000000   6.0000000   1.0000000   1.0000000   1.0000000

  Atom        21          22          23          24          25          26          27          28          29          30
 IAtWgt=          14          12          12          12          12          12          12           1           1          12
 AtmWgt=  14.0030740  12.0000000  12.0000000  12.0000000  12.0000000  12.0000000  12.0000000   1.0078250   1.0078250  12.0000000
 NucSpn=           2           0           0           0           0           0           0           1           1           0
 AtZEff=  -0.0000000  -0.0000000  -0.0000000  -0.0000000  -0.0000000  -0.0000000  -0.0000000  -0.0000000  -0.0000000  -0.0000000
 NQMom=    2.0440000   0.0000000   0.0000000   0.0000000   0.0000000   0.0000000   0.0000000   0.0000000   0.0000000   0.0000000
 NMagM=    0.4037610   0.0000000   0.0000000   0.0000000   0.0000000   0.0000000   0.0000000   2.7928460   2.7928460   0.0000000
 AtZNuc=   7.0000000   6.0000000   6.0000000   6.0000000   6.0000000   6.0000000   6.0000000   1.0000000   1.0000000   6.0000000

  Atom        31          32          33          34          35          36          37          38          39          40
 IAtWgt=          12          16          14          14          14          12          14          14          12          12
 AtmWgt=  12.0000000  15.9949146  14.0030740  14.0030740  14.0030740  12.0000000  14.0030740  14.0030740  12.0000000  12.0000000
 NucSpn=           0           0           2           2           2           0           2           2           0           0
 AtZEff=  -0.0000000  -0.0000000  -0.0000000  -0.0000000  -0.0000000  -0.0000000  -0.0000000  -0.0000000  -0.0000000  -0.0000000
 NQMom=    0.0000000   0.0000000   2.0440000   2.0440000   2.0440000   0.0000000   2.0440000   2.0440000   0.0000000   0.0000000
 NMagM=    0.0000000   0.0000000   0.4037610   0.4037610   0.4037610   0.0000000   0.4037610   0.4037610   0.0000000   0.0000000
 AtZNuc=   6.0000000   8.0000000   7.0000000   7.0000000   7.0000000   6.0000000   7.0000000   7.0000000   6.0000000   6.0000000

  Atom        41          42          43          44          45          46          47          48          49          50
 IAtWgt=          12          12          12          12           1           1           1          12           1          14
 AtmWgt=  12.0000000  12.0000000  12.0000000  12.0000000   1.0078250   1.0078250   1.0078250  12.0000000   1.0078250  14.0030740
 NucSpn=           0           0           0           0           1           1           1           0           1           2
 AtZEff=  -0.0000000  -0.0000000  -0.0000000  -0.0000000  -0.0000000  -0.0000000  -0.0000000  -0.0000000  -0.0000000  -0.0000000
 NQMom=    0.0000000   0.0000000   0.0000000   0.0000000   0.0000000   0.0000000   0.0000000   0.0000000   0.0000000   2.0440000
 NMagM=    0.0000000   0.0000000   0.0000000   0.0000000   2.7928460   2.7928460   2.7928460   0.0000000   2.7928460   0.4037610
 AtZNuc=   6.0000000   6.0000000   6.0000000   6.0000000   1.0000000   1.0000000   1.0000000   6.0000000   1.0000000   7.0000000

  Atom        51          52          53          54          55          56          57          58          59          60
 IAtWgt=          12          12          12           1          12           1           1          12           1           1
 AtmWgt=  12.0000000  12.0000000  12.0000000   1.0078250  12.0000000   1.0078250   1.0078250  12.0000000   1.0078250   1.0078250
 NucSpn=           0           0           0           1           0           1           1           0           1           1
 AtZEff=  -0.0000000  -0.0000000  -0.0000000  -0.0000000  -0.0000000  -0.0000000  -0.0000000  -0.0000000  -0.0000000  -0.0000000
 NQMom=    0.0000000   0.0000000   0.0000000   0.0000000   0.0000000   0.0000000   0.0000000   0.0000000   0.0000000   0.0000000
 NMagM=    0.0000000   0.0000000   0.0000000   2.7928460   0.0000000   2.7928460   2.7928460   0.0000000   2.7928460   2.7928460
 AtZNuc=   6.0000000   6.0000000   6.0000000   1.0000000   6.0000000   1.0000000   1.0000000   6.0000000   1.0000000   1.0000000

  Atom        61          62          63          64          65          66          67          68          69          70
 IAtWgt=          12           1           1           1           1           1           1           1           1           1
 AtmWgt=  12.0000000   1.0078250   1.0078250   1.0078250   1.0078250   1.0078250   1.0078250   1.0078250   1.0078250   1.0078250
 NucSpn=           0           1           1           1           1           1           1           1           1           1
 AtZEff=  -0.0000000  -0.0000000  -0.0000000  -0.0000000  -0.0000000  -0.0000000  -0.0000000  -0.0000000  -0.0000000  -0.0000000
 NQMom=    0.0000000   0.0000000   0.0000000   0.0000000   0.0000000   0.0000000   0.0000000   0.0000000   0.0000000   0.0000000
 NMagM=    0.0000000   2.7928460   2.7928460   2.7928460   2.7928460   2.7928460   2.7928460   2.7928460   2.7928460   2.7928460
 AtZNuc=   6.0000000   1.0000000   1.0000000   1.0000000   1.0000000   1.0000000   1.0000000   1.0000000   1.0000000   1.0000000

  Atom        71          72          73          74          75          76          77          78          79          80
 IAtWgt=           1          12           1           1           1          12           1           1           1          12
 AtmWgt=   1.0078250  12.0000000   1.0078250   1.0078250   1.0078250  12.0000000   1.0078250   1.0078250   1.0078250  12.0000000
 NucSpn=           1           0           1           1           1           0           1           1           1           0
 AtZEff=  -0.0000000  -0.0000000  -0.0000000  -0.0000000  -0.0000000  -0.0000000  -0.0000000  -0.0000000  -0.0000000  -0.0000000
 NQMom=    0.0000000   0.0000000   0.0000000   0.0000000   0.0000000   0.0000000   0.0000000   0.0000000   0.0000000   0.0000000
 NMagM=    2.7928460   0.0000000   2.7928460   2.7928460   2.7928460   0.0000000   2.7928460   2.7928460   2.7928460   0.0000000
 AtZNuc=   1.0000000   6.0000000   1.0000000   1.0000000   1.0000000   6.0000000   1.0000000   1.0000000   1.0000000   6.0000000

  Atom        81          82          83          84          85          86          87          88          89          90
 IAtWgt=           1           1           1          12           1           1           1          12           1           1
 AtmWgt=   1.0078250   1.0078250   1.0078250  12.0000000   1.0078250   1.0078250   1.0078250  12.0000000   1.0078250   1.0078250
 NucSpn=           1           1           1           0           1           1           1           0           1           1
 AtZEff=  -0.0000000  -0.0000000  -0.0000000  -0.0000000  -0.0000000  -0.0000000  -0.0000000  -0.0000000  -0.0000000  -0.0000000
 NQMom=    0.0000000   0.0000000   0.0000000   0.0000000   0.0000000   0.0000000   0.0000000   0.0000000   0.0000000   0.0000000
 NMagM=    2.7928460   2.7928460   2.7928460   0.0000000   2.7928460   2.7928460   2.7928460   0.0000000   2.7928460   2.7928460
 AtZNuc=   1.0000000   1.0000000   1.0000000   6.0000000   1.0000000   1.0000000   1.0000000   6.0000000   1.0000000   1.0000000

  Atom        91          92          93          94          95
 IAtWgt=           1          12           1           1           1
 AtmWgt=   1.0078250  12.0000000   1.0078250   1.0078250   1.0078250
 NucSpn=           1           0           1           1           1
 AtZEff=  -0.0000000  -0.0000000  -0.0000000  -0.0000000  -0.0000000
 NQMom=    0.0000000   0.0000000   0.0000000   0.0000000   0.0000000
 NMagM=    2.7928460   0.0000000   2.7928460   2.7928460   2.7928460
 AtZNuc=   1.0000000   6.0000000   1.0000000   1.0000000   1.0000000
 Leave Link  101 at Fri Dec 21 14:16:33 2018, MaxMem=  1342177280 cpu:               6.5 elap:               0.4
 (Enter /gpfs/apps/hpc/Apps/Restricted/Gaussian/Rev_A.03/g16/l103.exe)

 GradGradGradGradGradGradGradGradGradGradGradGradGradGradGradGradGradGrad
 Berny optimization.
 Initialization pass.
                           ----------------------------
                           !    Initial Parameters    !
                           ! (Angstroms and Degrees)  !
 --------------------------                            --------------------------
 ! Name  Definition              Value          Derivative Info.                !
 --------------------------------------------------------------------------------
 ! R1    R(1,2)                  1.4175         calculate D2E/DX2 analytically  !
 ! R2    R(1,6)                  1.4115         calculate D2E/DX2 analytically  !
 ! R3    R(1,35)                 1.3812         calculate D2E/DX2 analytically  !
 ! R4    R(2,3)                  1.3929         calculate D2E/DX2 analytically  !
 ! R5    R(2,21)                 1.377          calculate D2E/DX2 analytically  !
 ! R6    R(3,4)                  1.3961         calculate D2E/DX2 analytically  !
 ! R7    R(3,8)                  1.0829         calculate D2E/DX2 analytically  !
 ! R8    R(4,5)                  1.4017         calculate D2E/DX2 analytically  !
 ! R9    R(4,9)                  1.0834         calculate D2E/DX2 analytically  !
 ! R10   R(5,6)                  1.4005         calculate D2E/DX2 analytically  !
 ! R11   R(5,10)                 1.0828         calculate D2E/DX2 analytically  !
 ! R12   R(6,36)                 1.4494         calculate D2E/DX2 analytically  !
 ! R13   R(7,16)                 1.453          calculate D2E/DX2 analytically  !
 ! R14   R(7,21)                 1.3696         calculate D2E/DX2 analytically  !
 ! R15   R(7,35)                 1.334          calculate D2E/DX2 analytically  !
 ! R16   R(11,12)                1.4203         calculate D2E/DX2 analytically  !
 ! R17   R(11,16)                1.4147         calculate D2E/DX2 analytically  !
 ! R18   R(11,33)                1.375          calculate D2E/DX2 analytically  !
 ! R19   R(12,13)                1.3949         calculate D2E/DX2 analytically  !
 ! R20   R(12,34)                1.3732         calculate D2E/DX2 analytically  !
 ! R21   R(13,14)                1.3933         calculate D2E/DX2 analytically  !
 ! R22   R(13,18)                1.0827         calculate D2E/DX2 analytically  !
 ! R23   R(14,15)                1.4058         calculate D2E/DX2 analytically  !
 ! R24   R(14,19)                1.0834         calculate D2E/DX2 analytically  !
 ! R25   R(15,16)                1.3969         calculate D2E/DX2 analytically  !
 ! R26   R(15,20)                1.0826         calculate D2E/DX2 analytically  !
 ! R27   R(17,23)                1.4488         calculate D2E/DX2 analytically  !
 ! R28   R(17,33)                1.3396         calculate D2E/DX2 analytically  !
 ! R29   R(17,34)                1.3691         calculate D2E/DX2 analytically  !
 ! R30   R(21,70)                1.0188         calculate D2E/DX2 analytically  !
 ! R31   R(22,23)                1.4688         calculate D2E/DX2 analytically  !
 ! R32   R(22,27)                1.4681         calculate D2E/DX2 analytically  !
 ! R33   R(22,32)                1.26           calculate D2E/DX2 analytically  !
 ! R34   R(23,24)                1.389          calculate D2E/DX2 analytically  !
 ! R35   R(24,25)                1.3974         calculate D2E/DX2 analytically  !
 ! R36   R(24,28)                1.0807         calculate D2E/DX2 analytically  !
 ! R37   R(25,26)                1.4237         calculate D2E/DX2 analytically  !
 ! R38   R(25,30)                1.5243         calculate D2E/DX2 analytically  !
 ! R39   R(26,27)                1.3733         calculate D2E/DX2 analytically  !
 ! R40   R(26,29)                1.0808         calculate D2E/DX2 analytically  !
 ! R41   R(27,31)                1.5277         calculate D2E/DX2 analytically  !
 ! R42   R(30,76)                1.5447         calculate D2E/DX2 analytically  !
 ! R43   R(30,88)                1.5446         calculate D2E/DX2 analytically  !
 ! R44   R(30,92)                1.5349         calculate D2E/DX2 analytically  !
 ! R45   R(31,72)                1.5459         calculate D2E/DX2 analytically  !
 ! R46   R(31,80)                1.5359         calculate D2E/DX2 analytically  !
 ! R47   R(31,84)                1.5448         calculate D2E/DX2 analytically  !
 ! R48   R(34,71)                1.0155         calculate D2E/DX2 analytically  !
 ! R49   R(36,37)                1.3673         calculate D2E/DX2 analytically  !
 ! R50   R(36,38)                1.3403         calculate D2E/DX2 analytically  !
 ! R51   R(37,43)                1.3778         calculate D2E/DX2 analytically  !
 ! R52   R(37,69)                1.0205         calculate D2E/DX2 analytically  !
 ! R53   R(38,44)                1.3718         calculate D2E/DX2 analytically  !
 ! R54   R(39,40)                1.4078         calculate D2E/DX2 analytically  !
 ! R55   R(39,44)                1.4143         calculate D2E/DX2 analytically  !
 ! R56   R(39,48)                1.4311         calculate D2E/DX2 analytically  !
 ! R57   R(40,41)                1.3971         calculate D2E/DX2 analytically  !
 ! R58   R(40,45)                1.0837         calculate D2E/DX2 analytically  !
 ! R59   R(41,42)                1.4005         calculate D2E/DX2 analytically  !
 ! R60   R(41,46)                1.0827         calculate D2E/DX2 analytically  !
 ! R61   R(42,43)                1.3911         calculate D2E/DX2 analytically  !
 ! R62   R(42,47)                1.0829         calculate D2E/DX2 analytically  !
 ! R63   R(43,44)                1.4165         calculate D2E/DX2 analytically  !
 ! R64   R(48,49)                1.0838         calculate D2E/DX2 analytically  !
 ! R65   R(48,50)                1.2985         calculate D2E/DX2 analytically  !
 ! R66   R(50,51)                1.4703         calculate D2E/DX2 analytically  !
 ! R67   R(50,68)                1.0299         calculate D2E/DX2 analytically  !
 ! R68   R(51,52)                1.526          calculate D2E/DX2 analytically  !
 ! R69   R(51,53)                1.5343         calculate D2E/DX2 analytically  !
 ! R70   R(51,54)                1.0961         calculate D2E/DX2 analytically  !
 ! R71   R(52,55)                1.5348         calculate D2E/DX2 analytically  !
 ! R72   R(52,56)                1.0968         calculate D2E/DX2 analytically  !
 ! R73   R(52,57)                1.094          calculate D2E/DX2 analytically  !
 ! R74   R(53,58)                1.5323         calculate D2E/DX2 analytically  !
 ! R75   R(53,59)                1.0954         calculate D2E/DX2 analytically  !
 ! R76   R(53,60)                1.0942         calculate D2E/DX2 analytically  !
 ! R77   R(55,61)                1.5326         calculate D2E/DX2 analytically  !
 ! R78   R(55,62)                1.0933         calculate D2E/DX2 analytically  !
 ! R79   R(55,63)                1.0963         calculate D2E/DX2 analytically  !
 ! R80   R(58,61)                1.5326         calculate D2E/DX2 analytically  !
 ! R81   R(58,64)                1.0934         calculate D2E/DX2 analytically  !
 ! R82   R(58,65)                1.0966         calculate D2E/DX2 analytically  !
 ! R83   R(61,66)                1.0939         calculate D2E/DX2 analytically  !
 ! R84   R(61,67)                1.0968         calculate D2E/DX2 analytically  !
 ! R85   R(72,73)                1.089          calculate D2E/DX2 analytically  !
 ! R86   R(72,74)                1.0938         calculate D2E/DX2 analytically  !
 ! R87   R(72,75)                1.0934         calculate D2E/DX2 analytically  !
 ! R88   R(76,77)                1.0923         calculate D2E/DX2 analytically  !
 ! R89   R(76,78)                1.0932         calculate D2E/DX2 analytically  !
 ! R90   R(76,79)                1.0927         calculate D2E/DX2 analytically  !
 ! R91   R(80,81)                1.0937         calculate D2E/DX2 analytically  !
 ! R92   R(80,82)                1.0932         calculate D2E/DX2 analytically  !
 ! R93   R(80,83)                1.0921         calculate D2E/DX2 analytically  !
 ! R94   R(84,85)                1.0888         calculate D2E/DX2 analytically  !
 ! R95   R(84,86)                1.0934         calculate D2E/DX2 analytically  !
 ! R96   R(84,87)                1.0936         calculate D2E/DX2 analytically  !
 ! R97   R(88,89)                1.0933         calculate D2E/DX2 analytically  !
 ! R98   R(88,90)                1.0921         calculate D2E/DX2 analytically  !
 ! R99   R(88,91)                1.0927         calculate D2E/DX2 analytically  !
 ! R100  R(92,93)                1.0931         calculate D2E/DX2 analytically  !
 ! R101  R(92,94)                1.0931         calculate D2E/DX2 analytically  !
 ! R102  R(92,95)                1.0923         calculate D2E/DX2 analytically  !
 ! A1    A(2,1,6)              119.8428         calculate D2E/DX2 analytically  !
 ! A2    A(2,1,35)             110.2772         calculate D2E/DX2 analytically  !
 ! A3    A(6,1,35)             129.8799         calculate D2E/DX2 analytically  !
 ! A4    A(1,2,3)              122.4844         calculate D2E/DX2 analytically  !
 ! A5    A(1,2,21)             104.5788         calculate D2E/DX2 analytically  !
 ! A6    A(3,2,21)             132.9367         calculate D2E/DX2 analytically  !
 ! A7    A(2,3,4)              116.8937         calculate D2E/DX2 analytically  !
 ! A8    A(2,3,8)              121.4872         calculate D2E/DX2 analytically  !
 ! A9    A(4,3,8)              121.6188         calculate D2E/DX2 analytically  !
 ! A10   A(3,4,5)              121.7366         calculate D2E/DX2 analytically  !
 ! A11   A(3,4,9)              119.1907         calculate D2E/DX2 analytically  !
 ! A12   A(5,4,9)              119.0726         calculate D2E/DX2 analytically  !
 ! A13   A(4,5,6)              121.5293         calculate D2E/DX2 analytically  !
 ! A14   A(4,5,10)             119.9859         calculate D2E/DX2 analytically  !
 ! A15   A(6,5,10)             118.4842         calculate D2E/DX2 analytically  !
 ! A16   A(1,6,5)              117.5131         calculate D2E/DX2 analytically  !
 ! A17   A(1,6,36)             120.8011         calculate D2E/DX2 analytically  !
 ! A18   A(5,6,36)             121.6858         calculate D2E/DX2 analytically  !
 ! A19   A(16,7,21)            121.3648         calculate D2E/DX2 analytically  !
 ! A20   A(16,7,35)            126.5087         calculate D2E/DX2 analytically  !
 ! A21   A(21,7,35)            112.1264         calculate D2E/DX2 analytically  !
 ! A22   A(12,11,16)           120.0317         calculate D2E/DX2 analytically  !
 ! A23   A(12,11,33)           110.1875         calculate D2E/DX2 analytically  !
 ! A24   A(16,11,33)           129.7804         calculate D2E/DX2 analytically  !
 ! A25   A(11,12,13)           122.4668         calculate D2E/DX2 analytically  !
 ! A26   A(11,12,34)           104.6044         calculate D2E/DX2 analytically  !
 ! A27   A(13,12,34)           132.9277         calculate D2E/DX2 analytically  !
 ! A28   A(12,13,14)           116.6376         calculate D2E/DX2 analytically  !
 ! A29   A(12,13,18)           121.6475         calculate D2E/DX2 analytically  !
 ! A30   A(14,13,18)           121.7148         calculate D2E/DX2 analytically  !
 ! A31   A(13,14,15)           121.9865         calculate D2E/DX2 analytically  !
 ! A32   A(13,14,19)           119.257          calculate D2E/DX2 analytically  !
 ! A33   A(15,14,19)           118.7559         calculate D2E/DX2 analytically  !
 ! A34   A(14,15,16)           121.6841         calculate D2E/DX2 analytically  !
 ! A35   A(14,15,20)           119.7611         calculate D2E/DX2 analytically  !
 ! A36   A(16,15,20)           118.5548         calculate D2E/DX2 analytically  !
 ! A37   A(7,16,11)            120.9379         calculate D2E/DX2 analytically  !
 ! A38   A(7,16,15)            121.8688         calculate D2E/DX2 analytically  !
 ! A39   A(11,16,15)           117.1916         calculate D2E/DX2 analytically  !
 ! A40   A(23,17,33)           124.8642         calculate D2E/DX2 analytically  !
 ! A41   A(23,17,34)           123.4558         calculate D2E/DX2 analytically  !
 ! A42   A(33,17,34)           111.6775         calculate D2E/DX2 analytically  !
 ! A43   A(2,21,7)             107.9045         calculate D2E/DX2 analytically  !
 ! A44   A(2,21,70)            129.809          calculate D2E/DX2 analytically  !
 ! A45   A(7,21,70)            122.2837         calculate D2E/DX2 analytically  !
 ! A46   A(23,22,27)           117.6707         calculate D2E/DX2 analytically  !
 ! A47   A(23,22,32)           120.6207         calculate D2E/DX2 analytically  !
 ! A48   A(27,22,32)           121.7078         calculate D2E/DX2 analytically  !
 ! A49   A(17,23,22)           120.4214         calculate D2E/DX2 analytically  !
 ! A50   A(17,23,24)           119.1055         calculate D2E/DX2 analytically  !
 ! A51   A(22,23,24)           120.4727         calculate D2E/DX2 analytically  !
 ! A52   A(23,24,25)           121.3296         calculate D2E/DX2 analytically  !
 ! A53   A(23,24,28)           118.0699         calculate D2E/DX2 analytically  !
 ! A54   A(25,24,28)           120.6002         calculate D2E/DX2 analytically  !
 ! A55   A(24,25,26)           118.5043         calculate D2E/DX2 analytically  !
 ! A56   A(24,25,30)           122.5584         calculate D2E/DX2 analytically  !
 ! A57   A(26,25,30)           118.9372         calculate D2E/DX2 analytically  !
 ! A58   A(25,26,27)           123.8558         calculate D2E/DX2 analytically  !
 ! A59   A(25,26,29)           117.3826         calculate D2E/DX2 analytically  !
 ! A60   A(27,26,29)           118.7614         calculate D2E/DX2 analytically  !
 ! A61   A(22,27,26)           118.1536         calculate D2E/DX2 analytically  !
 ! A62   A(22,27,31)           119.7041         calculate D2E/DX2 analytically  !
 ! A63   A(26,27,31)           122.1391         calculate D2E/DX2 analytically  !
 ! A64   A(25,30,76)           108.8134         calculate D2E/DX2 analytically  !
 ! A65   A(25,30,88)           109.0042         calculate D2E/DX2 analytically  !
 ! A66   A(25,30,92)           112.3507         calculate D2E/DX2 analytically  !
 ! A67   A(76,30,88)           109.259          calculate D2E/DX2 analytically  !
 ! A68   A(76,30,92)           108.83           calculate D2E/DX2 analytically  !
 ! A69   A(88,30,92)           108.5423         calculate D2E/DX2 analytically  !
 ! A70   A(27,31,72)           109.3131         calculate D2E/DX2 analytically  !
 ! A71   A(27,31,80)           111.7401         calculate D2E/DX2 analytically  !
 ! A72   A(27,31,84)           109.911          calculate D2E/DX2 analytically  !
 ! A73   A(72,31,80)           108.0315         calculate D2E/DX2 analytically  !
 ! A74   A(72,31,84)           109.9121         calculate D2E/DX2 analytically  !
 ! A75   A(80,31,84)           107.8971         calculate D2E/DX2 analytically  !
 ! A76   A(11,33,17)           105.3756         calculate D2E/DX2 analytically  !
 ! A77   A(12,34,17)           108.1548         calculate D2E/DX2 analytically  !
 ! A78   A(12,34,71)           130.8737         calculate D2E/DX2 analytically  !
 ! A79   A(17,34,71)           120.9671         calculate D2E/DX2 analytically  !
 ! A80   A(1,35,7)             105.1126         calculate D2E/DX2 analytically  !
 ! A81   A(6,36,37)            121.6438         calculate D2E/DX2 analytically  !
 ! A82   A(6,36,38)            126.3975         calculate D2E/DX2 analytically  !
 ! A83   A(37,36,38)           111.9582         calculate D2E/DX2 analytically  !
 ! A84   A(36,37,43)           107.9239         calculate D2E/DX2 analytically  !
 ! A85   A(36,37,69)           121.9765         calculate D2E/DX2 analytically  !
 ! A86   A(43,37,69)           130.0984         calculate D2E/DX2 analytically  !
 ! A87   A(36,38,44)           105.0392         calculate D2E/DX2 analytically  !
 ! A88   A(40,39,44)           117.5745         calculate D2E/DX2 analytically  !
 ! A89   A(40,39,48)           120.68           calculate D2E/DX2 analytically  !
 ! A90   A(44,39,48)           121.7443         calculate D2E/DX2 analytically  !
 ! A91   A(39,40,41)           121.3225         calculate D2E/DX2 analytically  !
 ! A92   A(39,40,45)           118.8701         calculate D2E/DX2 analytically  !
 ! A93   A(41,40,45)           119.807          calculate D2E/DX2 analytically  !
 ! A94   A(40,41,42)           121.5943         calculate D2E/DX2 analytically  !
 ! A95   A(40,41,46)           119.2102         calculate D2E/DX2 analytically  !
 ! A96   A(42,41,46)           119.1954         calculate D2E/DX2 analytically  !
 ! A97   A(41,42,43)           117.428          calculate D2E/DX2 analytically  !
 ! A98   A(41,42,47)           121.1376         calculate D2E/DX2 analytically  !
 ! A99   A(43,42,47)           121.4342         calculate D2E/DX2 analytically  !
 ! A100  A(37,43,42)           133.4836         calculate D2E/DX2 analytically  !
 ! A101  A(37,43,44)           104.4091         calculate D2E/DX2 analytically  !
 ! A102  A(42,43,44)           122.1066         calculate D2E/DX2 analytically  !
 ! A103  A(38,44,39)           129.3597         calculate D2E/DX2 analytically  !
 ! A104  A(38,44,43)           110.6695         calculate D2E/DX2 analytically  !
 ! A105  A(39,44,43)           119.9706         calculate D2E/DX2 analytically  !
 ! A106  A(39,48,49)           119.2491         calculate D2E/DX2 analytically  !
 ! A107  A(39,48,50)           122.7121         calculate D2E/DX2 analytically  !
 ! A108  A(49,48,50)           118.0358         calculate D2E/DX2 analytically  !
 ! A109  A(48,50,51)           127.391          calculate D2E/DX2 analytically  !
 ! A110  A(48,50,68)           115.7219         calculate D2E/DX2 analytically  !
 ! A111  A(51,50,68)           116.8859         calculate D2E/DX2 analytically  !
 ! A112  A(50,51,52)           113.4754         calculate D2E/DX2 analytically  !
 ! A113  A(50,51,53)           108.9558         calculate D2E/DX2 analytically  !
 ! A114  A(50,51,54)           105.3805         calculate D2E/DX2 analytically  !
 ! A115  A(52,51,53)           111.6753         calculate D2E/DX2 analytically  !
 ! A116  A(52,51,54)           108.8227         calculate D2E/DX2 analytically  !
 ! A117  A(53,51,54)           108.2235         calculate D2E/DX2 analytically  !
 ! A118  A(51,52,55)           109.7673         calculate D2E/DX2 analytically  !
 ! A119  A(51,52,56)           109.229          calculate D2E/DX2 analytically  !
 ! A120  A(51,52,57)           110.4506         calculate D2E/DX2 analytically  !
 ! A121  A(55,52,56)           109.5386         calculate D2E/DX2 analytically  !
 ! A122  A(55,52,57)           110.1162         calculate D2E/DX2 analytically  !
 ! A123  A(56,52,57)           107.7033         calculate D2E/DX2 analytically  !
 ! A124  A(51,53,58)           110.1187         calculate D2E/DX2 analytically  !
 ! A125  A(51,53,59)           108.4987         calculate D2E/DX2 analytically  !
 ! A126  A(51,53,60)           109.6543         calculate D2E/DX2 analytically  !
 ! A127  A(58,53,59)           110.0476         calculate D2E/DX2 analytically  !
 ! A128  A(58,53,60)           110.8395         calculate D2E/DX2 analytically  !
 ! A129  A(59,53,60)           107.6174         calculate D2E/DX2 analytically  !
 ! A130  A(52,55,61)           111.5335         calculate D2E/DX2 analytically  !
 ! A131  A(52,55,62)           109.3347         calculate D2E/DX2 analytically  !
 ! A132  A(52,55,63)           109.0057         calculate D2E/DX2 analytically  !
 ! A133  A(61,55,62)           110.5333         calculate D2E/DX2 analytically  !
 ! A134  A(61,55,63)           109.4365         calculate D2E/DX2 analytically  !
 ! A135  A(62,55,63)           106.8734         calculate D2E/DX2 analytically  !
 ! A136  A(53,58,61)           111.2045         calculate D2E/DX2 analytically  !
 ! A137  A(53,58,64)           109.4779         calculate D2E/DX2 analytically  !
 ! A138  A(53,58,65)           109.0963         calculate D2E/DX2 analytically  !
 ! A139  A(61,58,64)           110.5908         calculate D2E/DX2 analytically  !
 ! A140  A(61,58,65)           109.3966         calculate D2E/DX2 analytically  !
 ! A141  A(64,58,65)           106.9695         calculate D2E/DX2 analytically  !
 ! A142  A(55,61,58)           111.2184         calculate D2E/DX2 analytically  !
 ! A143  A(55,61,66)           110.1116         calculate D2E/DX2 analytically  !
 ! A144  A(55,61,67)           109.0512         calculate D2E/DX2 analytically  !
 ! A145  A(58,61,66)           110.228          calculate D2E/DX2 analytically  !
 ! A146  A(58,61,67)           109.1057         calculate D2E/DX2 analytically  !
 ! A147  A(66,61,67)           107.0196         calculate D2E/DX2 analytically  !
 ! A148  A(31,72,73)           110.9131         calculate D2E/DX2 analytically  !
 ! A149  A(31,72,74)           109.5326         calculate D2E/DX2 analytically  !
 ! A150  A(31,72,75)           110.4885         calculate D2E/DX2 analytically  !
 ! A151  A(73,72,74)           108.8043         calculate D2E/DX2 analytically  !
 ! A152  A(73,72,75)           108.8418         calculate D2E/DX2 analytically  !
 ! A153  A(74,72,75)           108.1991         calculate D2E/DX2 analytically  !
 ! A154  A(30,76,77)           111.6959         calculate D2E/DX2 analytically  !
 ! A155  A(30,76,78)           109.5948         calculate D2E/DX2 analytically  !
 ! A156  A(30,76,79)           110.8013         calculate D2E/DX2 analytically  !
 ! A157  A(77,76,78)           108.0083         calculate D2E/DX2 analytically  !
 ! A158  A(77,76,79)           108.3115         calculate D2E/DX2 analytically  !
 ! A159  A(78,76,79)           108.3253         calculate D2E/DX2 analytically  !
 ! A160  A(31,80,81)           111.8679         calculate D2E/DX2 analytically  !
 ! A161  A(31,80,82)           111.9491         calculate D2E/DX2 analytically  !
 ! A162  A(31,80,83)           108.857          calculate D2E/DX2 analytically  !
 ! A163  A(81,80,82)           108.231          calculate D2E/DX2 analytically  !
 ! A164  A(81,80,83)           107.8791         calculate D2E/DX2 analytically  !
 ! A165  A(82,80,83)           107.9014         calculate D2E/DX2 analytically  !
 ! A166  A(31,84,85)           111.1867         calculate D2E/DX2 analytically  !
 ! A167  A(31,84,86)           110.534          calculate D2E/DX2 analytically  !
 ! A168  A(31,84,87)           109.4302         calculate D2E/DX2 analytically  !
 ! A169  A(85,84,86)           108.7065         calculate D2E/DX2 analytically  !
 ! A170  A(85,84,87)           108.8605         calculate D2E/DX2 analytically  !
 ! A171  A(86,84,87)           108.0508         calculate D2E/DX2 analytically  !
 ! A172  A(30,88,89)           109.5045         calculate D2E/DX2 analytically  !
 ! A173  A(30,88,90)           111.7893         calculate D2E/DX2 analytically  !
 ! A174  A(30,88,91)           110.7965         calculate D2E/DX2 analytically  !
 ! A175  A(89,88,90)           107.9512         calculate D2E/DX2 analytically  !
 ! A176  A(89,88,91)           108.3891         calculate D2E/DX2 analytically  !
 ! A177  A(90,88,91)           108.3059         calculate D2E/DX2 analytically  !
 ! A178  A(30,92,93)           111.4921         calculate D2E/DX2 analytically  !
 ! A179  A(30,92,94)           111.6652         calculate D2E/DX2 analytically  !
 ! A180  A(30,92,95)           109.2588         calculate D2E/DX2 analytically  !
 ! A181  A(93,92,94)           108.4085         calculate D2E/DX2 analytically  !
 ! A182  A(93,92,95)           108.0014         calculate D2E/DX2 analytically  !
 ! A183  A(94,92,95)           107.8814         calculate D2E/DX2 analytically  !
 ! D1    D(6,1,2,3)             -0.0416         calculate D2E/DX2 analytically  !
 ! D2    D(6,1,2,21)          -179.9251         calculate D2E/DX2 analytically  !
 ! D3    D(35,1,2,3)          -179.9463         calculate D2E/DX2 analytically  !
 ! D4    D(35,1,2,21)            0.1702         calculate D2E/DX2 analytically  !
 ! D5    D(2,1,6,5)              0.0672         calculate D2E/DX2 analytically  !
 ! D6    D(2,1,6,36)          -179.8665         calculate D2E/DX2 analytically  !
 ! D7    D(35,1,6,5)           179.9507         calculate D2E/DX2 analytically  !
 ! D8    D(35,1,6,36)            0.0171         calculate D2E/DX2 analytically  !
 ! D9    D(2,1,35,7)            -0.0543         calculate D2E/DX2 analytically  !
 ! D10   D(6,1,35,7)          -179.9466         calculate D2E/DX2 analytically  !
 ! D11   D(1,2,3,4)              0.0437         calculate D2E/DX2 analytically  !
 ! D12   D(1,2,3,8)            179.8447         calculate D2E/DX2 analytically  !
 ! D13   D(21,2,3,4)           179.8897         calculate D2E/DX2 analytically  !
 ! D14   D(21,2,3,8)            -0.3093         calculate D2E/DX2 analytically  !
 ! D15   D(1,2,21,7)            -0.2164         calculate D2E/DX2 analytically  !
 ! D16   D(1,2,21,70)         -179.6088         calculate D2E/DX2 analytically  !
 ! D17   D(3,2,21,7)           179.9178         calculate D2E/DX2 analytically  !
 ! D18   D(3,2,21,70)            0.5254         calculate D2E/DX2 analytically  !
 ! D19   D(2,3,4,5)             -0.0757         calculate D2E/DX2 analytically  !
 ! D20   D(2,3,4,9)            179.857          calculate D2E/DX2 analytically  !
 ! D21   D(8,3,4,5)           -179.8764         calculate D2E/DX2 analytically  !
 ! D22   D(8,3,4,9)              0.0563         calculate D2E/DX2 analytically  !
 ! D23   D(3,4,5,6)              0.108          calculate D2E/DX2 analytically  !
 ! D24   D(3,4,5,10)           179.843          calculate D2E/DX2 analytically  !
 ! D25   D(9,4,5,6)           -179.8248         calculate D2E/DX2 analytically  !
 ! D26   D(9,4,5,10)            -0.0898         calculate D2E/DX2 analytically  !
 ! D27   D(4,5,6,1)             -0.1003         calculate D2E/DX2 analytically  !
 ! D28   D(4,5,6,36)           179.8327         calculate D2E/DX2 analytically  !
 ! D29   D(10,5,6,1)          -179.8392         calculate D2E/DX2 analytically  !
 ! D30   D(10,5,6,36)            0.0939         calculate D2E/DX2 analytically  !
 ! D31   D(1,6,36,37)            1.6658         calculate D2E/DX2 analytically  !
 ! D32   D(1,6,36,38)         -178.6361         calculate D2E/DX2 analytically  !
 ! D33   D(5,6,36,37)         -178.265          calculate D2E/DX2 analytically  !
 ! D34   D(5,6,36,38)            1.433          calculate D2E/DX2 analytically  !
 ! D35   D(21,7,16,11)           0.9174         calculate D2E/DX2 analytically  !
 ! D36   D(21,7,16,15)        -179.5772         calculate D2E/DX2 analytically  !
 ! D37   D(35,7,16,11)        -179.2025         calculate D2E/DX2 analytically  !
 ! D38   D(35,7,16,15)           0.3029         calculate D2E/DX2 analytically  !
 ! D39   D(16,7,21,2)         -179.9039         calculate D2E/DX2 analytically  !
 ! D40   D(16,7,21,70)          -0.456          calculate D2E/DX2 analytically  !
 ! D41   D(35,7,21,2)            0.2001         calculate D2E/DX2 analytically  !
 ! D42   D(35,7,21,70)         179.648          calculate D2E/DX2 analytically  !
 ! D43   D(16,7,35,1)         -179.9777         calculate D2E/DX2 analytically  !
 ! D44   D(21,7,35,1)           -0.0882         calculate D2E/DX2 analytically  !
 ! D45   D(16,11,12,13)         -0.1656         calculate D2E/DX2 analytically  !
 ! D46   D(16,11,12,34)       -179.8261         calculate D2E/DX2 analytically  !
 ! D47   D(33,11,12,13)        179.6378         calculate D2E/DX2 analytically  !
 ! D48   D(33,11,12,34)         -0.0228         calculate D2E/DX2 analytically  !
 ! D49   D(12,11,16,7)         179.8375         calculate D2E/DX2 analytically  !
 ! D50   D(12,11,16,15)          0.3097         calculate D2E/DX2 analytically  !
 ! D51   D(33,11,16,7)           0.0777         calculate D2E/DX2 analytically  !
 ! D52   D(33,11,16,15)       -179.4501         calculate D2E/DX2 analytically  !
 ! D53   D(12,11,33,17)         -0.0741         calculate D2E/DX2 analytically  !
 ! D54   D(16,11,33,17)        179.7043         calculate D2E/DX2 analytically  !
 ! D55   D(11,12,13,14)          0.1417         calculate D2E/DX2 analytically  !
 ! D56   D(11,12,13,18)       -179.9611         calculate D2E/DX2 analytically  !
 ! D57   D(34,12,13,14)        179.6931         calculate D2E/DX2 analytically  !
 ! D58   D(34,12,13,18)         -0.4097         calculate D2E/DX2 analytically  !
 ! D59   D(11,12,34,17)          0.1099         calculate D2E/DX2 analytically  !
 ! D60   D(11,12,34,71)        179.3356         calculate D2E/DX2 analytically  !
 ! D61   D(13,12,34,17)       -179.499          calculate D2E/DX2 analytically  !
 ! D62   D(13,12,34,71)         -0.2733         calculate D2E/DX2 analytically  !
 ! D63   D(12,13,14,15)         -0.2802         calculate D2E/DX2 analytically  !
 ! D64   D(12,13,14,19)        179.9969         calculate D2E/DX2 analytically  !
 ! D65   D(18,13,14,15)        179.8226         calculate D2E/DX2 analytically  !
 ! D66   D(18,13,14,19)          0.0997         calculate D2E/DX2 analytically  !
 ! D67   D(13,14,15,16)          0.4544         calculate D2E/DX2 analytically  !
 ! D68   D(13,14,15,20)       -179.6236         calculate D2E/DX2 analytically  !
 ! D69   D(19,14,15,16)       -179.8214         calculate D2E/DX2 analytically  !
 ! D70   D(19,14,15,20)          0.1007         calculate D2E/DX2 analytically  !
 ! D71   D(14,15,16,7)        -179.9755         calculate D2E/DX2 analytically  !
 ! D72   D(14,15,16,11)         -0.4524         calculate D2E/DX2 analytically  !
 ! D73   D(20,15,16,7)           0.1016         calculate D2E/DX2 analytically  !
 ! D74   D(20,15,16,11)        179.6246         calculate D2E/DX2 analytically  !
 ! D75   D(33,17,23,22)        178.2962         calculate D2E/DX2 analytically  !
 ! D76   D(33,17,23,24)         -1.4825         calculate D2E/DX2 analytically  !
 ! D77   D(34,17,23,22)         -1.0723         calculate D2E/DX2 analytically  !
 ! D78   D(34,17,23,24)        179.149          calculate D2E/DX2 analytically  !
 ! D79   D(23,17,33,11)       -179.2859         calculate D2E/DX2 analytically  !
 ! D80   D(34,17,33,11)          0.1471         calculate D2E/DX2 analytically  !
 ! D81   D(23,17,34,12)        179.2755         calculate D2E/DX2 analytically  !
 ! D82   D(23,17,34,71)         -0.0417         calculate D2E/DX2 analytically  !
 ! D83   D(33,17,34,12)         -0.1669         calculate D2E/DX2 analytically  !
 ! D84   D(33,17,34,71)       -179.4841         calculate D2E/DX2 analytically  !
 ! D85   D(27,22,23,17)       -178.4671         calculate D2E/DX2 analytically  !
 ! D86   D(27,22,23,24)          1.3085         calculate D2E/DX2 analytically  !
 ! D87   D(32,22,23,17)          1.211          calculate D2E/DX2 analytically  !
 ! D88   D(32,22,23,24)       -179.0134         calculate D2E/DX2 analytically  !
 ! D89   D(23,22,27,26)         -1.1568         calculate D2E/DX2 analytically  !
 ! D90   D(23,22,27,31)        178.2089         calculate D2E/DX2 analytically  !
 ! D91   D(32,22,27,26)        179.1687         calculate D2E/DX2 analytically  !
 ! D92   D(32,22,27,31)         -1.4656         calculate D2E/DX2 analytically  !
 ! D93   D(17,23,24,25)        179.2075         calculate D2E/DX2 analytically  !
 ! D94   D(17,23,24,28)         -0.5953         calculate D2E/DX2 analytically  !
 ! D95   D(22,23,24,25)         -0.571          calculate D2E/DX2 analytically  !
 ! D96   D(22,23,24,28)        179.6262         calculate D2E/DX2 analytically  !
 ! D97   D(23,24,25,26)         -0.322          calculate D2E/DX2 analytically  !
 ! D98   D(23,24,25,30)        179.7172         calculate D2E/DX2 analytically  !
 ! D99   D(28,24,25,26)        179.4759         calculate D2E/DX2 analytically  !
 ! D100  D(28,24,25,30)         -0.485          calculate D2E/DX2 analytically  !
 ! D101  D(24,25,26,27)          0.4633         calculate D2E/DX2 analytically  !
 ! D102  D(24,25,26,29)       -179.3619         calculate D2E/DX2 analytically  !
 ! D103  D(30,25,26,27)       -179.5745         calculate D2E/DX2 analytically  !
 ! D104  D(30,25,26,29)          0.6004         calculate D2E/DX2 analytically  !
 ! D105  D(24,25,30,76)        119.7009         calculate D2E/DX2 analytically  !
 ! D106  D(24,25,30,88)       -121.2289         calculate D2E/DX2 analytically  !
 ! D107  D(24,25,30,92)         -0.8799         calculate D2E/DX2 analytically  !
 ! D108  D(26,25,30,76)        -60.2597         calculate D2E/DX2 analytically  !
 ! D109  D(26,25,30,88)         58.8104         calculate D2E/DX2 analytically  !
 ! D110  D(26,25,30,92)        179.1594         calculate D2E/DX2 analytically  !
 ! D111  D(25,26,27,22)          0.3035         calculate D2E/DX2 analytically  !
 ! D112  D(25,26,27,31)       -179.0459         calculate D2E/DX2 analytically  !
 ! D113  D(29,26,27,22)       -179.8736         calculate D2E/DX2 analytically  !
 ! D114  D(29,26,27,31)          0.7771         calculate D2E/DX2 analytically  !
 ! D115  D(22,27,31,72)        -59.9432         calculate D2E/DX2 analytically  !
 ! D116  D(22,27,31,80)       -179.4719         calculate D2E/DX2 analytically  !
 ! D117  D(22,27,31,84)         60.772          calculate D2E/DX2 analytically  !
 ! D118  D(26,27,31,72)        119.3963         calculate D2E/DX2 analytically  !
 ! D119  D(26,27,31,80)         -0.1324         calculate D2E/DX2 analytically  !
 ! D120  D(26,27,31,84)       -119.8885         calculate D2E/DX2 analytically  !
 ! D121  D(25,30,76,77)         58.6495         calculate D2E/DX2 analytically  !
 ! D122  D(25,30,76,78)        178.3068         calculate D2E/DX2 analytically  !
 ! D123  D(25,30,76,79)        -62.205          calculate D2E/DX2 analytically  !
 ! D124  D(88,30,76,77)        -60.2611         calculate D2E/DX2 analytically  !
 ! D125  D(88,30,76,78)         59.3962         calculate D2E/DX2 analytically  !
 ! D126  D(88,30,76,79)        178.8844         calculate D2E/DX2 analytically  !
 ! D127  D(92,30,76,77)       -178.6238         calculate D2E/DX2 analytically  !
 ! D128  D(92,30,76,78)        -58.9664         calculate D2E/DX2 analytically  !
 ! D129  D(92,30,76,79)         60.5217         calculate D2E/DX2 analytically  !
 ! D130  D(25,30,88,89)       -178.3883         calculate D2E/DX2 analytically  !
 ! D131  D(25,30,88,90)        -58.8026         calculate D2E/DX2 analytically  !
 ! D132  D(25,30,88,91)         62.1051         calculate D2E/DX2 analytically  !
 ! D133  D(76,30,88,89)        -59.5963         calculate D2E/DX2 analytically  !
 ! D134  D(76,30,88,90)         59.9893         calculate D2E/DX2 analytically  !
 ! D135  D(76,30,88,91)       -179.103          calculate D2E/DX2 analytically  !
 ! D136  D(92,30,88,89)         58.9459         calculate D2E/DX2 analytically  !
 ! D137  D(92,30,88,90)        178.5316         calculate D2E/DX2 analytically  !
 ! D138  D(92,30,88,91)        -60.5607         calculate D2E/DX2 analytically  !
 ! D139  D(25,30,92,93)        -60.5209         calculate D2E/DX2 analytically  !
 ! D140  D(25,30,92,94)         60.9189         calculate D2E/DX2 analytically  !
 ! D141  D(25,30,92,95)       -179.8217         calculate D2E/DX2 analytically  !
 ! D142  D(76,30,92,93)        178.9078         calculate D2E/DX2 analytically  !
 ! D143  D(76,30,92,94)        -59.6524         calculate D2E/DX2 analytically  !
 ! D144  D(76,30,92,95)         59.607          calculate D2E/DX2 analytically  !
 ! D145  D(88,30,92,93)         60.0948         calculate D2E/DX2 analytically  !
 ! D146  D(88,30,92,94)       -178.4654         calculate D2E/DX2 analytically  !
 ! D147  D(88,30,92,95)        -59.206          calculate D2E/DX2 analytically  !
 ! D148  D(27,31,72,73)         62.5743         calculate D2E/DX2 analytically  !
 ! D149  D(27,31,72,74)       -177.3131         calculate D2E/DX2 analytically  !
 ! D150  D(27,31,72,75)        -58.2137         calculate D2E/DX2 analytically  !
 ! D151  D(80,31,72,73)       -175.6336         calculate D2E/DX2 analytically  !
 ! D152  D(80,31,72,74)        -55.521          calculate D2E/DX2 analytically  !
 ! D153  D(80,31,72,75)         63.5784         calculate D2E/DX2 analytically  !
 ! D154  D(84,31,72,73)        -58.1402         calculate D2E/DX2 analytically  !
 ! D155  D(84,31,72,74)         61.9724         calculate D2E/DX2 analytically  !
 ! D156  D(84,31,72,75)       -178.9281         calculate D2E/DX2 analytically  !
 ! D157  D(27,31,80,81)        -60.9165         calculate D2E/DX2 analytically  !
 ! D158  D(27,31,80,82)         60.7646         calculate D2E/DX2 analytically  !
 ! D159  D(27,31,80,83)        179.9629         calculate D2E/DX2 analytically  !
 ! D160  D(72,31,80,81)        178.8017         calculate D2E/DX2 analytically  !
 ! D161  D(72,31,80,82)        -59.5172         calculate D2E/DX2 analytically  !
 ! D162  D(72,31,80,83)         59.6811         calculate D2E/DX2 analytically  !
 ! D163  D(84,31,80,81)         60.0179         calculate D2E/DX2 analytically  !
 ! D164  D(84,31,80,82)       -178.301          calculate D2E/DX2 analytically  !
 ! D165  D(84,31,80,83)        -59.1027         calculate D2E/DX2 analytically  !
 ! D166  D(27,31,84,85)        -60.4595         calculate D2E/DX2 analytically  !
 ! D167  D(27,31,84,86)         60.3704         calculate D2E/DX2 analytically  !
 ! D168  D(27,31,84,87)        179.2514         calculate D2E/DX2 analytically  !
 ! D169  D(72,31,84,85)         59.8938         calculate D2E/DX2 analytically  !
 ! D170  D(72,31,84,86)       -179.2763         calculate D2E/DX2 analytically  !
 ! D171  D(72,31,84,87)        -60.3953         calculate D2E/DX2 analytically  !
 ! D172  D(80,31,84,85)        177.4708         calculate D2E/DX2 analytically  !
 ! D173  D(80,31,84,86)        -61.6993         calculate D2E/DX2 analytically  !
 ! D174  D(80,31,84,87)         57.1817         calculate D2E/DX2 analytically  !
 ! D175  D(6,36,37,43)         179.5956         calculate D2E/DX2 analytically  !
 ! D176  D(6,36,37,69)          -0.7675         calculate D2E/DX2 analytically  !
 ! D177  D(38,36,37,43)         -0.1423         calculate D2E/DX2 analytically  !
 ! D178  D(38,36,37,69)        179.4946         calculate D2E/DX2 analytically  !
 ! D179  D(6,36,38,44)        -179.6448         calculate D2E/DX2 analytically  !
 ! D180  D(37,36,38,44)          0.078          calculate D2E/DX2 analytically  !
 ! D181  D(36,37,43,42)       -179.5494         calculate D2E/DX2 analytically  !
 ! D182  D(36,37,43,44)          0.1393         calculate D2E/DX2 analytically  !
 ! D183  D(69,37,43,42)          0.8532         calculate D2E/DX2 analytically  !
 ! D184  D(69,37,43,44)       -179.458          calculate D2E/DX2 analytically  !
 ! D185  D(36,38,44,39)       -179.798          calculate D2E/DX2 analytically  !
 ! D186  D(36,38,44,43)          0.0142         calculate D2E/DX2 analytically  !
 ! D187  D(44,39,40,41)         -0.5892         calculate D2E/DX2 analytically  !
 ! D188  D(44,39,40,45)        179.6194         calculate D2E/DX2 analytically  !
 ! D189  D(48,39,40,41)        179.0183         calculate D2E/DX2 analytically  !
 ! D190  D(48,39,40,45)         -0.7731         calculate D2E/DX2 analytically  !
 ! D191  D(40,39,44,38)       -179.5155         calculate D2E/DX2 analytically  !
 ! D192  D(40,39,44,43)          0.6873         calculate D2E/DX2 analytically  !
 ! D193  D(48,39,44,38)          0.8814         calculate D2E/DX2 analytically  !
 ! D194  D(48,39,44,43)       -178.9158         calculate D2E/DX2 analytically  !
 ! D195  D(40,39,48,49)          0.4912         calculate D2E/DX2 analytically  !
 ! D196  D(40,39,48,50)       -178.8754         calculate D2E/DX2 analytically  !
 ! D197  D(44,39,48,49)       -179.9179         calculate D2E/DX2 analytically  !
 ! D198  D(44,39,48,50)          0.7155         calculate D2E/DX2 analytically  !
 ! D199  D(39,40,41,42)          0.3146         calculate D2E/DX2 analytically  !
 ! D200  D(39,40,41,46)       -179.7967         calculate D2E/DX2 analytically  !
 ! D201  D(45,40,41,42)       -179.8959         calculate D2E/DX2 analytically  !
 ! D202  D(45,40,41,46)         -0.0072         calculate D2E/DX2 analytically  !
 ! D203  D(40,41,42,43)         -0.1223         calculate D2E/DX2 analytically  !
 ! D204  D(40,41,42,47)       -179.9722         calculate D2E/DX2 analytically  !
 ! D205  D(46,41,42,43)        179.989          calculate D2E/DX2 analytically  !
 ! D206  D(46,41,42,47)          0.1391         calculate D2E/DX2 analytically  !
 ! D207  D(41,42,43,37)        179.8772         calculate D2E/DX2 analytically  !
 ! D208  D(41,42,43,44)          0.2331         calculate D2E/DX2 analytically  !
 ! D209  D(47,42,43,37)         -0.2735         calculate D2E/DX2 analytically  !
 ! D210  D(47,42,43,44)       -179.9176         calculate D2E/DX2 analytically  !
 ! D211  D(37,43,44,38)         -0.0966         calculate D2E/DX2 analytically  !
 ! D212  D(37,43,44,39)        179.7357         calculate D2E/DX2 analytically  !
 ! D213  D(42,43,44,38)        179.6367         calculate D2E/DX2 analytically  !
 ! D214  D(42,43,44,39)         -0.5309         calculate D2E/DX2 analytically  !
 ! D215  D(39,48,50,51)        179.5159         calculate D2E/DX2 analytically  !
 ! D216  D(39,48,50,68)         -0.8919         calculate D2E/DX2 analytically  !
 ! D217  D(49,48,50,51)          0.142          calculate D2E/DX2 analytically  !
 ! D218  D(49,48,50,68)        179.7342         calculate D2E/DX2 analytically  !
 ! D219  D(48,50,51,52)          2.0748         calculate D2E/DX2 analytically  !
 ! D220  D(48,50,51,53)        127.1697         calculate D2E/DX2 analytically  !
 ! D221  D(48,50,51,54)       -116.891          calculate D2E/DX2 analytically  !
 ! D222  D(68,50,51,52)       -177.5133         calculate D2E/DX2 analytically  !
 ! D223  D(68,50,51,53)        -52.4184         calculate D2E/DX2 analytically  !
 ! D224  D(68,50,51,54)         63.5209         calculate D2E/DX2 analytically  !
 ! D225  D(50,51,52,55)       -178.8926         calculate D2E/DX2 analytically  !
 ! D226  D(50,51,52,56)         60.9925         calculate D2E/DX2 analytically  !
 ! D227  D(50,51,52,57)        -57.288          calculate D2E/DX2 analytically  !
 ! D228  D(53,51,52,55)         57.4853         calculate D2E/DX2 analytically  !
 ! D229  D(53,51,52,56)        -62.6295         calculate D2E/DX2 analytically  !
 ! D230  D(53,51,52,57)        179.09           calculate D2E/DX2 analytically  !
 ! D231  D(54,51,52,55)        -61.9217         calculate D2E/DX2 analytically  !
 ! D232  D(54,51,52,56)        177.9634         calculate D2E/DX2 analytically  !
 ! D233  D(54,51,52,57)         59.683          calculate D2E/DX2 analytically  !
 ! D234  D(50,51,53,58)        176.2247         calculate D2E/DX2 analytically  !
 ! D235  D(50,51,53,59)        -63.2761         calculate D2E/DX2 analytically  !
 ! D236  D(50,51,53,60)         54.0069         calculate D2E/DX2 analytically  !
 ! D237  D(52,51,53,58)        -57.6356         calculate D2E/DX2 analytically  !
 ! D238  D(52,51,53,59)         62.8635         calculate D2E/DX2 analytically  !
 ! D239  D(52,51,53,60)       -179.8535         calculate D2E/DX2 analytically  !
 ! D240  D(54,51,53,58)         62.125          calculate D2E/DX2 analytically  !
 ! D241  D(54,51,53,59)       -177.3759         calculate D2E/DX2 analytically  !
 ! D242  D(54,51,53,60)        -60.0928         calculate D2E/DX2 analytically  !
 ! D243  D(51,52,55,61)        -56.0712         calculate D2E/DX2 analytically  !
 ! D244  D(51,52,55,62)       -178.6228         calculate D2E/DX2 analytically  !
 ! D245  D(51,52,55,63)         64.8772         calculate D2E/DX2 analytically  !
 ! D246  D(56,52,55,61)         63.8551         calculate D2E/DX2 analytically  !
 ! D247  D(56,52,55,62)        -58.6964         calculate D2E/DX2 analytically  !
 ! D248  D(56,52,55,63)       -175.1964         calculate D2E/DX2 analytically  !
 ! D249  D(57,52,55,61)       -177.8759         calculate D2E/DX2 analytically  !
 ! D250  D(57,52,55,62)         59.5725         calculate D2E/DX2 analytically  !
 ! D251  D(57,52,55,63)        -56.9275         calculate D2E/DX2 analytically  !
 ! D252  D(51,53,58,61)         55.816          calculate D2E/DX2 analytically  !
 ! D253  D(51,53,58,64)        178.3193         calculate D2E/DX2 analytically  !
 ! D254  D(51,53,58,65)        -64.9334         calculate D2E/DX2 analytically  !
 ! D255  D(59,53,58,61)        -63.7462         calculate D2E/DX2 analytically  !
 ! D256  D(59,53,58,64)         58.7571         calculate D2E/DX2 analytically  !
 ! D257  D(59,53,58,65)        175.5045         calculate D2E/DX2 analytically  !
 ! D258  D(60,53,58,61)        177.3305         calculate D2E/DX2 analytically  !
 ! D259  D(60,53,58,64)        -60.1662         calculate D2E/DX2 analytically  !
 ! D260  D(60,53,58,65)         56.5811         calculate D2E/DX2 analytically  !
 ! D261  D(52,55,61,58)         55.3761         calculate D2E/DX2 analytically  !
 ! D262  D(52,55,61,66)        177.866          calculate D2E/DX2 analytically  !
 ! D263  D(52,55,61,67)        -64.9907         calculate D2E/DX2 analytically  !
 ! D264  D(62,55,61,58)        177.2376         calculate D2E/DX2 analytically  !
 ! D265  D(62,55,61,66)        -60.2725         calculate D2E/DX2 analytically  !
 ! D266  D(62,55,61,67)         56.8708         calculate D2E/DX2 analytically  !
 ! D267  D(63,55,61,58)        -65.3206         calculate D2E/DX2 analytically  !
 ! D268  D(63,55,61,66)         57.1693         calculate D2E/DX2 analytically  !
 ! D269  D(63,55,61,67)        174.3126         calculate D2E/DX2 analytically  !
 ! D270  D(53,58,61,55)        -55.1397         calculate D2E/DX2 analytically  !
 ! D271  D(53,58,61,66)       -177.5624         calculate D2E/DX2 analytically  !
 ! D272  D(53,58,61,67)         65.1948         calculate D2E/DX2 analytically  !
 ! D273  D(64,58,61,55)       -176.9981         calculate D2E/DX2 analytically  !
 ! D274  D(64,58,61,66)         60.5792         calculate D2E/DX2 analytically  !
 ! D275  D(64,58,61,67)        -56.6636         calculate D2E/DX2 analytically  !
 ! D276  D(65,58,61,55)         65.4328         calculate D2E/DX2 analytically  !
 ! D277  D(65,58,61,66)        -56.9899         calculate D2E/DX2 analytically  !
 ! D278  D(65,58,61,67)       -174.2327         calculate D2E/DX2 analytically  !
 --------------------------------------------------------------------------------
 Trust Radius=3.00D-01 FncErr=5.00D-06 GrdErr=5.00D-06 EigMax=2.50D+02 EigMin=1.00D-04
 Number of steps in this run=    570 maximum allowed number of steps=    570.
 Step   0 in ReCalcFC=10 IGetFC= 4 compute analytic Hessian.
 GradGradGradGradGradGradGradGradGradGradGradGradGradGradGradGradGradGrad

 Leave Link  103 at Fri Dec 21 14:16:33 2018, MaxMem=  1342177280 cpu:               0.3 elap:               0.0
 (Enter /gpfs/apps/hpc/Apps/Restricted/Gaussian/Rev_A.03/g16/l202.exe)
 Symmetry turned off by external request.
 Stoichiometry    C42H45N7O(1+,2)
 Framework group  C1[X(C42H45N7O)]
 Deg. of freedom   279
 Full point group                 C1      NOp   1
                          Input orientation:                          
 ---------------------------------------------------------------------
 Center     Atomic      Atomic             Coordinates (Angstroms)
 Number     Number       Type             X           Y           Z
 ---------------------------------------------------------------------
      1          6           0        1.604844    0.342192    1.143316
      2          6           0        0.532362    1.214834    0.830867
      3          6           0        0.703427    2.590103    0.690696
      4          6           0        1.995276    3.087488    0.871799
      5          6           0        3.072571    2.246059    1.181922
      6          6           0        2.904490    0.862822    1.323041
      7          6           0       -0.153020   -0.893168    0.964898
      8          1           0       -0.127128    3.241678    0.449200
      9          1           0        2.171002    4.151587    0.769096
     10          1           0        4.063571    2.661969    1.313863
     11          6           0       -2.452560   -1.800755    0.626472
     12          6           0       -3.346813   -2.903666    0.591933
     13          6           0       -2.932565   -4.211710    0.843294
     14          6           0       -1.582927   -4.393911    1.137545
     15          6           0       -0.677271   -3.319364    1.175072
     16          6           0       -1.085682   -2.006655    0.927679
     17          6           0       -4.394612   -1.002596    0.123099
     18          1           0       -3.625716   -5.042896    0.812812
     19          1           0       -1.215250   -5.392741    1.339843
     20          1           0        0.365280   -3.502932    1.401743
     21          7           0       -0.566337    0.391091    0.729067
     22          6           0       -6.822926   -0.611006   -0.478253
     23          6           0       -5.468898   -0.097712   -0.232200
     24          6           0       -5.199856    1.260589   -0.341423
     25          6           0       -6.197082    2.172494   -0.697280
     26          6           0       -7.507509    1.679690   -0.955856
     27          6           0       -7.857801    0.354730   -0.867917
     28          1           0       -4.191491    1.596592   -0.145931
     29          1           0       -8.262195    2.399393   -1.239901
     30          6           0       -5.934537    3.669095   -0.819181
     31          6           0       -9.272198   -0.134051   -1.175052
     32          8           0       -7.074293   -1.840216   -0.361922
     33          7           0       -3.123466   -0.636554    0.334467
     34          7           0       -4.563330   -2.353152    0.271485
     35          7           0        1.154485   -0.961280    1.220378
     36          6           0        4.016652   -0.010783    1.640127
     37          7           0        3.858344   -1.364953    1.743326
     38          7           0        5.284920    0.363604    1.858379
     39          6           0        7.330595   -0.998773    2.407874
     40          6           0        7.769664   -2.320286    2.614394
     41          6           0        6.885358   -3.399416    2.540184
     42          6           0        5.527168   -3.216551    2.251387
     43          6           0        5.086270   -1.913868    2.042226
     44          6           0        5.962174   -0.802679    2.109382
     45          1           0        8.815440   -2.495229    2.838255
     46          1           0        7.259304   -4.401487    2.708227
     47          1           0        4.848180   -4.058293    2.196119
     48          6           0        8.244206    0.098278    2.507746
     49          1           0        9.284985   -0.098539    2.737241
     50          7           0        7.877901    1.333460    2.346072
     51          6           0        8.722076    2.534033    2.434866
     52          6           0       10.191668    2.225119    2.705817
     53          6           0        8.543776    3.364325    1.156961
     54          1           0        8.320742    3.110005    3.276647
     55          6           0       10.986705    3.533889    2.809170
     56          1           0       10.590503    1.617522    1.884335
     57          1           0       10.296919    1.647068    3.628650
     58          6           0        9.339986    4.669398    1.260983
     59          1           0        8.900378    2.773708    0.306185
     60          1           0        7.480873    3.568555    0.996060
     61          6           0       10.819358    4.394506    1.552111
     62          1           0       12.041962    3.303938    2.978772
     63          1           0       10.638626    4.094908    3.684367
     64          1           0        9.229810    5.238573    0.333939
     65          1           0        8.918458    5.283668    2.065724
     66          1           0       11.363823    5.336438    1.665915
     67          1           0       11.261917    3.869178    0.697063
     68          1           0        6.882607    1.479253    2.125144
     69          1           0        2.951443   -1.814538    1.613233
     70          1           0       -1.535219    0.619805    0.512439
     71          1           0       -5.472586   -2.784224    0.135154
     72          6           0       -9.222821   -1.135623   -2.351643
     73          1           0       -8.637116   -2.015340   -2.088960
     74          1           0      -10.238684   -1.451451   -2.605930
     75          1           0       -8.779722   -0.667146   -3.234709
     76          6           0       -6.243692    4.112844   -2.266081
     77          1           0       -7.277642    3.895225   -2.542983
     78          1           0       -6.088388    5.190868   -2.360042
     79          1           0       -5.584515    3.607600   -2.976145
     80          6           0      -10.199857    1.023152   -1.574367
     81          1           0      -10.297025    1.762136   -0.773983
     82          1           0       -9.848782    1.536759   -2.473296
     83          1           0      -11.194084    0.622529   -1.783322
     84          6           0       -9.875250   -0.817127    0.072390
     85          1           0       -9.280519   -1.677040    0.376339
     86          1           0       -9.926793   -0.113510    0.907691
     87          1           0      -10.891942   -1.151921   -0.151907
     88          6           0       -6.865428    4.424080    0.155179
     89          1           0       -6.704131    5.500610    0.053790
     90          1           0       -7.918478    4.220657   -0.050627
     91          1           0       -6.656813    4.140181    1.189476
     92          6           0       -4.481145    4.035590   -0.488424
     93          1           0       -4.221109    3.757044    0.536099
     94          1           0       -3.777356    3.547957   -1.167917
     95          1           0       -4.350227    5.115435   -0.588230
 ---------------------------------------------------------------------
 Rotational constants (GHZ):           0.1215821           0.0181639           0.0159554
 Leave Link  202 at Fri Dec 21 14:16:33 2018, MaxMem=  1342177280 cpu:               0.7 elap:               0.1
 (Enter /gpfs/apps/hpc/Apps/Restricted/Gaussian/Rev_A.03/g16/l301.exe)
 Standard basis: 6-31G(d,p) (6D, 7F)
 Ernie: Thresh=  0.10000D-02 Tol=  0.10000D-05 Strict=F.
   975 basis functions,  1715 primitive gaussians,   975 cartesian basis functions
   177 alpha electrons      176 beta electrons
       nuclear repulsion energy      5777.5961725858 Hartrees.
 IExCor=  402 DFT=T Ex+Corr=B3LYP ExCW=0 ScaHFX=  0.200000
 ScaDFX=  0.800000  0.720000  1.000000  0.810000 ScalE2=  1.000000  1.000000
 IRadAn=      5 IRanWt=     -1 IRanGd=            0 ICorTp=0 IEmpDi=141
 NAtoms=   95 NActive=   95 NUniq=   95 SFac= 1.00D+00 NAtFMM=   60 NAOKFM=T Big=T
 Integral buffers will be    131072 words long.
 Raffenetti 2 integral format.
 Two-electron integral symmetry is turned off.
 R6Disp:  Grimme-D3(BJ) Dispersion energy=       -0.2209716323 Hartrees.
 Nuclear repulsion after empirical dispersion term =     5777.3752009535 Hartrees.
 Force inversion solution in PCM.
 Using the following non-standard input for PCM:
 radii=bondi
 dis
 rep
 cav
 --- end of non-standard input.
 Force inversion solution in PCM.
 ------------------------------------------------------------------------------
 Polarizable Continuum Model (PCM)
 =================================
 Model                : C-PCM.
 Atomic radii         : Bondi.
 Polarization charges : Total charges.
 Charge compensation  : None.
 Solution method      : Matrix inversion.
 Cavity type          : Scaled VdW (van der Waals Surface) (Alpha=1.100).
 Cavity algorithm     : GePol (No added spheres)
                        Default sphere list used, NSphG=   95.
                        Lebedev-Laikov grids with approx.  5.0 points / Ang**2.
                        Smoothing algorithm: York/Karplus (Gamma=1.0000).
                        Polarization charges: spherical gaussians, with
                                              point-specific exponents (IZeta= 3).
                        Self-potential: point-specific (ISelfS= 7).
                        Self-field    : sphere-specific E.n sum rule (ISelfD= 2).
 1st derivatives      : Analytical E(r).r(x)/FMM algorithm (CHGder, D1EAlg=3).
                        Cavity 1st derivative terms included.
 2nd derivatives      : Analytical E(r).r(xy)/FMM algorithm (CHGder, D2EAlg=3).
                        Cavity 2nd derivative terms included.
 Solvent              : Dichloromethane, Eps=   8.930000 Eps(inf)=   2.028346
 ------------------------------------------------------------------------------
 GePol: Number of generator spheres                  =      95
 GePol: Total number of spheres                      =      95
 GePol: Number of exposed spheres                    =      95 (100.00%)
 GePol: Number of points                             =    6244
 GePol: Average weight of points                     =       0.12
 GePol: Minimum weight of points                     =   0.41D-11
 GePol: Maximum weight of points                     =    0.21770
 GePol: Number of points with low weight             =     441
 GePol: Fraction of low-weight points (<1% of avg)   =       7.06%
 GePol: Cavity surface area                          =    732.490 Ang**2
 GePol: Cavity volume                                =    720.338 Ang**3
 PCM non-electrostatic energy =         0.0316333364 Hartrees.
 Nuclear repulsion after PCM non-electrostatic terms =     5777.4068342899 Hartrees.
 Leave Link  301 at Fri Dec 21 14:16:34 2018, MaxMem=  1342177280 cpu:              11.2 elap:               0.7
 (Enter /gpfs/apps/hpc/Apps/Restricted/Gaussian/Rev_A.03/g16/l302.exe)
 NPDir=0 NMtPBC=     1 NCelOv=     1 NCel=       1 NClECP=     1 NCelD=      1
         NCelK=      1 NCelE2=     1 NClLst=     1 CellRange=     0.0.
 One-electron integrals computed using PRISM.
[...]
 Trust Radius=3.00D-01 FncErr=1.00D-07 GrdErr=1.00D-07 EigMax=2.50D+02 EigMin=1.00D-04
 Number of steps in this run=      2 maximum allowed number of steps=      2.
 Step   0 in ReCalcFC=10 IGetFC= 4 compute analytic Hessian.
 GradGradGradGradGradGradGradGradGradGradGradGradGradGradGradGradGradGrad

 Leave Link  103 at Fri Dec 21 17:29:06 2018, MaxMem=  1342177280 cpu:               0.4 elap:               0.0
 (Enter /gpfs/apps/hpc/Apps/Restricted/Gaussian/Rev_A.03/g16/l202.exe)
 Symmetry turned off by external request.
 Stoichiometry    C42H45N7O(1+,2)
 Framework group  C1[X(C42H45N7O)]
 Deg. of freedom   279
 Full point group                 C1      NOp   1
                          Input orientation:                          
 ---------------------------------------------------------------------
 Center     Atomic      Atomic             Coordinates (Angstroms)
 Number     Number       Type             X           Y           Z
 ---------------------------------------------------------------------
      1          6           0        1.604844    0.342192    1.143316
      2          6           0        0.532362    1.214834    0.830867
      3          6           0        0.703427    2.590103    0.690696
      4          6           0        1.995276    3.087488    0.871799
      5          6           0        3.072571    2.246059    1.181922
      6          6           0        2.904490    0.862822    1.323041
      7          6           0       -0.153020   -0.893168    0.964898
      8          1           0       -0.127128    3.241678    0.449200
      9          1           0        2.171002    4.151587    0.769096
     10          1           0        4.063571    2.661969    1.313863
     11          6           0       -2.452560   -1.800755    0.626472
     12          6           0       -3.346813   -2.903666    0.591933
     13          6           0       -2.932565   -4.211710    0.843294
     14          6           0       -1.582927   -4.393911    1.137545
     15          6           0       -0.677271   -3.319364    1.175072
     16          6           0       -1.085682   -2.006655    0.927679
     17          6           0       -4.394612   -1.002596    0.123099
     18          1           0       -3.625716   -5.042896    0.812812
     19          1           0       -1.215250   -5.392741    1.339843
     20          1           0        0.365280   -3.502932    1.401743
     21          7           0       -0.566337    0.391091    0.729067
     22          6           0       -6.822926   -0.611006   -0.478253
     23          6           0       -5.468898   -0.097712   -0.232200
     24          6           0       -5.199856    1.260589   -0.341423
     25          6           0       -6.197082    2.172494   -0.697280
     26          6           0       -7.507509    1.679690   -0.955856
     27          6           0       -7.857801    0.354730   -0.867917
     28          1           0       -4.191491    1.596592   -0.145931
     29          1           0       -8.262195    2.399393   -1.239901
     30          6           0       -5.934537    3.669095   -0.819181
     31          6           0       -9.272198   -0.134051   -1.175052
     32          8           0       -7.074293   -1.840216   -0.361922
     33          7           0       -3.123466   -0.636554    0.334467
     34          7           0       -4.563330   -2.353152    0.271485
     35          7           0        1.154485   -0.961280    1.220378
     36          6           0        4.016652   -0.010783    1.640127
     37          7           0        3.858344   -1.364953    1.743326
     38          7           0        5.284920    0.363604    1.858379
     39          6           0        7.330595   -0.998773    2.407874
     40          6           0        7.769664   -2.320286    2.614394
     41          6           0        6.885358   -3.399416    2.540184
     42          6           0        5.527168   -3.216551    2.251387
     43          6           0        5.086270   -1.913868    2.042226
     44          6           0        5.962174   -0.802679    2.109382
     45          1           0        8.815440   -2.495229    2.838255
     46          1           0        7.259304   -4.401487    2.708227
     47          1           0        4.848180   -4.058293    2.196119
     48          6           0        8.244206    0.098278    2.507746
     49          1           0        9.284985   -0.098539    2.737241
     50          7           0        7.877901    1.333460    2.346072
     51          6           0        8.722076    2.534033    2.434866
     52          6           0       10.191668    2.225119    2.705817
     53          6           0        8.543776    3.364325    1.156961
     54          1           0        8.320742    3.110005    3.276647
     55          6           0       10.986705    3.533889    2.809170
     56          1           0       10.590503    1.617522    1.884335
     57          1           0       10.296919    1.647068    3.628650
     58          6           0        9.339986    4.669398    1.260983
     59          1           0        8.900378    2.773708    0.306185
     60          1           0        7.480873    3.568555    0.996060
     61          6           0       10.819358    4.394506    1.552111
     62          1           0       12.041962    3.303938    2.978772
     63          1           0       10.638626    4.094908    3.684367
     64          1           0        9.229810    5.238573    0.333939
     65          1           0        8.918458    5.283668    2.065724
     66          1           0       11.363823    5.336438    1.665915
     67          1           0       11.261917    3.869178    0.697063
     68          1           0        6.882607    1.479253    2.125144
     69          1           0        2.951443   -1.814538    1.613233
     70          1           0       -1.535219    0.619805    0.512439
     71          1           0       -5.472586   -2.784224    0.135154
     72          6           0       -9.222821   -1.135623   -2.351643
     73          1           0       -8.637116   -2.015340   -2.088960
     74          1           0      -10.238684   -1.451451   -2.605930
     75          1           0       -8.779722   -0.667146   -3.234709
     76          6           0       -6.243692    4.112844   -2.266081
     77          1           0       -7.277642    3.895225   -2.542983
     78          1           0       -6.088388    5.190868   -2.360042
     79          1           0       -5.584515    3.607600   -2.976145
     80          6           0      -10.199857    1.023152   -1.574367
     81          1           0      -10.297025    1.762136   -0.773983
     82          1           0       -9.848782    1.536759   -2.473296
     83          1           0      -11.194084    0.622529   -1.783322
     84          6           0       -9.875250   -0.817127    0.072390
     85          1           0       -9.280519   -1.677040    0.376339
     86          1           0       -9.926793   -0.113510    0.907691
     87          1           0      -10.891942   -1.151921   -0.151907
     88          6           0       -6.865428    4.424080    0.155179
     89          1           0       -6.704131    5.500610    0.053790
     90          1           0       -7.918478    4.220657   -0.050627
     91          1           0       -6.656813    4.140181    1.189476
     92          6           0       -4.481145    4.035590   -0.488424
     93          1           0       -4.221109    3.757044    0.536099
     94          1           0       -3.777356    3.547957   -1.167917
     95          1           0       -4.350227    5.115435   -0.588230
 ---------------------------------------------------------------------
 Rotational constants (GHZ):           0.1215821           0.0181639           0.0159554
 Leave Link  202 at Fri Dec 21 17:29:06 2018, MaxMem=  1342177280 cpu:               0.3 elap:               0.0
 (Enter /gpfs/apps/hpc/Apps/Restricted/Gaussian/Rev_A.03/g16/l301.exe)
 Standard basis: 6-31G(d,p) (6D, 7F)
 Ernie: Thresh=  0.10000D-02 Tol=  0.10000D-05 Strict=F.
   975 basis functions,  1715 primitive gaussians,   975 cartesian basis functions
   177 alpha electrons      176 beta electrons
       nuclear repulsion energy      5777.5961725858 Hartrees.
 IExCor=  402 DFT=T Ex+Corr=B3LYP ExCW=0 ScaHFX=  0.200000
 ScaDFX=  0.800000  0.720000  1.000000  0.810000 ScalE2=  1.000000  1.000000
 IRadAn=      5 IRanWt=     -1 IRanGd=            0 ICorTp=0 IEmpDi=141
 NAtoms=   95 NActive=   95 NUniq=   95 SFac= 1.00D+00 NAtFMM=   60 NAOKFM=T Big=T
 Integral buffers will be    131072 words long.
 Raffenetti 2 integral format.
 Two-electron integral symmetry is turned off.
 R6Disp:  Grimme-D3(BJ) Dispersion energy=       -0.2209716323 Hartrees.
 Nuclear repulsion after empirical dispersion term =     5777.3752009535 Hartrees.
 Force inversion solution in PCM.
 ------------------------------------------------------------------------------
 Polarizable Continuum Model (PCM)
 =================================
 Model                : C-PCM.
 Atomic radii         : Bondi.
 Polarization charges : Total charges.
 Charge compensation  : None.
 Solution method      : Matrix inversion.
 Cavity type          : Scaled VdW (van der Waals Surface) (Alpha=1.100).
 Cavity algorithm     : GePol (No added spheres)
                        Default sphere list used, NSphG=   95.
                        Lebedev-Laikov grids with approx.  5.0 points / Ang**2.
                        Smoothing algorithm: York/Karplus (Gamma=1.0000).
                        Polarization charges: spherical gaussians, with
                                              point-specific exponents (IZeta= 3).
                        Self-potential: point-specific (ISelfS= 7).
                        Self-field    : sphere-specific E.n sum rule (ISelfD= 2).
 1st derivatives      : Analytical E(r).r(x)/FMM algorithm (CHGder, D1EAlg=3).
                        Cavity 1st derivative terms included.
 2nd derivatives      : Analytical E(r).r(xy)/FMM algorithm (CHGder, D2EAlg=3).
                        Cavity 2nd derivative terms included.
 Solvent              : Dichloromethane, Eps=   8.930000 Eps(inf)=   2.028346
 ------------------------------------------------------------------------------
 GePol: Number of generator spheres                  =      95
 GePol: Total number of spheres                      =      95
 GePol: Number of exposed spheres                    =      95 (100.00%)
 GePol: Number of points                             =    6244
 GePol: Average weight of points                     =       0.12
 GePol: Minimum weight of points                     =   0.41D-11
 GePol: Maximum weight of points                     =    0.21770
 GePol: Number of points with low weight             =     441
 GePol: Fraction of low-weight points (<1% of avg)   =       7.06%
 GePol: Cavity surface area                          =    732.490 Ang**2
 GePol: Cavity volume                                =    720.338 Ang**3
 PCM non-electrostatic energy =         0.0316333364 Hartrees.
 Nuclear repulsion after PCM non-electrostatic terms =     5777.4068342899 Hartrees.
 Leave Link  301 at Fri Dec 21 17:29:06 2018, MaxMem=  1342177280 cpu:               8.0 elap:               0.5
 (Enter /gpfs/apps/hpc/Apps/Restricted/Gaussian/Rev_A.03/g16/l302.exe)
 NPDir=0 NMtPBC=     1 NCelOv=     1 NCel=       1 NClECP=     1 NCelD=      1
         NCelK=      1 NCelE2=     1 NClLst=     1 CellRange=     0.0.
 One-electron integrals computed using PRISM.
 NBasis=   975 RedAO= T EigKep=  2.81D-04  NBF=   975
 NBsUse=   975 1.00D-06 EigRej= -1.00D+00 NBFU=   975
 Precomputing XC quadrature grid using
 IXCGrd= 4 IRadAn=           5 IRanWt=          -1 IRanGd=           0 AccXCQ= 0.00D+00.
 Generated NRdTot=       0 NPtTot=           0 NUsed=           0 NTot=          32
 NSgBfM=   845   836   836   839   845 MxSgAt=    95 MxSgA2=    95.
 Leave Link  302 at Fri Dec 21 17:29:09 2018, MaxMem=  1342177280 cpu:              48.7 elap:               3.1
 (Enter /gpfs/apps/hpc/Apps/Restricted/Gaussian/Rev_A.03/g16/l303.exe)
 DipDrv:  MaxL=1.
 Leave Link  303 at Fri Dec 21 17:29:10 2018, MaxMem=  1342177280 cpu:               2.1 elap:               0.2
 (Enter /gpfs/apps/hpc/Apps/Restricted/Gaussian/Rev_A.03/g16/l401.exe)
 Initial guess from the checkpoint file:  "cyclohexyl-triBIP-E4PT.chk"
 B after Tr=     0.000000    0.000000    0.000000
         Rot=    1.000000    0.000000    0.000000    0.000000 Ang=   0.00 deg.
 Guess basis will be translated and rotated to current coordinates.
 JPrj=2 DoOrth=T DoCkMO=T.
 Initial guess <Sx>= 0.0000 <Sy>= 0.0000 <Sz>= 0.5000 <S**2>= 0.7741 S= 0.5120
 Leave Link  401 at Fri Dec 21 17:29:17 2018, MaxMem=  1342177280 cpu:             114.7 elap:               7.2
 (Enter /gpfs/apps/hpc/Apps/Restricted/Gaussian/Rev_A.03/g16/l502.exe)
 Two-electron integral symmetry not used.
 UHF open shell SCF:
 Using DIIS extrapolation, IDIIS=  1040.
 NGot=  1342177280 LenX=  1340252438 LenY=  1339300838
 Requested convergence on RMS density matrix=1.00D-08 within 128 cycles.
 Requested convergence on MAX density matrix=1.00D-06.
 Requested convergence on             energy=1.00D-06.
 No special actions if energy rises.
 Fock matrices will be formed incrementally for  20 cycles.

 Cycle   1  Pass 1  IDiag  1:
 FoFJK:  IHMeth= 1 ICntrl=       0 DoSepK=F KAlg= 0 I1Cent=           0 FoldK=F
 IRaf= 540000000 NMat=       1 IRICut=       1 DoRegI=T DoRafI=F ISym2E= 0 IDoP0=0 IntGTp=1.
 FoFCou: FMM=T IPFlag=           0 FMFlag=      100000 FMFlg1=        2001
         NFxFlg=           0 DoJE=F BraDBF=F KetDBF=F FulRan=T
         wScrn=  0.000000 ICntrl=         0 IOpCl=  1 I1Cent=           0 NGrid=           0
         NMat0=    1 NMatS0=      1 NMatT0=    0 NMatD0=    1 NMtDS0=    0 NMtDT0=    0
 Symmetry not used in FoFCou.
 FMM levels:  10  Number of levels for PrismC:   9
 Inv3:  Mode=1 IEnd=   116962608.
 Iteration    1 A*A^-1 deviation from unit magnitude is 5.13D-14 for    743.
 Iteration    1 A*A^-1 deviation from orthogonality  is 7.17D-15 for   3194    237.
 Iteration    1 A^-1*A deviation from unit magnitude is 5.13D-14 for    743.
 Iteration    1 A^-1*A deviation from orthogonality  is 3.92D-15 for   2453   1922.
 E= -2086.31247864489    
 DIIS: error= 2.21D-08 at cycle   1 NSaved=   1.
 NSaved= 1 IEnMin= 1 EnMin= -2086.31247864489     IErMin= 1 ErrMin= 2.21D-08
 ErrMax= 2.21D-08  0.00D+00 EMaxC= 1.00D-01 BMatC= 2.12D-12 BMatP= 2.12D-12
 IDIUse=1 WtCom= 1.00D+00 WtEn= 0.00D+00
 Coeff-Com:  0.100D+01
 Coeff:      0.100D+01
 Gap=     0.112 Goal=   None    Shift=    0.000
 Gap=     0.071 Goal=   None    Shift=    0.000
 RMSDP=2.20D-09 MaxDP=2.81D-07              OVMax= 6.29D-07

 Error on total polarization charges =  0.05414
 SCF Done:  E(UB3LYP) =  -2086.31247864     A.U. after    1 cycles
            NFock=  1  Conv=0.22D-08     -V/T= 2.0096
 <Sx>= 0.0000 <Sy>= 0.0000 <Sz>= 0.5000 <S**2>= 0.7741 S= 0.5120
 <L.S>= 0.000000000000E+00
 KE= 2.066460520572D+03 PE=-1.636243745490D+04 EE= 6.432257621398D+03
 Annihilation of the first spin contaminant:
 S**2 before annihilation     0.7741,   after     0.7504
 Leave Link  502 at Fri Dec 21 17:30:30 2018, MaxMem=  1342177280 cpu:            1030.1 elap:              73.4
 (Enter /gpfs/apps/hpc/Apps/Restricted/Gaussian/Rev_A.03/g16/l801.exe)
 DoSCS=F DFT=T ScalE2(SS,OS)=  1.000000  1.000000
 Range of M.O.s used for correlation:     1   975
 NBasis=   975 NAE=   177 NBE=   176 NFC=     0 NFV=     0
 NROrb=    975 NOA=   177 NOB=   176 NVA=   798 NVB=   799

 **** Warning!!: The smallest beta delta epsilon is  0.70944420D-01

 Leave Link  801 at Fri Dec 21 17:30:31 2018, MaxMem=  1342177280 cpu:               3.2 elap:               0.2
 (Enter /gpfs/apps/hpc/Apps/Restricted/Gaussian/Rev_A.03/g16/l1101.exe)
 Using compressed storage, NAtomX=    95.
 Will process     96 centers per pass.
 PrsmSu:  requested number of processors reduced to:   9 ShMem   1 Linda.
 R6Disp: Adding Grimme-D3(BJ) dispersion energy 1st derivatives to the gradient.
 Leave Link 1101 at Fri Dec 21 17:30:35 2018, MaxMem=  1342177280 cpu:              56.1 elap:               4.3
 (Enter /gpfs/apps/hpc/Apps/Restricted/Gaussian/Rev_A.03/g16/l1102.exe)
 Symmetrizing basis deriv contribution to polar:
 IMax=3 JMax=2 DiffMx= 0.00D+00
 Leave Link 1102 at Fri Dec 21 17:30:35 2018, MaxMem=  1342177280 cpu:               2.1 elap:               0.2
 (Enter /gpfs/apps/hpc/Apps/Restricted/Gaussian/Rev_A.03/g16/l1110.exe)
 Forming Gx(P) for the SCF density, NAtomX=    95.
 Integral derivatives from FoFJK, PRISM(SPDF).
 Do as many integral derivatives as possible in FoFJK.
 G2DrvN: MDV=    1342170304.
 G2DrvN: will do    24 centers at a time, making    4 passes.
 G2DrvN:  IPasSy=1 do centers    0 through   23.
 Calling FoFCou, ICntrl=  3107 FMM=T I1Cent=   0 AccDes= 0.00D+00.
 FoFJK:  IHMeth= 1 ICntrl=    3107 DoSepK=F KAlg= 0 I1Cent=           0 FoldK=F
 IRaf=         0 NMat=       1 IRICut=       1 DoRegI=T DoRafI=F ISym2E= 0 IDoP0=0 IntGTp=1.
 FoFCou: FMM=T IPFlag=           0 FMFlag=      100000 FMFlg1=        2001
         NFxFlg=           0 DoJE=F BraDBF=F KetDBF=F FulRan=T
         wScrn=  0.000000 ICntrl=      3107 IOpCl=  1 I1Cent=           0 NGrid=           0
         NMat0=    1 NMatS0=      1 NMatT0=    0 NMatD0=    1 NMtDS0=    0 NMtDT0=    0
 Symmetry not used in FoFCou.
 FMM levels:  10  Number of levels for PrismC:   9
 G2DrvN:  IPasSy=1 do centers   24 through   47.
 Calling FoFCou, ICntrl=  3107 FMM=T I1Cent=   0 AccDes= 0.00D+00.
 G2DrvN:  IPasSy=1 do centers   48 through   71.
 Calling FoFCou, ICntrl=  3107 FMM=T I1Cent=   0 AccDes= 0.00D+00.
 G2DrvN:  IPasSy=1 do centers   72 through   95.
 Calling FoFCou, ICntrl=  3107 FMM=T I1Cent=   0 AccDes= 0.00D+00.
 NEqPCM:  Using equilibrium solvation (IEInf=0, Eps=   8.9300, EpsInf=   2.0283)
 G2PCM: DoFxE=T DoFxN=T DoGrad=T DoDP/DQ/DG/TGxP=FFFF NFrqRd=   0 IEInf=0 SqF1=F DoCFld=F IF1Alg=4.
 GePol: Maximum number of non-zero 1st derivatives   =     206
 End of G2Drv F.D. properties file   721 does not exist.
 End of G2Drv F.D. properties file   722 does not exist.
 End of G2Drv F.D. properties file   788 does not exist.
 Leave Link 1110 at Fri Dec 21 18:06:42 2018, MaxMem=  1342177280 cpu:           34606.6 elap:            2166.4
 (Enter /gpfs/apps/hpc/Apps/Restricted/Gaussian/Rev_A.03/g16/l1002.exe)
 Minotr:  UHF open shell wavefunction.
          IDoAtm=11111111111111111111111111111111111111111111111111
          IDoAtm=111111111111111111111111111111111111111111111
 NEqPCM:  Using equilibrium solvation (IEInf=0, Eps=   8.9300, EpsInf=   2.0283)
          Direct CPHF calculation.
          Differentiating once with respect to electric field.
                with respect to dipole field.
          Differentiating once with respect to nuclear coordinates.
          Requested convergence is 1.0D-08 RMS, and 1.0D-07 maximum.
          Secondary convergence is 1.0D-12 RMS, and 1.0D-12 maximum.
          NewPWx=T KeepS1=F KeepF1=F KeepIn=T MapXYZ=F SortEE=F KeepMc=T.
        29543 words used for storage of precomputed grid.
 Two-electron integral symmetry not used.
          MDV=    1342177280 using IRadAn=       1.
          Solving linear equations simultaneously, MaxMat=      72.
 FoF2E skips out because all densities are zero.
 CalDSu exits because no D1Ps are significant.
 FoFJK:  IHMeth= 1 ICntrl=       0 DoSepK=F KAlg= 0 I1Cent=           0 FoldK=F
 IRaf= 490000000 NMat=      36 IRICut=       1 DoRegI=T DoRafI=F ISym2E= 0 IDoP0=0 IntGTp=1.
          There are   288 degrees of freedom in the 1st order CPHF.  IDoFFX=6 NUNeed=     3.
    288 vectors produced by pass  0 Test12= 2.82D-13 1.00D-09 XBig12= 2.89D+03 2.13D+01.
 AX will form    36 AO Fock derivatives at one time.
