 Entering Gaussian System, Link 0=g16
 Initial command:
 /gpfs/apps/hpc/Apps/Restricted/Gaussian/Rev_A.03/g16/l1.exe "/gpfs/scratch60/fas/hammes_schiffer/jg2487/c27n09/Gau-20259.inp" -scrdir="/gpfs/scratch60/fas/hammes_schiffer/jg2487/c27n09/"
 Entering Link 1 = /gpfs/apps/hpc/Apps/Restricted/Gaussian/Rev_A.03/g16/l1.exe PID=     20260.
  
 Copyright (c) 1988,1990,1992,1993,1995,1998,2003,2009,2016,
            Gaussian, Inc.  All Rights Reserved.
  
 This is part of the Gaussian(R) 16 program.  It is based on
 the Gaussian(R) 09 system (copyright 2009, Gaussian, Inc.),
 the Gaussian(R) 03 system (copyright 2003, Gaussian, Inc.),
 the Gaussian(R) 98 system (copyright 1998, Gaussian, Inc.),
 the Gaussian(R) 94 system (copyright 1995, Gaussian, Inc.),
 the Gaussian 92(TM) system (copyright 1992, Gaussian, Inc.),
 the Gaussian 90(TM) system (copyright 1990, Gaussian, Inc.),
 the Gaussian 88(TM) system (copyright 1988, Gaussian, Inc.),
 the Gaussian 86(TM) system (copyright 1986, Carnegie Mellon
 University), and the Gaussian 82(TM) system (copyright 1983,
 Carnegie Mellon University). Gaussian is a federally registered
 trademark of Gaussian, Inc.
  
 This software contains proprietary and confidential information,
 including trade secrets, belonging to Gaussian, Inc.
  
 This software is provided under written license and may be
 used, copied, transmitted, or stored only in accord with that
 written license.
  
 The following legend is applicable only to US Government
 contracts under FAR:
  
                    RESTRICTED RIGHTS LEGEND
  
 Use, reproduction and disclosure by the US Government is
 subject to restrictions as set forth in subparagraphs (a)
 and (c) of the Commercial Computer Software - Restricted
 Rights clause in FAR 52.227-19.
  
 Gaussian, Inc.
 340 Quinnipiac St., Bldg. 40, Wallingford CT 06492
  
  
 ---------------------------------------------------------------
 Warning -- This program may not be used in any manner that
 competes with the business of Gaussian, Inc. or will provide
 assistance to any competitor of Gaussian, Inc.  The licensee
 of this program is prohibited from giving any competitor of
 Gaussian, Inc. access to this program.  By using this program,
 the user acknowledges that Gaussian, Inc. is engaged in the
 business of creating and licensing software in the field of
 computational chemistry and represents and warrants to the
 licensee that it is not a competitor of Gaussian, Inc. and that
 it will not use this program in any manner prohibited above.
 ---------------------------------------------------------------
  

 Cite this work as:
 Gaussian 16, Revision A.03,
 M. J. Frisch, G. W. Trucks, H. B. Schlegel, G. E. Scuseria, 
 M. A. Robb, J. R. Cheeseman, G. Scalmani, V. Barone, 
 G. A. Petersson, H. Nakatsuji, X. Li, M. Caricato, A. V. Marenich, 
 J. Bloino, B. G. Janesko, R. Gomperts, B. Mennucci, H. P. Hratchian, 
 J. V. Ortiz, A. F. Izmaylov, J. L. Sonnenberg, D. Williams-Young, 
 F. Ding, F. Lipparini, F. Egidi, J. Goings, B. Peng, A. Petrone, 
 T. Henderson, D. Ranasinghe, V. G. Zakrzewski, J. Gao, N. Rega, 
 G. Zheng, W. Liang, M. Hada, M. Ehara, K. Toyota, R. Fukuda, 
 J. Hasegawa, M. Ishida, T. Nakajima, Y. Honda, O. Kitao, H. Nakai, 
 T. Vreven, K. Throssell, J. A. Montgomery, Jr., J. E. Peralta, 
 F. Ogliaro, M. J. Bearpark, J. J. Heyd, E. N. Brothers, K. N. Kudin, 
 V. N. Staroverov, T. A. Keith, R. Kobayashi, J. Normand, 
 K. Raghavachari, A. P. Rendell, J. C. Burant, S. S. Iyengar, 
 J. Tomasi, M. Cossi, J. M. Millam, M. Klene, C. Adamo, R. Cammi, 
 J. W. Ochterski, R. L. Martin, K. Morokuma, O. Farkas, 
 J. B. Foresman, and D. J. Fox, Gaussian, Inc., Wallingford CT, 2016.
 
 ******************************************
 Gaussian 16:  ES64L-G16RevA.03 25-Dec-2016
                14-Dec-2018 
 ******************************************
 %chk=cyclohexyl-triBIP-E4PT.chk
 %mem=10GB
 %nprocshared=16
 Will use up to   16 processors via shared memory.
 ----------------------------------------------------------------------
 #p opt=tight freq=internalmodes b3lyp/6-31g(d,p) scrf=(cpcm,solvent=di
 chloromethane,read) nosymm empiricaldispersion=gd3bj int=grid=ultrafin
 e
 ----------------------------------------------------------------------
 1/7=10,18=20,19=15,26=6,38=1,40=2/1,3;
 2/9=110,12=2,15=1,17=6,18=5,40=1/2;
 3/5=1,6=6,7=101,11=2,25=1,30=1,70=2103,71=1,72=9,74=-5,75=-5,124=41/1,2,3;
 4//1;
 5/5=2,38=5,53=9/2;
 6/7=2,8=2,9=2,10=2,28=1/1;
 7/30=1/1,2,3,16;
 1/7=10,18=20,19=15,26=6/3(2);
 2/9=110,15=1/2;
 99//99;
 2/9=110,15=1/2;
 3/5=1,6=6,7=101,11=2,25=1,30=1,70=2105,71=1,72=9,74=-5,75=-5,124=41/1,2,3;
 4/5=5,16=3,69=1/1;
 5/5=2,38=5,53=9/2;
 7/30=1/1,2,3,16;
 1/7=10,18=20,19=15,26=6/3(-5);
 2/9=110,15=1/2;
 6/7=2,8=2,9=2,10=2,19=2,28=1/1;
 99/9=1/99;
 Leave Link    1 at Fri Dec 14 11:58:40 2018, MaxMem=  1342177280 cpu:               6.7 elap:               0.4
 (Enter /gpfs/apps/hpc/Apps/Restricted/Gaussian/Rev_A.03/g16/l101.exe)
 ---------------------------------------------------------------------
 cyclohexylimine triBIP oxidized, all protons transferred optimization
 ---------------------------------------------------------------------
 Symbolic Z-matrix:
 Charge =  1 Multiplicity = 2
 C                     1.63304   0.41918   0.99158 
 C                     0.56491   1.30228   0.69445 
 C                     0.74832   2.6771    0.56558 
 C                     2.04586   3.16113   0.74306 
 C                     3.11782   2.30862   1.04122 
 C                     2.93829   0.92586   1.1709 
 C                    -0.13574  -0.80167   0.81953 
 H                    -0.07607   3.34046   0.3372 
 H                     2.22993   4.22457   0.64787 
 H                     4.11281   2.7153    1.17146 
 C                    -2.44704  -1.70701   0.53639 
 C                    -3.33861  -2.8129    0.53762 
 C                    -2.91603  -4.11926   0.78325 
 C                    -1.55769  -4.29961   1.03327 
 C                    -0.65454  -3.22305   1.03963 
 C                    -1.07231  -1.91159   0.79871 
 C                    -4.40544  -0.91919   0.08813 
 H                    -3.61005  -4.95039   0.78117 
 H                    -1.18214  -5.29672   1.22933 
 H                     0.39444  -3.40246   1.23837 
 N                    -0.54169   0.48694   0.59536 
 C                    -6.86086  -0.582    -0.41216 
 C                    -5.50789  -0.03831  -0.24081 
 C                    -5.29072   1.32312  -0.39655 
 C                    -6.33502   2.19968  -0.72706 
 C                    -7.64685   1.6853   -0.89592 
 C                    -7.93262   0.35024  -0.75428 
 H                    -4.28808   1.71127  -0.26172 
 H                    -8.44567   2.37704  -1.14374 
 C                    -6.07392   3.66069  -0.92898 
 H                    -5.15595   3.97221  -0.42887 
 H                    -5.96383   3.87878  -1.99791 
 H                    -6.90797   4.26321  -0.56254 
 C                    -9.30898  -0.20938  -0.92757 
 H                    -9.33272  -0.93476  -1.74667 
 H                    -9.62307  -0.74743  -0.02868 
 H                    -10.02698   0.58357  -1.13646 
 O                    -7.11728  -1.80719  -0.27376 
 N                    -3.13049  -0.54528   0.25567 
 N                    -4.56573  -2.26875   0.25294 
 N                     1.17343  -0.88094   1.06044 
 C                     4.04223   0.03648   1.47487 
 N                     3.8699   -1.3184    1.54049 
 N                     5.31364   0.39244   1.70684 
 C                     7.34243  -1.0083    2.22666 
 C                     7.76618  -2.3399    2.3991 
 C                     6.8712   -3.40691   2.29078 
 C                     5.51623  -3.20033   2.0034 
 C                     5.09127  -1.88779   1.82533 
 C                     5.97845  -0.78786   1.92473 
 H                     8.80785  -2.53159   2.62907 
 H                     7.23246  -4.41737   2.43349 
 H                     4.82725  -4.03229   1.92675 
 C                     8.26258   0.07311   2.39903 
 H                     9.29603  -0.14936   2.63661 
 N                     7.91396   1.32092   2.30809 
 C                     8.77405   2.49725   2.51551 
 C                     10.20784   2.13165   2.889 
 C                     8.72141   3.39085   1.26897 
 H                     8.31967   3.04411   3.3501 
 C                     11.03653   3.40332   3.10851 
 H                     10.65203   1.54257   2.07846 
 H                     10.21999   1.51429   3.79165 
 C                     9.55082   4.66011   1.49316 
 H                     9.12002   2.82465   0.4199 
 H                     7.68167   3.64208   1.0391 
 C                     10.99398   4.32483   1.88495 
 H                     12.06723   3.12484   3.34397 
 H                     10.64572   3.94037   3.9809 
 H                     9.53208   5.27404   0.58891 
 H                     9.08882   5.2539    2.29082 
 H                     11.54974   5.2442    2.0909 
 H                     11.49225   3.82941   1.04287 
 H                     6.92746   1.49484   2.07208 
 H                     2.95618  -1.75332   1.40588 
 H                    -1.51061   0.72628   0.3942 
 H                    -5.47913  -2.7029    0.15107 
 
 ITRead=  0  0  0  0  0  0  0  0  0  0  0  0  0  0  0  0  0  0  0  0
 ITRead=  0  0  0  0  0  0  0  0  0  0  0  0  0  0  0  0  0  0  0  0
 ITRead=  0  0  0  0  0  0  0  0  0  0  0  0  0  0  0  0  0  0  0  0
 ITRead=  0  0  0  0  0  0  0  0  0  0  0  0  0  0  0  0  0
 MicOpt= -1 -1 -1 -1 -1 -1 -1 -1 -1 -1 -1 -1 -1 -1 -1 -1 -1 -1 -1 -1
 MicOpt= -1 -1 -1 -1 -1 -1 -1 -1 -1 -1 -1 -1 -1 -1 -1 -1 -1 -1 -1 -1
 MicOpt= -1 -1 -1 -1 -1 -1 -1 -1 -1 -1 -1 -1 -1 -1 -1 -1 -1 -1 -1 -1
 MicOpt= -1 -1 -1 -1 -1 -1 -1 -1 -1 -1 -1 -1 -1 -1 -1 -1 -1
 NAtoms=     77 NQM=       77 NQMF=       0 NMMI=      0 NMMIF=      0
                NMic=       0 NMicF=      0.
                    Isotopes and Nuclear Properties:
 (Nuclear quadrupole moments (NQMom) in fm**2, nuclear magnetic moments (NMagM)
  in nuclear magnetons)

  Atom         1           2           3           4           5           6           7           8           9          10
 IAtWgt=          12          12          12          12          12          12          12           1           1           1
 AtmWgt=  12.0000000  12.0000000  12.0000000  12.0000000  12.0000000  12.0000000  12.0000000   1.0078250   1.0078250   1.0078250
 NucSpn=           0           0           0           0           0           0           0           1           1           1
 AtZEff=  -0.0000000  -0.0000000  -0.0000000  -0.0000000  -0.0000000  -0.0000000  -0.0000000  -0.0000000  -0.0000000  -0.0000000
 NQMom=    0.0000000   0.0000000   0.0000000   0.0000000   0.0000000   0.0000000   0.0000000   0.0000000   0.0000000   0.0000000
 NMagM=    0.0000000   0.0000000   0.0000000   0.0000000   0.0000000   0.0000000   0.0000000   2.7928460   2.7928460   2.7928460
 AtZNuc=   6.0000000   6.0000000   6.0000000   6.0000000   6.0000000   6.0000000   6.0000000   1.0000000   1.0000000   1.0000000

  Atom        11          12          13          14          15          16          17          18          19          20
 IAtWgt=          12          12          12          12          12          12          12           1           1           1
 AtmWgt=  12.0000000  12.0000000  12.0000000  12.0000000  12.0000000  12.0000000  12.0000000   1.0078250   1.0078250   1.0078250
 NucSpn=           0           0           0           0           0           0           0           1           1           1
 AtZEff=  -0.0000000  -0.0000000  -0.0000000  -0.0000000  -0.0000000  -0.0000000  -0.0000000  -0.0000000  -0.0000000  -0.0000000
 NQMom=    0.0000000   0.0000000   0.0000000   0.0000000   0.0000000   0.0000000   0.0000000   0.0000000   0.0000000   0.0000000
 NMagM=    0.0000000   0.0000000   0.0000000   0.0000000   0.0000000   0.0000000   0.0000000   2.7928460   2.7928460   2.7928460
 AtZNuc=   6.0000000   6.0000000   6.0000000   6.0000000   6.0000000   6.0000000   6.0000000   1.0000000   1.0000000   1.0000000

  Atom        21          22          23          24          25          26          27          28          29          30
 IAtWgt=          14          12          12          12          12          12          12           1           1          12
 AtmWgt=  14.0030740  12.0000000  12.0000000  12.0000000  12.0000000  12.0000000  12.0000000   1.0078250   1.0078250  12.0000000
 NucSpn=           2           0           0           0           0           0           0           1           1           0
 AtZEff=  -0.0000000  -0.0000000  -0.0000000  -0.0000000  -0.0000000  -0.0000000  -0.0000000  -0.0000000  -0.0000000  -0.0000000
 NQMom=    2.0440000   0.0000000   0.0000000   0.0000000   0.0000000   0.0000000   0.0000000   0.0000000   0.0000000   0.0000000
 NMagM=    0.4037610   0.0000000   0.0000000   0.0000000   0.0000000   0.0000000   0.0000000   2.7928460   2.7928460   0.0000000
 AtZNuc=   7.0000000   6.0000000   6.0000000   6.0000000   6.0000000   6.0000000   6.0000000   1.0000000   1.0000000   6.0000000

  Atom        31          32          33          34          35          36          37          38          39          40
 IAtWgt=           1           1           1          12           1           1           1          16          14          14
 AtmWgt=   1.0078250   1.0078250   1.0078250  12.0000000   1.0078250   1.0078250   1.0078250  15.9949146  14.0030740  14.0030740
 NucSpn=           1           1           1           0           1           1           1           0           2           2
 AtZEff=  -0.0000000  -0.0000000  -0.0000000  -0.0000000  -0.0000000  -0.0000000  -0.0000000  -0.0000000  -0.0000000  -0.0000000
 NQMom=    0.0000000   0.0000000   0.0000000   0.0000000   0.0000000   0.0000000   0.0000000   0.0000000   2.0440000   2.0440000
 NMagM=    2.7928460   2.7928460   2.7928460   0.0000000   2.7928460   2.7928460   2.7928460   0.0000000   0.4037610   0.4037610
 AtZNuc=   1.0000000   1.0000000   1.0000000   6.0000000   1.0000000   1.0000000   1.0000000   8.0000000   7.0000000   7.0000000

  Atom        41          42          43          44          45          46          47          48          49          50
 IAtWgt=          14          12          14          14          12          12          12          12          12          12
 AtmWgt=  14.0030740  12.0000000  14.0030740  14.0030740  12.0000000  12.0000000  12.0000000  12.0000000  12.0000000  12.0000000
 NucSpn=           2           0           2           2           0           0           0           0           0           0
 AtZEff=  -0.0000000  -0.0000000  -0.0000000  -0.0000000  -0.0000000  -0.0000000  -0.0000000  -0.0000000  -0.0000000  -0.0000000
 NQMom=    2.0440000   0.0000000   2.0440000   2.0440000   0.0000000   0.0000000   0.0000000   0.0000000   0.0000000   0.0000000
 NMagM=    0.4037610   0.0000000   0.4037610   0.4037610   0.0000000   0.0000000   0.0000000   0.0000000   0.0000000   0.0000000
 AtZNuc=   7.0000000   6.0000000   7.0000000   7.0000000   6.0000000   6.0000000   6.0000000   6.0000000   6.0000000   6.0000000

  Atom        51          52          53          54          55          56          57          58          59          60
 IAtWgt=           1           1           1          12           1          14          12          12          12           1
 AtmWgt=   1.0078250   1.0078250   1.0078250  12.0000000   1.0078250  14.0030740  12.0000000  12.0000000  12.0000000   1.0078250
 NucSpn=           1           1           1           0           1           2           0           0           0           1
 AtZEff=  -0.0000000  -0.0000000  -0.0000000  -0.0000000  -0.0000000  -0.0000000  -0.0000000  -0.0000000  -0.0000000  -0.0000000
 NQMom=    0.0000000   0.0000000   0.0000000   0.0000000   0.0000000   2.0440000   0.0000000   0.0000000   0.0000000   0.0000000
 NMagM=    2.7928460   2.7928460   2.7928460   0.0000000   2.7928460   0.4037610   0.0000000   0.0000000   0.0000000   2.7928460
 AtZNuc=   1.0000000   1.0000000   1.0000000   6.0000000   1.0000000   7.0000000   6.0000000   6.0000000   6.0000000   1.0000000

  Atom        61          62          63          64          65          66          67          68          69          70
 IAtWgt=          12           1           1          12           1           1          12           1           1           1
 AtmWgt=  12.0000000   1.0078250   1.0078250  12.0000000   1.0078250   1.0078250  12.0000000   1.0078250   1.0078250   1.0078250
 NucSpn=           0           1           1           0           1           1           0           1           1           1
 AtZEff=  -0.0000000  -0.0000000  -0.0000000  -0.0000000  -0.0000000  -0.0000000  -0.0000000  -0.0000000  -0.0000000  -0.0000000
 NQMom=    0.0000000   0.0000000   0.0000000   0.0000000   0.0000000   0.0000000   0.0000000   0.0000000   0.0000000   0.0000000
 NMagM=    0.0000000   2.7928460   2.7928460   0.0000000   2.7928460   2.7928460   0.0000000   2.7928460   2.7928460   2.7928460
 AtZNuc=   6.0000000   1.0000000   1.0000000   6.0000000   1.0000000   1.0000000   6.0000000   1.0000000   1.0000000   1.0000000

  Atom        71          72          73          74          75          76          77
 IAtWgt=           1           1           1           1           1           1           1
 AtmWgt=   1.0078250   1.0078250   1.0078250   1.0078250   1.0078250   1.0078250   1.0078250
 NucSpn=           1           1           1           1           1           1           1
 AtZEff=  -0.0000000  -0.0000000  -0.0000000  -0.0000000  -0.0000000  -0.0000000  -0.0000000
 NQMom=    0.0000000   0.0000000   0.0000000   0.0000000   0.0000000   0.0000000   0.0000000
 NMagM=    2.7928460   2.7928460   2.7928460   2.7928460   2.7928460   2.7928460   2.7928460
 AtZNuc=   1.0000000   1.0000000   1.0000000   1.0000000   1.0000000   1.0000000   1.0000000
 Leave Link  101 at Fri Dec 14 11:58:40 2018, MaxMem=  1342177280 cpu:               5.1 elap:               0.4
 (Enter /gpfs/apps/hpc/Apps/Restricted/Gaussian/Rev_A.03/g16/l103.exe)

 GradGradGradGradGradGradGradGradGradGradGradGradGradGradGradGradGradGrad
 Berny optimization.
 Initialization pass.
                           ----------------------------
                           !    Initial Parameters    !
                           ! (Angstroms and Degrees)  !
 --------------------------                            --------------------------
 ! Name  Definition              Value          Derivative Info.                !
 --------------------------------------------------------------------------------
 ! R1    R(1,2)                  1.4174         estimate D2E/DX2                !
 ! R2    R(1,6)                  1.4116         estimate D2E/DX2                !
 ! R3    R(1,41)                 1.3807         estimate D2E/DX2                !
 ! R4    R(2,3)                  1.393          estimate D2E/DX2                !
 ! R5    R(2,21)                 1.3781         estimate D2E/DX2                !
 ! R6    R(3,4)                  1.3962         estimate D2E/DX2                !
 ! R7    R(3,8)                  1.0825         estimate D2E/DX2                !
 ! R8    R(4,5)                  1.4017         estimate D2E/DX2                !
 ! R9    R(4,9)                  1.0834         estimate D2E/DX2                !
 ! R10   R(5,6)                  1.4004         estimate D2E/DX2                !
 ! R11   R(5,10)                 1.0828         estimate D2E/DX2                !
 ! R12   R(6,42)                 1.4499         estimate D2E/DX2                !
 ! R13   R(7,16)                 1.4524         estimate D2E/DX2                !
 ! R14   R(7,21)                 1.3695         estimate D2E/DX2                !
 ! R15   R(7,41)                 1.3335         estimate D2E/DX2                !
 ! R16   R(11,12)                1.4205         estimate D2E/DX2                !
 ! R17   R(11,16)                1.4144         estimate D2E/DX2                !
 ! R18   R(11,39)                1.3768         estimate D2E/DX2                !
 ! R19   R(12,13)                1.3948         estimate D2E/DX2                !
 ! R20   R(12,40)                1.3722         estimate D2E/DX2                !
 ! R21   R(13,14)                1.3929         estimate D2E/DX2                !
 ! R22   R(13,18)                1.0828         estimate D2E/DX2                !
 ! R23   R(14,15)                1.4052         estimate D2E/DX2                !
 ! R24   R(14,19)                1.0834         estimate D2E/DX2                !
 ! R25   R(15,16)                1.3973         estimate D2E/DX2                !
 ! R26   R(15,20)                1.0826         estimate D2E/DX2                !
 ! R27   R(17,23)                1.449          estimate D2E/DX2                !
 ! R28   R(17,39)                1.3392         estimate D2E/DX2                !
 ! R29   R(17,40)                1.369          estimate D2E/DX2                !
 ! R30   R(21,76)                1.0181         estimate D2E/DX2                !
 ! R31   R(22,23)                1.4682         estimate D2E/DX2                !
 ! R32   R(22,27)                1.4611         estimate D2E/DX2                !
 ! R33   R(22,38)                1.2594         estimate D2E/DX2                !
 ! R34   R(23,24)                1.3874         estimate D2E/DX2                !
 ! R35   R(24,25)                1.4029         estimate D2E/DX2                !
 ! R36   R(24,28)                1.0836         estimate D2E/DX2                !
 ! R37   R(25,26)                1.4191         estimate D2E/DX2                !
 ! R38   R(25,30)                1.4978         estimate D2E/DX2                !
 ! R39   R(26,27)                1.3726         estimate D2E/DX2                !
 ! R40   R(26,29)                1.0854         estimate D2E/DX2                !
 ! R41   R(27,34)                1.4958         estimate D2E/DX2                !
 ! R42   R(30,31)                1.0908         estimate D2E/DX2                !
 ! R43   R(30,32)                1.0965         estimate D2E/DX2                !
 ! R44   R(30,33)                1.0922         estimate D2E/DX2                !
 ! R45   R(34,35)                1.0944         estimate D2E/DX2                !
 ! R46   R(34,36)                1.0937         estimate D2E/DX2                !
 ! R47   R(34,37)                1.0899         estimate D2E/DX2                !
 ! R48   R(40,77)                1.0164         estimate D2E/DX2                !
 ! R49   R(42,43)                1.3674         estimate D2E/DX2                !
 ! R50   R(42,44)                1.3405         estimate D2E/DX2                !
 ! R51   R(43,49)                1.3773         estimate D2E/DX2                !
 ! R52   R(43,75)                1.0209         estimate D2E/DX2                !
 ! R53   R(44,50)                1.3721         estimate D2E/DX2                !
 ! R54   R(45,46)                1.408          estimate D2E/DX2                !
 ! R55   R(45,50)                1.4143         estimate D2E/DX2                !
 ! R56   R(45,54)                1.4303         estimate D2E/DX2                !
 ! R57   R(46,47)                1.3969         estimate D2E/DX2                !
 ! R58   R(46,51)                1.0838         estimate D2E/DX2                !
 ! R59   R(47,48)                1.4004         estimate D2E/DX2                !
 ! R60   R(47,52)                1.0825         estimate D2E/DX2                !
 ! R61   R(48,49)                1.3911         estimate D2E/DX2                !
 ! R62   R(48,53)                1.0829         estimate D2E/DX2                !
 ! R63   R(49,50)                1.4166         estimate D2E/DX2                !
 ! R64   R(54,55)                1.0835         estimate D2E/DX2                !
 ! R65   R(54,56)                1.2988         estimate D2E/DX2                !
 ! R66   R(56,57)                1.4719         estimate D2E/DX2                !
 ! R67   R(56,74)                1.0291         estimate D2E/DX2                !
 ! R68   R(57,58)                1.5261         estimate D2E/DX2                !
 ! R69   R(57,59)                1.5347         estimate D2E/DX2                !
 ! R70   R(57,60)                1.0964         estimate D2E/DX2                !
 ! R71   R(58,61)                1.5336         estimate D2E/DX2                !
 ! R72   R(58,62)                1.096          estimate D2E/DX2                !
 ! R73   R(58,63)                1.0936         estimate D2E/DX2                !
 ! R74   R(59,64)                1.5327         estimate D2E/DX2                !
 ! R75   R(59,65)                1.0956         estimate D2E/DX2                !
 ! R76   R(59,66)                1.0941         estimate D2E/DX2                !
 ! R77   R(61,67)                1.5323         estimate D2E/DX2                !
 ! R78   R(61,68)                1.0933         estimate D2E/DX2                !
 ! R79   R(61,69)                1.0965         estimate D2E/DX2                !
 ! R80   R(64,67)                1.5325         estimate D2E/DX2                !
 ! R81   R(64,70)                1.0931         estimate D2E/DX2                !
 ! R82   R(64,71)                1.0965         estimate D2E/DX2                !
 ! R83   R(67,72)                1.0939         estimate D2E/DX2                !
 ! R84   R(67,73)                1.0967         estimate D2E/DX2                !
 ! A1    A(2,1,6)              119.9873         estimate D2E/DX2                !
 ! A2    A(2,1,41)             110.2604         estimate D2E/DX2                !
 ! A3    A(6,1,41)             129.7523         estimate D2E/DX2                !
 ! A4    A(1,2,3)              122.3498         estimate D2E/DX2                !
 ! A5    A(1,2,21)             104.5708         estimate D2E/DX2                !
 ! A6    A(3,2,21)             133.079          estimate D2E/DX2                !
 ! A7    A(2,3,4)              116.9213         estimate D2E/DX2                !
 ! A8    A(2,3,8)              121.605          estimate D2E/DX2                !
 ! A9    A(4,3,8)              121.4737         estimate D2E/DX2                !
 ! A10   A(3,4,5)              121.7964         estimate D2E/DX2                !
 ! A11   A(3,4,9)              119.1434         estimate D2E/DX2                !
 ! A12   A(5,4,9)              119.0601         estimate D2E/DX2                !
 ! A13   A(4,5,6)              121.4796         estimate D2E/DX2                !
 ! A14   A(4,5,10)             119.9946         estimate D2E/DX2                !
 ! A15   A(6,5,10)             118.525          estimate D2E/DX2                !
 ! A16   A(1,6,5)              117.4651         estimate D2E/DX2                !
 ! A17   A(1,6,42)             120.6978         estimate D2E/DX2                !
 ! A18   A(5,6,42)             121.837          estimate D2E/DX2                !
 ! A19   A(16,7,21)            121.7058         estimate D2E/DX2                !
 ! A20   A(16,7,41)            126.1731         estimate D2E/DX2                !
 ! A21   A(21,7,41)            112.1179         estimate D2E/DX2                !
 ! A22   A(12,11,16)           119.8195         estimate D2E/DX2                !
 ! A23   A(12,11,39)           110.2133         estimate D2E/DX2                !
 ! A24   A(16,11,39)           129.967          estimate D2E/DX2                !
 ! A25   A(11,12,13)           122.625          estimate D2E/DX2                !
 ! A26   A(11,12,40)           104.6186         estimate D2E/DX2                !
 ! A27   A(13,12,40)           132.7551         estimate D2E/DX2                !
 ! A28   A(12,13,14)           116.6366         estimate D2E/DX2                !
 ! A29   A(12,13,18)           121.6262         estimate D2E/DX2                !
 ! A30   A(14,13,18)           121.7371         estimate D2E/DX2                !
 ! A31   A(13,14,15)           121.8962         estimate D2E/DX2                !
 ! A32   A(13,14,19)           119.3213         estimate D2E/DX2                !
 ! A33   A(15,14,19)           118.7825         estimate D2E/DX2                !
 ! A34   A(14,15,16)           121.742          estimate D2E/DX2                !
 ! A35   A(14,15,20)           119.7757         estimate D2E/DX2                !
 ! A36   A(16,15,20)           118.4821         estimate D2E/DX2                !
 ! A37   A(7,16,11)            121.2567         estimate D2E/DX2                !
 ! A38   A(7,16,15)            121.4644         estimate D2E/DX2                !
 ! A39   A(11,16,15)           117.2788         estimate D2E/DX2                !
 ! A40   A(23,17,39)           125.6634         estimate D2E/DX2                !
 ! A41   A(23,17,40)           122.5162         estimate D2E/DX2                !
 ! A42   A(39,17,40)           111.8177         estimate D2E/DX2                !
 ! A43   A(2,21,7)             107.8724         estimate D2E/DX2                !
 ! A44   A(2,21,76)            129.7412         estimate D2E/DX2                !
 ! A45   A(7,21,76)            122.3862         estimate D2E/DX2                !
 ! A46   A(23,22,27)           117.8418         estimate D2E/DX2                !
 ! A47   A(23,22,38)           122.3495         estimate D2E/DX2                !
 ! A48   A(27,22,38)           119.8087         estimate D2E/DX2                !
 ! A49   A(17,23,22)           120.1666         estimate D2E/DX2                !
 ! A50   A(17,23,24)           120.1944         estimate D2E/DX2                !
 ! A51   A(22,23,24)           119.6389         estimate D2E/DX2                !
 ! A52   A(23,24,25)           121.5367         estimate D2E/DX2                !
 ! A53   A(23,24,28)           118.8408         estimate D2E/DX2                !
 ! A54   A(25,24,28)           119.6222         estimate D2E/DX2                !
 ! A55   A(24,25,26)           119.3175         estimate D2E/DX2                !
 ! A56   A(24,25,30)           120.7608         estimate D2E/DX2                !
 ! A57   A(26,25,30)           119.9104         estimate D2E/DX2                !
 ! A58   A(25,26,27)           122.1887         estimate D2E/DX2                !
 ! A59   A(25,26,29)           118.4562         estimate D2E/DX2                !
 ! A60   A(27,26,29)           119.355          estimate D2E/DX2                !
 ! A61   A(22,27,26)           119.4735         estimate D2E/DX2                !
 ! A62   A(22,27,34)           117.6044         estimate D2E/DX2                !
 ! A63   A(26,27,34)           122.9212         estimate D2E/DX2                !
 ! A64   A(25,30,31)           111.3128         estimate D2E/DX2                !
 ! A65   A(25,30,32)           110.0555         estimate D2E/DX2                !
 ! A66   A(25,30,33)           111.0845         estimate D2E/DX2                !
 ! A67   A(31,30,32)           107.7982         estimate D2E/DX2                !
 ! A68   A(31,30,33)           109.3459         estimate D2E/DX2                !
 ! A69   A(32,30,33)           107.0986         estimate D2E/DX2                !
 ! A70   A(27,34,35)           110.7714         estimate D2E/DX2                !
 ! A71   A(27,34,36)           110.6758         estimate D2E/DX2                !
 ! A72   A(27,34,37)           110.8651         estimate D2E/DX2                !
 ! A73   A(35,34,36)           106.4297         estimate D2E/DX2                !
 ! A74   A(35,34,37)           108.9344         estimate D2E/DX2                !
 ! A75   A(36,34,37)           109.0409         estimate D2E/DX2                !
 ! A76   A(11,39,17)           105.2195         estimate D2E/DX2                !
 ! A77   A(12,40,17)           108.1303         estimate D2E/DX2                !
 ! A78   A(12,40,77)           130.9217         estimate D2E/DX2                !
 ! A79   A(17,40,77)           120.9446         estimate D2E/DX2                !
 ! A80   A(1,41,7)             105.1779         estimate D2E/DX2                !
 ! A81   A(6,42,43)            121.4614         estimate D2E/DX2                !
 ! A82   A(6,42,44)            126.5524         estimate D2E/DX2                !
 ! A83   A(43,42,44)           111.983          estimate D2E/DX2                !
 ! A84   A(42,43,49)           107.9262         estimate D2E/DX2                !
 ! A85   A(42,43,75)           121.9115         estimate D2E/DX2                !
 ! A86   A(49,43,75)           130.1536         estimate D2E/DX2                !
 ! A87   A(42,44,50)           104.9878         estimate D2E/DX2                !
 ! A88   A(46,45,50)           117.6328         estimate D2E/DX2                !
 ! A89   A(46,45,54)           120.442          estimate D2E/DX2                !
 ! A90   A(50,45,54)           121.892          estimate D2E/DX2                !
 ! A91   A(45,46,47)           121.3384         estimate D2E/DX2                !
 ! A92   A(45,46,51)           118.8485         estimate D2E/DX2                !
 ! A93   A(47,46,51)           119.8109         estimate D2E/DX2                !
 ! A94   A(46,47,48)           121.5436         estimate D2E/DX2                !
 ! A95   A(46,47,52)           119.272          estimate D2E/DX2                !
 ! A96   A(48,47,52)           119.1844         estimate D2E/DX2                !
 ! A97   A(47,48,49)           117.4535         estimate D2E/DX2                !
 ! A98   A(47,48,53)           121.116          estimate D2E/DX2                !
 ! A99   A(49,48,53)           121.4302         estimate D2E/DX2                !
 ! A100  A(43,49,48)           133.4273         estimate D2E/DX2                !
 ! A101  A(43,49,50)           104.4108         estimate D2E/DX2                !
 ! A102  A(48,49,50)           122.1619         estimate D2E/DX2                !
 ! A103  A(44,50,45)           129.441          estimate D2E/DX2                !
 ! A104  A(44,50,49)           110.6916         estimate D2E/DX2                !
 ! A105  A(45,50,49)           119.8645         estimate D2E/DX2                !
 ! A106  A(45,54,55)           118.999          estimate D2E/DX2                !
 ! A107  A(45,54,56)           123.0431         estimate D2E/DX2                !
 ! A108  A(55,54,56)           117.9458         estimate D2E/DX2                !
 ! A109  A(54,56,57)           126.9494         estimate D2E/DX2                !
 ! A110  A(54,56,74)           115.8305         estimate D2E/DX2                !
 ! A111  A(57,56,74)           117.2185         estimate D2E/DX2                !
 ! A112  A(56,57,58)           113.0805         estimate D2E/DX2                !
 ! A113  A(56,57,59)           109.32           estimate D2E/DX2                !
 ! A114  A(56,57,60)           105.2905         estimate D2E/DX2                !
 ! A115  A(58,57,59)           111.7477         estimate D2E/DX2                !
 ! A116  A(58,57,60)           108.8183         estimate D2E/DX2                !
 ! A117  A(59,57,60)           108.2802         estimate D2E/DX2                !
 ! A118  A(57,58,61)           110.1236         estimate D2E/DX2                !
 ! A119  A(57,58,62)           109.1797         estimate D2E/DX2                !
 ! A120  A(57,58,63)           110.3449         estimate D2E/DX2                !
 ! A121  A(61,58,62)           109.4222         estimate D2E/DX2                !
 ! A122  A(61,58,63)           110.1171         estimate D2E/DX2                !
 ! A123  A(62,58,63)           107.6054         estimate D2E/DX2                !
 ! A124  A(57,59,64)           110.1707         estimate D2E/DX2                !
 ! A125  A(57,59,65)           108.4257         estimate D2E/DX2                !
 ! A126  A(57,59,66)           109.6925         estimate D2E/DX2                !
 ! A127  A(64,59,65)           110.1472         estimate D2E/DX2                !
 ! A128  A(64,59,66)           110.7837         estimate D2E/DX2                !
 ! A129  A(65,59,66)           107.5534         estimate D2E/DX2                !
 ! A130  A(58,61,67)           111.6758         estimate D2E/DX2                !
 ! A131  A(58,61,68)           109.2092         estimate D2E/DX2                !
 ! A132  A(58,61,69)           109.1126         estimate D2E/DX2                !
 ! A133  A(67,61,68)           110.5677         estimate D2E/DX2                !
 ! A134  A(67,61,69)           109.3215         estimate D2E/DX2                !
 ! A135  A(68,61,69)           106.8232         estimate D2E/DX2                !
 ! A136  A(59,64,67)           111.4577         estimate D2E/DX2                !
 ! A137  A(59,64,70)           109.5613         estimate D2E/DX2                !
 ! A138  A(59,64,71)           109.0778         estimate D2E/DX2                !
 ! A139  A(67,64,70)           110.5176         estimate D2E/DX2                !
 ! A140  A(67,64,71)           109.2251         estimate D2E/DX2                !
 ! A141  A(70,64,71)           106.8815         estimate D2E/DX2                !
 ! A142  A(61,67,64)           111.2137         estimate D2E/DX2                !
 ! A143  A(61,67,72)           109.9378         estimate D2E/DX2                !
 ! A144  A(61,67,73)           109.1971         estimate D2E/DX2                !
 ! A145  A(64,67,72)           110.0414         estimate D2E/DX2                !
 ! A146  A(64,67,73)           109.2909         estimate D2E/DX2                !
 ! A147  A(72,67,73)           107.0618         estimate D2E/DX2                !
 ! D1    D(6,1,2,3)              0.1429         estimate D2E/DX2                !
 ! D2    D(6,1,2,21)          -179.6539         estimate D2E/DX2                !
 ! D3    D(41,1,2,3)          -179.9449         estimate D2E/DX2                !
 ! D4    D(41,1,2,21)            0.2583         estimate D2E/DX2                !
 ! D5    D(2,1,6,5)             -0.099          estimate D2E/DX2                !
 ! D6    D(2,1,6,42)          -179.9808         estimate D2E/DX2                !
 ! D7    D(41,1,6,5)          -179.9919         estimate D2E/DX2                !
 ! D8    D(41,1,6,42)            0.1263         estimate D2E/DX2                !
 ! D9    D(2,1,41,7)            -0.2531         estimate D2E/DX2                !
 ! D10   D(6,1,41,7)           179.648          estimate D2E/DX2                !
 ! D11   D(1,2,3,4)              0.0002         estimate D2E/DX2                !
 ! D12   D(1,2,3,8)            179.9269         estimate D2E/DX2                !
 ! D13   D(21,2,3,4)           179.731          estimate D2E/DX2                !
 ! D14   D(21,2,3,8)            -0.3423         estimate D2E/DX2                !
 ! D15   D(1,2,21,7)            -0.16           estimate D2E/DX2                !
 ! D16   D(1,2,21,76)          179.9568         estimate D2E/DX2                !
 ! D17   D(3,2,21,7)          -179.925          estimate D2E/DX2                !
 ! D18   D(3,2,21,76)            0.1918         estimate D2E/DX2                !
 ! D19   D(2,3,4,5)             -0.1855         estimate D2E/DX2                !
 ! D20   D(2,3,4,9)            179.8144         estimate D2E/DX2                !
 ! D21   D(8,3,4,5)            179.8878         estimate D2E/DX2                !
 ! D22   D(8,3,4,9)             -0.1123         estimate D2E/DX2                !
 ! D23   D(3,4,5,6)              0.2325         estimate D2E/DX2                !
 ! D24   D(3,4,5,10)           179.9072         estimate D2E/DX2                !
 ! D25   D(9,4,5,6)           -179.7674         estimate D2E/DX2                !
 ! D26   D(9,4,5,10)            -0.0927         estimate D2E/DX2                !
 ! D27   D(4,5,6,1)             -0.082          estimate D2E/DX2                !
 ! D28   D(4,5,6,42)           179.7984         estimate D2E/DX2                !
 ! D29   D(10,5,6,1)          -179.7614         estimate D2E/DX2                !
 ! D30   D(10,5,6,42)            0.119          estimate D2E/DX2                !
 ! D31   D(1,6,42,43)            2.8596         estimate D2E/DX2                !
 ! D32   D(1,6,42,44)         -177.8464         estimate D2E/DX2                !
 ! D33   D(5,6,42,43)         -177.017          estimate D2E/DX2                !
 ! D34   D(5,6,42,44)            2.2771         estimate D2E/DX2                !
 ! D35   D(21,7,16,11)           0.4096         estimate D2E/DX2                !
 ! D36   D(21,7,16,15)        -179.4348         estimate D2E/DX2                !
 ! D37   D(41,7,16,11)         179.7029         estimate D2E/DX2                !
 ! D38   D(41,7,16,15)          -0.1414         estimate D2E/DX2                !
 ! D39   D(16,7,21,2)          179.3933         estimate D2E/DX2                !
 ! D40   D(16,7,21,76)          -0.7131         estimate D2E/DX2                !
 ! D41   D(41,7,21,2)            0.009          estimate D2E/DX2                !
 ! D42   D(41,7,21,76)         179.9026         estimate D2E/DX2                !
 ! D43   D(16,7,41,1)         -179.2003         estimate D2E/DX2                !
 ! D44   D(21,7,41,1)            0.1507         estimate D2E/DX2                !
 ! D45   D(16,11,12,13)         -0.3353         estimate D2E/DX2                !
 ! D46   D(16,11,12,40)       -179.9788         estimate D2E/DX2                !
 ! D47   D(39,11,12,13)        179.5068         estimate D2E/DX2                !
 ! D48   D(39,11,12,40)         -0.1366         estimate D2E/DX2                !
 ! D49   D(12,11,16,7)        -179.3261         estimate D2E/DX2                !
 ! D50   D(12,11,16,15)          0.5245         estimate D2E/DX2                !
 ! D51   D(39,11,16,7)           0.8672         estimate D2E/DX2                !
 ! D52   D(39,11,16,15)       -179.2822         estimate D2E/DX2                !
 ! D53   D(12,11,39,17)         -0.0024         estimate D2E/DX2                !
 ! D54   D(16,11,39,17)        179.8189         estimate D2E/DX2                !
 ! D55   D(11,12,13,14)          0.0452         estimate D2E/DX2                !
 ! D56   D(11,12,13,18)        179.9421         estimate D2E/DX2                !
 ! D57   D(40,12,13,14)        179.5754         estimate D2E/DX2                !
 ! D58   D(40,12,13,18)         -0.5277         estimate D2E/DX2                !
 ! D59   D(11,12,40,17)          0.2195         estimate D2E/DX2                !
 ! D60   D(11,12,40,77)        179.5421         estimate D2E/DX2                !
 ! D61   D(13,12,40,17)       -179.3715         estimate D2E/DX2                !
 ! D62   D(13,12,40,77)         -0.0489         estimate D2E/DX2                !
 ! D63   D(12,13,14,15)          0.036          estimate D2E/DX2                !
 ! D64   D(12,13,14,19)       -179.9862         estimate D2E/DX2                !
 ! D65   D(18,13,14,15)       -179.8608         estimate D2E/DX2                !
 ! D66   D(18,13,14,19)          0.1171         estimate D2E/DX2                !
 ! D67   D(13,14,15,16)          0.179          estimate D2E/DX2                !
 ! D68   D(13,14,15,20)        179.9814         estimate D2E/DX2                !
 ! D69   D(19,14,15,16)       -179.799          estimate D2E/DX2                !
 ! D70   D(19,14,15,20)          0.0034         estimate D2E/DX2                !
 ! D71   D(14,15,16,7)         179.3948         estimate D2E/DX2                !
 ! D72   D(14,15,16,11)         -0.4555         estimate D2E/DX2                !
 ! D73   D(20,15,16,7)          -0.4101         estimate D2E/DX2                !
 ! D74   D(20,15,16,11)        179.7396         estimate D2E/DX2                !
 ! D75   D(39,17,23,22)        179.2963         estimate D2E/DX2                !
 ! D76   D(39,17,23,24)         -0.6549         estimate D2E/DX2                !
 ! D77   D(40,17,23,22)         -0.065          estimate D2E/DX2                !
 ! D78   D(40,17,23,24)        179.9838         estimate D2E/DX2                !
 ! D79   D(23,17,39,11)       -179.2732         estimate D2E/DX2                !
 ! D80   D(40,17,39,11)          0.1467         estimate D2E/DX2                !
 ! D81   D(23,17,40,12)        179.2015         estimate D2E/DX2                !
 ! D82   D(23,17,40,77)         -0.2017         estimate D2E/DX2                !
 ! D83   D(39,17,40,12)         -0.2396         estimate D2E/DX2                !
 ! D84   D(39,17,40,77)       -179.6428         estimate D2E/DX2                !
 ! D85   D(27,22,23,17)       -179.5036         estimate D2E/DX2                !
 ! D86   D(27,22,23,24)          0.4478         estimate D2E/DX2                !
 ! D87   D(38,22,23,17)          0.5462         estimate D2E/DX2                !
 ! D88   D(38,22,23,24)       -179.5023         estimate D2E/DX2                !
 ! D89   D(23,22,27,26)         -0.3235         estimate D2E/DX2                !
 ! D90   D(23,22,27,34)       -179.9986         estimate D2E/DX2                !
 ! D91   D(38,22,27,26)        179.6279         estimate D2E/DX2                !
 ! D92   D(38,22,27,34)         -0.0471         estimate D2E/DX2                !
 ! D93   D(17,23,24,25)        179.3992         estimate D2E/DX2                !
 ! D94   D(17,23,24,28)         -0.3848         estimate D2E/DX2                !
 ! D95   D(22,23,24,25)         -0.5522         estimate D2E/DX2                !
 ! D96   D(22,23,24,28)        179.6637         estimate D2E/DX2                !
 ! D97   D(23,24,25,26)          0.5135         estimate D2E/DX2                !
 ! D98   D(23,24,25,30)       -178.259          estimate D2E/DX2                !
 ! D99   D(28,24,25,26)       -179.7041         estimate D2E/DX2                !
 ! D100  D(28,24,25,30)          1.5235         estimate D2E/DX2                !
 ! D101  D(24,25,26,27)         -0.386          estimate D2E/DX2                !
 ! D102  D(24,25,26,29)        179.5193         estimate D2E/DX2                !
 ! D103  D(30,25,26,27)        178.397          estimate D2E/DX2                !
 ! D104  D(30,25,26,29)         -1.6977         estimate D2E/DX2                !
 ! D105  D(24,25,30,31)        -22.0641         estimate D2E/DX2                !
 ! D106  D(24,25,30,32)         97.3891         estimate D2E/DX2                !
 ! D107  D(24,25,30,33)       -144.1727         estimate D2E/DX2                !
 ! D108  D(26,25,30,31)        159.1707         estimate D2E/DX2                !
 ! D109  D(26,25,30,32)        -81.3761         estimate D2E/DX2                !
 ! D110  D(26,25,30,33)         37.0621         estimate D2E/DX2                !
 ! D111  D(25,26,27,22)          0.3002         estimate D2E/DX2                !
 ! D112  D(25,26,27,34)        179.9571         estimate D2E/DX2                !
 ! D113  D(29,26,27,22)       -179.6043         estimate D2E/DX2                !
 ! D114  D(29,26,27,34)          0.0527         estimate D2E/DX2                !
 ! D115  D(22,27,34,35)        -61.444          estimate D2E/DX2                !
 ! D116  D(22,27,34,36)         56.361          estimate D2E/DX2                !
 ! D117  D(22,27,34,37)        177.4936         estimate D2E/DX2                !
 ! D118  D(26,27,34,35)        118.893          estimate D2E/DX2                !
 ! D119  D(26,27,34,36)       -123.302          estimate D2E/DX2                !
 ! D120  D(26,27,34,37)         -2.1693         estimate D2E/DX2                !
 ! D121  D(6,42,43,49)         179.144          estimate D2E/DX2                !
 ! D122  D(6,42,43,75)          -1.8259         estimate D2E/DX2                !
 ! D123  D(44,42,43,49)         -0.2445         estimate D2E/DX2                !
 ! D124  D(44,42,43,75)        178.7856         estimate D2E/DX2                !
 ! D125  D(6,42,44,50)        -179.1423         estimate D2E/DX2                !
 ! D126  D(43,42,44,50)          0.2083         estimate D2E/DX2                !
 ! D127  D(42,43,49,48)       -179.8229         estimate D2E/DX2                !
 ! D128  D(42,43,49,50)          0.1673         estimate D2E/DX2                !
 ! D129  D(75,43,49,48)          1.2543         estimate D2E/DX2                !
 ! D130  D(75,43,49,50)       -178.7555         estimate D2E/DX2                !
 ! D131  D(42,44,50,45)       -179.4618         estimate D2E/DX2                !
 ! D132  D(42,44,50,49)         -0.0965         estimate D2E/DX2                !
 ! D133  D(50,45,46,47)         -0.6729         estimate D2E/DX2                !
 ! D134  D(50,45,46,51)        179.878          estimate D2E/DX2                !
 ! D135  D(54,45,46,47)        177.2719         estimate D2E/DX2                !
 ! D136  D(54,45,46,51)         -2.1772         estimate D2E/DX2                !
 ! D137  D(46,45,50,44)       -179.793          estimate D2E/DX2                !
 ! D138  D(46,45,50,49)          0.8916         estimate D2E/DX2                !
 ! D139  D(54,45,50,44)          2.2939         estimate D2E/DX2                !
 ! D140  D(54,45,50,49)       -177.0215         estimate D2E/DX2                !
 ! D141  D(46,45,54,55)          1.7074         estimate D2E/DX2                !
 ! D142  D(46,45,54,56)       -177.0044         estimate D2E/DX2                !
 ! D143  D(50,45,54,55)        179.5629         estimate D2E/DX2                !
 ! D144  D(50,45,54,56)          0.851          estimate D2E/DX2                !
 ! D145  D(45,46,47,48)          0.1501         estimate D2E/DX2                !
 ! D146  D(45,46,47,52)       -179.7669         estimate D2E/DX2                !
 ! D147  D(51,46,47,48)        179.594          estimate D2E/DX2                !
 ! D148  D(51,46,47,52)         -0.3229         estimate D2E/DX2                !
 ! D149  D(46,47,48,49)          0.1569         estimate D2E/DX2                !
 ! D150  D(46,47,48,53)       -179.6355         estimate D2E/DX2                !
 ! D151  D(52,47,48,49)       -179.9261         estimate D2E/DX2                !
 ! D152  D(52,47,48,53)          0.2816         estimate D2E/DX2                !
 ! D153  D(47,48,49,43)       -179.9317         estimate D2E/DX2                !
 ! D154  D(47,48,49,50)          0.0796         estimate D2E/DX2                !
 ! D155  D(53,48,49,43)         -0.1401         estimate D2E/DX2                !
 ! D156  D(53,48,49,50)        179.8712         estimate D2E/DX2                !
 ! D157  D(43,49,50,44)         -0.0449         estimate D2E/DX2                !
 ! D158  D(43,49,50,45)        179.3899         estimate D2E/DX2                !
 ! D159  D(48,49,50,44)        179.9467         estimate D2E/DX2                !
 ! D160  D(48,49,50,45)         -0.6185         estimate D2E/DX2                !
 ! D161  D(45,54,56,57)        177.669          estimate D2E/DX2                !
 ! D162  D(45,54,56,74)         -1.8531         estimate D2E/DX2                !
 ! D163  D(55,54,56,57)         -1.0557         estimate D2E/DX2                !
 ! D164  D(55,54,56,74)        179.4223         estimate D2E/DX2                !
 ! D165  D(54,56,57,58)         -0.7313         estimate D2E/DX2                !
 ! D166  D(54,56,57,59)        124.4518         estimate D2E/DX2                !
 ! D167  D(54,56,57,60)       -119.417          estimate D2E/DX2                !
 ! D168  D(74,56,57,58)        178.7849         estimate D2E/DX2                !
 ! D169  D(74,56,57,59)        -56.0319         estimate D2E/DX2                !
 ! D170  D(74,56,57,60)         60.0993         estimate D2E/DX2                !
 ! D171  D(56,57,58,61)       -179.1786         estimate D2E/DX2                !
 ! D172  D(56,57,58,62)         60.6616         estimate D2E/DX2                !
 ! D173  D(56,57,58,63)        -57.4065         estimate D2E/DX2                !
 ! D174  D(59,57,58,61)         56.9604         estimate D2E/DX2                !
 ! D175  D(59,57,58,62)        -63.1994         estimate D2E/DX2                !
 ! D176  D(59,57,58,63)        178.7325         estimate D2E/DX2                !
 ! D177  D(60,57,58,61)        -62.5588         estimate D2E/DX2                !
 ! D178  D(60,57,58,62)        177.2814         estimate D2E/DX2                !
 ! D179  D(60,57,58,63)         59.2132         estimate D2E/DX2                !
 ! D180  D(56,57,59,64)        176.9496         estimate D2E/DX2                !
 ! D181  D(56,57,59,65)        -62.4433         estimate D2E/DX2                !
 ! D182  D(56,57,59,66)         54.7424         estimate D2E/DX2                !
 ! D183  D(58,57,59,64)        -57.0985         estimate D2E/DX2                !
 ! D184  D(58,57,59,65)         63.5086         estimate D2E/DX2                !
 ! D185  D(58,57,59,66)       -179.3056         estimate D2E/DX2                !
 ! D186  D(60,57,59,64)         62.7376         estimate D2E/DX2                !
 ! D187  D(60,57,59,65)       -176.6553         estimate D2E/DX2                !
 ! D188  D(60,57,59,66)        -59.4696         estimate D2E/DX2                !
 ! D189  D(57,58,61,67)        -55.625          estimate D2E/DX2                !
 ! D190  D(57,58,61,68)       -178.2281         estimate D2E/DX2                !
 ! D191  D(57,58,61,69)         65.3422         estimate D2E/DX2                !
 ! D192  D(62,58,61,67)         64.3882         estimate D2E/DX2                !
 ! D193  D(62,58,61,68)        -58.2149         estimate D2E/DX2                !
 ! D194  D(62,58,61,69)       -174.6446         estimate D2E/DX2                !
 ! D195  D(63,58,61,67)       -177.5322         estimate D2E/DX2                !
 ! D196  D(63,58,61,68)         59.8647         estimate D2E/DX2                !
 ! D197  D(63,58,61,69)        -56.565          estimate D2E/DX2                !
 ! D198  D(57,59,64,67)         55.6054         estimate D2E/DX2                !
 ! D199  D(57,59,64,70)        178.2433         estimate D2E/DX2                !
 ! D200  D(57,59,64,71)        -65.0785         estimate D2E/DX2                !
 ! D201  D(65,59,64,67)        -63.962          estimate D2E/DX2                !
 ! D202  D(65,59,64,70)         58.6759         estimate D2E/DX2                !
 ! D203  D(65,59,64,71)        175.3541         estimate D2E/DX2                !
 ! D204  D(66,59,64,67)        177.1658         estimate D2E/DX2                !
 ! D205  D(66,59,64,70)        -60.1963         estimate D2E/DX2                !
 ! D206  D(66,59,64,71)         56.4818         estimate D2E/DX2                !
 ! D207  D(58,61,67,64)         54.9379         estimate D2E/DX2                !
 ! D208  D(58,61,67,72)        177.0681         estimate D2E/DX2                !
 ! D209  D(58,61,67,73)        -65.752          estimate D2E/DX2                !
 ! D210  D(68,61,67,64)        176.7609         estimate D2E/DX2                !
 ! D211  D(68,61,67,72)        -61.1089         estimate D2E/DX2                !
 ! D212  D(68,61,67,73)         56.0711         estimate D2E/DX2                !
 ! D213  D(69,61,67,64)        -65.9077         estimate D2E/DX2                !
 ! D214  D(69,61,67,72)         56.2225         estimate D2E/DX2                !
 ! D215  D(69,61,67,73)        173.4025         estimate D2E/DX2                !
 ! D216  D(59,64,67,61)        -54.9273         estimate D2E/DX2                !
 ! D217  D(59,64,67,72)       -176.9974         estimate D2E/DX2                !
 ! D218  D(59,64,67,73)         65.7073         estimate D2E/DX2                !
 ! D219  D(70,64,67,61)       -177.0148         estimate D2E/DX2                !
 ! D220  D(70,64,67,72)         60.9151         estimate D2E/DX2                !
 ! D221  D(70,64,67,73)        -56.3802         estimate D2E/DX2                !
 ! D222  D(71,64,67,61)         65.6703         estimate D2E/DX2                !
 ! D223  D(71,64,67,72)        -56.3999         estimate D2E/DX2                !
 ! D224  D(71,64,67,73)       -173.6951         estimate D2E/DX2                !
 --------------------------------------------------------------------------------
 Trust Radius=3.00D-01 FncErr=5.00D-06 GrdErr=5.00D-06 EigMax=2.50D+02 EigMin=1.00D-04
 Number of steps in this run=    462 maximum allowed number of steps=    462.
 GradGradGradGradGradGradGradGradGradGradGradGradGradGradGradGradGradGrad

 Leave Link  103 at Fri Dec 14 11:58:41 2018, MaxMem=  1342177280 cpu:               0.6 elap:               0.1
 (Enter /gpfs/apps/hpc/Apps/Restricted/Gaussian/Rev_A.03/g16/l202.exe)
 Symmetry turned off by external request.
 Stoichiometry    C36H33N7O(1+,2)
 Framework group  C1[X(C36H33N7O)]
 Deg. of freedom   225
 Full point group                 C1      NOp   1
                          Input orientation:                          
 ---------------------------------------------------------------------
 Center     Atomic      Atomic             Coordinates (Angstroms)
 Number     Number       Type             X           Y           Z
 ---------------------------------------------------------------------
      1          6           0        1.633039    0.419179    0.991576
      2          6           0        0.564910    1.302279    0.694447
      3          6           0        0.748323    2.677096    0.565582
      4          6           0        2.045858    3.161129    0.743060
      5          6           0        3.117819    2.308621    1.041217
      6          6           0        2.938285    0.925857    1.170904
      7          6           0       -0.135740   -0.801672    0.819528
      8          1           0       -0.076066    3.340462    0.337199
      9          1           0        2.229928    4.224567    0.647873
     10          1           0        4.112807    2.715300    1.171461
     11          6           0       -2.447040   -1.707014    0.536387
     12          6           0       -3.338611   -2.812895    0.537618
     13          6           0       -2.916029   -4.119264    0.783254
     14          6           0       -1.557694   -4.299611    1.033265
     15          6           0       -0.654541   -3.223048    1.039627
     16          6           0       -1.072309   -1.911592    0.798708
     17          6           0       -4.405435   -0.919188    0.088128
     18          1           0       -3.610050   -4.950389    0.781167
     19          1           0       -1.182139   -5.296719    1.229330
     20          1           0        0.394438   -3.402462    1.238374
     21          7           0       -0.541689    0.486943    0.595356
     22          6           0       -6.860857   -0.582000   -0.412159
     23          6           0       -5.507888   -0.038308   -0.240807
     24          6           0       -5.290721    1.323118   -0.396549
     25          6           0       -6.335025    2.199682   -0.727063
     26          6           0       -7.646848    1.685300   -0.895921
     27          6           0       -7.932623    0.350240   -0.754281
     28          1           0       -4.288076    1.711273   -0.261721
     29          1           0       -8.445667    2.377043   -1.143740
     30          6           0       -6.073923    3.660690   -0.928984
     31          1           0       -5.155946    3.972208   -0.428867
     32          1           0       -5.963834    3.878778   -1.997910
     33          1           0       -6.907972    4.263215   -0.562539
     34          6           0       -9.308978   -0.209379   -0.927572
     35          1           0       -9.332717   -0.934763   -1.746673
     36          1           0       -9.623070   -0.747429   -0.028682
     37          1           0      -10.026984    0.583568   -1.136462
     38          8           0       -7.117276   -1.807187   -0.273759
     39          7           0       -3.130488   -0.545282    0.255673
     40          7           0       -4.565731   -2.268753    0.252941
     41          7           0        1.173434   -0.880944    1.060443
     42          6           0        4.042227    0.036482    1.474865
     43          7           0        3.869899   -1.318399    1.540494
     44          7           0        5.313641    0.392435    1.706843
     45          6           0        7.342433   -1.008299    2.226657
     46          6           0        7.766176   -2.339903    2.399103
     47          6           0        6.871196   -3.406908    2.290777
     48          6           0        5.516230   -3.200332    2.003401
     49          6           0        5.091270   -1.887794    1.825325
     50          6           0        5.978453   -0.787863    1.924725
     51          1           0        8.807852   -2.531591    2.629072
     52          1           0        7.232458   -4.417369    2.433490
     53          1           0        4.827247   -4.032288    1.926753
     54          6           0        8.262579    0.073105    2.399034
     55          1           0        9.296033   -0.149359    2.636612
     56          7           0        7.913963    1.320920    2.308093
     57          6           0        8.774053    2.497254    2.515509
     58          6           0       10.207841    2.131654    2.889000
     59          6           0        8.721405    3.390853    1.268968
     60          1           0        8.319668    3.044106    3.350098
     61          6           0       11.036527    3.403322    3.108513
     62          1           0       10.652030    1.542569    2.078464
     63          1           0       10.219988    1.514286    3.791649
     64          6           0        9.550824    4.660107    1.493160
     65          1           0        9.120017    2.824645    0.419898
     66          1           0        7.681672    3.642084    1.039097
     67          6           0       10.993982    4.324828    1.884954
     68          1           0       12.067232    3.124842    3.343971
     69          1           0       10.645723    3.940365    3.980904
     70          1           0        9.532083    5.274038    0.588913
     71          1           0        9.088816    5.253904    2.290815
     72          1           0       11.549738    5.244200    2.090902
     73          1           0       11.492250    3.829407    1.042875
     74          1           0        6.927455    1.494835    2.072081
     75          1           0        2.956178   -1.753315    1.405876
     76          1           0       -1.510614    0.726275    0.394197
     77          1           0       -5.479132   -2.702900    0.151065
 ---------------------------------------------------------------------
 Rotational constants (GHZ):           0.1690298           0.0234778           0.0206824
 Leave Link  202 at Fri Dec 14 11:58:41 2018, MaxMem=  1342177280 cpu:               0.5 elap:               0.1
 (Enter /gpfs/apps/hpc/Apps/Restricted/Gaussian/Rev_A.03/g16/l301.exe)
 Standard basis: 6-31G(d,p) (6D, 7F)
 Ernie: Thresh=  0.10000D-02 Tol=  0.10000D-05 Strict=F.
   825 basis functions,  1463 primitive gaussians,   825 cartesian basis functions
   153 alpha electrons      152 beta electrons
       nuclear repulsion energy      4597.7174857456 Hartrees.
 IExCor=  402 DFT=T Ex+Corr=B3LYP ExCW=0 ScaHFX=  0.200000
 ScaDFX=  0.800000  0.720000  1.000000  0.810000 ScalE2=  1.000000  1.000000
 IRadAn=      5 IRanWt=     -1 IRanGd=            0 ICorTp=0 IEmpDi=141
 NAtoms=   77 NActive=   77 NUniq=   77 SFac= 1.00D+00 NAtFMM=   60 NAOKFM=T Big=T
 Integral buffers will be    131072 words long.
 Raffenetti 2 integral format.
 Two-electron integral symmetry is turned off.
 R6Disp:  Grimme-D3(BJ) Dispersion energy=       -0.1787327257 Hartrees.
 Nuclear repulsion after empirical dispersion term =     4597.5387530200 Hartrees.
 Using the following non-standard input for PCM:
 radii=bondi
 dis
 rep
 cav
 --- end of non-standard input.
 ------------------------------------------------------------------------------
 Polarizable Continuum Model (PCM)
 =================================
 Model                : C-PCM.
 Atomic radii         : Bondi.
 Polarization charges : Total charges.
 Charge compensation  : None.
 Solution method      : On-the-fly selection.
 Cavity type          : Scaled VdW (van der Waals Surface) (Alpha=1.100).
 Cavity algorithm     : GePol (No added spheres)
                        Default sphere list used, NSphG=   77.
                        Lebedev-Laikov grids with approx.  5.0 points / Ang**2.
                        Smoothing algorithm: York/Karplus (Gamma=1.0000).
                        Polarization charges: spherical gaussians, with
                                              point-specific exponents (IZeta= 3).
                        Self-potential: point-specific (ISelfS= 7).
                        Self-field    : sphere-specific E.n sum rule (ISelfD= 2).
 1st derivatives      : Analytical E(r).r(x)/FMM algorithm (CHGder, D1EAlg=3).
                        Cavity 1st derivative terms included.
 Solvent              : Dichloromethane, Eps=   8.930000 Eps(inf)=   2.028346
 ------------------------------------------------------------------------------
 GePol: Number of generator spheres                  =      77
 GePol: Total number of spheres                      =      77
 GePol: Number of exposed spheres                    =      77 (100.00%)
 GePol: Number of points                             =    5377
 GePol: Average weight of points                     =       0.12
 GePol: Minimum weight of points                     =   0.90D-10
 GePol: Maximum weight of points                     =    0.21770
 GePol: Number of points with low weight             =     392
 GePol: Fraction of low-weight points (<1% of avg)   =       7.29%
 GePol: Cavity surface area                          =    625.335 Ang**2
 GePol: Cavity volume                                =    608.536 Ang**3
 PCM non-electrostatic energy =         0.0213220065 Hartrees.
 Nuclear repulsion after PCM non-electrostatic terms =     4597.5600750265 Hartrees.
 Leave Link  301 at Fri Dec 14 11:58:41 2018, MaxMem=  1342177280 cpu:               5.3 elap:               0.4
 (Enter /gpfs/apps/hpc/Apps/Restricted/Gaussian/Rev_A.03/g16/l302.exe)
 NPDir=0 NMtPBC=     1 NCelOv=     1 NCel=       1 NClECP=     1 NCelD=      1
         NCelK=      1 NCelE2=     1 NClLst=     1 CellRange=     0.0.
 One-electron integrals computed using PRISM.
 NBasis=   825 RedAO= T EigKep=  2.82D-04  NBF=   825
 NBsUse=   825 1.00D-06 EigRej= -1.00D+00 NBFU=   825
 Precomputing XC quadrature grid using
 IXCGrd= 4 IRadAn=           5 IRanWt=          -1 IRanGd=           0 AccXCQ= 0.00D+00.
 Generated NRdTot=       0 NPtTot=           0 NUsed=           0 NTot=          32
 NSgBfM=   718   716   716   717   718 MxSgAt=    77 MxSgA2=    77.
 Leave Link  302 at Fri Dec 14 11:58:43 2018, MaxMem=  1342177280 cpu:              33.0 elap:               2.1
 (Enter /gpfs/apps/hpc/Apps/Restricted/Gaussian/Rev_A.03/g16/l303.exe)
 DipDrv:  MaxL=1.
 Leave Link  303 at Fri Dec 14 11:58:44 2018, MaxMem=  1342177280 cpu:               2.2 elap:               0.2
 (Enter /gpfs/apps/hpc/Apps/Restricted/Gaussian/Rev_A.03/g16/l401.exe)
 ExpMin= 1.61D-01 ExpMax= 5.48D+03 ExpMxC= 8.25D+02 IAcc=3 IRadAn=         5 AccDes= 0.00D+00
 Harris functional with IExCor=  402 and IRadAn=       5 diagonalized for initial guess.
 HarFok:  IExCor=  402 AccDes= 0.00D+00 IRadAn=         5 IDoV= 1 UseB2=F ITyADJ=14
 ICtDFT=  3500011 ScaDFX=  1.000000  1.000000  1.000000  1.000000
 FoFCou: FMM=F IPFlag=           0 FMFlag=      100000 FMFlg1=        2001
         NFxFlg=           0 DoJE=T BraDBF=F KetDBF=T FulRan=T
         wScrn=  0.000000 ICntrl=       500 IOpCl=  0 I1Cent=   200000004 NGrid=           0
         NMat0=    1 NMatS0=      1 NMatT0=    0 NMatD0=    1 NMtDS0=    0 NMtDT0=    0
 Symmetry not used in FoFCou.
 Harris En= -1850.19549855922    
 JPrj=0 DoOrth=F DoCkMO=F.
 Initial guess <Sx>= 0.0000 <Sy>= 0.0000 <Sz>= 0.5000 <S**2>= 0.7500 S= 0.5000
 Leave Link  401 at Fri Dec 14 11:58:50 2018, MaxMem=  1342177280 cpu:             105.6 elap:               6.7
 (Enter /gpfs/apps/hpc/Apps/Restricted/Gaussian/Rev_A.03/g16/l502.exe)
 Two-electron integral symmetry not used.
 UHF open shell SCF:
 Using DIIS extrapolation, IDIIS=  1040.
 NGot=  1342177280 LenX=  1340796146 LenY=  1340114696
 Requested convergence on RMS density matrix=1.00D-08 within 128 cycles.
 Requested convergence on MAX density matrix=1.00D-06.
 Requested convergence on             energy=1.00D-06.
 No special actions if energy rises.
 Fock matrices will be formed incrementally for  20 cycles.

 Cycle   1  Pass 1  IDiag  1:
 FoFJK:  IHMeth= 1 ICntrl=       0 DoSepK=F KAlg= 0 I1Cent=           0 FoldK=F
 IRaf= 580000000 NMat=       1 IRICut=       1 DoRegI=T DoRafI=F ISym2E= 0 IDoP0=0 IntGTp=1.
 FoFCou: FMM=T IPFlag=           0 FMFlag=      100000 FMFlg1=        2001
         NFxFlg=           0 DoJE=F BraDBF=F KetDBF=F FulRan=T
         wScrn=  0.000000 ICntrl=         0 IOpCl=  1 I1Cent=           0 NGrid=           0
         NMat0=    1 NMatS0=      1 NMatT0=    0 NMatD0=    1 NMtDS0=    0 NMtDT0=    0
 Symmetry not used in FoFCou.
 FMM levels:  10  Number of levels for PrismC:   9
 Inv3:  Mode=1 IEnd=    86736387.
 Iteration    1 A*A^-1 deviation from unit magnitude is 1.47D-14 for   1650.
 Iteration    1 A*A^-1 deviation from orthogonality  is 4.81D-15 for   5363   2039.
 Iteration    1 A^-1*A deviation from unit magnitude is 1.47D-14 for   1650.
 Iteration    1 A^-1*A deviation from orthogonality  is 4.45D-15 for   2432   1429.
 E= -1849.54505539361    
 DIIS: error= 2.44D-02 at cycle   1 NSaved=   1.
 NSaved= 1 IEnMin= 1 EnMin= -1849.54505539361     IErMin= 1 ErrMin= 2.44D-02
 ErrMax= 2.44D-02  0.00D+00 EMaxC= 1.00D-01 BMatC= 3.31D+00 BMatP= 3.31D+00
 IDIUse=3 WtCom= 7.56D-01 WtEn= 2.44D-01
 Coeff-Com:  0.100D+01
 Coeff-En:   0.100D+01
 Coeff:      0.100D+01
 Gap=     0.094 Goal=   None    Shift=    0.000
 Gap=     0.064 Goal=   None    Shift=    0.000
 GapD=    0.064 DampG=0.500 DampE=0.500 DampFc=0.2500 IDamp=-1.
 Damping current iteration by 2.50D-01
 RMSDP=2.75D-03 MaxDP=1.89D-01              OVMax= 2.41D-01

 Cycle   2  Pass 1  IDiag  1:
 RMSU=  6.63D-04    CP:  9.84D-01
 E= -1849.84548276541     Delta-E=       -0.300427371806 Rises=F Damp=T
 DIIS: error= 1.37D-02 at cycle   2 NSaved=   2.
 NSaved= 2 IEnMin= 2 EnMin= -1849.84548276541     IErMin= 2 ErrMin= 1.37D-02
 ErrMax= 1.37D-02  0.00D+00 EMaxC= 1.00D-01 BMatC= 9.33D-01 BMatP= 3.31D+00
 IDIUse=3 WtCom= 8.63D-01 WtEn= 1.37D-01
 Coeff-Com: -0.855D+00 0.186D+01
 Coeff-En:   0.000D+00 0.100D+01
 Coeff:     -0.738D+00 0.174D+01
 Gap=     0.127 Goal=   None    Shift=    0.000
 Gap=     0.086 Goal=   None    Shift=    0.000
 RMSDP=1.16D-03 MaxDP=8.19D-02 DE=-3.00D-01 OVMax= 1.65D-01

 Cycle   3  Pass 1  IDiag  1:
 RMSU=  8.07D-04    CP:  9.48D-01  2.10D+00
 E= -1850.34630495034     Delta-E=       -0.500822184930 Rises=F Damp=F
 DIIS: error= 1.27D-02 at cycle   3 NSaved=   3.
 NSaved= 3 IEnMin= 3 EnMin= -1850.34630495034     IErMin= 3 ErrMin= 1.27D-02
 ErrMax= 1.27D-02  0.00D+00 EMaxC= 1.00D-01 BMatC= 1.94D-01 BMatP= 9.33D-01
 IDIUse=3 WtCom= 8.73D-01 WtEn= 1.27D-01
 Coeff-Com: -0.426D+00 0.858D+00 0.568D+00
 Coeff-En:   0.000D+00 0.000D+00 0.100D+01
 Coeff:     -0.372D+00 0.749D+00 0.623D+00
 Gap=     0.110 Goal=   None    Shift=    0.000
 Gap=     0.068 Goal=   None    Shift=    0.000
 RMSDP=4.48D-04 MaxDP=7.29D-02 DE=-5.01D-01 OVMax= 8.34D-02

 Cycle   4  Pass 1  IDiag  1:
 RMSU=  3.37D-04    CP:  9.53D-01  2.19D+00  6.46D-01
 E= -1850.37633065464     Delta-E=       -0.030025704297 Rises=F Damp=F
 DIIS: error= 9.43D-03 at cycle   4 NSaved=   4.
 NSaved= 4 IEnMin= 4 EnMin= -1850.37633065464     IErMin= 4 ErrMin= 9.43D-03
 ErrMax= 9.43D-03  0.00D+00 EMaxC= 1.00D-01 BMatC= 7.85D-02 BMatP= 1.94D-01
 IDIUse=3 WtCom= 9.06D-01 WtEn= 9.43D-02
 Coeff-Com: -0.858D-01 0.178D+00 0.390D+00 0.517D+00
 Coeff-En:   0.000D+00 0.000D+00 0.284D+00 0.716D+00
 Coeff:     -0.777D-01 0.162D+00 0.380D+00 0.536D+00
 Gap=     0.113 Goal=   None    Shift=    0.000
 Gap=     0.067 Goal=   None    Shift=    0.000
 RMSDP=2.14D-04 MaxDP=3.60D-02 DE=-3.00D-02 OVMax= 3.39D-02

 Cycle   5  Pass 1  IDiag  1:
 RMSU=  1.14D-04    CP:  9.52D-01  2.12D+00  7.68D-01  5.70D-01
 E= -1850.39163162488     Delta-E=       -0.015300970237 Rises=F Damp=F
 DIIS: error= 2.74D-03 at cycle   5 NSaved=   5.
 NSaved= 5 IEnMin= 5 EnMin= -1850.39163162488     IErMin= 5 ErrMin= 2.74D-03
 ErrMax= 2.74D-03  0.00D+00 EMaxC= 1.00D-01 BMatC= 6.49D-03 BMatP= 7.85D-02
 IDIUse=3 WtCom= 9.73D-01 WtEn= 2.74D-02
 Coeff-Com: -0.562D-02 0.145D-01 0.170D+00 0.317D+00 0.504D+00
 Coeff-En:   0.000D+00 0.000D+00 0.000D+00 0.000D+00 0.100D+01
 Coeff:     -0.547D-02 0.141D-01 0.165D+00 0.308D+00 0.518D+00
 Gap=     0.111 Goal=   None    Shift=    0.000
 Gap=     0.070 Goal=   None    Shift=    0.000
 RMSDP=6.54D-05 MaxDP=1.35D-02 DE=-1.53D-02 OVMax= 1.64D-02

 Cycle   6  Pass 1  IDiag  1:
 RMSU=  3.96D-05    CP:  9.51D-01  2.13D+00  7.74D-01  6.34D-01  5.88D-01
 E= -1850.39304995846     Delta-E=       -0.001418333579 Rises=F Damp=F
 DIIS: error= 7.78D-04 at cycle   6 NSaved=   6.
 NSaved= 6 IEnMin= 6 EnMin= -1850.39304995846     IErMin= 6 ErrMin= 7.78D-04
 ErrMax= 7.78D-04  0.00D+00 EMaxC= 1.00D-01 BMatC= 6.24D-04 BMatP= 6.49D-03
 IDIUse=3 WtCom= 9.92D-01 WtEn= 7.78D-03
 Coeff-Com:  0.412D-02-0.698D-02 0.537D-01 0.111D+00 0.290D+00 0.548D+00
 Coeff-En:   0.000D+00 0.000D+00 0.000D+00 0.000D+00 0.000D+00 0.100D+01
 Coeff:      0.408D-02-0.693D-02 0.532D-01 0.110D+00 0.288D+00 0.552D+00
 Gap=     0.112 Goal=   None    Shift=    0.000
 Gap=     0.070 Goal=   None    Shift=    0.000
 RMSDP=2.01D-05 MaxDP=3.39D-03 DE=-1.42D-03 OVMax= 5.54D-03

 Cycle   7  Pass 1  IDiag  1:
 RMSU=  1.59D-05    CP:  9.51D-01  2.13D+00  7.76D-01  6.32D-01  6.89D-01
                    CP:  9.10D-01
 E= -1850.39322506703     Delta-E=       -0.000175108567 Rises=F Damp=F
 DIIS: error= 3.16D-04 at cycle   7 NSaved=   7.
 NSaved= 7 IEnMin= 7 EnMin= -1850.39322506703     IErMin= 7 ErrMin= 3.16D-04
 ErrMax= 3.16D-04  0.00D+00 EMaxC= 1.00D-01 BMatC= 7.48D-05 BMatP= 6.24D-04
 IDIUse=3 WtCom= 9.97D-01 WtEn= 3.16D-03
 Coeff-Com:  0.285D-02-0.570D-02-0.114D-01-0.226D-01 0.250D-01 0.226D+00
 Coeff-Com:  0.786D+00
 Coeff-En:   0.000D+00 0.000D+00 0.000D+00 0.000D+00 0.000D+00 0.000D+00
 Coeff-En:   0.100D+01
 Coeff:      0.284D-02-0.569D-02-0.113D-01-0.225D-01 0.250D-01 0.225D+00
 Coeff:      0.787D+00
 Gap=     0.112 Goal=   None    Shift=    0.000
 Gap=     0.071 Goal=   None    Shift=    0.000
 RMSDP=1.21D-05 MaxDP=2.50D-03 DE=-1.75D-04 OVMax= 5.80D-03

 Cycle   8  Pass 1  IDiag  1:
 RMSU=  8.24D-06    CP:  9.51D-01  2.13D+00  7.78D-01  6.38D-01  7.25D-01
                    CP:  1.10D+00  1.10D+00
 E= -1850.39328003416     Delta-E=       -0.000054967132 Rises=F Damp=F
 DIIS: error= 1.66D-04 at cycle   8 NSaved=   8.
 NSaved= 8 IEnMin= 8 EnMin= -1850.39328003416     IErMin= 8 ErrMin= 1.66D-04
 ErrMax= 1.66D-04  0.00D+00 EMaxC= 1.00D-01 BMatC= 2.63D-05 BMatP= 7.48D-05
 IDIUse=3 WtCom= 9.98D-01 WtEn= 1.66D-03
 Coeff-Com:  0.733D-04-0.143D-03-0.211D-01-0.482D-01-0.823D-01-0.128D+00
 Coeff-Com:  0.318D+00 0.962D+00
 Coeff-En:   0.000D+00 0.000D+00 0.000D+00 0.000D+00 0.000D+00 0.000D+00
 Coeff-En:   0.000D+00 0.100D+01
 Coeff:      0.732D-04-0.143D-03-0.211D-01-0.482D-01-0.822D-01-0.128D+00
 Coeff:      0.317D+00 0.962D+00
 Gap=     0.112 Goal=   None    Shift=    0.000
 Gap=     0.071 Goal=   None    Shift=    0.000
 RMSDP=1.06D-05 MaxDP=1.63D-03 DE=-5.50D-05 OVMax= 4.95D-03

 Cycle   9  Pass 1  IDiag  1:
 RMSU=  4.30D-06    CP:  9.51D-01  2.13D+00  7.79D-01  6.38D-01  7.60D-01
                    CP:  1.23D+00  1.49D+00  1.31D+00
 E= -1850.39330296518     Delta-E=       -0.000022931024 Rises=F Damp=F
 DIIS: error= 5.27D-05 at cycle   9 NSaved=   9.
 NSaved= 9 IEnMin= 9 EnMin= -1850.39330296518     IErMin= 9 ErrMin= 5.27D-05
 ErrMax= 5.27D-05  0.00D+00 EMaxC= 1.00D-01 BMatC= 1.06D-05 BMatP= 2.63D-05
 IDIUse=1 WtCom= 1.00D+00 WtEn= 0.00D+00
 Coeff-Com: -0.439D-03 0.998D-03-0.105D-01-0.261D-01-0.576D-01-0.144D+00
 Coeff-Com:  0.205D-01 0.613D+00 0.604D+00
 Coeff:     -0.439D-03 0.998D-03-0.105D-01-0.261D-01-0.576D-01-0.144D+00
 Coeff:      0.205D-01 0.613D+00 0.604D+00
 Gap=     0.112 Goal=   None    Shift=    0.000
 Gap=     0.071 Goal=   None    Shift=    0.000
 RMSDP=4.38D-06 MaxDP=7.60D-04 DE=-2.29D-05 OVMax= 1.92D-03

 Cycle  10  Pass 1  IDiag  1:
 RMSU=  2.17D-06    CP:  9.51D-01  2.13D+00  7.80D-01  6.38D-01  7.73D-01
                    CP:  1.28D+00  1.62D+00  1.55D+00  8.20D-01
 E= -1850.39330817486     Delta-E=       -0.000005209681 Rises=F Damp=F
 DIIS: error= 1.81D-05 at cycle  10 NSaved=  10.
 NSaved=10 IEnMin=10 EnMin= -1850.39330817486     IErMin=10 ErrMin= 1.81D-05
 ErrMax= 1.81D-05  0.00D+00 EMaxC= 1.00D-01 BMatC= 1.24D-06 BMatP= 1.06D-05
 IDIUse=1 WtCom= 1.00D+00 WtEn= 0.00D+00
 Coeff-Com: -0.359D-04 0.185D-03 0.788D-03 0.873D-03-0.241D-02-0.296D-01
 Coeff-Com: -0.602D-01 0.138D-01 0.252D+00 0.824D+00
 Coeff:     -0.359D-04 0.185D-03 0.788D-03 0.873D-03-0.241D-02-0.296D-01
 Coeff:     -0.602D-01 0.138D-01 0.252D+00 0.824D+00
 Gap=     0.112 Goal=   None    Shift=    0.000
 Gap=     0.071 Goal=   None    Shift=    0.000
 RMSDP=1.85D-06 MaxDP=3.93D-04 DE=-5.21D-06 OVMax= 7.45D-04

 Cycle  11  Pass 1  IDiag  1:
 RMSU=  9.57D-07    CP:  9.51D-01  2.13D+00  7.80D-01  6.38D-01  7.76D-01
                    CP:  1.29D+00  1.66D+00  1.64D+00  1.03D+00  1.09D+00
 E= -1850.39330894794     Delta-E=       -0.000000773079 Rises=F Damp=F
 DIIS: error= 1.36D-05 at cycle  11 NSaved=  11.
 NSaved=11 IEnMin=11 EnMin= -1850.39330894794     IErMin=11 ErrMin= 1.36D-05
 ErrMax= 1.36D-05  0.00D+00 EMaxC= 1.00D-01 BMatC= 3.57D-07 BMatP= 1.24D-06
 IDIUse=1 WtCom= 1.00D+00 WtEn= 0.00D+00
 Coeff-Com:  0.260D-04-0.204D-04 0.246D-02 0.547D-02 0.981D-02 0.113D-01
 Coeff-Com: -0.347D-01-0.108D+00 0.243D-01 0.445D+00 0.644D+00
 Coeff:      0.260D-04-0.204D-04 0.246D-02 0.547D-02 0.981D-02 0.113D-01
 Coeff:     -0.347D-01-0.108D+00 0.243D-01 0.445D+00 0.644D+00
 Gap=     0.112 Goal=   None    Shift=    0.000
 Gap=     0.071 Goal=   None    Shift=    0.000
 RMSDP=7.13D-07 MaxDP=1.55D-04 DE=-7.73D-07 OVMax= 2.85D-04

 Cycle  12  Pass 1  IDiag  1:
 RMSU=  4.04D-07    CP:  9.51D-01  2.13D+00  7.80D-01  6.38D-01  7.77D-01
                    CP:  1.29D+00  1.67D+00  1.67D+00  1.09D+00  1.28D+00
                    CP:  9.38D-01
 E= -1850.39330912216     Delta-E=       -0.000000174215 Rises=F Damp=F
 DIIS: error= 5.01D-06 at cycle  12 NSaved=  12.
 NSaved=12 IEnMin=12 EnMin= -1850.39330912216     IErMin=12 ErrMin= 5.01D-06
 ErrMax= 5.01D-06  0.00D+00 EMaxC= 1.00D-01 BMatC= 4.65D-08 BMatP= 3.57D-07
 IDIUse=1 WtCom= 1.00D+00 WtEn= 0.00D+00
 Coeff-Com:  0.105D-04-0.532D-04 0.619D-03 0.173D-02 0.407D-02 0.125D-01
 Coeff-Com:  0.338D-02-0.402D-01-0.572D-01-0.663D-01 0.212D+00 0.930D+00
 Coeff:      0.105D-04-0.532D-04 0.619D-03 0.173D-02 0.407D-02 0.125D-01
 Coeff:      0.338D-02-0.402D-01-0.572D-01-0.663D-01 0.212D+00 0.930D+00
 Gap=     0.112 Goal=   None    Shift=    0.000
 Gap=     0.071 Goal=   None    Shift=    0.000
 RMSDP=4.01D-07 MaxDP=9.10D-05 DE=-1.74D-07 OVMax= 2.23D-04

 Cycle  13  Pass 1  IDiag  1:
 RMSU=  1.98D-07    CP:  9.51D-01  2.13D+00  7.80D-01  6.38D-01  7.77D-01
                    CP:  1.29D+00  1.67D+00  1.68D+00  1.12D+00  1.37D+00
                    CP:  1.17D+00  1.08D+00
 E= -1850.39330916194     Delta-E=       -0.000000039781 Rises=F Damp=F
 DIIS: error= 2.55D-06 at cycle  13 NSaved=  13.
 NSaved=13 IEnMin=13 EnMin= -1850.39330916194     IErMin=13 ErrMin= 2.55D-06
 ErrMax= 2.55D-06  0.00D+00 EMaxC= 1.00D-01 BMatC= 1.75D-08 BMatP= 4.65D-08
 IDIUse=1 WtCom= 1.00D+00 WtEn= 0.00D+00
 Coeff-Com: -0.489D-05-0.179D-04-0.437D-04 0.116D-03 0.651D-03 0.547D-02
 Coeff-Com:  0.670D-02-0.514D-02-0.360D-01-0.110D+00 0.103D-01 0.505D+00
 Coeff-Com:  0.623D+00
 Coeff:     -0.489D-05-0.179D-04-0.437D-04 0.116D-03 0.651D-03 0.547D-02
[...]
 3,-0.00000339,0.00000057,-0.00001038,0.00000199,-0.00000116,-0.0000034
 1,-0.00000341,-0.00000085,-0.00000020,-0.00000264,0.00000016,0.0000037
 7,0.00000452,0.00000411,0.00000077,-0.00000025,0.00000064,-0.00000022,
 0.00000289,0.00000640,-0.00000078,0.00000023,-0.00000052,0.00000044,0.
 00000157,0.00000194,-0.00000066,0.00000084,-0.00000083,-0.00000146,-0.
 00026010,-0.00010695,0.00025791,0.04799772,0.01919785,0.03048392,-0.00
 032569,-0.00407204,-0.00004752,-0.01033894,0.00147570,-0.00078447,0.00
 165946,0.00104802,0.00052036,-0.00097429,0.00048266,-0.00023494,0.0006
 6423,-0.00040364,0.00022443,0.00059263,0.00044119,-0.00016886,-0.00168
 280,0.00843064,-0.00036061,-0.00034403,-0.00016815,0.00026821,0.000112
 40,0.00009397,-0.00000644,0.00005061,0.00003057,-0.00000343,0.00409621
 ,-0.00403638,0.00115637,0.00125712,0.00140112,-0.00004687,0.00046273,-
 0.00045026,0.00013335,-0.00060269,-0.00006021,-0.00011822,-0.00079458,
 0.00040887,-0.00014333,0.00008851,-0.00044176,0.00034297,-0.00541003,0
 .00161600,-0.00099727,-0.00005655,0.00015730,-0.00002643,-0.00007257,-
 0.00003801,-0.00001220,-0.00003376,0.00013359,-0.00001488,-0.38813692,
 0.08731513,-0.07760119,0.,-0.00057417,0.00009077,0.00003616,0.00045171
 ,-0.00002409,0.00030737,-0.00080412,0.00018589,-0.00048586,0.00039468,
 -0.00019019,0.00018597,0.00016838,0.00001786,-0.00013039,-0.00008791,-
 0.00000988,-0.00004709,0.00037164,-0.00024970,0.00005139,-0.00001740,0
 .00001066,0.00003735,-0.00003239,0.00008079,-0.00000662,-0.00000561,-0
 .00001288,-0.00000411,-0.00004923,0.00000084,0.00000031,-0.00004751,-0
 .00001348,0.00001347,0.00002832,0.00000019,0.00003517,0.00001084,0.000
 00844,0.00003343,0.00000845,0.00000029,0.00003950,-0.00000446,0.000006
 74,0.00024804,0.00032492,-0.00000230,0.00319352,0.00079754,0.00161549,
 0.00199554,0.00352978,-0.00022613,0.00735978,-0.00183081,0.00048424,-0
 .00067930,0.00036557,-0.00022322,0.00030762,-0.00010338,0.00008731,0.0
 0053637,-0.00010032,0.00013681,0.00005309,0.00018355,0.00000178,-0.000
 02378,-0.00028708,0.00001160,0.00028506,0.00006615,0.00005493,-0.00016
 038,0.00021198,-0.00004662,-0.00001435,-0.00020070,0.00001193,0.000044
 62,0.00019922,-0.00000051,0.00000993,-0.00000338,0.00000192,0.00001125
 ,-0.00000923,0.00000289,-0.00000810,-0.00000596,-0.00000237,-0.0000888
 1,-0.00023412,-0.00001079,0.00000329,-0.00000024,0.00000223,-0.0000019
 0,0.00015609,-0.00001208,-0.00004268,-0.00003592,-0.00001157,0.0000001
 6,0.00001784,0.00000028,0.00001049,0.00000744,0.00001950,0.00001223,0.
 00001222,0.00000258,0.00000153,-0.00000954,-0.00000189,-0.00000009,-0.
 00000129,0.00000135,0.00000005,-0.00000189,-0.00000248,-0.00000479,-0.
 00000431,-0.00001065,-0.00000031,-0.00000095,-0.00000208,0.00000275,-0
 .00000355,0.00000094,-0.00000255,0.00000355,0.00000297,0.00000567,0.00
 000261,0.00000143,-0.00000093,0.00000185,0.00000047,0.00000258,0.00000
 567,-0.00000030,0.00000018,0.00000095,0.00000103,0.00000387,0.00000302
 ,0.00000009,0.00000032,-0.00000153,-0.00000088,-0.00005580,-0.00003451
 ,-0.00001249,-0.00055646,0.00024090,-0.00015898,0.38774757,-0.00462550
 ,-0.00484016,0.00006273,-0.01683718,0.01386456,-0.00545985,0.00047578,
 0.00045904,0.00002282,0.00014055,0.00002203,0.00002678,-0.00009732,-0.
 00000595,-0.00005270,-0.00037048,0.00137818,-0.00007512,0.02892255,0.0
 0485650,0.00386683,0.00048622,-0.00025513,0.00012758,-0.00002897,-0.00
 003617,0.00000872,0.00000086,-0.00002126,0.00000898,-0.00043087,-0.005
 11340,0.00068523,0.00076080,0.00009183,0.00014996,0.00006594,0.0000001
 2,0.00001350,-0.00005672,0.00016498,-0.00001290,-0.00019579,-0.0000821
 6,-0.00004940,-0.00037591,0.00022121,-0.00025760,-0.00230004,0.0011325
 4,-0.00061852,-0.00000164,0.00007498,-0.00001142,-0.00000851,0.0000488
 5,-0.00000526,-0.00004943,0.00014333,-0.00003208,0.08130536,-0.0951118
 5,0.02508499,0.00007863,-0.00039349,0.00007510,-0.00014765,0.00049883,
 -0.00011171,0.00053000,-0.00072569,0.00018874,-0.00053509,0.00032950,-
 0.00018272,0.00015807,0.00017920,0.00001033,-0.00013515,-0.00008307,-0
 .00000911,-0.00001589,0.00013429,-0.00031008,0.00003088,-0.00001654,0.
 00000826,0.00004381,-0.00003130,0.00008981,-0.00000135,-0.00002379,-0.
 00001472,0.00000092,-0.00004705,-0.00000531,-0.00001352,-0.00004009,-0
 .00001428,0.00000836,0.00002165,-0.00000065,0.00002490,0.00000756,0.00
 000461,0.00002386,0.00000660,0.00000123,0.00002892,-0.00000278,0.00000
 504,0.00016920,0.00020662,-0.00000145,0.00403988,-0.00264824,0.0013895
 7,0.00165781,0.00210696,0.00000910,0.00498869,-0.00587482,0.00222651,-
 0.00025609,-0.00053823,0.00003648,0.00047363,-0.00006479,0.00006852,-0
 .00004989,0.00014501,-0.00003112,0.00000768,0.00001393,0.00000239,0.00
 000255,0.00003188,-0.00000117,-0.00003696,-0.00001301,-0.00000688,0.00
 002722,-0.00003144,0.00000746,-0.00005489,0.00019325,-0.00002979,0.000
 00370,-0.00000059,-0.00000616,-0.00000030,0.00000177,0.00000023,0.0000
 0133,-0.00000020,0.00000021,0.00000062,-0.00000032,0.00000048,0.000011
 40,0.00000959,0.00000256,0.00000034,0.00000118,-0.00000026,0.00000020,
 -0.00000974,0.00000039,0.00000112,0.00000223,0.00000070,-0.00000028,-0
 .00000067,0.00000003,-0.00000133,0.00000009,-0.00000109,-0.00000075,-0
 .00000073,-0.00000050,-0.00000028,0.00000044,0.00000007,0.00000010,-0.
 00000006,-0.00000022,0.00000001,-0.00000009,0.00000027,-0.00000003,0.0
 0000024,0.00000082,0.00000007,-0.00000011,-0.00000007,0.00000060,0.000
 00022,0.00000016,-0.00000040,0.,-0.00000011,0.00000021,-0.00000025,0.0
 0000011,-0.00000005,-0.00000013,-0.00000024,-0.00000029,-0.00000041,0.
 00000024,0.00000004,-0.00000023,-0.00000048,0.00000003,0.00000005,0.00
 000011,0.00000020,-0.00000015,-0.00000014,0.00000399,0.00000338,0.0000
 0165,-0.00066193,0.00023213,-0.00008560,-0.09682132,0.08917419,0.00001
 684,0.00016445,0.00258301,0.00148335,-0.00224904,-0.00603668,0.0007414
 1,0.00024442,-0.00085381,-0.00018286,0.00008201,-0.00002221,0.00017747
 ,-0.00010243,-0.00023510,-0.00007622,0.00005357,0.00122030,-0.00266204
 ,0.00024922,-0.00623495,0.00025308,0.00005619,-0.00040496,0.00000698,0
 .00003098,0.00008406,-0.00000001,0.00001415,0.00004528,0.00066106,0.00
 014630,0.00057665,0.00007023,0.00028880,0.00023049,0.00007725,-0.00007
 993,0.00002868,-0.00012664,-0.00001460,0.00012723,-0.00006637,0.000054
 51,-0.00027140,0.00030297,-0.00032997,-0.00138687,-0.00050398,0.000087
 88,-0.00086646,-0.00000758,0.00001618,-0.00001870,-0.00001621,-0.00000
 901,0.00002714,0.00000830,-0.00000111,-0.00004319,-0.07723525,0.025992
 52,-0.02575576,-0.00000979,-0.00004805,0.00000231,0.00004770,-0.000001
 53,-0.00010825,-0.00000091,-0.00005925,-0.00007232,-0.00001959,0.00002
 636,0.00000815,0.00001290,0.00000583,-0.00000146,-0.00000481,-0.000004
 91,0.00000395,-0.00031012,-0.00021000,-0.00029496,0.00000426,-0.000000
 02,0.00000542,0.00000778,-0.00000149,-0.00000615,-0.00000445,0.0000012
 0,0.00000856,-0.00000684,0.00000217,-0.00000280,0.00000417,-0.00000442
 ,-0.00000034,0.00000098,0.00000209,0.00000100,0.00000218,-0.00000027,0
 .00000050,0.00000338,0.00000174,-0.00000043,0.00000304,-0.00000043,0.0
 0000112,0.00002177,0.00002713,-0.00000845,0.00120502,0.00066052,-0.001
 92650,0.00010044,0.00036914,0.00024037,-0.00035643,0.00107729,0.005649
 92,-0.00013030,0.00017561,0.00021822,-0.00000457,-0.00001339,-0.000126
 87,0.00011472,-0.00004755,-0.00004898,0.00000544,0.00002728,0.00001057
 ,-0.00000488,-0.00005046,0.00000416,0.00005234,0.00001201,0.00000647,-
 0.00002892,0.00003961,-0.00001236,0.00000472,-0.00006759,0.00000775,0.
 00001199,0.00003318,-0.00003775,0.00000114,-0.00000062,0.00000263,0.00
 000171,-0.00000151,0.00000013,-0.00000234,-0.00000059,0.00000444,-0.00
 001665,-0.00003837,0.00000252,0.00000080,-0.00000027,-0.00000135,0.000
 00108,0.00002638,-0.00000511,-0.00000805,-0.00000601,0.00000016,-0.000
 00005,0.00000328,0.00000003,0.00000177,0.00000119,0.00000419,0.0000021
 9,0.00000156,-0.00000017,0.00000018,-0.00000147,0.00000044,0.00000032,
 -0.00000052,-0.00000005,-0.00000017,-0.00000006,-0.00000050,-0.0000010
 5,-0.00000010,-0.00000145,0.00000070,-0.00000067,-0.00000095,-0.000000
 12,-0.00000031,0.00000065,-0.00000059,0.00000038,0.00000086,0.00000080
 ,0.00000054,0.00000012,-0.00000003,0.,-0.00000042,0.00000057,0.0000012
 9,-0.00000020,0.00000014,-0.00000040,-0.00000028,0.00000059,0.00000064
 ,-0.00000004,0.00000037,-0.00000043,-0.00000053,-0.00001157,-0.0000057
 2,0.00000240,-0.00002925,0.00002492,0.00025170,0.07648851,-0.02672168,
 0.03322847,0.00007243,-0.00010490,0.00003330,-0.00003577,0.00005127,-0
 .00001305,-0.00004375,-0.00013261,0.00000830,0.00015216,0.00002408,0.0
 0002518,-0.00002705,0.00014335,-0.00002110,-0.00001192,-0.00008325,0.0
 0000712,-0.00040688,-0.00030762,-0.00008024,-0.00000706,0.00000625,-0.
 00000237,0.00000798,0.00000913,0.00000030,0.00000594,0.00000751,-0.000
 00034,-0.00185311,0.00539827,-0.00161129,-0.01273286,-0.00438065,-0.00
 052774,0.00231835,-0.00117915,0.00069053,-0.00164334,-0.00098745,-0.00
 014587,0.00067912,0.00138941,-0.00001702,0.00112070,-0.00085253,0.0001
 0375,0.00327664,-0.00810363,0.00261668,-0.00034293,0.00005744,-0.00011
 631,0.00011383,-0.00005530,0.00000743,0.00004437,-0.00000997,0.0000003
 6,0.00029813,0.00016913,0.00005606,0.00487199,0.01008645,-0.00061471,0
 .00053516,-0.00104030,0.00059560,-0.00102651,0.00057113,-0.00022970,0.
 00119609,0.00024592,0.00007291,-0.00018574,-0.00116167,0.00014102,-0.0
 0043864,-0.00176591,0.00000164,-0.00011561,-0.00027147,0.00002037,-0.0
 0003395,-0.00029507,0.00005649,-0.00006532,-0.00016171,0.00020757,-0.0
 0000571,-0.00007491,-0.00003621,-0.00004101,-0.00008229,-0.00004115,-0
 .00004695,-0.00002884,-0.00003834,-0.00017202,-0.00015078,-0.00002072,
 -0.00001601,-0.00000019,-0.00006360,-0.00007301,0.00001945,0.00006196,
 0.00009406,-0.00004389,0.00003159,-0.00535721,-0.01249155,0.00107536,0
 .00877334,0.00404644,-0.00010474,-0.34860875,-0.15216718,-0.03939562,0
 .00037171,0.00013564,0.00005470,-0.00011822,0.00004144,-0.00002879,0.0
 0003440,-0.00000815,0.00000840,0.00008264,-0.00000761,0.00001746,0.000
 01277,0.00003663,0.00000125,-0.00000408,-0.00005133,0.00000211,0.00004
 904,0.00001387,0.00000928,-0.00002860,0.00003116,-0.00000790,-0.000006
 98,-0.00002917,0.00000059,0.00000497,0.00002975,-0.00000121,0.00000199
 ,-0.00000038,0.00000037,0.00000124,-0.00000139,0.00000026,-0.00000262,
 0.00000083,-0.00000063,-0.00001929,-0.00004827,-0.00000237,0.00000035,
 -0.00000056,0.00000023,0.00000004,0.00003253,-0.00000239,-0.00000997,-
 0.00000807,-0.00000225,0.00000025,0.00000450,-0.00000016,0.00000308,0.
 00000169,0.00000413,0.00000254,0.00000234,0.00000049,-0.00000025,-0.00
 000252,-0.00000074,-0.00000013,-0.00000035,0.00000055,0.,-0.00000048,-
 0.00000073,-0.00000134,-0.00000130,-0.00000237,-0.00000035,-0.00000009
 ,-0.00000020,0.00000062,-0.00000094,0.00000021,-0.00000095,0.00000035,
 0.00000061,0.00000128,0.00000060,0.00000028,-0.00000004,0.00000040,0.0
 0000006,0.00000066,0.00000128,-0.00000009,0.00000013,0.00000022,0.0000
 0020,0.00000111,0.00000093,0.00000010,0.00000004,-0.00000022,-0.000000
 03,-0.00001022,-0.00000680,-0.00000201,-0.00006696,0.00001876,-0.00001
 306,-0.00047227,-0.00036525,-0.00007396,0.34990424,0.00003136,0.000012
 54,-0.00000218,0.00004556,0.00021659,-0.00001691,-0.00003713,-0.000085
 54,0.00000278,0.00010380,0.00000196,0.00001853,-0.00002345,0.00009475,
 -0.00001472,-0.00003972,-0.00003004,-0.00000301,0.00021606,-0.00051193
 ,0.00014314,-0.00000363,0.00000162,-0.00000039,0.00000119,0.00000271,-
 0.00000029,0.00000229,0.00000488,0.,0.00476564,-0.00316728,0.00163954,
 0.01255238,0.01563734,-0.00082910,-0.00019310,0.00012531,-0.00026814,-
 0.00025486,-0.00014363,-0.00002611,0.00016360,0.00001183,-0.00001615,0
 .00000047,0.00126077,-0.00001450,-0.02921930,-0.00369263,-0.00539410,-
 0.00043507,-0.00063394,0.00007381,0.00005060,-0.00004190,0.00002862,0.
 00001410,-0.00003014,0.00001388,-0.00032683,-0.00013678,-0.00006265,0.
 00130357,-0.00689233,0.00125383,0.00049551,0.00024636,-0.00017399,-0.0
 0014390,0.00022654,-0.00009162,-0.00005047,-0.00024310,0.00011992,0.00
 005120,0.00034479,-0.00004834,0.00013286,0.00047524,0.00011062,0.00005
 808,0.00018056,-0.00001770,-0.00003243,0.00012400,-0.00004247,-0.00003
 867,0.00010343,-0.00016682,0.00000694,0.00004622,0.00002563,0.00002375
 ,0.00008449,0.00001774,0.00002300,0.00006376,0.00002601,0.00000877,0.0
 0005684,-0.00000515,-0.00002996,0.00000060,0.00002438,0.00000588,-0.00
 000857,-0.00003483,-0.00007681,0.00002698,-0.00002257,-0.00520501,0.00
 266207,-0.00166941,-0.00327518,-0.00608936,0.00112524,-0.14500621,-0.1
 4244851,-0.00734824,0.00010066,0.00015272,-0.00001039,-0.00005365,0.00
 002072,-0.00001230,0.00001512,-0.00000750,0.00000299,0.00003117,-0.000
 00375,0.00000678,0.00000116,0.00001301,-0.00000034,-0.00000163,-0.0000
 2164,0.00000098,0.00002116,0.00000602,0.00000387,-0.00001204,0.0000155
 3,-0.00000361,-0.00000151,-0.00001534,0.00000096,0.00000453,0.00001100
 ,-0.00000004,0.00000077,-0.00000010,0.00000022,0.00000096,-0.00000087,
 0.00000028,-0.00000086,0.00000015,-0.00000008,-0.00000608,-0.00001445,
 -0.00000063,0.00000029,0.00000020,0.00000018,0.00000055,0.00000952,-0.
 00000079,-0.00000294,-0.00000205,-0.00000079,-0.00000017,0.00000097,0.
 00000006,0.00000022,0.00000065,0.00000128,0.00000079,0.00000076,0.0000
 0003,0.00000005,-0.00000057,-0.00000003,0.00000007,-0.00000011,-0.0000
 0004,0.,-0.00000013,-0.00000003,-0.00000041,-0.00000039,-0.00000062,0.
 00000004,-0.00000014,-0.00000025,0.00000049,-0.00000020,0.00000015,-0.
 00000024,0.00000036,0.00000026,0.00000066,0.00000013,0.00000018,-0.000
 00015,0.00000013,-0.00000004,0.00000012,0.00000035,0.00000003,0.000000
 03,0.00000001,-0.00000003,0.00000025,0.00000028,0.00000005,0.00000010,
 -0.00000020,-0.00000019,-0.00000446,-0.00000190,-0.00000086,-0.0000311
 4,0.00001113,-0.00000519,0.00038371,0.00025517,0.00007174,0.16388754,0
 .14171399,0.00001838,-0.00002501,-0.00003880,-0.00001578,-0.00002758,0
 .00000797,-0.00000077,-0.00000940,-0.00000271,0.00000987,0.00000362,-0
 .00000088,-0.00000097,0.00000984,0.00000093,0.00000397,-0.00000936,0.0
 0000306,-0.00014218,0.00006870,0.00026645,-0.00000127,0.00000126,0.000
 00310,0.00000128,0.00000113,-0.00000024,0.00000025,0.00000084,0.000002
 20,-0.00142837,0.00172050,0.00245499,-0.00263841,-0.00375544,-0.006669
 88,0.00068273,-0.00057653,-0.00108553,-0.00022784,-0.00014070,0.000004
 28,0.00013656,0.00018496,-0.00031534,-0.00000684,-0.00013988,0.0011806
 4,0.00558963,-0.00149497,-0.00370910,-0.00013446,0.00028745,-0.0006408
 2,-0.00000336,0.00001015,0.00009776,-0.00000303,0.00000892,0.00004964,
 0.00013131,0.00003961,-0.00009332,0.00071123,0.00288861,-0.00017165,0.
 00038084,-0.00056197,-0.00176301,-0.00012919,0.00005045,-0.00021647,0.
 00019083,0.00010160,0.00018697,-0.00003819,-0.00025684,0.00001661,-0.0
 0029822,-0.00021556,0.00106208,-0.00002053,-0.00008156,-0.00004236,0.0
 0002492,-0.00008996,-0.00012540,0.00000053,-0.00004276,0.00007472,-0.0
 0000608,-0.00002029,-0.00000944,-0.00001555,-0.00002718,-0.00000943,-0
 .00001363,-0.00001187,-0.00001145,-0.00002141,-0.00004551,-0.00004869,
 -0.00001156,0.00000293,-0.00000650,-0.00000749,0.00000441,0.00002955,0
 .00002998,-0.00001132,0.00000836,-0.00017397,-0.00295952,-0.00422711,0
 .00096229,0.00240470,0.00548945,-0.04070572,-0.00880145,-0.01757124,0.
 00006002,-0.00000411,-0.00004490,-0.00001268,0.00000498,0.00000208,0.0
 0000417,-0.00000085,-0.00000251,0.00000954,-0.00000114,0.00000039,0.00
 000171,0.00000390,0.,-0.00000041,-0.00000531,0.00000006,0.00000516,0.0
 0000134,0.00000034,-0.00000287,0.00000307,-0.00000124,-0.00000114,-0.0
 0000275,0.00000094,0.00000043,0.00000341,-0.00000073,0.00000015,-0.000
 00003,0.00000040,0.00000002,-0.00000009,0.00000042,-0.00000047,0.00000
 016,0.00000081,-0.00000228,-0.00000529,0.00000002,-0.00000002,-0.00000
 011,0.00000021,0.00000011,0.00000366,-0.00000096,-0.00000130,-0.000000
 91,0.00000031,0.00000002,0.00000055,0.00000024,0.00000029,0.00000020,0
 .00000069,0.00000031,0.00000013,-0.00000004,-0.00000024,-0.00000025,0.
 ,0.00000008,-0.00000015,-0.00000003,-0.00000007,0.00000015,-0.00000029
 ,-0.00000023,-0.00000016,0.,0.00000014,-0.00000013,-0.00000016,0.,-0.0
 0000006,0.00000018,-0.00000010,0.00000012,0.00000024,0.00000015,0.0000
 0010,0.00000005,0.00000009,-0.00000009,-0.00000015,0.00000011,0.000000
 40,-0.00000021,0.00000007,-0.00000014,-0.00000014,0.00000006,0.0000000
 6,0.00000002,0.00000012,-0.00000010,-0.00000015,-0.00000129,-0.0000007
 8,0.00000072,-0.00000745,0.00000216,0.00000320,-0.00018621,-0.00007892
 ,0.00019873,0.03730421,0.01159196,0.02566207\\-0.00000027,-0.00000016,
 -0.00000038,-0.00000036,0.00000045,0.00000196,-0.00000062,0.00000105,0
 .00000448,-0.00000017,0.00000027,0.00000559,0.00000046,0.00000022,0.00
 000360,0.00000036,-0.00000064,0.00000087,-0.00000077,0.00000074,-0.000
 00269,-0.00000017,0.00000112,0.00000634,-0.00000024,0.00000122,0.00000
 767,-0.00000052,-0.00000025,0.00000411,0.00000085,0.00000116,-0.000003
 84,-0.00000021,0.00000027,-0.00000607,0.00000058,0.00000006,-0.0000089
 7,-0.00000014,-0.00000056,-0.00000942,0.00000074,-0.00000027,-0.000007
 45,0.00000016,0.00000057,-0.00000451,0.,0.00000149,-0.00000175,0.00000
 031,0.00000015,-0.00001051,0.00000047,-0.00000064,-0.00001168,0.000000
 26,-0.00000052,-0.00000799,0.00000056,0.00000038,0.00000057,-0.0000000
 7,0.00000300,-0.00000007,-0.00000077,0.00000175,-0.00000023,0.00000037
 ,0.00000263,0.00000323,-0.00000022,0.00000322,0.00000486,-0.00000097,0
 .00000331,0.00000419,-0.00000006,0.00000284,0.00000106,-0.00000060,0.0
 0000222,0.00000357,-0.00000041,0.00000365,0.00000584,-0.00000101,0.000
 00357,0.00000809,-0.00000040,0.00000264,0.00000857,-0.00000081,0.00000
 581,0.00000848,-0.00000025,0.00000256,0.00000933,-0.00000014,0.0000031
 4,0.00000100,-0.00000034,0.00000487,-0.00000121,-0.00000007,0.00000145
 ,-0.00000068,-0.00000055,0.00000392,0.00000219,-0.00000017,0.00000187,
 -0.00000351,-0.00000019,0.00000130,-0.00000146,-0.00000049,0.00000117,
 -0.00000495,0.00000069,-0.00000011,-0.00000265,0.,-0.00000048,-0.00000
 162,0.00000027,-0.00000049,-0.00000423,-0.00000032,-0.00000140,-0.0000
 0088,-0.00000019,-0.00000178,-0.00000449,0.00000117,-0.00000248,-0.000
 00685,0.00000034,-0.00000256,-0.00000924,-0.00000018,-0.00000209,-0.00
 000861,0.00000079,-0.00000140,-0.00000552,0.00000065,-0.00000195,-0.00
 000338,0.00000014,-0.00000278,-0.00000780,0.00000070,-0.00000263,-0.00
 001137,0.00000084,-0.00000127,-0.00001004,0.00000082,-0.00000282,-0.00
 000205,0.00000006,-0.00000274,-0.00000286,0.00000038,-0.00000226,0.000
 00050,0.00000041,-0.00000282,0.00000278,-0.00000015,-0.00000278,0.0000
 0244,-0.00000005,-0.00000017,0.00000510,0.00000017,-0.00000431,0.00000
 423,0.00000026,-0.00000403,0.00000431,0.00000037,-0.00000184,0.0000000
 6,0.00000041,-0.00000524,0.00000055,-0.00000057,-0.00000003,0.00000752
 ,-0.00000012,0.00000154,0.00000326,-0.00000055,0.00000058,0.00000540,0
 .00000048,-0.00000157,0.00000557,0.00000008,-0.00000410,0.00000356,0.0
 0000025,-0.00000561,0.00000564,-0.00000035,0.00000146,0.00000856,-0.00
 000001,-0.00000230,0.00000842,-0.00000020,-0.00000156,0.00000813,-0.00
 000051,0.00000099,0.00000571,-0.00000012,-0.00000173,0.00000109,-0.000
 00001,-0.00000088,-0.00000509,-0.00000047,0.00000115,0.00000095,0.0000
 0036,0.00000145,-0.00000531\\\@


 THE SCIENTIFIC THEORIST IS NOT TO BE ENVIED. FOR NATURE, OR MORE
 PRECISELY EXPERIMENT, IS AN INEXORABLE AND NOT VERY FRIENDLY JUDGE OF HIS
 WORK.  IT NEVER SAYS "YES" TO A THEORY. IN THE MOST FAVORABLE CASES
 IT SAYS "MAYBE", AND IN THE GREAT MAJORITY OF CASES SIMPLY "NO"...
 PROBABLY EVERY THEORY WILL SOME DAY EXPERIENCE ITS "NO" - MOST
 THEORIES, SOON AFTER CONCEPTION.  -- A.EINSTEIN, NOV 11, 1922.
 Job cpu time:       1 days  4 hours  7 minutes 15.0 seconds.
 Elapsed time:       0 days  1 hours 45 minutes 42.5 seconds.
 File lengths (MBytes):  RWF=  10460 Int=      0 D2E=      0 Chk=    104 Scr=      8
 Normal termination of Gaussian 16 at Fri Dec 14 13:52:56 2018.
