 Entering Gaussian System, Link 0=g16
 Initial command:
 /gpfs/apps/hpc/Apps/Restricted/Gaussian/Rev_A.03/g16/l1.exe "/gpfs/scratch60/fas/hammes_schiffer/jg2487/c03n09/Gau-25730.inp" -scrdir="/gpfs/scratch60/fas/hammes_schiffer/jg2487/c03n09/"
 Entering Link 1 = /gpfs/apps/hpc/Apps/Restricted/Gaussian/Rev_A.03/g16/l1.exe PID=     25731.
  
 Copyright (c) 1988,1990,1992,1993,1995,1998,2003,2009,2016,
            Gaussian, Inc.  All Rights Reserved.
  
 This is part of the Gaussian(R) 16 program.  It is based on
 the Gaussian(R) 09 system (copyright 2009, Gaussian, Inc.),
 the Gaussian(R) 03 system (copyright 2003, Gaussian, Inc.),
 the Gaussian(R) 98 system (copyright 1998, Gaussian, Inc.),
 the Gaussian(R) 94 system (copyright 1995, Gaussian, Inc.),
 the Gaussian 92(TM) system (copyright 1992, Gaussian, Inc.),
 the Gaussian 90(TM) system (copyright 1990, Gaussian, Inc.),
 the Gaussian 88(TM) system (copyright 1988, Gaussian, Inc.),
 the Gaussian 86(TM) system (copyright 1986, Carnegie Mellon
 University), and the Gaussian 82(TM) system (copyright 1983,
 Carnegie Mellon University). Gaussian is a federally registered
 trademark of Gaussian, Inc.
  
 This software contains proprietary and confidential information,
 including trade secrets, belonging to Gaussian, Inc.
  
 This software is provided under written license and may be
 used, copied, transmitted, or stored only in accord with that
 written license.
  
 The following legend is applicable only to US Government
 contracts under FAR:
  
                    RESTRICTED RIGHTS LEGEND
  
 Use, reproduction and disclosure by the US Government is
 subject to restrictions as set forth in subparagraphs (a)
 and (c) of the Commercial Computer Software - Restricted
 Rights clause in FAR 52.227-19.
  
 Gaussian, Inc.
 340 Quinnipiac St., Bldg. 40, Wallingford CT 06492
  
  
 ---------------------------------------------------------------
 Warning -- This program may not be used in any manner that
 competes with the business of Gaussian, Inc. or will provide
 assistance to any competitor of Gaussian, Inc.  The licensee
 of this program is prohibited from giving any competitor of
 Gaussian, Inc. access to this program.  By using this program,
 the user acknowledges that Gaussian, Inc. is engaged in the
 business of creating and licensing software in the field of
 computational chemistry and represents and warrants to the
 licensee that it is not a competitor of Gaussian, Inc. and that
 it will not use this program in any manner prohibited above.
 ---------------------------------------------------------------
  

 Cite this work as:
 Gaussian 16, Revision A.03,
 M. J. Frisch, G. W. Trucks, H. B. Schlegel, G. E. Scuseria, 
 M. A. Robb, J. R. Cheeseman, G. Scalmani, V. Barone, 
 G. A. Petersson, H. Nakatsuji, X. Li, M. Caricato, A. V. Marenich, 
 J. Bloino, B. G. Janesko, R. Gomperts, B. Mennucci, H. P. Hratchian, 
 J. V. Ortiz, A. F. Izmaylov, J. L. Sonnenberg, D. Williams-Young, 
 F. Ding, F. Lipparini, F. Egidi, J. Goings, B. Peng, A. Petrone, 
 T. Henderson, D. Ranasinghe, V. G. Zakrzewski, J. Gao, N. Rega, 
 G. Zheng, W. Liang, M. Hada, M. Ehara, K. Toyota, R. Fukuda, 
 J. Hasegawa, M. Ishida, T. Nakajima, Y. Honda, O. Kitao, H. Nakai, 
 T. Vreven, K. Throssell, J. A. Montgomery, Jr., J. E. Peralta, 
 F. Ogliaro, M. J. Bearpark, J. J. Heyd, E. N. Brothers, K. N. Kudin, 
 V. N. Staroverov, T. A. Keith, R. Kobayashi, J. Normand, 
 K. Raghavachari, A. P. Rendell, J. C. Burant, S. S. Iyengar, 
 J. Tomasi, M. Cossi, J. M. Millam, M. Klene, C. Adamo, R. Cammi, 
 J. W. Ochterski, R. L. Martin, K. Morokuma, O. Farkas, 
 J. B. Foresman, and D. J. Fox, Gaussian, Inc., Wallingford CT, 2016.
 
 ******************************************
 Gaussian 16:  ES64L-G16RevA.03 25-Dec-2016
                21-Dec-2018 
 ******************************************
 %chk=cyclohexyl-triBIP-E2PT.chk
 %mem=10GB
 %nprocshared=16
 Will use up to   16 processors via shared memory.
 ----------------------------------------------------------------------
 #p opt=tight freq=internalmodes b3lyp/6-31g(d,p) scrf=(cpcm,solvent=di
 chloromethane,read) nosymm empiricaldispersion=gd3bj int=grid=ultrafin
 e
 ----------------------------------------------------------------------
 1/7=10,18=20,19=15,26=6,38=1,40=2/1,3;
 2/9=110,12=2,15=1,17=6,18=5,40=1/2;
 3/5=1,6=6,7=101,11=2,25=1,30=1,70=2103,71=1,72=9,74=-5,75=-5,124=41/1,2,3;
 4//1;
 5/5=2,38=5,53=9/2;
 6/7=2,8=2,9=2,10=2,28=1/1;
 7/30=1/1,2,3,16;
 1/7=10,18=20,19=15,26=6/3(2);
 2/9=110,15=1/2;
 99//99;
 2/9=110,15=1/2;
 3/5=1,6=6,7=101,11=2,25=1,30=1,70=2105,71=1,72=9,74=-5,75=-5,124=41/1,2,3;
 4/5=5,16=3,69=1/1;
 5/5=2,38=5,53=9/2;
 7/30=1/1,2,3,16;
 1/7=10,18=20,19=15,26=6/3(-5);
 2/9=110,15=1/2;
 6/7=2,8=2,9=2,10=2,19=2,28=1/1;
 99/9=1/99;
 Leave Link    1 at Fri Dec 21 14:16:33 2018, MaxMem=  1342177280 cpu:               7.7 elap:               0.5
 (Enter /gpfs/apps/hpc/Apps/Restricted/Gaussian/Rev_A.03/g16/l101.exe)
 ----------------------------------------------------------------------
 cyclohexylimine triBIP oxidized, first two protons transferred optimiz
 ation
 ----------------------------------------------------------------------
 Symbolic Z-matrix:
 Charge =  1 Multiplicity = 2
 C                     1.59008   0.35331   1.1059 
 C                     0.49235   1.17795   0.8125 
 C                     0.63396   2.55745   0.67219 
 C                     1.91952   3.06894   0.83858 
 C                     3.01943   2.24662   1.13378 
 C                     2.88539   0.86105   1.2768 
 C                    -0.21383  -0.94439   0.93851 
 H                    -0.21169   3.1918    0.44171 
 H                     2.07931   4.13496   0.73507 
 H                     3.9973    2.69865   1.24544 
 C                    -2.4843   -1.84141   0.6231 
 C                    -3.38766  -2.93437   0.59131 
 C                    -2.97967  -4.24432   0.83545 
 C                    -1.6284   -4.44354   1.12001 
 C                    -0.71158  -3.38212   1.15536 
 C                    -1.11815  -2.06508   0.91263 
 C                    -4.41754  -1.02086   0.13682 
 H                    -3.67886  -5.07045   0.80803 
 H                    -1.27129  -5.44651   1.3169 
 H                     0.32727  -3.59064   1.37865 
 N                    -0.60044   0.32967   0.72208 
 C                    -6.8428   -0.60309  -0.45643 
 C                    -5.48376  -0.1029   -0.21172 
 C                    -5.20147   1.25085  -0.31641 
 C                    -6.19237   2.17516  -0.66783 
 C                    -7.50645   1.69603  -0.92632 
 C                    -7.86942   0.37339  -0.8423 
 H                    -4.19007   1.57838  -0.12227 
 H                    -8.25489   2.42367  -1.20629 
 C                    -5.91512   3.66933  -0.78161 
 C                    -9.2881   -0.10107  -1.14902 
 O                    -7.1047   -1.82952  -0.34217 
 N                    -3.13925  -0.66956   0.3419 
 N                    -4.59989  -2.36827   0.28108 
 N                     1.11327  -0.94313   1.17312 
 C                     3.97617  -0.04874   1.58188 
 N                     3.8318   -1.3711    1.65706 
 N                     5.26842   0.34484   1.81634 
 C                     7.36505  -0.95493   2.35286 
 C                     7.78799  -2.27553   2.53508 
 C                     6.89702  -3.36053   2.4344 
 C                     5.54741  -3.17683   2.14305 
 C                     5.09332  -1.86457   1.9517 
 C                     6.00374  -0.7884    2.05452 
 H                     8.83182  -2.46109   2.76368 
 H                     7.27592  -4.36406   2.58737 
 H                     4.86672  -4.01637   2.06941 
 C                     8.27116   0.18672   2.47275 
 H                     9.31342  -0.05571   2.69605 
 N                     7.84514   1.38615   2.32989 
 C                     8.75679   2.52226   2.45626 
 C                     10.23096   2.21656   2.7442 
 C                     8.62024   3.39428   1.19703 
 H                     8.36647   3.11405   3.2969 
 C                     11.03773   3.51364   2.88165 
 H                     10.64178   1.6159    1.92268 
 H                     10.32337   1.61881   3.65685 
 C                     9.42992   4.68815   1.32446 
 H                     8.97801   2.81541   0.33674 
 H                     7.56148   3.61019   1.02347 
 C                     10.90175   4.39559   1.63575 
 H                     12.0899   3.27819   3.06872 
 H                     10.67771   4.06816   3.75713 
 H                     9.34314   5.27464   0.40435 
 H                     9.00516   5.29788   2.13182 
 H                     11.45489   5.3305    1.77053 
 H                     11.35295   3.87732   0.78031 
 H                    -1.58029   0.54554   0.51664 
 H                    -5.5158   -2.78787   0.14765 
 H                     1.73735  -1.72665   1.36058 
 H                     5.68937   1.26791   1.85028 
 C                    -9.24897  -1.09888  -2.32946 
 H                    -8.67235  -1.98593  -2.07117 
 H                    -10.26835  -1.40284  -2.58372 
 H                    -8.80201  -0.63161  -3.21116 
 C                    -10.20555   1.0662   -1.54256 
 H                    -11.20331   0.67486  -1.75174 
 H                    -10.29523   1.80249  -0.73887 
 H                    -9.8512    1.58021  -2.43988 
 C                    -9.8956   -0.7829    0.09717 
 H                    -9.31117  -1.65169   0.39549 
 H                    -9.93694  -0.08273   0.93586 
 H                    -10.91674  -1.10379  -0.12678 
 C                    -6.22294   4.12413  -2.22542 
 H                    -7.2588    3.91612  -2.50229 
 H                    -6.05964   5.20148  -2.31224 
 H                    -5.56827   3.61852  -2.93933 
 C                    -6.83722   4.42665   0.19968 
 H                    -6.66702   5.50218   0.10323 
 H                    -7.89242   4.23307  -0.00419 
 H                    -6.62786   4.13541   1.23172 
 C                    -4.45774   4.0202   -0.45141 
 H                    -4.19762   3.73098   0.57012 
 H                    -3.75967   3.53294  -1.13708 
 H                    -4.31836   5.09971  -0.54235 
 
 ITRead=  0  0  0  0  0  0  0  0  0  0  0  0  0  0  0  0  0  0  0  0
 ITRead=  0  0  0  0  0  0  0  0  0  0  0  0  0  0  0  0  0  0  0  0
 ITRead=  0  0  0  0  0  0  0  0  0  0  0  0  0  0  0  0  0  0  0  0
 ITRead=  0  0  0  0  0  0  0  0  0  0  0  0  0  0  0  0  0  0  0  0
 ITRead=  0  0  0  0  0  0  0  0  0  0  0  0  0  0  0
 MicOpt= -1 -1 -1 -1 -1 -1 -1 -1 -1 -1 -1 -1 -1 -1 -1 -1 -1 -1 -1 -1
 MicOpt= -1 -1 -1 -1 -1 -1 -1 -1 -1 -1 -1 -1 -1 -1 -1 -1 -1 -1 -1 -1
 MicOpt= -1 -1 -1 -1 -1 -1 -1 -1 -1 -1 -1 -1 -1 -1 -1 -1 -1 -1 -1 -1
 MicOpt= -1 -1 -1 -1 -1 -1 -1 -1 -1 -1 -1 -1 -1 -1 -1 -1 -1 -1 -1 -1
 MicOpt= -1 -1 -1 -1 -1 -1 -1 -1 -1 -1 -1 -1 -1 -1 -1
 NAtoms=     95 NQM=       95 NQMF=       0 NMMI=      0 NMMIF=      0
                NMic=       0 NMicF=      0.
                    Isotopes and Nuclear Properties:
 (Nuclear quadrupole moments (NQMom) in fm**2, nuclear magnetic moments (NMagM)
  in nuclear magnetons)

  Atom         1           2           3           4           5           6           7           8           9          10
 IAtWgt=          12          12          12          12          12          12          12           1           1           1
 AtmWgt=  12.0000000  12.0000000  12.0000000  12.0000000  12.0000000  12.0000000  12.0000000   1.0078250   1.0078250   1.0078250
 NucSpn=           0           0           0           0           0           0           0           1           1           1
 AtZEff=  -0.0000000  -0.0000000  -0.0000000  -0.0000000  -0.0000000  -0.0000000  -0.0000000  -0.0000000  -0.0000000  -0.0000000
 NQMom=    0.0000000   0.0000000   0.0000000   0.0000000   0.0000000   0.0000000   0.0000000   0.0000000   0.0000000   0.0000000
 NMagM=    0.0000000   0.0000000   0.0000000   0.0000000   0.0000000   0.0000000   0.0000000   2.7928460   2.7928460   2.7928460
 AtZNuc=   6.0000000   6.0000000   6.0000000   6.0000000   6.0000000   6.0000000   6.0000000   1.0000000   1.0000000   1.0000000

  Atom        11          12          13          14          15          16          17          18          19          20
 IAtWgt=          12          12          12          12          12          12          12           1           1           1
 AtmWgt=  12.0000000  12.0000000  12.0000000  12.0000000  12.0000000  12.0000000  12.0000000   1.0078250   1.0078250   1.0078250
 NucSpn=           0           0           0           0           0           0           0           1           1           1
 AtZEff=  -0.0000000  -0.0000000  -0.0000000  -0.0000000  -0.0000000  -0.0000000  -0.0000000  -0.0000000  -0.0000000  -0.0000000
 NQMom=    0.0000000   0.0000000   0.0000000   0.0000000   0.0000000   0.0000000   0.0000000   0.0000000   0.0000000   0.0000000
 NMagM=    0.0000000   0.0000000   0.0000000   0.0000000   0.0000000   0.0000000   0.0000000   2.7928460   2.7928460   2.7928460
 AtZNuc=   6.0000000   6.0000000   6.0000000   6.0000000   6.0000000   6.0000000   6.0000000   1.0000000   1.0000000   1.0000000

  Atom        21          22          23          24          25          26          27          28          29          30
 IAtWgt=          14          12          12          12          12          12          12           1           1          12
 AtmWgt=  14.0030740  12.0000000  12.0000000  12.0000000  12.0000000  12.0000000  12.0000000   1.0078250   1.0078250  12.0000000
 NucSpn=           2           0           0           0           0           0           0           1           1           0
 AtZEff=  -0.0000000  -0.0000000  -0.0000000  -0.0000000  -0.0000000  -0.0000000  -0.0000000  -0.0000000  -0.0000000  -0.0000000
 NQMom=    2.0440000   0.0000000   0.0000000   0.0000000   0.0000000   0.0000000   0.0000000   0.0000000   0.0000000   0.0000000
 NMagM=    0.4037610   0.0000000   0.0000000   0.0000000   0.0000000   0.0000000   0.0000000   2.7928460   2.7928460   0.0000000
 AtZNuc=   7.0000000   6.0000000   6.0000000   6.0000000   6.0000000   6.0000000   6.0000000   1.0000000   1.0000000   6.0000000

  Atom        31          32          33          34          35          36          37          38          39          40
 IAtWgt=          12          16          14          14          14          12          14          14          12          12
 AtmWgt=  12.0000000  15.9949146  14.0030740  14.0030740  14.0030740  12.0000000  14.0030740  14.0030740  12.0000000  12.0000000
 NucSpn=           0           0           2           2           2           0           2           2           0           0
 AtZEff=  -0.0000000  -0.0000000  -0.0000000  -0.0000000  -0.0000000  -0.0000000  -0.0000000  -0.0000000  -0.0000000  -0.0000000
 NQMom=    0.0000000   0.0000000   2.0440000   2.0440000   2.0440000   0.0000000   2.0440000   2.0440000   0.0000000   0.0000000
 NMagM=    0.0000000   0.0000000   0.4037610   0.4037610   0.4037610   0.0000000   0.4037610   0.4037610   0.0000000   0.0000000
 AtZNuc=   6.0000000   8.0000000   7.0000000   7.0000000   7.0000000   6.0000000   7.0000000   7.0000000   6.0000000   6.0000000

  Atom        41          42          43          44          45          46          47          48          49          50
 IAtWgt=          12          12          12          12           1           1           1          12           1          14
 AtmWgt=  12.0000000  12.0000000  12.0000000  12.0000000   1.0078250   1.0078250   1.0078250  12.0000000   1.0078250  14.0030740
 NucSpn=           0           0           0           0           1           1           1           0           1           2
 AtZEff=  -0.0000000  -0.0000000  -0.0000000  -0.0000000  -0.0000000  -0.0000000  -0.0000000  -0.0000000  -0.0000000  -0.0000000
 NQMom=    0.0000000   0.0000000   0.0000000   0.0000000   0.0000000   0.0000000   0.0000000   0.0000000   0.0000000   2.0440000
 NMagM=    0.0000000   0.0000000   0.0000000   0.0000000   2.7928460   2.7928460   2.7928460   0.0000000   2.7928460   0.4037610
 AtZNuc=   6.0000000   6.0000000   6.0000000   6.0000000   1.0000000   1.0000000   1.0000000   6.0000000   1.0000000   7.0000000

  Atom        51          52          53          54          55          56          57          58          59          60
 IAtWgt=          12          12          12           1          12           1           1          12           1           1
 AtmWgt=  12.0000000  12.0000000  12.0000000   1.0078250  12.0000000   1.0078250   1.0078250  12.0000000   1.0078250   1.0078250
 NucSpn=           0           0           0           1           0           1           1           0           1           1
 AtZEff=  -0.0000000  -0.0000000  -0.0000000  -0.0000000  -0.0000000  -0.0000000  -0.0000000  -0.0000000  -0.0000000  -0.0000000
 NQMom=    0.0000000   0.0000000   0.0000000   0.0000000   0.0000000   0.0000000   0.0000000   0.0000000   0.0000000   0.0000000
 NMagM=    0.0000000   0.0000000   0.0000000   2.7928460   0.0000000   2.7928460   2.7928460   0.0000000   2.7928460   2.7928460
 AtZNuc=   6.0000000   6.0000000   6.0000000   1.0000000   6.0000000   1.0000000   1.0000000   6.0000000   1.0000000   1.0000000

  Atom        61          62          63          64          65          66          67          68          69          70
 IAtWgt=          12           1           1           1           1           1           1           1           1           1
 AtmWgt=  12.0000000   1.0078250   1.0078250   1.0078250   1.0078250   1.0078250   1.0078250   1.0078250   1.0078250   1.0078250
 NucSpn=           0           1           1           1           1           1           1           1           1           1
 AtZEff=  -0.0000000  -0.0000000  -0.0000000  -0.0000000  -0.0000000  -0.0000000  -0.0000000  -0.0000000  -0.0000000  -0.0000000
 NQMom=    0.0000000   0.0000000   0.0000000   0.0000000   0.0000000   0.0000000   0.0000000   0.0000000   0.0000000   0.0000000
 NMagM=    0.0000000   2.7928460   2.7928460   2.7928460   2.7928460   2.7928460   2.7928460   2.7928460   2.7928460   2.7928460
 AtZNuc=   6.0000000   1.0000000   1.0000000   1.0000000   1.0000000   1.0000000   1.0000000   1.0000000   1.0000000   1.0000000

  Atom        71          72          73          74          75          76          77          78          79          80
 IAtWgt=           1          12           1           1           1          12           1           1           1          12
 AtmWgt=   1.0078250  12.0000000   1.0078250   1.0078250   1.0078250  12.0000000   1.0078250   1.0078250   1.0078250  12.0000000
 NucSpn=           1           0           1           1           1           0           1           1           1           0
 AtZEff=  -0.0000000  -0.0000000  -0.0000000  -0.0000000  -0.0000000  -0.0000000  -0.0000000  -0.0000000  -0.0000000  -0.0000000
 NQMom=    0.0000000   0.0000000   0.0000000   0.0000000   0.0000000   0.0000000   0.0000000   0.0000000   0.0000000   0.0000000
 NMagM=    2.7928460   0.0000000   2.7928460   2.7928460   2.7928460   0.0000000   2.7928460   2.7928460   2.7928460   0.0000000
 AtZNuc=   1.0000000   6.0000000   1.0000000   1.0000000   1.0000000   6.0000000   1.0000000   1.0000000   1.0000000   6.0000000

  Atom        81          82          83          84          85          86          87          88          89          90
 IAtWgt=           1           1           1          12           1           1           1          12           1           1
 AtmWgt=   1.0078250   1.0078250   1.0078250  12.0000000   1.0078250   1.0078250   1.0078250  12.0000000   1.0078250   1.0078250
 NucSpn=           1           1           1           0           1           1           1           0           1           1
 AtZEff=  -0.0000000  -0.0000000  -0.0000000  -0.0000000  -0.0000000  -0.0000000  -0.0000000  -0.0000000  -0.0000000  -0.0000000
 NQMom=    0.0000000   0.0000000   0.0000000   0.0000000   0.0000000   0.0000000   0.0000000   0.0000000   0.0000000   0.0000000
 NMagM=    2.7928460   2.7928460   2.7928460   0.0000000   2.7928460   2.7928460   2.7928460   0.0000000   2.7928460   2.7928460
 AtZNuc=   1.0000000   1.0000000   1.0000000   6.0000000   1.0000000   1.0000000   1.0000000   6.0000000   1.0000000   1.0000000

  Atom        91          92          93          94          95
 IAtWgt=           1          12           1           1           1
 AtmWgt=   1.0078250  12.0000000   1.0078250   1.0078250   1.0078250
 NucSpn=           1           0           1           1           1
 AtZEff=  -0.0000000  -0.0000000  -0.0000000  -0.0000000  -0.0000000
 NQMom=    0.0000000   0.0000000   0.0000000   0.0000000   0.0000000
 NMagM=    2.7928460   0.0000000   2.7928460   2.7928460   2.7928460
 AtZNuc=   1.0000000   6.0000000   1.0000000   1.0000000   1.0000000
 Leave Link  101 at Fri Dec 21 14:16:33 2018, MaxMem=  1342177280 cpu:               5.1 elap:               0.3
 (Enter /gpfs/apps/hpc/Apps/Restricted/Gaussian/Rev_A.03/g16/l103.exe)

 GradGradGradGradGradGradGradGradGradGradGradGradGradGradGradGradGradGrad
 Berny optimization.
 Initialization pass.
                           ----------------------------
                           !    Initial Parameters    !
                           ! (Angstroms and Degrees)  !
 --------------------------                            --------------------------
 ! Name  Definition              Value          Derivative Info.                !
 --------------------------------------------------------------------------------
 ! R1    R(1,2)                  1.404          estimate D2E/DX2                !
 ! R2    R(1,6)                  1.4017         estimate D2E/DX2                !
 ! R3    R(1,35)                 1.383          estimate D2E/DX2                !
 ! R4    R(2,3)                  1.3938         estimate D2E/DX2                !
 ! R5    R(2,21)                 1.3863         estimate D2E/DX2                !
 ! R6    R(3,4)                  1.3935         estimate D2E/DX2                !
 ! R7    R(3,8)                  1.082          estimate D2E/DX2                !
 ! R8    R(4,5)                  1.4047         estimate D2E/DX2                !
 ! R9    R(4,9)                  1.0829         estimate D2E/DX2                !
 ! R10   R(5,6)                  1.3994         estimate D2E/DX2                !
 ! R11   R(5,10)                 1.0831         estimate D2E/DX2                !
 ! R12   R(6,36)                 1.4528         estimate D2E/DX2                !
 ! R13   R(7,16)                 1.4403         estimate D2E/DX2                !
 ! R14   R(7,21)                 1.3489         estimate D2E/DX2                !
 ! R15   R(7,35)                 1.3477         estimate D2E/DX2                !
 ! R16   R(11,12)                1.4183         estimate D2E/DX2                !
 ! R17   R(11,16)                1.4143         estimate D2E/DX2                !
 ! R18   R(11,33)                1.3716         estimate D2E/DX2                !
 ! R19   R(12,13)                1.3936         estimate D2E/DX2                !
 ! R20   R(12,34)                1.3734         estimate D2E/DX2                !
 ! R21   R(13,14)                1.3952         estimate D2E/DX2                !
 ! R22   R(13,18)                1.0826         estimate D2E/DX2                !
 ! R23   R(14,15)                1.403          estimate D2E/DX2                !
 ! R24   R(14,19)                1.0827         estimate D2E/DX2                !
 ! R25   R(15,16)                1.3996         estimate D2E/DX2                !
 ! R26   R(15,20)                1.0828         estimate D2E/DX2                !
 ! R27   R(17,23)                1.4495         estimate D2E/DX2                !
 ! R28   R(17,33)                1.3415         estimate D2E/DX2                !
 ! R29   R(17,34)                1.3673         estimate D2E/DX2                !
 ! R30   R(21,68)                1.0242         estimate D2E/DX2                !
 ! R31   R(22,23)                1.4687         estimate D2E/DX2                !
 ! R32   R(22,27)                1.4685         estimate D2E/DX2                !
 ! R33   R(22,32)                1.2593         estimate D2E/DX2                !
 ! R34   R(23,24)                1.3868         estimate D2E/DX2                !
 ! R35   R(24,25)                1.3999         estimate D2E/DX2                !
 ! R36   R(24,28)                1.0807         estimate D2E/DX2                !
 ! R37   R(25,26)                1.4224         estimate D2E/DX2                !
 ! R38   R(25,30)                1.5239         estimate D2E/DX2                !
 ! R39   R(26,27)                1.3741         estimate D2E/DX2                !
 ! R40   R(26,29)                1.0807         estimate D2E/DX2                !
 ! R41   R(27,31)                1.527          estimate D2E/DX2                !
 ! R42   R(30,84)                1.5447         estimate D2E/DX2                !
 ! R43   R(30,88)                1.5449         estimate D2E/DX2                !
 ! R44   R(30,92)                1.535          estimate D2E/DX2                !
 ! R45   R(31,72)                1.5462         estimate D2E/DX2                !
 ! R46   R(31,76)                1.5359         estimate D2E/DX2                !
 ! R47   R(31,80)                1.545          estimate D2E/DX2                !
 ! R48   R(34,69)                1.0162         estimate D2E/DX2                !
 ! R49   R(35,70)                1.0191         estimate D2E/DX2                !
 ! R50   R(36,37)                1.3323         estimate D2E/DX2                !
 ! R51   R(36,38)                1.3711         estimate D2E/DX2                !
 ! R52   R(37,43)                1.3863         estimate D2E/DX2                !
 ! R53   R(38,44)                1.3717         estimate D2E/DX2                !
 ! R54   R(38,71)                1.0151         estimate D2E/DX2                !
 ! R55   R(39,40)                1.3986         estimate D2E/DX2                !
 ! R56   R(39,44)                1.4035         estimate D2E/DX2                !
 ! R57   R(39,48)                1.4625         estimate D2E/DX2                !
 ! R58   R(40,41)                1.4075         estimate D2E/DX2                !
 ! R59   R(40,45)                1.0846         estimate D2E/DX2                !
 ! R60   R(41,42)                1.3929         estimate D2E/DX2                !
 ! R61   R(41,46)                1.0835         estimate D2E/DX2                !
 ! R62   R(42,43)                1.4017         estimate D2E/DX2                !
 ! R63   R(42,47)                1.0833         estimate D2E/DX2                !
 ! R64   R(43,44)                1.4134         estimate D2E/DX2                !
 ! R65   R(48,49)                1.0931         estimate D2E/DX2                !
 ! R66   R(48,50)                1.2808         estimate D2E/DX2                !
 ! R67   R(50,51)                1.4621         estimate D2E/DX2                !
 ! R68   R(51,52)                1.5328         estimate D2E/DX2                !
 ! R69   R(51,53)                1.5378         estimate D2E/DX2                !
 ! R70   R(51,54)                1.0997         estimate D2E/DX2                !
 ! R71   R(52,55)                1.5337         estimate D2E/DX2                !
 ! R72   R(52,56)                1.0975         estimate D2E/DX2                !
 ! R73   R(52,57)                1.0949         estimate D2E/DX2                !
 ! R74   R(53,58)                1.5316         estimate D2E/DX2                !
 ! R75   R(53,59)                1.0969         estimate D2E/DX2                !
 ! R76   R(53,60)                1.0944         estimate D2E/DX2                !
 ! R77   R(55,61)                1.5325         estimate D2E/DX2                !
 ! R78   R(55,62)                1.0943         estimate D2E/DX2                !
 ! R79   R(55,63)                1.0971         estimate D2E/DX2                !
 ! R80   R(58,61)                1.5326         estimate D2E/DX2                !
 ! R81   R(58,64)                1.0946         estimate D2E/DX2                !
 ! R82   R(58,65)                1.0973         estimate D2E/DX2                !
 ! R83   R(61,66)                1.0946         estimate D2E/DX2                !
 ! R84   R(61,67)                1.0973         estimate D2E/DX2                !
 ! R85   R(72,73)                1.0891         estimate D2E/DX2                !
 ! R86   R(72,74)                1.0937         estimate D2E/DX2                !
 ! R87   R(72,75)                1.0934         estimate D2E/DX2                !
 ! R88   R(76,77)                1.092          estimate D2E/DX2                !
 ! R89   R(76,78)                1.0937         estimate D2E/DX2                !
 ! R90   R(76,79)                1.0931         estimate D2E/DX2                !
 ! R91   R(80,81)                1.0887         estimate D2E/DX2                !
 ! R92   R(80,82)                1.0933         estimate D2E/DX2                !
 ! R93   R(80,83)                1.0935         estimate D2E/DX2                !
 ! R94   R(84,85)                1.0922         estimate D2E/DX2                !
 ! R95   R(84,86)                1.0931         estimate D2E/DX2                !
 ! R96   R(84,87)                1.0927         estimate D2E/DX2                !
 ! R97   R(88,89)                1.0932         estimate D2E/DX2                !
 ! R98   R(88,90)                1.092          estimate D2E/DX2                !
 ! R99   R(88,91)                1.0926         estimate D2E/DX2                !
 ! R100  R(92,93)                1.0931         estimate D2E/DX2                !
 ! R101  R(92,94)                1.0931         estimate D2E/DX2                !
 ! R102  R(92,95)                1.0923         estimate D2E/DX2                !
 ! A1    A(2,1,6)              122.3601         estimate D2E/DX2                !
 ! A2    A(2,1,35)             106.9298         estimate D2E/DX2                !
 ! A3    A(6,1,35)             130.71           estimate D2E/DX2                !
 ! A4    A(1,2,3)              121.5287         estimate D2E/DX2                !
 ! A5    A(1,2,21)             105.6972         estimate D2E/DX2                !
 ! A6    A(3,2,21)             132.7741         estimate D2E/DX2                !
 ! A7    A(2,3,4)              116.4217         estimate D2E/DX2                !
 ! A8    A(2,3,8)              121.4867         estimate D2E/DX2                !
 ! A9    A(4,3,8)              122.091          estimate D2E/DX2                !
 ! A10   A(3,4,5)              122.1793         estimate D2E/DX2                !
 ! A11   A(3,4,9)              119.0802         estimate D2E/DX2                !
 ! A12   A(5,4,9)              118.7403         estimate D2E/DX2                !
 ! A13   A(4,5,6)              121.743          estimate D2E/DX2                !
 ! A14   A(4,5,10)             118.967          estimate D2E/DX2                !
 ! A15   A(6,5,10)             119.2882         estimate D2E/DX2                !
 ! A16   A(1,6,5)              115.7671         estimate D2E/DX2                !
 ! A17   A(1,6,36)             119.5104         estimate D2E/DX2                !
 ! A18   A(5,6,36)             124.7226         estimate D2E/DX2                !
 ! A19   A(16,7,21)            123.5111         estimate D2E/DX2                !
 ! A20   A(16,7,35)            128.4728         estimate D2E/DX2                !
 ! A21   A(21,7,35)            108.0158         estimate D2E/DX2                !
 ! A22   A(12,11,16)           119.8651         estimate D2E/DX2                !
 ! A23   A(12,11,33)           110.4661         estimate D2E/DX2                !
 ! A24   A(16,11,33)           129.6683         estimate D2E/DX2                !
 ! A25   A(11,12,13)           122.2738         estimate D2E/DX2                !
 ! A26   A(11,12,34)           104.4543         estimate D2E/DX2                !
 ! A27   A(13,12,34)           133.2706         estimate D2E/DX2                !
 ! A28   A(12,13,14)           116.9689         estimate D2E/DX2                !
 ! A29   A(12,13,18)           121.5856         estimate D2E/DX2                !
 ! A30   A(14,13,18)           121.4454         estimate D2E/DX2                !
 ! A31   A(13,14,15)           122.0055         estimate D2E/DX2                !
 ! A32   A(13,14,19)           119.2626         estimate D2E/DX2                !
 ! A33   A(15,14,19)           118.7316         estimate D2E/DX2                !
 ! A34   A(14,15,16)           121.1798         estimate D2E/DX2                !
 ! A35   A(14,15,20)           119.1058         estimate D2E/DX2                !
 ! A36   A(16,15,20)           119.7139         estimate D2E/DX2                !
 ! A37   A(7,16,11)            119.1517         estimate D2E/DX2                !
 ! A38   A(7,16,15)            123.1417         estimate D2E/DX2                !
 ! A39   A(11,16,15)           117.7058         estimate D2E/DX2                !
 ! A40   A(23,17,33)           124.881          estimate D2E/DX2                !
 ! A41   A(23,17,34)           123.46           estimate D2E/DX2                !
 ! A42   A(33,17,34)           111.6548         estimate D2E/DX2                !
 ! A43   A(2,21,7)             109.9711         estimate D2E/DX2                !
 ! A44   A(2,21,68)            129.6629         estimate D2E/DX2                !
 ! A45   A(7,21,68)            120.3623         estimate D2E/DX2                !
 ! A46   A(23,22,27)           117.6605         estimate D2E/DX2                !
 ! A47   A(23,22,32)           120.5981         estimate D2E/DX2                !
 ! A48   A(27,22,32)           121.7406         estimate D2E/DX2                !
 ! A49   A(17,23,22)           120.335          estimate D2E/DX2                !
 ! A50   A(17,23,24)           119.1192         estimate D2E/DX2                !
 ! A51   A(22,23,24)           120.5452         estimate D2E/DX2                !
 ! A52   A(23,24,25)           121.2914         estimate D2E/DX2                !
 ! A53   A(23,24,28)           118.2146         estimate D2E/DX2                !
 ! A54   A(25,24,28)           120.4937         estimate D2E/DX2                !
 ! A55   A(24,25,26)           118.4993         estimate D2E/DX2                !
 ! A56   A(24,25,30)           122.5024         estimate D2E/DX2                !
 ! A57   A(26,25,30)           118.9983         estimate D2E/DX2                !
 ! A58   A(25,26,27)           123.8591         estimate D2E/DX2                !
 ! A59   A(25,26,29)           117.3918         estimate D2E/DX2                !
 ! A60   A(27,26,29)           118.7489         estimate D2E/DX2                !
 ! A61   A(22,27,26)           118.1294         estimate D2E/DX2                !
 ! A62   A(22,27,31)           119.7143         estimate D2E/DX2                !
 ! A63   A(26,27,31)           122.1535         estimate D2E/DX2                !
 ! A64   A(25,30,84)           108.7964         estimate D2E/DX2                !
 ! A65   A(25,30,88)           108.9427         estimate D2E/DX2                !
 ! A66   A(25,30,92)           112.3834         estimate D2E/DX2                !
 ! A67   A(84,30,88)           109.2937         estimate D2E/DX2                !
 ! A68   A(84,30,92)           108.842          estimate D2E/DX2                !
 ! A69   A(88,30,92)           108.5424         estimate D2E/DX2                !
 ! A70   A(27,31,72)           109.29           estimate D2E/DX2                !
 ! A71   A(27,31,76)           111.7325         estimate D2E/DX2                !
 ! A72   A(27,31,80)           109.9021         estimate D2E/DX2                !
 ! A73   A(72,31,76)           108.0562         estimate D2E/DX2                !
 ! A74   A(72,31,80)           109.9358         estimate D2E/DX2                !
 ! A75   A(76,31,80)           107.8899         estimate D2E/DX2                !
 ! A76   A(11,33,17)           105.2261         estimate D2E/DX2                !
 ! A77   A(12,34,17)           108.1983         estimate D2E/DX2                !
 ! A78   A(12,34,69)           130.9172         estimate D2E/DX2                !
 ! A79   A(17,34,69)           120.879          estimate D2E/DX2                !
 ! A80   A(1,35,7)             109.3854         estimate D2E/DX2                !
 ! A81   A(1,35,70)            121.2352         estimate D2E/DX2                !
 ! A82   A(7,35,70)            129.3715         estimate D2E/DX2                !
 ! A83   A(6,36,37)            123.5072         estimate D2E/DX2                !
 ! A84   A(6,36,38)            124.3193         estimate D2E/DX2                !
 ! A85   A(37,36,38)           112.1722         estimate D2E/DX2                !
 ! A86   A(36,37,43)           105.4676         estimate D2E/DX2                !
 ! A87   A(36,38,44)           107.3241         estimate D2E/DX2                !
 ! A88   A(36,38,71)           131.1181         estimate D2E/DX2                !
 ! A89   A(44,38,71)           121.5436         estimate D2E/DX2                !
 ! A90   A(40,39,44)           115.6605         estimate D2E/DX2                !
 ! A91   A(40,39,48)           122.6195         estimate D2E/DX2                !
 ! A92   A(44,39,48)           121.7184         estimate D2E/DX2                !
 ! A93   A(39,40,41)           121.8107         estimate D2E/DX2                !
 ! A94   A(39,40,45)           118.6895         estimate D2E/DX2                !
 ! A95   A(41,40,45)           119.4994         estimate D2E/DX2                !
 ! A96   A(40,41,42)           121.7785         estimate D2E/DX2                !
 ! A97   A(40,41,46)           118.8474         estimate D2E/DX2                !
 ! A98   A(42,41,46)           119.374          estimate D2E/DX2                !
 ! A99   A(41,42,43)           117.7695         estimate D2E/DX2                !
 ! A100  A(41,42,47)           121.3885         estimate D2E/DX2                !
 ! A101  A(43,42,47)           120.8416         estimate D2E/DX2                !
 ! A102  A(37,43,42)           131.0764         estimate D2E/DX2                !
 ! A103  A(37,43,44)           109.3052         estimate D2E/DX2                !
 ! A104  A(42,43,44)           119.6183         estimate D2E/DX2                !
 ! A105  A(38,44,39)           130.9086         estimate D2E/DX2                !
 ! A106  A(38,44,43)           105.7306         estimate D2E/DX2                !
 ! A107  A(39,44,43)           123.3598         estimate D2E/DX2                !
 ! A108  A(39,48,49)           115.745          estimate D2E/DX2                !
 ! A109  A(39,48,50)           121.0509         estimate D2E/DX2                !
 ! A110  A(49,48,50)           123.2025         estimate D2E/DX2                !
 ! A111  A(48,50,51)           120.7046         estimate D2E/DX2                !
 ! A112  A(50,51,52)           117.4463         estimate D2E/DX2                !
 ! A113  A(50,51,53)           108.3298         estimate D2E/DX2                !
 ! A114  A(50,51,54)           105.243          estimate D2E/DX2                !
 ! A115  A(52,51,53)           110.6297         estimate D2E/DX2                !
 ! A116  A(52,51,54)           107.7636         estimate D2E/DX2                !
 ! A117  A(53,51,54)           106.8164         estimate D2E/DX2                !
 ! A118  A(51,52,55)           110.7364         estimate D2E/DX2                !
 ! A119  A(51,52,56)           109.1806         estimate D2E/DX2                !
 ! A120  A(51,52,57)           110.282          estimate D2E/DX2                !
 ! A121  A(55,52,56)           109.454          estimate D2E/DX2                !
 ! A122  A(55,52,57)           110.0366         estimate D2E/DX2                !
 ! A123  A(56,52,57)           107.0713         estimate D2E/DX2                !
 ! A124  A(51,53,58)           111.3438         estimate D2E/DX2                !
 ! A125  A(51,53,59)           108.301          estimate D2E/DX2                !
 ! A126  A(51,53,60)           109.1262         estimate D2E/DX2                !
 ! A127  A(58,53,59)           109.7935         estimate D2E/DX2                !
 ! A128  A(58,53,60)           110.975          estimate D2E/DX2                !
 ! A129  A(59,53,60)           107.1742         estimate D2E/DX2                !
 ! A130  A(52,55,61)           111.5417         estimate D2E/DX2                !
 ! A131  A(52,55,62)           109.8241         estimate D2E/DX2                !
 ! A132  A(52,55,63)           109.0491         estimate D2E/DX2                !
 ! A133  A(61,55,62)           110.3716         estimate D2E/DX2                !
 ! A134  A(61,55,63)           109.1935         estimate D2E/DX2                !
 ! A135  A(62,55,63)           106.7303         estimate D2E/DX2                !
 ! A136  A(53,58,61)           111.3051         estimate D2E/DX2                !
 ! A137  A(53,58,64)           109.9246         estimate D2E/DX2                !
 ! A138  A(53,58,65)           109.0256         estimate D2E/DX2                !
 ! A139  A(61,58,64)           110.4362         estimate D2E/DX2                !
 ! A140  A(61,58,65)           109.1708         estimate D2E/DX2                !
 ! A141  A(64,58,65)           106.8621         estimate D2E/DX2                !
 ! A142  A(55,61,58)           111.1122         estimate D2E/DX2                !
 ! A143  A(55,61,66)           110.2789         estimate D2E/DX2                !
 ! A144  A(55,61,67)           108.9961         estimate D2E/DX2                !
 ! A145  A(58,61,66)           110.3206         estimate D2E/DX2                !
 ! A146  A(58,61,67)           109.0696         estimate D2E/DX2                !
 ! A147  A(66,61,67)           106.9551         estimate D2E/DX2                !
 ! A148  A(31,72,73)           110.9755         estimate D2E/DX2                !
 ! A149  A(31,72,74)           109.4667         estimate D2E/DX2                !
 ! A150  A(31,72,75)           110.4996         estimate D2E/DX2                !
 ! A151  A(73,72,74)           108.7993         estimate D2E/DX2                !
 ! A152  A(73,72,75)           108.8385         estimate D2E/DX2                !
 ! A153  A(74,72,75)           108.1984         estimate D2E/DX2                !
 ! A154  A(31,76,77)           108.8144         estimate D2E/DX2                !
 ! A155  A(31,76,78)           111.8596         estimate D2E/DX2                !
 ! A156  A(31,76,79)           111.9653         estimate D2E/DX2                !
 ! A157  A(77,76,78)           107.8853         estimate D2E/DX2                !
 ! A158  A(77,76,79)           107.9065         estimate D2E/DX2                !
 ! A159  A(78,76,79)           108.2547         estimate D2E/DX2                !
 ! A160  A(31,80,81)           111.2293         estimate D2E/DX2                !
 ! A161  A(31,80,82)           110.5484         estimate D2E/DX2                !
 ! A162  A(31,80,83)           109.3589         estimate D2E/DX2                !
 ! A163  A(81,80,82)           108.732          estimate D2E/DX2                !
 ! A164  A(81,80,83)           108.8567         estimate D2E/DX2                !
 ! A165  A(82,80,83)           108.0422         estimate D2E/DX2                !
 ! A166  A(30,84,85)           111.7061         estimate D2E/DX2                !
 ! A167  A(30,84,86)           109.5513         estimate D2E/DX2                !
 ! A168  A(30,84,87)           110.7963         estimate D2E/DX2                !
 ! A169  A(85,84,86)           108.0147         estimate D2E/DX2                !
 ! A170  A(85,84,87)           108.3296         estimate D2E/DX2                !
 ! A171  A(86,84,87)           108.3404         estimate D2E/DX2                !
 ! A172  A(30,88,89)           109.4713         estimate D2E/DX2                !
 ! A173  A(30,88,90)           111.7937         estimate D2E/DX2                !
 ! A174  A(30,88,91)           110.7895         estimate D2E/DX2                !
 ! A175  A(89,88,90)           107.9614         estimate D2E/DX2                !
 ! A176  A(89,88,91)           108.4067         estimate D2E/DX2                !
 ! A177  A(90,88,91)           108.3154         estimate D2E/DX2                !
 ! A178  A(30,92,93)           111.4995         estimate D2E/DX2                !
 ! A179  A(30,92,94)           111.6852         estimate D2E/DX2                !
 ! A180  A(30,92,95)           109.2184         estimate D2E/DX2                !
 ! A181  A(93,92,94)           108.439          estimate D2E/DX2                !
 ! A182  A(93,92,95)           107.9953         estimate D2E/DX2                !
 ! A183  A(94,92,95)           107.8688         estimate D2E/DX2                !
 ! D1    D(6,1,2,3)              0.1057         estimate D2E/DX2                !
 ! D2    D(6,1,2,21)          -179.8308         estimate D2E/DX2                !
 ! D3    D(35,1,2,3)          -179.8415         estimate D2E/DX2                !
 ! D4    D(35,1,2,21)            0.222          estimate D2E/DX2                !
 ! D5    D(2,1,6,5)             -0.128          estimate D2E/DX2                !
 ! D6    D(2,1,6,36)           179.8743         estimate D2E/DX2                !
 ! D7    D(35,1,6,5)           179.8053         estimate D2E/DX2                !
 ! D8    D(35,1,6,36)           -0.1923         estimate D2E/DX2                !
 ! D9    D(2,1,35,7)            -0.1179         estimate D2E/DX2                !
 ! D10   D(2,1,35,70)          178.9477         estimate D2E/DX2                !
 ! D11   D(6,1,35,7)           179.941          estimate D2E/DX2                !
 ! D12   D(6,1,35,70)           -0.9935         estimate D2E/DX2                !
 ! D13   D(1,2,3,4)              0.0039         estimate D2E/DX2                !
 ! D14   D(1,2,3,8)            179.7229         estimate D2E/DX2                !
 ! D15   D(21,2,3,4)           179.9206         estimate D2E/DX2                !
 ! D16   D(21,2,3,8)            -0.3605         estimate D2E/DX2                !
 ! D17   D(1,2,21,7)            -0.2533         estimate D2E/DX2                !
 ! D18   D(1,2,21,68)         -179.5456         estimate D2E/DX2                !
 ! D19   D(3,2,21,7)           179.8205         estimate D2E/DX2                !
 ! D20   D(3,2,21,68)            0.5282         estimate D2E/DX2                !
 ! D21   D(2,3,4,5)             -0.0833         estimate D2E/DX2                !
 ! D22   D(2,3,4,9)            179.7628         estimate D2E/DX2                !
 ! D23   D(8,3,4,5)           -179.8004         estimate D2E/DX2                !
 ! D24   D(8,3,4,9)              0.0457         estimate D2E/DX2                !
 ! D25   D(3,4,5,6)              0.0579         estimate D2E/DX2                !
 ! D26   D(3,4,5,10)           179.5706         estimate D2E/DX2                !
 ! D27   D(9,4,5,6)           -179.7887         estimate D2E/DX2                !
 ! D28   D(9,4,5,10)            -0.276          estimate D2E/DX2                !
 ! D29   D(4,5,6,1)              0.0483         estimate D2E/DX2                !
 ! D30   D(4,5,6,36)          -179.9542         estimate D2E/DX2                !
 ! D31   D(10,5,6,1)          -179.4628         estimate D2E/DX2                !
 ! D32   D(10,5,6,36)            0.5347         estimate D2E/DX2                !
 ! D33   D(1,6,36,37)            2.9413         estimate D2E/DX2                !
 ! D34   D(1,6,36,38)         -177.5083         estimate D2E/DX2                !
 ! D35   D(5,6,36,37)         -177.0561         estimate D2E/DX2                !
 ! D36   D(5,6,36,38)            2.4943         estimate D2E/DX2                !
 ! D37   D(21,7,16,11)           1.1758         estimate D2E/DX2                !
 ! D38   D(21,7,16,15)        -179.1485         estimate D2E/DX2                !
 ! D39   D(35,7,16,11)        -179.0426         estimate D2E/DX2                !
 ! D40   D(35,7,16,15)           0.633          estimate D2E/DX2                !
 ! D41   D(16,7,21,2)         -179.9946         estimate D2E/DX2                !
 ! D42   D(16,7,21,68)          -0.6259         estimate D2E/DX2                !
 ! D43   D(35,7,21,2)            0.1853         estimate D2E/DX2                !
 ! D44   D(35,7,21,68)         179.5539         estimate D2E/DX2                !
 ! D45   D(16,7,35,1)         -179.8474         estimate D2E/DX2                !
 ! D46   D(16,7,35,70)           1.1862         estimate D2E/DX2                !
 ! D47   D(21,7,35,1)           -0.0389         estimate D2E/DX2                !
 ! D48   D(21,7,35,70)        -179.0053         estimate D2E/DX2                !
 ! D49   D(16,11,12,13)         -0.108          estimate D2E/DX2                !
 ! D50   D(16,11,12,34)       -179.7472         estimate D2E/DX2                !
 ! D51   D(33,11,12,13)        179.6568         estimate D2E/DX2                !
 ! D52   D(33,11,12,34)          0.0177         estimate D2E/DX2                !
 ! D53   D(12,11,16,7)         179.8883         estimate D2E/DX2                !
 ! D54   D(12,11,16,15)          0.1951         estimate D2E/DX2                !
 ! D55   D(33,11,16,7)           0.1746         estimate D2E/DX2                !
 ! D56   D(33,11,16,15)       -179.5187         estimate D2E/DX2                !
 ! D57   D(12,11,33,17)         -0.1299         estimate D2E/DX2                !
 ! D58   D(16,11,33,17)        179.6051         estimate D2E/DX2                !
 ! D59   D(11,12,13,14)          0.15           estimate D2E/DX2                !
 ! D60   D(11,12,13,18)       -179.9821         estimate D2E/DX2                !
 ! D61   D(34,12,13,14)        179.67           estimate D2E/DX2                !
 ! D62   D(34,12,13,18)         -0.462          estimate D2E/DX2                !
 ! D63   D(11,12,34,17)          0.1013         estimate D2E/DX2                !
 ! D64   D(11,12,34,69)        179.232          estimate D2E/DX2                !
 ! D65   D(13,12,34,17)       -179.4796         estimate D2E/DX2                !
 ! D66   D(13,12,34,69)         -0.3489         estimate D2E/DX2                !
 ! D67   D(12,13,14,15)         -0.2929         estimate D2E/DX2                !
 ! D68   D(12,13,14,19)        179.9184         estimate D2E/DX2                !
 ! D69   D(18,13,14,15)        179.839          estimate D2E/DX2                !
 ! D70   D(18,13,14,19)          0.0502         estimate D2E/DX2                !
 ! D71   D(13,14,15,16)          0.4003         estimate D2E/DX2                !
 ! D72   D(13,14,15,20)       -179.8367         estimate D2E/DX2                !
 ! D73   D(19,14,15,16)       -179.8098         estimate D2E/DX2                !
 ! D74   D(19,14,15,20)         -0.0469         estimate D2E/DX2                !
 ! D75   D(14,15,16,7)         179.982          estimate D2E/DX2                !
 ! D76   D(14,15,16,11)         -0.338          estimate D2E/DX2                !
 ! D77   D(20,15,16,7)           0.2204         estimate D2E/DX2                !
 ! D78   D(20,15,16,11)        179.9005         estimate D2E/DX2                !
 ! D79   D(33,17,23,22)        178.0151         estimate D2E/DX2                !
 ! D80   D(33,17,23,24)         -1.7007         estimate D2E/DX2                !
 ! D81   D(34,17,23,22)         -1.1754         estimate D2E/DX2                !
 ! D82   D(34,17,23,24)        179.1089         estimate D2E/DX2                !
 ! D83   D(23,17,33,11)       -179.0756         estimate D2E/DX2                !
 ! D84   D(34,17,33,11)          0.1977         estimate D2E/DX2                !
 ! D85   D(23,17,34,12)        179.0918         estimate D2E/DX2                !
 ! D86   D(23,17,34,69)         -0.1428         estimate D2E/DX2                !
 ! D87   D(33,17,34,12)         -0.1937         estimate D2E/DX2                !
 ! D88   D(33,17,34,69)       -179.4282         estimate D2E/DX2                !
 ! D89   D(27,22,23,17)       -178.3253         estimate D2E/DX2                !
 ! D90   D(27,22,23,24)          1.3863         estimate D2E/DX2                !
 ! D91   D(32,22,23,17)          1.3535         estimate D2E/DX2                !
 ! D92   D(32,22,23,24)       -178.9349         estimate D2E/DX2                !
 ! D93   D(23,22,27,26)         -1.235          estimate D2E/DX2                !
 ! D94   D(23,22,27,31)        178.1601         estimate D2E/DX2                !
 ! D95   D(32,22,27,26)        179.0901         estimate D2E/DX2                !
 ! D96   D(32,22,27,31)         -1.5148         estimate D2E/DX2                !
 ! D97   D(17,23,24,25)        179.1305         estimate D2E/DX2                !
 ! D98   D(17,23,24,28)         -0.6614         estimate D2E/DX2                !
 ! D99   D(22,23,24,25)         -0.5847         estimate D2E/DX2                !
 ! D100  D(22,23,24,28)        179.6235         estimate D2E/DX2                !
 ! D101  D(23,24,25,26)         -0.3711         estimate D2E/DX2                !
 ! D102  D(23,24,25,30)        179.5743         estimate D2E/DX2                !
 ! D103  D(28,24,25,26)        179.416          estimate D2E/DX2                !
 ! D104  D(28,24,25,30)         -0.6386         estimate D2E/DX2                !
 ! D105  D(24,25,26,27)          0.51           estimate D2E/DX2                !
 ! D106  D(24,25,26,29)       -179.3688         estimate D2E/DX2                !
 ! D107  D(30,25,26,27)       -179.4373         estimate D2E/DX2                !
 ! D108  D(30,25,26,29)          0.6839         estimate D2E/DX2                !
 ! D109  D(24,25,30,84)        119.8141         estimate D2E/DX2                !
 ! D110  D(24,25,30,88)       -121.1196         estimate D2E/DX2                !
 ! D111  D(24,25,30,92)         -0.7912         estimate D2E/DX2                !
 ! D112  D(26,25,30,84)        -60.2407         estimate D2E/DX2                !
 ! D113  D(26,25,30,88)         58.8255         estimate D2E/DX2                !
 ! D114  D(26,25,30,92)        179.1539         estimate D2E/DX2                !
 ! D115  D(25,26,27,22)          0.3218         estimate D2E/DX2                !
 ! D116  D(25,26,27,31)       -179.0577         estimate D2E/DX2                !
 ! D117  D(29,26,27,22)       -179.8009         estimate D2E/DX2                !
 ! D118  D(29,26,27,31)          0.8196         estimate D2E/DX2                !
 ! D119  D(22,27,31,72)        -59.9929         estimate D2E/DX2                !
 ! D120  D(22,27,31,76)       -179.5324         estimate D2E/DX2                !
 ! D121  D(22,27,31,80)         60.7313         estimate D2E/DX2                !
 ! D122  D(26,27,31,72)        119.377          estimate D2E/DX2                !
 ! D123  D(26,27,31,76)         -0.1625         estimate D2E/DX2                !
 ! D124  D(26,27,31,80)       -119.8988         estimate D2E/DX2                !
 ! D125  D(25,30,84,85)         58.5028         estimate D2E/DX2                !
 ! D126  D(25,30,84,86)        178.1458         estimate D2E/DX2                !
 ! D127  D(25,30,84,87)        -62.3782         estimate D2E/DX2                !
 ! D128  D(88,30,84,85)        -60.3436         estimate D2E/DX2                !
 ! D129  D(88,30,84,86)         59.2994         estimate D2E/DX2                !
 ! D130  D(88,30,84,87)        178.7754         estimate D2E/DX2                !
 ! D131  D(92,30,84,85)       -178.7334         estimate D2E/DX2                !
 ! D132  D(92,30,84,86)        -59.0904         estimate D2E/DX2                !
 ! D133  D(92,30,84,87)         60.3856         estimate D2E/DX2                !
 ! D134  D(25,30,88,89)       -178.2845         estimate D2E/DX2                !
 ! D135  D(25,30,88,90)        -58.7054         estimate D2E/DX2                !
 ! D136  D(25,30,88,91)         62.2126         estimate D2E/DX2                !
 ! D137  D(84,30,88,89)        -59.5291         estimate D2E/DX2                !
 ! D138  D(84,30,88,90)         60.0501         estimate D2E/DX2                !
 ! D139  D(84,30,88,91)       -179.032          estimate D2E/DX2                !
 ! D140  D(92,30,88,89)         59.0475         estimate D2E/DX2                !
 ! D141  D(92,30,88,90)        178.6267         estimate D2E/DX2                !
 ! D142  D(92,30,88,91)        -60.4554         estimate D2E/DX2                !
 ! D143  D(25,30,92,93)        -60.3603         estimate D2E/DX2                !
 ! D144  D(25,30,92,94)         61.138          estimate D2E/DX2                !
 ! D145  D(25,30,92,95)       -179.632          estimate D2E/DX2                !
 ! D146  D(84,30,92,93)        179.0606         estimate D2E/DX2                !
 ! D147  D(84,30,92,94)        -59.441          estimate D2E/DX2                !
 ! D148  D(84,30,92,95)         59.7889         estimate D2E/DX2                !
 ! D149  D(88,30,92,93)         60.1991         estimate D2E/DX2                !
 ! D150  D(88,30,92,94)       -178.3025         estimate D2E/DX2                !
 ! D151  D(88,30,92,95)        -59.0726         estimate D2E/DX2                !
 ! D152  D(27,31,72,73)         62.6632         estimate D2E/DX2                !
 ! D153  D(27,31,72,74)       -177.2337         estimate D2E/DX2                !
 ! D154  D(27,31,72,75)        -58.1695         estimate D2E/DX2                !
 ! D155  D(76,31,72,73)       -175.5527         estimate D2E/DX2                !
 ! D156  D(76,31,72,74)        -55.4496         estimate D2E/DX2                !
 ! D157  D(76,31,72,75)         63.6146         estimate D2E/DX2                !
 ! D158  D(80,31,72,73)        -58.0404         estimate D2E/DX2                !
 ! D159  D(80,31,72,74)         62.0626         estimate D2E/DX2                !
 ! D160  D(80,31,72,75)       -178.8731         estimate D2E/DX2                !
 ! D161  D(27,31,76,77)        179.9418         estimate D2E/DX2                !
 ! D162  D(27,31,76,78)        -60.9625         estimate D2E/DX2                !
 ! D163  D(27,31,76,79)         60.7549         estimate D2E/DX2                !
 ! D164  D(72,31,76,77)         59.6772         estimate D2E/DX2                !
 ! D165  D(72,31,76,78)        178.7728         estimate D2E/DX2                !
 ! D166  D(72,31,76,79)        -59.5097         estimate D2E/DX2                !
 ! D167  D(80,31,76,77)        -59.1443         estimate D2E/DX2                !
 ! D168  D(80,31,76,78)         59.9514         estimate D2E/DX2                !
 ! D169  D(80,31,76,79)       -178.3312         estimate D2E/DX2                !
 ! D170  D(27,31,80,81)        -60.6892         estimate D2E/DX2                !
 ! D171  D(27,31,80,82)         60.2111         estimate D2E/DX2                !
 ! D172  D(27,31,80,83)        179.0459         estimate D2E/DX2                !
 ! D173  D(72,31,80,81)         59.6448         estimate D2E/DX2                !
 ! D174  D(72,31,80,82)       -179.4549         estimate D2E/DX2                !
 ! D175  D(72,31,80,83)        -60.6201         estimate D2E/DX2                !
 ! D176  D(76,31,80,81)        177.2604         estimate D2E/DX2                !
 ! D177  D(76,31,80,82)        -61.8393         estimate D2E/DX2                !
 ! D178  D(76,31,80,83)         56.9955         estimate D2E/DX2                !
 ! D179  D(6,36,37,43)         179.4378         estimate D2E/DX2                !
 ! D180  D(38,36,37,43)         -0.1612         estimate D2E/DX2                !
 ! D181  D(6,36,38,44)        -179.4731         estimate D2E/DX2                !
 ! D182  D(6,36,38,71)           1.9116         estimate D2E/DX2                !
 ! D183  D(37,36,38,44)          0.122          estimate D2E/DX2                !
 ! D184  D(37,36,38,71)       -178.4932         estimate D2E/DX2                !
 ! D185  D(36,37,43,42)       -179.7712         estimate D2E/DX2                !
 ! D186  D(36,37,43,44)          0.1391         estimate D2E/DX2                !
 ! D187  D(36,38,44,39)       -179.6581         estimate D2E/DX2                !
 ! D188  D(36,38,44,43)         -0.0283         estimate D2E/DX2                !
 ! D189  D(71,38,44,39)         -0.8822         estimate D2E/DX2                !
 ! D190  D(71,38,44,43)        178.7476         estimate D2E/DX2                !
 ! D191  D(44,39,40,41)         -0.4831         estimate D2E/DX2                !
 ! D192  D(44,39,40,45)        179.7507         estimate D2E/DX2                !
 ! D193  D(48,39,40,41)        179.0771         estimate D2E/DX2                !
 ! D194  D(48,39,40,45)         -0.6891         estimate D2E/DX2                !
 ! D195  D(40,39,44,38)       -179.8153         estimate D2E/DX2                !
 ! D196  D(40,39,44,43)          0.6113         estimate D2E/DX2                !
 ! D197  D(48,39,44,38)          0.6202         estimate D2E/DX2                !
 ! D198  D(48,39,44,43)       -178.9532         estimate D2E/DX2                !
 ! D199  D(40,39,48,49)          1.1673         estimate D2E/DX2                !
 ! D200  D(40,39,48,50)       -178.3825         estimate D2E/DX2                !
 ! D201  D(44,39,48,49)       -179.2987         estimate D2E/DX2                !
 ! D202  D(44,39,48,50)          1.1515         estimate D2E/DX2                !
 ! D203  D(39,40,41,42)          0.2382         estimate D2E/DX2                !
 ! D204  D(39,40,41,46)       -179.83           estimate D2E/DX2                !
 ! D205  D(45,40,41,42)       -179.9975         estimate D2E/DX2                !
 ! D206  D(45,40,41,46)         -0.0657         estimate D2E/DX2                !
 ! D207  D(40,41,42,43)         -0.0764         estimate D2E/DX2                !
 ! D208  D(40,41,42,47)       -179.8498         estimate D2E/DX2                !
 ! D209  D(46,41,42,43)        179.9921         estimate D2E/DX2                !
 ! D210  D(46,41,42,47)          0.2187         estimate D2E/DX2                !
 ! D211  D(41,42,43,37)       -179.9086         estimate D2E/DX2                !
 ! D212  D(41,42,43,44)          0.1888         estimate D2E/DX2                !
 ! D213  D(47,42,43,37)         -0.1338         estimate D2E/DX2                !
 ! D214  D(47,42,43,44)        179.9636         estimate D2E/DX2                !
 ! D215  D(37,43,44,38)         -0.0685         estimate D2E/DX2                !
 ! D216  D(37,43,44,39)        179.5966         estimate D2E/DX2                !
 ! D217  D(42,43,44,38)        179.8537         estimate D2E/DX2                !
 ! D218  D(42,43,44,39)         -0.4812         estimate D2E/DX2                !
 ! D219  D(39,48,50,51)        179.7712         estimate D2E/DX2                !
 ! D220  D(49,48,50,51)          0.2559         estimate D2E/DX2                !
 ! D221  D(48,50,51,52)          0.8329         estimate D2E/DX2                !
 ! D222  D(48,50,51,53)        127.0112         estimate D2E/DX2                !
 ! D223  D(48,50,51,54)       -119.025          estimate D2E/DX2                !
 ! D224  D(50,51,52,55)       -178.5479         estimate D2E/DX2                !
 ! D225  D(50,51,52,56)         60.8715         estimate D2E/DX2                !
 ! D226  D(50,51,52,57)        -56.5099         estimate D2E/DX2                !
 ! D227  D(53,51,52,55)         56.4098         estimate D2E/DX2                !
 ! D228  D(53,51,52,56)        -64.1708         estimate D2E/DX2                !
 ! D229  D(53,51,52,57)        178.4478         estimate D2E/DX2                !
 ! D230  D(54,51,52,55)        -60.027          estimate D2E/DX2                !
 ! D231  D(54,51,52,56)        179.3925         estimate D2E/DX2                !
 ! D232  D(54,51,52,57)         62.011          estimate D2E/DX2                !
 ! D233  D(50,51,53,58)        173.6551         estimate D2E/DX2                !
 ! D234  D(50,51,53,59)        -65.536          estimate D2E/DX2                !
 ! D235  D(50,51,53,60)         50.8155         estimate D2E/DX2                !
 ! D236  D(52,51,53,58)        -56.2884         estimate D2E/DX2                !
 ! D237  D(52,51,53,59)         64.5205         estimate D2E/DX2                !
 ! D238  D(52,51,53,60)       -179.1279         estimate D2E/DX2                !
 ! D239  D(54,51,53,58)         60.7338         estimate D2E/DX2                !
 ! D240  D(54,51,53,59)       -178.4573         estimate D2E/DX2                !
 ! D241  D(54,51,53,60)        -62.1057         estimate D2E/DX2                !
 ! D242  D(51,52,55,61)        -56.2859         estimate D2E/DX2                !
 ! D243  D(51,52,55,62)       -178.9785         estimate D2E/DX2                !
 ! D244  D(51,52,55,63)         64.393          estimate D2E/DX2                !
 ! D245  D(56,52,55,61)         64.1319         estimate D2E/DX2                !
 ! D246  D(56,52,55,62)        -58.5606         estimate D2E/DX2                !
 ! D247  D(56,52,55,63)       -175.1891         estimate D2E/DX2                !
 ! D248  D(57,52,55,61)       -178.4675         estimate D2E/DX2                !
 ! D249  D(57,52,55,62)         58.84           estimate D2E/DX2                !
 ! D250  D(57,52,55,63)        -57.7885         estimate D2E/DX2                !
 ! D251  D(51,53,58,61)         55.4526         estimate D2E/DX2                !
 ! D252  D(51,53,58,64)        178.1362         estimate D2E/DX2                !
 ! D253  D(51,53,58,65)        -65.0329         estimate D2E/DX2                !
 ! D254  D(59,53,58,61)        -64.4769         estimate D2E/DX2                !
 ! D255  D(59,53,58,64)         58.2068         estimate D2E/DX2                !
 ! D256  D(59,53,58,65)        175.0377         estimate D2E/DX2                !
 ! D257  D(60,53,58,61)        177.2249         estimate D2E/DX2                !
 ! D258  D(60,53,58,64)        -60.0914         estimate D2E/DX2                !
 ! D259  D(60,53,58,65)         56.7395         estimate D2E/DX2                !
 ! D260  D(52,55,61,58)         55.2814         estimate D2E/DX2                !
 ! D261  D(52,55,61,66)        177.9327         estimate D2E/DX2                !
 ! D262  D(52,55,61,67)        -64.9382         estimate D2E/DX2                !
 ! D263  D(62,55,61,58)        177.6599         estimate D2E/DX2                !
 ! D264  D(62,55,61,66)        -59.6888         estimate D2E/DX2                !
 ! D265  D(62,55,61,67)         57.4403         estimate D2E/DX2                !
 ! D266  D(63,55,61,58)        -65.313          estimate D2E/DX2                !
 ! D267  D(63,55,61,66)         57.3383         estimate D2E/DX2                !
 ! D268  D(63,55,61,67)        174.4674         estimate D2E/DX2                !
 ! D269  D(53,58,61,55)        -54.6795         estimate D2E/DX2                !
 ! D270  D(53,58,61,66)       -177.3067         estimate D2E/DX2                !
 ! D271  D(53,58,61,67)         65.4965         estimate D2E/DX2                !
 ! D272  D(64,58,61,55)       -177.0684         estimate D2E/DX2                !
 ! D273  D(64,58,61,66)         60.3044         estimate D2E/DX2                !
 ! D274  D(64,58,61,67)        -56.8924         estimate D2E/DX2                !
 ! D275  D(65,58,61,55)         65.7203         estimate D2E/DX2                !
 ! D276  D(65,58,61,66)        -56.9069         estimate D2E/DX2                !
 ! D277  D(65,58,61,67)       -174.1036         estimate D2E/DX2                !
 --------------------------------------------------------------------------------
 Trust Radius=3.00D-01 FncErr=5.00D-06 GrdErr=5.00D-06 EigMax=2.50D+02 EigMin=1.00D-04
 Number of steps in this run=    570 maximum allowed number of steps=    570.
 GradGradGradGradGradGradGradGradGradGradGradGradGradGradGradGradGradGrad

 Leave Link  103 at Fri Dec 21 14:16:33 2018, MaxMem=  1342177280 cpu:               0.5 elap:               0.1
 (Enter /gpfs/apps/hpc/Apps/Restricted/Gaussian/Rev_A.03/g16/l202.exe)
 Symmetry turned off by external request.
 Stoichiometry    C42H45N7O(1+,2)
 Framework group  C1[X(C42H45N7O)]
 Deg. of freedom   279
 Full point group                 C1      NOp   1
                          Input orientation:                          
 ---------------------------------------------------------------------
 Center     Atomic      Atomic             Coordinates (Angstroms)
 Number     Number       Type             X           Y           Z
 ---------------------------------------------------------------------
      1          6           0        1.590076    0.353309    1.105904
      2          6           0        0.492351    1.177945    0.812503
      3          6           0        0.633962    2.557454    0.672190
      4          6           0        1.919519    3.068944    0.838583
      5          6           0        3.019434    2.246619    1.133778
      6          6           0        2.885387    0.861050    1.276796
      7          6           0       -0.213832   -0.944387    0.938511
      8          1           0       -0.211686    3.191796    0.441712
      9          1           0        2.079306    4.134964    0.735069
     10          1           0        3.997295    2.698653    1.245443
     11          6           0       -2.484304   -1.841410    0.623100
     12          6           0       -3.387661   -2.934367    0.591313
     13          6           0       -2.979665   -4.244318    0.835453
     14          6           0       -1.628403   -4.443541    1.120011
     15          6           0       -0.711583   -3.382115    1.155355
     16          6           0       -1.118147   -2.065080    0.912626
     17          6           0       -4.417542   -1.020855    0.136819
     18          1           0       -3.678857   -5.070455    0.808031
     19          1           0       -1.271294   -5.446508    1.316902
     20          1           0        0.327271   -3.590642    1.378654
     21          7           0       -0.600436    0.329673    0.722078
     22          6           0       -6.842799   -0.603090   -0.456427
     23          6           0       -5.483757   -0.102899   -0.211715
     24          6           0       -5.201471    1.250854   -0.316407
     25          6           0       -6.192369    2.175159   -0.667828
     26          6           0       -7.506448    1.696029   -0.926320
     27          6           0       -7.869415    0.373394   -0.842298
     28          1           0       -4.190074    1.578375   -0.122265
     29          1           0       -8.254886    2.423672   -1.206294
     30          6           0       -5.915115    3.669325   -0.781606
     31          6           0       -9.288102   -0.101067   -1.149020
     32          8           0       -7.104696   -1.829519   -0.342165
     33          7           0       -3.139247   -0.669561    0.341904
     34          7           0       -4.599892   -2.368266    0.281083
     35          7           0        1.113270   -0.943128    1.173115
     36          6           0        3.976165   -0.048739    1.581876
     37          7           0        3.831799   -1.371101    1.657056
     38          7           0        5.268419    0.344844    1.816342
     39          6           0        7.365048   -0.954931    2.352861
     40          6           0        7.787992   -2.275529    2.535078
     41          6           0        6.897020   -3.360529    2.434395
     42          6           0        5.547415   -3.176832    2.143046
     43          6           0        5.093317   -1.864573    1.951695
     44          6           0        6.003737   -0.788399    2.054525
     45          1           0        8.831818   -2.461089    2.763678
     46          1           0        7.275921   -4.364063    2.587369
     47          1           0        4.866719   -4.016370    2.069412
     48          6           0        8.271161    0.186719    2.472751
     49          1           0        9.313420   -0.055712    2.696045
     50          7           0        7.845137    1.386151    2.329888
     51          6           0        8.756791    2.522264    2.456255
     52          6           0       10.230957    2.216560    2.744199
     53          6           0        8.620235    3.394279    1.197032
     54          1           0        8.366469    3.114047    3.296901
     55          6           0       11.037725    3.513639    2.881653
     56          1           0       10.641782    1.615897    1.922677
     57          1           0       10.323367    1.618808    3.656847
     58          6           0        9.429924    4.688145    1.324462
     59          1           0        8.978007    2.815412    0.336744
     60          1           0        7.561478    3.610189    1.023471
     61          6           0       10.901751    4.395594    1.635753
     62          1           0       12.089900    3.278187    3.068716
     63          1           0       10.677712    4.068161    3.757125
     64          1           0        9.343141    5.274637    0.404349
     65          1           0        9.005162    5.297880    2.131818
     66          1           0       11.454890    5.330499    1.770534
     67          1           0       11.352947    3.877322    0.780308
     68          1           0       -1.580292    0.545535    0.516636
     69          1           0       -5.515798   -2.787873    0.147649
     70          1           0        1.737346   -1.726651    1.360575
     71          1           0        5.689365    1.267912    1.850279
     72          6           0       -9.248969   -1.098880   -2.329460
     73          1           0       -8.672350   -1.985926   -2.071166
     74          1           0      -10.268345   -1.402843   -2.583722
     75          1           0       -8.802008   -0.631607   -3.211162
     76          6           0      -10.205549    1.066200   -1.542560
     77          1           0      -11.203314    0.674855   -1.751737
     78          1           0      -10.295234    1.802486   -0.738870
     79          1           0       -9.851195    1.580211   -2.439877
     80          6           0       -9.895604   -0.782897    0.097174
     81          1           0       -9.311168   -1.651693    0.395491
     82          1           0       -9.936945   -0.082734    0.935857
     83          1           0      -10.916738   -1.103794   -0.126782
     84          6           0       -6.222936    4.124135   -2.225421
     85          1           0       -7.258799    3.916115   -2.502290
     86          1           0       -6.059635    5.201475   -2.312244
     87          1           0       -5.568269    3.618522   -2.939327
     88          6           0       -6.837215    4.426649    0.199678
     89          1           0       -6.667023    5.502185    0.103232
     90          1           0       -7.892424    4.233066   -0.004193
     91          1           0       -6.627858    4.135409    1.231720
     92          6           0       -4.457741    4.020198   -0.451412
     93          1           0       -4.197621    3.730977    0.570119
     94          1           0       -3.759671    3.532939   -1.137082
     95          1           0       -4.318358    5.099707   -0.542347
 ---------------------------------------------------------------------
 Rotational constants (GHZ):           0.1218692           0.0181002           0.0159097
 Leave Link  202 at Fri Dec 21 14:16:33 2018, MaxMem=  1342177280 cpu:               0.7 elap:               0.1
 (Enter /gpfs/apps/hpc/Apps/Restricted/Gaussian/Rev_A.03/g16/l301.exe)
 Standard basis: 6-31G(d,p) (6D, 7F)
 Ernie: Thresh=  0.10000D-02 Tol=  0.10000D-05 Strict=F.
   975 basis functions,  1715 primitive gaussians,   975 cartesian basis functions
   177 alpha electrons      176 beta electrons
       nuclear repulsion energy      5776.3785212781 Hartrees.
 IExCor=  402 DFT=T Ex+Corr=B3LYP ExCW=0 ScaHFX=  0.200000
 ScaDFX=  0.800000  0.720000  1.000000  0.810000 ScalE2=  1.000000  1.000000
 IRadAn=      5 IRanWt=     -1 IRanGd=            0 ICorTp=0 IEmpDi=141
 NAtoms=   95 NActive=   95 NUniq=   95 SFac= 1.00D+00 NAtFMM=   60 NAOKFM=T Big=T
 Integral buffers will be    131072 words long.
 Raffenetti 2 integral format.
 Two-electron integral symmetry is turned off.
 R6Disp:  Grimme-D3(BJ) Dispersion energy=       -0.2212845200 Hartrees.
 Nuclear repulsion after empirical dispersion term =     5776.1572367581 Hartrees.
 Using the following non-standard input for PCM:
 radii=bondi
 dis
 rep
 cav
 --- end of non-standard input.
 ------------------------------------------------------------------------------
 Polarizable Continuum Model (PCM)
 =================================
 Model                : C-PCM.
 Atomic radii         : Bondi.
 Polarization charges : Total charges.
 Charge compensation  : None.
 Solution method      : On-the-fly selection.
 Cavity type          : Scaled VdW (van der Waals Surface) (Alpha=1.100).
 Cavity algorithm     : GePol (No added spheres)
                        Default sphere list used, NSphG=   95.
                        Lebedev-Laikov grids with approx.  5.0 points / Ang**2.
                        Smoothing algorithm: York/Karplus (Gamma=1.0000).
                        Polarization charges: spherical gaussians, with
                                              point-specific exponents (IZeta= 3).
                        Self-potential: point-specific (ISelfS= 7).
                        Self-field    : sphere-specific E.n sum rule (ISelfD= 2).
 1st derivatives      : Analytical E(r).r(x)/FMM algorithm (CHGder, D1EAlg=3).
                        Cavity 1st derivative terms included.
 Solvent              : Dichloromethane, Eps=   8.930000 Eps(inf)=   2.028346
 ------------------------------------------------------------------------------
 GePol: Number of generator spheres                  =      95
 GePol: Total number of spheres                      =      95
 GePol: Number of exposed spheres                    =      95 (100.00%)
 GePol: Number of points                             =    6225
 GePol: Average weight of points                     =       0.12
 GePol: Minimum weight of points                     =   0.18D-10
 GePol: Maximum weight of points                     =    0.21770
 GePol: Number of points with low weight             =     441
 GePol: Fraction of low-weight points (<1% of avg)   =       7.08%
 GePol: Cavity surface area                          =    732.775 Ang**2
 GePol: Cavity volume                                =    721.704 Ang**3
 PCM non-electrostatic energy =         0.0318163773 Hartrees.
 Nuclear repulsion after PCM non-electrostatic terms =     5776.1890531355 Hartrees.
 Leave Link  301 at Fri Dec 21 14:16:34 2018, MaxMem=  1342177280 cpu:              11.1 elap:               0.7
 (Enter /gpfs/apps/hpc/Apps/Restricted/Gaussian/Rev_A.03/g16/l302.exe)
 NPDir=0 NMtPBC=     1 NCelOv=     1 NCel=       1 NClECP=     1 NCelD=      1
         NCelK=      1 NCelE2=     1 NClLst=     1 CellRange=     0.0.
 One-electron integrals computed using PRISM.
 NBasis=   975 RedAO= T EigKep=  2.70D-04  NBF=   975
 NBsUse=   975 1.00D-06 EigRej= -1.00D+00 NBFU=   975
 Precomputing XC quadrature grid using
 IXCGrd= 4 IRadAn=           5 IRanWt=          -1 IRanGd=           0 AccXCQ= 0.00D+00.
 Generated NRdTot=       0 NPtTot=           0 NUsed=           0 NTot=          32
 NSgBfM=   837   831   831   834   837 MxSgAt=    95 MxSgA2=    95.
 Leave Link  302 at Fri Dec 21 14:16:37 2018, MaxMem=  1342177280 cpu:              51.1 elap:               3.2
 (Enter /gpfs/apps/hpc/Apps/Restricted/Gaussian/Rev_A.03/g16/l303.exe)
 DipDrv:  MaxL=1.
[...]
 3,-0.00000279,-0.00000129,-0.00000125,0.00000023,-0.00000066,-0.000000
 34,-0.00000851,0.00003838,-0.00000025,-0.00004752,0.00003001,-0.000019
 17,0.00002468,-0.00003969,0.00000904,-0.00006115,-0.00001481,-0.000010
 11,0.00000865,0.00006698,-0.00000494,0.00002760,-0.00003466,0.00000503
 ,-0.00007747,0.00003544,0.00002643,0.00000137,0.00000248,-0.00000023,-
 0.00000172,0.00000131,-0.00000002,-0.00000239,0.00000119,-0.00000111,-
 0.00002427,0.00000640,-0.00003246,0.00000846,-0.00006006,-0.00005096,0
 .00000471,-0.00017831,-0.00000197,-0.00019545,-0.00018147,0.00047999,0
 .00019906,0.00011506,0.00046288,0.00002002,0.00013244,-0.00012762,0.00
 003868,0.00004744,0.00000125,-0.00080940,-0.00234121,0.00103970,0.0000
 0978,0.00000199,0.00002302,-0.00529740,0.00289943,0.00602628,-0.000018
 26,0.00001867,0.00000550,0.00001996,0.00008283,-0.00000399,0.00001176,
 0.00001923,-0.00001463,0.00000841,-0.00002527,0.00000883,-0.00001427,-
 0.00000124,-0.00000207,0.00000042,0.00000198,-0.00000036,-0.00000170,-
 0.00000114,0.00000034,-0.00000102,-0.00000119,0.00000033,-0.00000062,-
 0.00000017,-0.00000010,-0.00000001,-0.00000037,0.00000009,0.00000053,0
 .00000006,0.00000019,-0.00000026,0.00000071,-0.00000002,0.00000050,-0.
 00000115,0.00000012,-0.00000014,0.00000024,-0.00000017,0.00000002,0.00
 000001,-0.00000005,0.00000010,-0.00000011,-0.00000003,-0.00000002,-0.0
 0000015,-0.00000008,0.00000002,0.00000112,-0.00000017,0.00000011,-0.00
 000009,-0.00000008,0.00000049,-0.00000091,0.00000067,0.,0.00000019,-0.
 00000028,-0.00000009,-0.00000015,0.00000005,-0.00000058,0.00000002,-0.
 00000029,-0.00000013,-0.00000006,-0.00000004,0.00000003,0.00000005,-0.
 00000011,0.,0.00000003,-0.00000003,0.00000008,-0.00000012,0.00000015,0
 .00000005,0.00000003,-0.00000003,-0.00000006,0.00000006,0.00000006,0.0
 0000040,0.,-0.00000003,-0.00000012,0.00000009,-0.00000005,0.00000015,-
 0.00000008,0.00000007,-0.00000007,0.00000004,0.00000004,-0.00000010,-0
 .00000020,0.00000019,-0.00000002,0.00000002,-0.00000004,0.00000006,0.,
 0.00000002,0.00000001,-0.00000002,0.00000001,0.00013618,-0.00008982,-0
 .00003137,0.00001079,-0.00001437,0.00000496,0.00000448,-0.00000140,0.0
 0000041,-0.00000027,0.00000047,-0.00000060,0.00001348,0.00000097,-0.00
 000654,-0.00000246,-0.00000337,-0.00000205,0.00000378,0.00000362,0.000
 00627,-0.00000068,-0.00000128,0.00000157,0.00000393,0.00000717,0.00000
 007,0.00000501,0.00000054,0.00000112,-0.00000043,0.,0.00000223,-0.0000
 0050,-0.00000161,-0.00000214,0.00000402,-0.00000010,0.00000942,-0.0000
 0354,-0.00000155,0.00000165,0.00000011,-0.00000128,-0.00000120,0.00000
 521,0.00000159,-0.00000325,0.00028550,0.00003696,0.00015653,-0.0000139
 5,-0.00005341,0.00018483,-0.00001313,-0.00001279,-0.00006767,0.0002793
 5,-0.00022158,0.00018264,-0.00095410,-0.00000086,-0.00008007,-0.000160
 17,0.00039450,0.00008139,-0.00025614,0.00057928,0.00000904,-0.00000201
 ,-0.00012378,-0.00020457,0.07631241,-0.10204753,-0.07692303,-0.0068288
 9,0.00372973,0.00596399,-0.08283999,0.10980037,0.00000147,-0.00000289,
 -0.00000021,0.00000086,-0.00000368,-0.00000229,-0.00003803,0.00005270,
 0.00003654,0.00000582,-0.00001590,0.00000540,0.00000309,0.00000522,-0.
 00000003,-0.00000147,-0.00000124,0.00000019,-0.00002101,0.00002134,-0.
 00000747,0.00009914,0.00000085,-0.00004912,-0.00000130,0.00000017,-0.0
 0000020,0.00000291,-0.00000102,0.00000035,-0.00000967,0.00000217,-0.00
 000457,0.00001540,-0.00004012,0.00000685,-0.00001588,0.00002300,-0.000
 00668,0.00002958,0.00000480,0.00000543,-0.00000257,-0.00002644,0.00000
 261,-0.00001086,0.00000666,-0.00000151,-0.00001282,0.00007147,0.000017
 27,-0.00000078,-0.00000262,0.00000004,0.00000142,-0.00000180,0.0000004
 5,0.00000195,-0.00000025,0.00000038,-0.00001022,0.00001449,-0.00005392
 ,0.00013771,-0.00006953,0.00000065,-0.00042947,0.00005268,-0.00012734,
 0.00071780,-0.00028066,0.00059563,0.00026892,-0.00018424,0.00019553,0.
 00003642,0.00020813,-0.00010493,-0.00000042,-0.00001109,0.00000069,-0.
 00025037,0.00088942,-0.00074433,-0.00003905,0.00001091,0.00000099,-0.0
 0488453,0.00448228,0.00377328,0.00000609,0.00001027,0.00000677,-0.0000
 9021,-0.00006465,-0.00000722,0.00003518,-0.00003164,0.00001976,-0.0000
 0142,-0.00002223,0.00000616,0.00002419,-0.00000955,0.00000620,-0.00001
 037,0.00000244,-0.00000277,0.00000351,-0.00000129,0.00000136,0.0000043
 1,0.00000042,0.00000132,-0.00000307,0.00000257,-0.00000083,0.00000062,
 -0.00000626,0.00000061,0.00000633,0.00000175,0.00000125,-0.00000276,0.
 00000477,-0.00000087,0.00000152,-0.00000171,0.00000047,0.00000469,-0.0
 0000120,0.00000093,0.00000049,-0.00000016,0.00000011,0.00000033,-0.000
 00043,0.00000005,-0.00000043,-0.00000004,-0.00000015,-0.00000249,-0.00
 000237,-0.00000040,0.00000075,-0.00000003,0.00000008,0.00000193,0.0000
 0199,0.00000045,-0.00000101,-0.00000104,-0.00000043,0.00000011,0.00000
 057,0.00000004,-0.00000023,0.00000019,0.00000026,0.00000024,0.00000035
 ,0.00000015,0.00000006,-0.00000042,-0.00000017,-0.00000001,0.,0.000000
 06,0.00000004,-0.00000010,0.,-0.00000010,-0.00000035,-0.00000026,-0.00
 000008,0.00000004,0.00000002,0.00000052,-0.00000023,0.00000006,-0.0000
 0014,0.00000020,0.00000006,0.00000039,0.00000007,0.00000009,-0.0000001
 0,0.00000013,0.00000009,0.00000002,0.00000014,-0.00000004,-0.00000002,
 0.00000010,0.00000010,0.00000029,0.00000023,0.00000002,-0.00000002,-0.
 00000009,0.,0.00004364,-0.00003641,-0.00000736,0.00000453,0.00000901,-
 0.00000155,-0.00000682,0.00000466,-0.00000254,-0.00000311,-0.00000133,
 -0.00000103,-0.00000798,0.00000168,0.00000292,0.00000199,0.00000307,0.
 00000220,-0.00000225,-0.00000223,-0.00000319,0.00000048,0.00000027,0.0
 0000001,-0.00000634,-0.00000926,-0.00000133,-0.00000294,0.00000153,-0.
 00000105,0.00000072,0.00000136,0.00000060,0.00000048,0.00000061,0.0000
 0006,-0.00000726,-0.00000178,-0.00000808,0.00000242,0.00000278,-0.0000
 0232,-0.00000009,0.00000139,0.00000172,-0.00000438,-0.00000154,0.00000
 301,-0.00060175,0.00042263,0.00080412,0.00012611,0.00005551,0.00019837
 ,0.00005991,0.00005740,-0.00005321,0.00021613,-0.00004103,-0.00034290,
 -0.00098387,0.00009863,0.00040779,-0.00008095,-0.00009256,-0.00012059,
 -0.00023117,-0.00007776,0.00049651,-0.00016414,-0.00000861,0.00027596,
 0.10610533,-0.07639602,-0.15599316,0.01881795,-0.01425656,-0.01714221,
 -0.11563568,0.08354262,0.16579837,0.00000533,0.00000828,0.,0.00001582,
 0.00000927,0.00000203,-0.00000534,-0.00000877,0.00000021,0.00000967,0.
 00000279,0.00000150,-0.00000337,0.00000817,-0.00000145,-0.00000611,-0.
 00000367,-0.00000062,-0.00002589,-0.00003871,-0.00000003,0.00008415,-0
 .00006682,0.00001664,-0.00000277,0.00000171,-0.00000071,0.00000025,0.0
 0000050,-0.00000003,0.00004537,-0.00005604,0.00001646,0.00005801,-0.00
 002917,0.00001566,-0.00002733,0.00004682,-0.00001126,0.00007568,0.0000
 1958,0.00001177,-0.00001314,-0.00008647,0.00000833,-0.00003793,0.00004
 388,-0.00001232,-0.00002824,-0.00004112,-0.00000803,-0.00000203,-0.000
 00235,-0.00000016,0.00000209,-0.00000162,0.00000057,0.00000286,-0.0000
 0085,0.00000066,-0.00000265,0.00001386,-0.00000291,-0.00009226,0.00026
 224,-0.00005123,0.00033020,0.00000297,0.00005990,-0.00068338,0.0006484
 6,-0.00030113,-0.00615805,0.00037830,-0.00170694,0.00014708,-0.0021335
 8,0.00023331,-0.00045792,0.00004974,-0.00010942,0.00049192,0.00005583,
 0.00019586,0.00004645,0.00006232,-0.00000989,-0.00547992,-0.03142575,0
 .00269547,0.00007876,-0.00014497,0.00005392,0.00004992,-0.00019789,0.0
 0003915,-0.00002733,0.00002763,-0.00001089,0.00000838,0.00001352,0.000
 00107,0.00000748,-0.00000205,0.00000158,-0.00000296,0.00000096,-0.0000
 0075,0.00000085,-0.00000075,0.00000023,0.00000099,0.00000003,0.0000002
 8,-0.00000090,0.00000059,-0.00000025,0.00000009,-0.00000174,0.00000016
 ,0.00000180,0.00000053,0.00000034,-0.00000083,0.00000133,-0.00000027,0
 .00000086,-0.00000058,0.00000023,0.00000124,-0.00000044,0.00000029,0.0
 0000014,-0.00000003,0.00000003,0.00000010,-0.00000015,0.00000002,-0.00
 000014,-0.00000006,-0.00000002,-0.00000060,-0.00000029,-0.00000011,0.0
 0000022,-0.00000002,0.00000003,0.00000063,0.00000024,0.00000016,-0.000
 00028,-0.00000010,-0.00000010,-0.00000003,0.00000014,0.00000002,-0.000
 00025,0.00000012,0.00000005,0.00000002,0.00000004,-0.00000004,0.,-0.00
 000006,-0.00000005,0.00000002,-0.00000003,-0.00000002,0.00000003,-0.00
 000007,0.00000005,-0.00000004,-0.00000002,-0.00000003,0.00000002,-0.00
 000004,-0.00000004,0.00000021,0.00000001,0.00000003,-0.00000014,0.0000
 0004,0.00000002,0.00000015,-0.00000001,0.00000005,-0.00000004,0.000000
 02,-0.00000001,-0.00000004,-0.00000001,0.00000007,-0.00000001,-0.00000
 002,-0.00000008,0.00000008,0.00000007,0.00000002,0.00000004,-0.0000000
 5,-0.00000003,-0.00000171,-0.00002221,0.00000444,-0.00003044,0.0000262
 7,-0.00001074,-0.00000443,0.00000127,-0.00000077,-0.00000084,-0.000000
 09,-0.00000025,-0.00005679,0.00000837,0.00003027,0.00000526,0.00000239
 ,0.00000188,-0.00000944,-0.00001830,-0.00002398,0.00000361,0.00000373,
 -0.00000482,-0.00000598,-0.00003017,0.00000111,-0.00001820,-0.00000252
 ,-0.00000437,0.00000493,0.00000300,-0.00000530,0.00000236,0.00000513,0
 .00000660,-0.00004092,-0.00000484,-0.00005648,0.00000688,0.00000180,-0
 .00000051,0.00000032,0.00000494,0.00000571,-0.00002276,-0.00001357,0.0
 0002167,0.00107906,-0.00075524,0.00095872,0.00011282,0.00021241,0.0003
 3343,0.00041969,0.00070011,-0.00008821,-0.00003303,0.00007705,-0.00011
 647,0.00108016,-0.00115961,-0.00016242,-0.00058100,0.00070076,0.000017
 15,0.00033348,0.00015995,-0.00022959,-0.00007272,0.00009810,0.00008305
 ,-0.05040584,-0.02917849,0.00254077,0.00024311,0.00744100,0.00042355,0
 .00261160,0.02008720,-0.00321417,0.05697386,0.00001198,0.00000813,0.00
 000100,-0.00000789,-0.00000230,-0.00000129,-0.00000159,-0.00001035,0.0
 0000124,0.00001748,-0.00000025,0.00000320,-0.00000193,0.00002040,-0.00
 000266,-0.00001460,-0.00000789,-0.00000165,-0.00006354,-0.00004796,-0.
 00000569,-0.00001196,0.00000511,-0.00000461,0.00000214,0.00000281,0.00
 000016,0.00000128,0.00000047,0.00000019,0.00003129,-0.00005253,0.00001
 397,0.00008040,-0.00008326,0.00002577,-0.00005209,0.00008565,-0.000021
 50,0.00012771,0.00002908,0.00002036,-0.00001596,-0.00013672,0.00001423
 ,-0.00005187,0.00006890,-0.00001824,-0.00001026,0.00003594,-0.00000227
 ,-0.00000314,-0.00000515,-0.00000004,0.00000401,-0.00000323,0.00000126
 ,0.00000547,-0.00000224,0.00000135,0.00001604,0.00001854,0.00000158,0.
 00012611,0.00011006,0.00000399,-0.00025069,0.00025831,-0.00008592,0.00
 024023,-0.00027085,0.00012522,-0.00143936,0.00114309,-0.00045871,0.000
 29656,-0.00049326,0.00015973,-0.00018711,0.00004254,-0.00005368,-0.000
 42360,0.00019558,-0.00016030,-0.00004834,0.00008627,-0.00002016,-0.000
 50646,-0.00839496,0.00064587,0.00006801,-0.00006151,0.00002010,-0.0000
 8385,-0.00024112,0.00001517,0.00002286,-0.00000770,0.00000609,0.000007
 54,0.00000931,0.00000247,0.00003587,-0.00000240,0.00000676,-0.00000748
 ,-0.00000200,-0.00000142,0.00000464,0.00000143,0.00000066,0.00000460,0
 .00000239,0.00000071,-0.00000074,0.00000204,-0.00000033,0.00000037,-0.
 00000338,0.00000032,0.00000316,0.00000107,0.00000055,-0.00000140,0.000
 00181,-0.00000043,0.00000014,0.00000072,-0.00000003,0.00000295,-0.0000
 0076,0.00000072,0.00000029,-0.00000013,0.00000009,0.00000004,-0.000000
 12,0.00000002,-0.00000022,0.00000025,-0.00000004,-0.00000191,-0.000003
 57,-0.00000008,0.00000033,0.00000010,0.00000009,0.00000045,0.00000302,
 -0.00000042,-0.00000073,-0.00000127,-0.00000014,0.00000024,0.00000066,
 -0.00000010,0.00000086,0.00000003,0.00000058,0.00000038,0.00000043,0.0
 0000032,0.00000004,-0.00000044,-0.00000007,-0.00000005,0.00000002,0.00
 000015,-0.00000008,0.00000007,-0.00000021,-0.00000008,-0.00000043,-0.0
 0000036,-0.00000009,0.00000006,0.00000002,-0.00000030,-0.00000019,-0.0
 0000003,0.00000007,-0.00000003,0.00000011,0.00000004,0.00000018,-0.000
 00005,0.,0.00000010,0.00000012,0.00000015,0.00000036,-0.00000033,-0.00
 000003,0.00000016,0.00000033,0.00000017,0.00000021,-0.00000003,-0.0000
 0011,0.00000004,0.00000004,-0.00004629,-0.00001410,-0.00000864,-0.0000
 2438,0.00003744,-0.00001104,-0.00001187,0.00000469,-0.00000248,-0.0000
 0153,-0.00000185,-0.00000018,-0.00004787,0.00000512,0.00002286,0.00000
 670,0.00000667,0.00000513,-0.00001021,-0.00001487,-0.00001990,0.000003
 18,0.00000372,-0.00000288,-0.00001256,-0.00002791,0.00000026,-0.000016
 26,-0.00000084,-0.00000420,0.00000468,0.00000211,-0.00000399,0.0000028
 0,0.00000361,0.00000525,-0.00002734,-0.00000287,-0.00004238,0.00000913
 ,0.00000538,-0.00000350,0.00000075,0.00000449,0.00000400,-0.00001928,-
 0.00001010,0.00001473,0.00085469,0.00023699,0.00053800,-0.00004333,0.0
 0034386,-0.00004159,0.00017949,0.00034541,0.00000941,-0.00004863,-0.00
 000398,-0.00001821,0.00098596,0.00012682,-0.00013623,-0.00001468,0.000
 30361,0.00022617,-0.00004980,0.00035381,-0.00008789,-0.00005298,0.0000
 0533,-0.00000897,-0.03159820,-0.31248188,0.02289810,-0.00050803,-0.006
 74398,0.00027985,-0.00167647,-0.01260682,0.00163471,0.03423588,0.33782
 080,-0.00000006,0.00000098,-0.00000015,0.00000400,0.00000222,-0.000000
 06,-0.00000088,-0.00000062,0.00000047,0.00000019,0.00000060,0.00000013
 ,-0.00000048,-0.00000027,-0.00000024,0.00000012,0.00000002,0.00000013,
 0.00000068,-0.00000336,0.00000057,0.00003537,-0.00001390,0.00001360,-0
 .00000099,0.00000026,0.00000089,-0.00000010,0.00000008,0.00000016,0.00
 000611,-0.00000566,0.00000530,0.00000409,0.00000169,-0.00000285,-0.000
 00026,0.00000119,-0.00000147,0.00000344,0.00000125,0.00000048,-0.00000
 122,-0.00000488,0.00000069,-0.00000257,0.00000246,-0.00000174,-0.00001
 794,-0.00000744,0.00002726,-0.00000014,0.,0.00000002,0.00000001,0.,0.0
 0000030,0.00000007,0.00000004,0.00000004,-0.00000293,0.00000124,0.0000
 0267,-0.00002308,0.00004291,-0.00006174,0.00008115,-0.00003549,0.00010
 398,-0.00026448,0.00024024,0.00020976,-0.00146402,0.00002036,0.0000131
 8,-0.00008229,-0.00046446,0.00033323,-0.00008735,0.00001669,-0.0000529
 5,0.00024796,-0.00001967,-0.00027748,0.00000902,0.00001082,0.00003369,
 -0.00091864,-0.00723558,-0.00092895,0.00002643,-0.00003753,-0.00004203
 ,0.00002141,-0.00002320,0.00000899,-0.00000720,0.00000725,0.00000258,0
 .00000225,-0.00000034,0.00000296,-0.00000180,-0.00000025,-0.00000033,0
 .00000009,0.00000044,0.00000008,-0.00000027,-0.00000032,-0.00000015,-0
 .00000020,-0.00000025,-0.00000020,-0.00000012,-0.00000008,-0.00000001,
 0.,-0.00000003,-0.00000005,0.00000008,0.,-0.00000003,-0.00000003,0.000
 00009,-0.00000005,0.00000018,-0.00000019,0.00000010,-0.00000004,0.,0.0
 0000003,0.,0.00000001,0.00000004,0.00000001,-0.00000002,0.00000004,-0.
 00000001,-0.00000004,0.00000004,0.00000006,0.00000032,0.,0.,-0.0000000
 1,0.00000005,0.00000014,-0.00000027,-0.00000016,-0.00000006,0.00000015
 ,0.00000019,-0.00000003,-0.00000003,0.00000004,-0.00000014,0.00000004,
 0.00000001,-0.00000002,-0.00000008,-0.00000012,-0.00000005,0.00000006,
 0.00000008,0.00000004,-0.00000005,-0.00000006,0.,0.00000003,-0.0000000
 1,-0.00000004,0.00000006,0.00000020,0.00000008,-0.00000008,-0.00000007
 ,0.00000003,0.00000003,0.00000008,-0.00000002,0.00000004,0.00000002,0.
 00000002,0.,0.,0.00000002,-0.00000005,-0.00000008,0.,0.00000004,-0.000
 00003,0.00000002,-0.00000008,-0.00000012,-0.00000003,-0.00000001,0.000
 00002,0.00000006,-0.00000005,-0.00000006,0.00000606,-0.00000383,-0.000
 00754,-0.00000524,0.00000250,-0.00000124,0.00000023,-0.00000018,0.,-0.
 00000007,0.00000019,0.00000023,-0.00002330,-0.00000111,0.00000362,0.00
 000158,-0.00000055,0.00000083,-0.00000170,-0.00000592,-0.00000736,0.00
 000064,0.00000079,-0.00000057,-0.00000099,-0.00000436,0.00000333,-0.00
 000280,-0.00000066,-0.00000105,0.00000081,0.00000057,-0.00000144,0.000
 00063,0.00000068,0.00000076,0.00000561,0.00000261,-0.00000538,-0.00000
 061,0.00000023,0.00000059,-0.00000018,0.00000066,0.00000139,-0.0000014
 1,-0.00000053,0.00000070,-0.00032035,-0.00107736,0.00022512,0.00017513
 ,0.00003011,0.00005059,0.00001104,0.00054150,-0.00046884,-0.00001013,-
 0.00002415,-0.00004115,0.00054499,0.00031225,-0.00010869,0.00009115,0.
 00000157,0.00003158,-0.00002093,-0.00003574,-0.00014958,-0.00001985,0.
 00004626,-0.00000619,0.00290564,0.02369183,-0.04930730,0.00412584,0.03
 018239,-0.00089076,-0.00338983,-0.02067700,0.00211584,-0.00163763,-0.0
 2548009,0.04917159\\0.00000075,-0.00000112,-0.00000216,-0.00000019,0.0
 0000008,0.00000177,-0.00000206,0.00000062,0.00000883,-0.00000307,0.000
 00054,0.00001132,-0.00000073,0.00000088,0.00000734,0.00000015,0.000000
 48,0.00000023,0.00000135,-0.00000190,-0.00000905,-0.00000228,0.0000005
 8,0.00001209,-0.00000339,0.00000232,0.00001660,-0.00000250,0.00000104,
 0.00000935,0.00000320,-0.00000202,-0.00001321,0.00000346,-0.00000376,-
 0.00001878,0.00000616,-0.00000393,-0.00002480,0.00000486,-0.00000400,-
 0.00002641,0.00000503,-0.00000313,-0.00002082,0.00000295,-0.00000250,-
 0.00001412,0.00000233,-0.00000221,-0.00000884,0.00000611,-0.00000481,-
 0.00002929,0.00000678,-0.00000485,-0.00003117,0.00000441,-0.00000327,-
 0.00002202,-0.00000034,-0.00000132,-0.00000228,0.00000163,-0.00000160,
 -0.00000662,-0.00000003,-0.00000218,-0.00000443,0.00000055,-0.00000012
 ,0.00000279,-0.00000201,0.00000009,0.00000701,-0.00000109,-0.00000073,
 0.00000482,0.00000105,-0.00000104,-0.00000172,-0.00000121,-0.00000075,
 0.00000401,-0.00000196,0.00000066,0.00000839,-0.00000288,0.00000067,0.
 00001450,0.00000036,-0.00000055,-0.00000455,0.00000257,-0.00000246,-0.
 00001288,0.00000213,-0.00000146,-0.00000707,0.00000238,-0.00000396,-0.
 00001567,0.00000210,-0.00000101,-0.00000865,0.00000020,-0.00000126,-0.
 00000467,0.00000206,-0.00000047,-0.00001092,0.00000111,0.00000059,-0.0
 0000220,0.00000129,-0.00000063,-0.00000898,0.00000374,-0.00000078,-0.0
 0001562,0.00000387,-0.00000141,-0.00002122,0.00000502,-0.00000099,-0.0
 0001993,0.00000296,-0.00000167,-0.00001358,0.00000265,-0.00000101,-0.0
 0000797,0.00000346,-0.00000116,-0.00001664,0.00000565,-0.00000221,-0.0
 0002606,0.00000482,-0.00000228,-0.00002435,0.00000092,-0.00000010,-0.0
 0000342,0.00000073,-0.00000023,-0.00000466,-0.00000041,-0.00000035,0.0
 0000257,-0.00000123,-0.00000022,0.00000843,-0.00000177,0.00000003,0.00
 000620,-0.00000356,0.00000680,0.00001275,-0.00000257,-0.00000399,0.000
 01157,-0.00000232,0.00000072,0.00001315,-0.00000092,0.00000521,0.00000
 398,-0.00000079,-0.00000407,0.00000389,-0.00000372,0.00000666,0.000018
 87,-0.00000209,0.00001108,0.00000975,-0.00000261,0.00000606,0.00001386
 ,-0.00000361,0.00000707,0.00001738,-0.00000275,0.00000089,0.00001196,-
 0.00000348,-0.00000410,0.00001622,-0.00000480,0.00001108,0.00002227,-0
 .00000490,0.00000225,0.00002234,-0.00000495,0.00000643,0.00002239,-0.0
 0000346,0.00001141,0.00001517,0.00000066,-0.00000110,-0.00000107,0.000
 00454,-0.00000308,-0.00001768,0.00000272,-0.00000172,-0.00001264,-0.00
 000066,-0.00000010,0.00000210,0.00000246,0.00000552,-0.00000946,0.0000
 0297,0.00000419,-0.00001371,0.00000199,0.00000510,-0.00001064,0.000001
 14,0.00000962,-0.00000640,-0.00000071,0.00000006,0.00000219,0.00000006
 ,0.00000002,-0.00000021,-0.00000104,-0.00000425,0.00000522,-0.00000085
 ,0.00000491,0.00000423,0.00000181,-0.00000792,-0.00000727,0.00000253,-
 0.00000866,-0.00001193,0.00000090,-0.00001205,-0.00000401,0.00000206,-
 0.00000774,-0.00000912,-0.00000359,0.00000734,0.00001686,-0.00000356,0
 .00000803,0.00001590,-0.00000478,0.00000852,0.00002229,-0.00000322,0.0
 0001218,0.00001452,-0.00000370,-0.00000521,0.00001842,-0.00000503,-0.0
 0000424,0.00002391,-0.00000392,-0.00000517,0.00001752,-0.00000356,-0.0
 0000993,0.00001710,-0.00000357,0.00000117,0.00001638,-0.00000319,-0.00
 000415,0.00001491,-0.00000298,0.00000491,0.00001385,-0.00000459,0.0000
 0111,0.00002171\\\@


 WE DON'T KNOW ONE MILLIONTH OF ONE PERCENT ABOUT
 ANYTHING.
                                     T. A. EDISON.
 Job cpu time:       2 days  0 hours 59 minutes 36.9 seconds.
 Elapsed time:       0 days  3 hours  4 minutes 10.5 seconds.
 File lengths (MBytes):  RWF=  17304 Int=      0 D2E=      0 Chk=    140 Scr=      8
 Normal termination of Gaussian 16 at Fri Dec 21 17:32:49 2018.
