 Entering Gaussian System, Link 0=g16
 Initial command:
 /gpfs/apps/hpc/Apps/Restricted/Gaussian/Rev_A.03/g16/l1.exe "/gpfs/scratch60/fas/hammes_schiffer/jg2487/c43n04/Gau-341446.inp" -scrdir="/gpfs/scratch60/fas/hammes_schiffer/jg2487/c43n04/"
 Entering Link 1 = /gpfs/apps/hpc/Apps/Restricted/Gaussian/Rev_A.03/g16/l1.exe PID=    341447.
  
 Copyright (c) 1988,1990,1992,1993,1995,1998,2003,2009,2016,
            Gaussian, Inc.  All Rights Reserved.
  
 This is part of the Gaussian(R) 16 program.  It is based on
 the Gaussian(R) 09 system (copyright 2009, Gaussian, Inc.),
 the Gaussian(R) 03 system (copyright 2003, Gaussian, Inc.),
 the Gaussian(R) 98 system (copyright 1998, Gaussian, Inc.),
 the Gaussian(R) 94 system (copyright 1995, Gaussian, Inc.),
 the Gaussian 92(TM) system (copyright 1992, Gaussian, Inc.),
 the Gaussian 90(TM) system (copyright 1990, Gaussian, Inc.),
 the Gaussian 88(TM) system (copyright 1988, Gaussian, Inc.),
 the Gaussian 86(TM) system (copyright 1986, Carnegie Mellon
 University), and the Gaussian 82(TM) system (copyright 1983,
 Carnegie Mellon University). Gaussian is a federally registered
 trademark of Gaussian, Inc.
  
 This software contains proprietary and confidential information,
 including trade secrets, belonging to Gaussian, Inc.
  
 This software is provided under written license and may be
 used, copied, transmitted, or stored only in accord with that
 written license.
  
 The following legend is applicable only to US Government
 contracts under FAR:
  
                    RESTRICTED RIGHTS LEGEND
  
 Use, reproduction and disclosure by the US Government is
 subject to restrictions as set forth in subparagraphs (a)
 and (c) of the Commercial Computer Software - Restricted
 Rights clause in FAR 52.227-19.
  
 Gaussian, Inc.
 340 Quinnipiac St., Bldg. 40, Wallingford CT 06492
  
  
 ---------------------------------------------------------------
 Warning -- This program may not be used in any manner that
 competes with the business of Gaussian, Inc. or will provide
 assistance to any competitor of Gaussian, Inc.  The licensee
 of this program is prohibited from giving any competitor of
 Gaussian, Inc. access to this program.  By using this program,
 the user acknowledges that Gaussian, Inc. is engaged in the
 business of creating and licensing software in the field of
 computational chemistry and represents and warrants to the
 licensee that it is not a competitor of Gaussian, Inc. and that
 it will not use this program in any manner prohibited above.
 ---------------------------------------------------------------
  

 Cite this work as:
 Gaussian 16, Revision A.03,
 M. J. Frisch, G. W. Trucks, H. B. Schlegel, G. E. Scuseria, 
 M. A. Robb, J. R. Cheeseman, G. Scalmani, V. Barone, 
 G. A. Petersson, H. Nakatsuji, X. Li, M. Caricato, A. V. Marenich, 
 J. Bloino, B. G. Janesko, R. Gomperts, B. Mennucci, H. P. Hratchian, 
 J. V. Ortiz, A. F. Izmaylov, J. L. Sonnenberg, D. Williams-Young, 
 F. Ding, F. Lipparini, F. Egidi, J. Goings, B. Peng, A. Petrone, 
 T. Henderson, D. Ranasinghe, V. G. Zakrzewski, J. Gao, N. Rega, 
 G. Zheng, W. Liang, M. Hada, M. Ehara, K. Toyota, R. Fukuda, 
 J. Hasegawa, M. Ishida, T. Nakajima, Y. Honda, O. Kitao, H. Nakai, 
 T. Vreven, K. Throssell, J. A. Montgomery, Jr., J. E. Peralta, 
 F. Ogliaro, M. J. Bearpark, J. J. Heyd, E. N. Brothers, K. N. Kudin, 
 V. N. Staroverov, T. A. Keith, R. Kobayashi, J. Normand, 
 K. Raghavachari, A. P. Rendell, J. C. Burant, S. S. Iyengar, 
 J. Tomasi, M. Cossi, J. M. Millam, M. Klene, C. Adamo, R. Cammi, 
 J. W. Ochterski, R. L. Martin, K. Morokuma, O. Farkas, 
 J. B. Foresman, and D. J. Fox, Gaussian, Inc., Wallingford CT, 2016.
 
 ******************************************
 Gaussian 16:  ES64L-G16RevA.03 25-Dec-2016
                20-Dec-2018 
 ******************************************
 %chk=cyclohexyl-triBIP-E2PT.chk
 %mem=10GB
 %nprocshared=16
 Will use up to   16 processors via shared memory.
 ----------------------------------------------------------------------
 #p opt=tight freq=internalmodes b3lyp/6-31g(d,p) scrf=(cpcm,solvent=di
 chloromethane,read) nosymm empiricaldispersion=gd3bj int=grid=ultrafin
 e
 ----------------------------------------------------------------------
 1/7=10,18=20,19=15,26=6,38=1,40=2/1,3;
 2/9=110,12=2,15=1,17=6,18=5,40=1/2;
 3/5=1,6=6,7=101,11=2,25=1,30=1,70=2103,71=1,72=9,74=-5,75=-5,124=41/1,2,3;
 4//1;
 5/5=2,38=5,53=9/2;
 6/7=2,8=2,9=2,10=2,28=1/1;
 7/30=1/1,2,3,16;
 1/7=10,18=20,19=15,26=6/3(2);
 2/9=110,15=1/2;
 99//99;
 2/9=110,15=1/2;
 3/5=1,6=6,7=101,11=2,25=1,30=1,70=2105,71=1,72=9,74=-5,75=-5,124=41/1,2,3;
 4/5=5,16=3,69=1/1;
 5/5=2,38=5,53=9/2;
 7/30=1/1,2,3,16;
 1/7=10,18=20,19=15,26=6/3(-5);
 2/9=110,15=1/2;
 6/7=2,8=2,9=2,10=2,19=2,28=1/1;
 99/9=1/99;
 Leave Link    1 at Thu Dec 20 18:32:34 2018, MaxMem=  1342177280 cpu:               7.9 elap:               0.5
 (Enter /gpfs/apps/hpc/Apps/Restricted/Gaussian/Rev_A.03/g16/l101.exe)
 ----------------------------------------------------------------------
 cyclohexylimine triBIP oxidized, first two protons transferred optimiz
 ation
 ----------------------------------------------------------------------
 Symbolic Z-matrix:
 Charge =  1 Multiplicity = 2
 C                     1.63977   0.42399   0.89753 
 C                     0.55048   1.26104   0.60844 
 C                     0.71228   2.63721   0.45716 
 C                     2.00695   3.1306    0.60911 
 C                     3.09726   2.29532   0.90363 
 C                     2.94331   0.91326   1.05763 
 C                    -0.18399  -0.84961   0.77142 
 H                    -0.12426   3.28462   0.23167 
 H                     2.18093   4.19347   0.49588 
 H                     4.08328   2.73215   1.00395 
 C                    -2.47278  -1.739     0.55031 
 C                    -3.37578  -2.83284   0.57625 
 C                    -2.9608   -4.13911   0.82747 
 C                    -1.59926  -4.33744   1.05563 
 C                    -0.68254  -3.27635   1.03663 
 C                    -1.09713  -1.96238   0.78817 
 C                    -4.42336  -0.93025   0.12307 
 H                    -3.66286  -4.96321   0.84515 
 H                    -1.23482  -5.33726   1.25482 
 H                     0.36444  -3.48237   1.22025 
 N                    -0.5561    0.42652   0.54207 
 C                    -6.87755  -0.5697   -0.36409 
 C                    -5.518    -0.0387   -0.20588 
 C                    -5.28582   1.31641  -0.37634 
 C                    -6.32437   2.20305  -0.70848 
 C                    -7.64123   1.70192  -0.86631 
 C                    -7.94113   0.37056  -0.71172 
 H                    -4.27831   1.69591  -0.25365 
 H                    -8.4334    2.39998  -1.11685 
 C                    -6.04778   3.65886  -0.92241 
 C                    -9.32278  -0.1769   -0.8774 
 O                    -7.14544  -1.78988  -0.21063 
 N                    -3.13948  -0.57163   0.27047 
 N                    -4.59922  -2.27398   0.30399 
 N                     1.14617  -0.86414   0.98469 
 C                     4.01913  -0.01173   1.37094 
 N                     3.86261  -1.33411   1.40949 
 N                     5.30591   0.366     1.65666 
 C                     7.36923  -0.96535   2.24687 
 C                     7.7737   -2.29352   2.41514 
 C                     6.88121  -3.36872   2.24793 
 C                     5.54584  -3.16571   1.90804 
 C                     5.10996  -1.84506   1.73268 
 C                     6.02327  -0.77892   1.89619 
 H                     8.8041   -2.49371   2.68843 
 H                     7.24564  -4.37891   2.39099 
 H                     4.86082  -3.99636   1.78855 
 C                     8.27672   0.16261   2.45023 
 H                     9.30751  -0.1012    2.70016 
 N                     7.86756   1.37247   2.35193 
 C                     8.79192   2.48529   2.57295 
 C                     10.24024   2.13263   2.92938 
 C                     8.7438    3.40864   1.3439 
 H                     8.36809   3.05285   3.41433 
 C                     11.07374   3.39887   3.15708 
 H                     10.67951   1.54984   2.11045 
 H                     10.26667   1.49945   3.82156 
 C                     9.5808    4.67282   1.56401 
 H                     9.1289    2.85248   0.48016 
 H                     7.70195   3.66255   1.12556 
 C                     11.02632   4.33084   1.94164 
 H                     12.10769   3.12427   3.38763 
 H                     10.68676   3.93229   4.03442 
 H                     9.55906   5.29714   0.6658 
 H                     9.13028   5.26357   2.37131 
 H                     11.58949   5.24669   2.14644 
 H                     11.51464   3.83751   1.09195 
 H                    -1.53504   0.65705   0.35566 
 H                    -5.5207   -2.69587   0.21546 
 H                     1.7625   -1.6538    1.17269 
 H                     5.7237    1.28665   1.74435 
 C                    -9.36896  -1.1978   -2.02945 
 H                    -9.28149  -2.18762  -1.63259 
 H                    -10.29785  -1.10391  -2.55219 
 H                    -8.55963  -1.01119  -2.70403 
 C                    -10.32992   0.95117  -1.16848 
 H                    -11.31351   0.53832  -1.25222 
 H                    -10.30871   1.66307  -0.36995 
 H                    -10.06731   1.4359   -2.08553 
 C                    -9.76376  -0.9313    0.39068 
 H                    -9.48054  -1.96001   0.31033 
 H                    -9.2909   -0.49699   1.24665 
 H                    -10.82623  -0.86108   0.49613 
 C                    -5.89409   3.95048  -2.42672 
 H                    -6.86042   4.0972   -2.86213 
 H                    -5.30482   4.83352  -2.56047 
 H                    -5.41026   3.12333  -2.90277 
 C                    -7.21415   4.52408  -0.40999 
 H                    -6.89989   5.54492  -0.34645 
 H                    -8.03973   4.44648  -1.08623 
 H                    -7.51323   4.18201   0.55874 
 C                    -4.74517   4.09027  -0.22335 
 H                    -4.74814   3.73625   0.78639 
 H                    -3.90701   3.67631  -0.74396 
 H                    -4.67528   5.15798  -0.22676 
 
 ITRead=  0  0  0  0  0  0  0  0  0  0  0  0  0  0  0  0  0  0  0  0
 ITRead=  0  0  0  0  0  0  0  0  0  0  0  0  0  0  0  0  0  0  0  0
 ITRead=  0  0  0  0  0  0  0  0  0  0  0  0  0  0  0  0  0  0  0  0
 ITRead=  0  0  0  0  0  0  0  0  0  0  0  0  0  0  0  0  0  0  0  0
 ITRead=  0  0  0  0  0  0  0  0  0  0  0  0  0  0  0
 MicOpt= -1 -1 -1 -1 -1 -1 -1 -1 -1 -1 -1 -1 -1 -1 -1 -1 -1 -1 -1 -1
 MicOpt= -1 -1 -1 -1 -1 -1 -1 -1 -1 -1 -1 -1 -1 -1 -1 -1 -1 -1 -1 -1
 MicOpt= -1 -1 -1 -1 -1 -1 -1 -1 -1 -1 -1 -1 -1 -1 -1 -1 -1 -1 -1 -1
 MicOpt= -1 -1 -1 -1 -1 -1 -1 -1 -1 -1 -1 -1 -1 -1 -1 -1 -1 -1 -1 -1
 MicOpt= -1 -1 -1 -1 -1 -1 -1 -1 -1 -1 -1 -1 -1 -1 -1
 NAtoms=     95 NQM=       95 NQMF=       0 NMMI=      0 NMMIF=      0
                NMic=       0 NMicF=      0.
                    Isotopes and Nuclear Properties:
 (Nuclear quadrupole moments (NQMom) in fm**2, nuclear magnetic moments (NMagM)
  in nuclear magnetons)

  Atom         1           2           3           4           5           6           7           8           9          10
 IAtWgt=          12          12          12          12          12          12          12           1           1           1
 AtmWgt=  12.0000000  12.0000000  12.0000000  12.0000000  12.0000000  12.0000000  12.0000000   1.0078250   1.0078250   1.0078250
 NucSpn=           0           0           0           0           0           0           0           1           1           1
 AtZEff=  -0.0000000  -0.0000000  -0.0000000  -0.0000000  -0.0000000  -0.0000000  -0.0000000  -0.0000000  -0.0000000  -0.0000000
 NQMom=    0.0000000   0.0000000   0.0000000   0.0000000   0.0000000   0.0000000   0.0000000   0.0000000   0.0000000   0.0000000
 NMagM=    0.0000000   0.0000000   0.0000000   0.0000000   0.0000000   0.0000000   0.0000000   2.7928460   2.7928460   2.7928460
 AtZNuc=   6.0000000   6.0000000   6.0000000   6.0000000   6.0000000   6.0000000   6.0000000   1.0000000   1.0000000   1.0000000

  Atom        11          12          13          14          15          16          17          18          19          20
 IAtWgt=          12          12          12          12          12          12          12           1           1           1
 AtmWgt=  12.0000000  12.0000000  12.0000000  12.0000000  12.0000000  12.0000000  12.0000000   1.0078250   1.0078250   1.0078250
 NucSpn=           0           0           0           0           0           0           0           1           1           1
 AtZEff=  -0.0000000  -0.0000000  -0.0000000  -0.0000000  -0.0000000  -0.0000000  -0.0000000  -0.0000000  -0.0000000  -0.0000000
 NQMom=    0.0000000   0.0000000   0.0000000   0.0000000   0.0000000   0.0000000   0.0000000   0.0000000   0.0000000   0.0000000
 NMagM=    0.0000000   0.0000000   0.0000000   0.0000000   0.0000000   0.0000000   0.0000000   2.7928460   2.7928460   2.7928460
 AtZNuc=   6.0000000   6.0000000   6.0000000   6.0000000   6.0000000   6.0000000   6.0000000   1.0000000   1.0000000   1.0000000

  Atom        21          22          23          24          25          26          27          28          29          30
 IAtWgt=          14          12          12          12          12          12          12           1           1          12
 AtmWgt=  14.0030740  12.0000000  12.0000000  12.0000000  12.0000000  12.0000000  12.0000000   1.0078250   1.0078250  12.0000000
 NucSpn=           2           0           0           0           0           0           0           1           1           0
 AtZEff=  -0.0000000  -0.0000000  -0.0000000  -0.0000000  -0.0000000  -0.0000000  -0.0000000  -0.0000000  -0.0000000  -0.0000000
 NQMom=    2.0440000   0.0000000   0.0000000   0.0000000   0.0000000   0.0000000   0.0000000   0.0000000   0.0000000   0.0000000
 NMagM=    0.4037610   0.0000000   0.0000000   0.0000000   0.0000000   0.0000000   0.0000000   2.7928460   2.7928460   0.0000000
 AtZNuc=   7.0000000   6.0000000   6.0000000   6.0000000   6.0000000   6.0000000   6.0000000   1.0000000   1.0000000   6.0000000

  Atom        31          32          33          34          35          36          37          38          39          40
 IAtWgt=          12          16          14          14          14          12          14          14          12          12
 AtmWgt=  12.0000000  15.9949146  14.0030740  14.0030740  14.0030740  12.0000000  14.0030740  14.0030740  12.0000000  12.0000000
 NucSpn=           0           0           2           2           2           0           2           2           0           0
 AtZEff=  -0.0000000  -0.0000000  -0.0000000  -0.0000000  -0.0000000  -0.0000000  -0.0000000  -0.0000000  -0.0000000  -0.0000000
 NQMom=    0.0000000   0.0000000   2.0440000   2.0440000   2.0440000   0.0000000   2.0440000   2.0440000   0.0000000   0.0000000
 NMagM=    0.0000000   0.0000000   0.4037610   0.4037610   0.4037610   0.0000000   0.4037610   0.4037610   0.0000000   0.0000000
 AtZNuc=   6.0000000   8.0000000   7.0000000   7.0000000   7.0000000   6.0000000   7.0000000   7.0000000   6.0000000   6.0000000

  Atom        41          42          43          44          45          46          47          48          49          50
 IAtWgt=          12          12          12          12           1           1           1          12           1          14
 AtmWgt=  12.0000000  12.0000000  12.0000000  12.0000000   1.0078250   1.0078250   1.0078250  12.0000000   1.0078250  14.0030740
 NucSpn=           0           0           0           0           1           1           1           0           1           2
 AtZEff=  -0.0000000  -0.0000000  -0.0000000  -0.0000000  -0.0000000  -0.0000000  -0.0000000  -0.0000000  -0.0000000  -0.0000000
 NQMom=    0.0000000   0.0000000   0.0000000   0.0000000   0.0000000   0.0000000   0.0000000   0.0000000   0.0000000   2.0440000
 NMagM=    0.0000000   0.0000000   0.0000000   0.0000000   2.7928460   2.7928460   2.7928460   0.0000000   2.7928460   0.4037610
 AtZNuc=   6.0000000   6.0000000   6.0000000   6.0000000   1.0000000   1.0000000   1.0000000   6.0000000   1.0000000   7.0000000

  Atom        51          52          53          54          55          56          57          58          59          60
 IAtWgt=          12          12          12           1          12           1           1          12           1           1
 AtmWgt=  12.0000000  12.0000000  12.0000000   1.0078250  12.0000000   1.0078250   1.0078250  12.0000000   1.0078250   1.0078250
 NucSpn=           0           0           0           1           0           1           1           0           1           1
 AtZEff=  -0.0000000  -0.0000000  -0.0000000  -0.0000000  -0.0000000  -0.0000000  -0.0000000  -0.0000000  -0.0000000  -0.0000000
 NQMom=    0.0000000   0.0000000   0.0000000   0.0000000   0.0000000   0.0000000   0.0000000   0.0000000   0.0000000   0.0000000
 NMagM=    0.0000000   0.0000000   0.0000000   2.7928460   0.0000000   2.7928460   2.7928460   0.0000000   2.7928460   2.7928460
 AtZNuc=   6.0000000   6.0000000   6.0000000   1.0000000   6.0000000   1.0000000   1.0000000   6.0000000   1.0000000   1.0000000

  Atom        61          62          63          64          65          66          67          68          69          70
 IAtWgt=          12           1           1           1           1           1           1           1           1           1
 AtmWgt=  12.0000000   1.0078250   1.0078250   1.0078250   1.0078250   1.0078250   1.0078250   1.0078250   1.0078250   1.0078250
 NucSpn=           0           1           1           1           1           1           1           1           1           1
 AtZEff=  -0.0000000  -0.0000000  -0.0000000  -0.0000000  -0.0000000  -0.0000000  -0.0000000  -0.0000000  -0.0000000  -0.0000000
 NQMom=    0.0000000   0.0000000   0.0000000   0.0000000   0.0000000   0.0000000   0.0000000   0.0000000   0.0000000   0.0000000
 NMagM=    0.0000000   2.7928460   2.7928460   2.7928460   2.7928460   2.7928460   2.7928460   2.7928460   2.7928460   2.7928460
 AtZNuc=   6.0000000   1.0000000   1.0000000   1.0000000   1.0000000   1.0000000   1.0000000   1.0000000   1.0000000   1.0000000

  Atom        71          72          73          74          75          76          77          78          79          80
 IAtWgt=           1          12           1           1           1          12           1           1           1          12
 AtmWgt=   1.0078250  12.0000000   1.0078250   1.0078250   1.0078250  12.0000000   1.0078250   1.0078250   1.0078250  12.0000000
 NucSpn=           1           0           1           1           1           0           1           1           1           0
 AtZEff=  -0.0000000  -0.0000000  -0.0000000  -0.0000000  -0.0000000  -0.0000000  -0.0000000  -0.0000000  -0.0000000  -0.0000000
 NQMom=    0.0000000   0.0000000   0.0000000   0.0000000   0.0000000   0.0000000   0.0000000   0.0000000   0.0000000   0.0000000
 NMagM=    2.7928460   0.0000000   2.7928460   2.7928460   2.7928460   0.0000000   2.7928460   2.7928460   2.7928460   0.0000000
 AtZNuc=   1.0000000   6.0000000   1.0000000   1.0000000   1.0000000   6.0000000   1.0000000   1.0000000   1.0000000   6.0000000

  Atom        81          82          83          84          85          86          87          88          89          90
 IAtWgt=           1           1           1          12           1           1           1          12           1           1
 AtmWgt=   1.0078250   1.0078250   1.0078250  12.0000000   1.0078250   1.0078250   1.0078250  12.0000000   1.0078250   1.0078250
 NucSpn=           1           1           1           0           1           1           1           0           1           1
 AtZEff=  -0.0000000  -0.0000000  -0.0000000  -0.0000000  -0.0000000  -0.0000000  -0.0000000  -0.0000000  -0.0000000  -0.0000000
 NQMom=    0.0000000   0.0000000   0.0000000   0.0000000   0.0000000   0.0000000   0.0000000   0.0000000   0.0000000   0.0000000
 NMagM=    2.7928460   2.7928460   2.7928460   0.0000000   2.7928460   2.7928460   2.7928460   0.0000000   2.7928460   2.7928460
 AtZNuc=   1.0000000   1.0000000   1.0000000   6.0000000   1.0000000   1.0000000   1.0000000   6.0000000   1.0000000   1.0000000

  Atom        91          92          93          94          95
 IAtWgt=           1          12           1           1           1
 AtmWgt=   1.0078250  12.0000000   1.0078250   1.0078250   1.0078250
 NucSpn=           1           0           1           1           1
 AtZEff=  -0.0000000  -0.0000000  -0.0000000  -0.0000000  -0.0000000
 NQMom=    0.0000000   0.0000000   0.0000000   0.0000000   0.0000000
 NMagM=    2.7928460   0.0000000   2.7928460   2.7928460   2.7928460
 AtZNuc=   1.0000000   6.0000000   1.0000000   1.0000000   1.0000000
 Leave Link  101 at Thu Dec 20 18:32:35 2018, MaxMem=  1342177280 cpu:               4.2 elap:               0.3
 (Enter /gpfs/apps/hpc/Apps/Restricted/Gaussian/Rev_A.03/g16/l103.exe)

 GradGradGradGradGradGradGradGradGradGradGradGradGradGradGradGradGradGrad
 Berny optimization.
 Initialization pass.
                           ----------------------------
                           !    Initial Parameters    !
                           ! (Angstroms and Degrees)  !
 --------------------------                            --------------------------
 ! Name  Definition              Value          Derivative Info.                !
 --------------------------------------------------------------------------------
 ! R1    R(1,2)                  1.4038         estimate D2E/DX2                !
 ! R2    R(1,6)                  1.4015         estimate D2E/DX2                !
 ! R3    R(1,35)                 1.3822         estimate D2E/DX2                !
 ! R4    R(2,3)                  1.3939         estimate D2E/DX2                !
 ! R5    R(2,21)                 1.3876         estimate D2E/DX2                !
 ! R6    R(3,4)                  1.3938         estimate D2E/DX2                !
 ! R7    R(3,8)                  1.0816         estimate D2E/DX2                !
 ! R8    R(4,5)                  1.4047         estimate D2E/DX2                !
 ! R9    R(4,9)                  1.0829         estimate D2E/DX2                !
 ! R10   R(5,6)                  1.3991         estimate D2E/DX2                !
 ! R11   R(5,10)                 1.0831         estimate D2E/DX2                !
 ! R12   R(6,36)                 1.453          estimate D2E/DX2                !
 ! R13   R(7,16)                 1.4396         estimate D2E/DX2                !
 ! R14   R(7,21)                 1.3489         estimate D2E/DX2                !
 ! R15   R(7,35)                 1.3472         estimate D2E/DX2                !
 ! R16   R(11,12)                1.4187         estimate D2E/DX2                !
 ! R17   R(11,16)                1.4138         estimate D2E/DX2                !
 ! R18   R(11,33)                1.3732         estimate D2E/DX2                !
 ! R19   R(12,13)                1.3934         estimate D2E/DX2                !
 ! R20   R(12,34)                1.3723         estimate D2E/DX2                !
 ! R21   R(13,14)                1.3947         estimate D2E/DX2                !
 ! R22   R(13,18)                1.0827         estimate D2E/DX2                !
 ! R23   R(14,15)                1.4024         estimate D2E/DX2                !
 ! R24   R(14,19)                1.0827         estimate D2E/DX2                !
 ! R25   R(15,16)                1.4            estimate D2E/DX2                !
 ! R26   R(15,20)                1.0827         estimate D2E/DX2                !
 ! R27   R(17,23)                1.4496         estimate D2E/DX2                !
 ! R28   R(17,33)                1.3411         estimate D2E/DX2                !
 ! R29   R(17,34)                1.3672         estimate D2E/DX2                !
 ! R30   R(21,68)                1.0228         estimate D2E/DX2                !
 ! R31   R(22,23)                1.4681         estimate D2E/DX2                !
 ! R32   R(22,27)                1.4616         estimate D2E/DX2                !
 ! R33   R(22,32)                1.2586         estimate D2E/DX2                !
 ! R34   R(23,24)                1.3854         estimate D2E/DX2                !
 ! R35   R(24,25)                1.4054         estimate D2E/DX2                !
 ! R36   R(24,28)                1.0836         estimate D2E/DX2                !
 ! R37   R(25,26)                1.4178         estimate D2E/DX2                !
 ! R38   R(25,30)                1.4972         estimate D2E/DX2                !
 ! R39   R(26,27)                1.3735         estimate D2E/DX2                !
 ! R40   R(26,29)                1.0852         estimate D2E/DX2                !
 ! R41   R(27,31)                1.4954         estimate D2E/DX2                !
 ! R42   R(30,84)                1.54           estimate D2E/DX2                !
 ! R43   R(30,88)                1.54           estimate D2E/DX2                !
 ! R44   R(30,92)                1.54           estimate D2E/DX2                !
 ! R45   R(31,72)                1.54           estimate D2E/DX2                !
 ! R46   R(31,76)                1.54           estimate D2E/DX2                !
 ! R47   R(31,80)                1.54           estimate D2E/DX2                !
 ! R48   R(34,69)                1.0173         estimate D2E/DX2                !
 ! R49   R(35,70)                1.0192         estimate D2E/DX2                !
 ! R50   R(36,37)                1.3322         estimate D2E/DX2                !
 ! R51   R(36,38)                1.3712         estimate D2E/DX2                !
 ! R52   R(37,43)                1.3861         estimate D2E/DX2                !
 ! R53   R(38,44)                1.3722         estimate D2E/DX2                !
 ! R54   R(38,71)                1.0148         estimate D2E/DX2                !
 ! R55   R(39,40)                1.3985         estimate D2E/DX2                !
 ! R56   R(39,44)                1.4033         estimate D2E/DX2                !
 ! R57   R(39,48)                1.4619         estimate D2E/DX2                !
 ! R58   R(40,41)                1.4073         estimate D2E/DX2                !
 ! R59   R(40,45)                1.0847         estimate D2E/DX2                !
 ! R60   R(41,42)                1.3928         estimate D2E/DX2                !
 ! R61   R(41,46)                1.0834         estimate D2E/DX2                !
 ! R62   R(42,43)                1.4017         estimate D2E/DX2                !
 ! R63   R(42,47)                1.0833         estimate D2E/DX2                !
 ! R64   R(43,44)                1.4133         estimate D2E/DX2                !
 ! R65   R(48,49)                1.093          estimate D2E/DX2                !
 ! R66   R(48,50)                1.281          estimate D2E/DX2                !
 ! R67   R(50,51)                1.4634         estimate D2E/DX2                !
 ! R68   R(51,52)                1.5327         estimate D2E/DX2                !
 ! R69   R(51,53)                1.538          estimate D2E/DX2                !
 ! R70   R(51,54)                1.0999         estimate D2E/DX2                !
 ! R71   R(52,55)                1.5329         estimate D2E/DX2                !
 ! R72   R(52,56)                1.0969         estimate D2E/DX2                !
 ! R73   R(52,57)                1.0944         estimate D2E/DX2                !
 ! R74   R(53,58)                1.532          estimate D2E/DX2                !
 ! R75   R(53,59)                1.0971         estimate D2E/DX2                !
 ! R76   R(53,60)                1.0943         estimate D2E/DX2                !
 ! R77   R(55,61)                1.5323         estimate D2E/DX2                !
 ! R78   R(55,62)                1.0944         estimate D2E/DX2                !
 ! R79   R(55,63)                1.0973         estimate D2E/DX2                !
 ! R80   R(58,61)                1.5327         estimate D2E/DX2                !
 ! R81   R(58,64)                1.0941         estimate D2E/DX2                !
 ! R82   R(58,65)                1.0971         estimate D2E/DX2                !
 ! R83   R(61,66)                1.0945         estimate D2E/DX2                !
 ! R84   R(61,67)                1.0972         estimate D2E/DX2                !
 ! R85   R(72,73)                1.07           estimate D2E/DX2                !
 ! R86   R(72,74)                1.07           estimate D2E/DX2                !
 ! R87   R(72,75)                1.07           estimate D2E/DX2                !
 ! R88   R(76,77)                1.07           estimate D2E/DX2                !
 ! R89   R(76,78)                1.07           estimate D2E/DX2                !
 ! R90   R(76,79)                1.07           estimate D2E/DX2                !
 ! R91   R(80,81)                1.07           estimate D2E/DX2                !
 ! R92   R(80,82)                1.07           estimate D2E/DX2                !
 ! R93   R(80,83)                1.07           estimate D2E/DX2                !
 ! R94   R(84,85)                1.07           estimate D2E/DX2                !
 ! R95   R(84,86)                1.07           estimate D2E/DX2                !
 ! R96   R(84,87)                1.07           estimate D2E/DX2                !
 ! R97   R(88,89)                1.07           estimate D2E/DX2                !
 ! R98   R(88,90)                1.07           estimate D2E/DX2                !
 ! R99   R(88,91)                1.07           estimate D2E/DX2                !
 ! R100  R(92,93)                1.07           estimate D2E/DX2                !
 ! R101  R(92,94)                1.07           estimate D2E/DX2                !
 ! R102  R(92,95)                1.07           estimate D2E/DX2                !
 ! A1    A(2,1,6)              122.4836         estimate D2E/DX2                !
 ! A2    A(2,1,35)             106.9519         estimate D2E/DX2                !
 ! A3    A(6,1,35)             130.5627         estimate D2E/DX2                !
 ! A4    A(1,2,3)              121.3969         estimate D2E/DX2                !
 ! A5    A(1,2,21)             105.667          estimate D2E/DX2                !
 ! A6    A(3,2,21)             132.9347         estimate D2E/DX2                !
 ! A7    A(2,3,4)              116.4543         estimate D2E/DX2                !
 ! A8    A(2,3,8)              121.5894         estimate D2E/DX2                !
 ! A9    A(4,3,8)              121.9561         estimate D2E/DX2                !
 ! A10   A(3,4,5)              122.2311         estimate D2E/DX2                !
 ! A11   A(3,4,9)              119.0291         estimate D2E/DX2                !
 ! A12   A(5,4,9)              118.7398         estimate D2E/DX2                !
 ! A13   A(4,5,6)              121.6721         estimate D2E/DX2                !
 ! A14   A(4,5,10)             119.0916         estimate D2E/DX2                !
 ! A15   A(6,5,10)             119.2334         estimate D2E/DX2                !
 ! A16   A(1,6,5)              115.7608         estimate D2E/DX2                !
 ! A17   A(1,6,36)             119.41           estimate D2E/DX2                !
 ! A18   A(5,6,36)             124.8282         estimate D2E/DX2                !
 ! A19   A(16,7,21)            123.9368         estimate D2E/DX2                !
 ! A20   A(16,7,35)            128.0318         estimate D2E/DX2                !
 ! A21   A(21,7,35)            108.0279         estimate D2E/DX2                !
 ! A22   A(12,11,16)           119.6322         estimate D2E/DX2                !
 ! A23   A(12,11,33)           110.4983         estimate D2E/DX2                !
 ! A24   A(16,11,33)           129.8681         estimate D2E/DX2                !
 ! A25   A(11,12,13)           122.4491         estimate D2E/DX2                !
 ! A26   A(11,12,34)           104.4676         estimate D2E/DX2                !
 ! A27   A(13,12,34)           133.0814         estimate D2E/DX2                !
 ! A28   A(12,13,14)           116.9702         estimate D2E/DX2                !
 ! A29   A(12,13,18)           121.557          estimate D2E/DX2                !
 ! A30   A(14,13,18)           121.4728         estimate D2E/DX2                !
 ! A31   A(13,14,15)           121.8934         estimate D2E/DX2                !
 ! A32   A(13,14,19)           119.3428         estimate D2E/DX2                !
 ! A33   A(15,14,19)           118.7638         estimate D2E/DX2                !
 ! A34   A(14,15,16)           121.2621         estimate D2E/DX2                !
 ! A35   A(14,15,20)           119.0667         estimate D2E/DX2                !
 ! A36   A(16,15,20)           119.671          estimate D2E/DX2                !
 ! A37   A(7,16,11)            119.5446         estimate D2E/DX2                !
 ! A38   A(7,16,15)            122.6629         estimate D2E/DX2                !
 ! A39   A(11,16,15)           117.7923         estimate D2E/DX2                !
 ! A40   A(23,17,33)           125.6877         estimate D2E/DX2                !
 ! A41   A(23,17,34)           122.5049         estimate D2E/DX2                !
 ! A42   A(33,17,34)           111.8021         estimate D2E/DX2                !
 ! A43   A(2,21,7)             109.9284         estimate D2E/DX2                !
 ! A44   A(2,21,68)            129.5261         estimate D2E/DX2                !
 ! A45   A(7,21,68)            120.5454         estimate D2E/DX2                !
 ! A46   A(23,22,27)           117.8298         estimate D2E/DX2                !
 ! A47   A(23,22,32)           122.3168         estimate D2E/DX2                !
 ! A48   A(27,22,32)           119.8534         estimate D2E/DX2                !
 ! A49   A(17,23,22)           120.086          estimate D2E/DX2                !
 ! A50   A(17,23,24)           120.1964         estimate D2E/DX2                !
 ! A51   A(22,23,24)           119.7173         estimate D2E/DX2                !
 ! A52   A(23,24,25)           121.4892         estimate D2E/DX2                !
 ! A53   A(23,24,28)           118.9776         estimate D2E/DX2                !
 ! A54   A(25,24,28)           119.5328         estimate D2E/DX2                !
 ! A55   A(24,25,26)           119.3208         estimate D2E/DX2                !
 ! A56   A(24,25,30)           120.7101         estimate D2E/DX2                !
 ! A57   A(26,25,30)           119.9578         estimate D2E/DX2                !
 ! A58   A(25,26,27)           122.2021         estimate D2E/DX2                !
 ! A59   A(25,26,29)           118.4478         estimate D2E/DX2                !
 ! A60   A(27,26,29)           119.3501         estimate D2E/DX2                !
 ! A61   A(22,27,26)           119.4379         estimate D2E/DX2                !
 ! A62   A(22,27,31)           117.5938         estimate D2E/DX2                !
 ! A63   A(26,27,31)           122.9678         estimate D2E/DX2                !
 ! A64   A(25,30,84)           110.0069         estimate D2E/DX2                !
 ! A65   A(25,30,88)           111.0284         estimate D2E/DX2                !
 ! A66   A(25,30,92)           111.333          estimate D2E/DX2                !
 ! A67   A(84,30,88)           107.1111         estimate D2E/DX2                !
 ! A68   A(84,30,92)           107.8158         estimate D2E/DX2                !
 ! A69   A(88,30,92)           109.4025         estimate D2E/DX2                !
 ! A70   A(27,31,72)           110.6886         estimate D2E/DX2                !
 ! A71   A(27,31,76)           110.9174         estimate D2E/DX2                !
 ! A72   A(27,31,80)           110.6516         estimate D2E/DX2                !
 ! A73   A(72,31,76)           108.9404         estimate D2E/DX2                !
 ! A74   A(72,31,80)           106.4192         estimate D2E/DX2                !
 ! A75   A(76,31,80)           109.0996         estimate D2E/DX2                !
 ! A76   A(11,33,17)           105.0617         estimate D2E/DX2                !
 ! A77   A(12,34,17)           108.1693         estimate D2E/DX2                !
 ! A78   A(12,34,69)           130.9876         estimate D2E/DX2                !
 ! A79   A(17,34,69)           120.8358         estimate D2E/DX2                !
 ! A80   A(1,35,7)             109.4236         estimate D2E/DX2                !
 ! A81   A(1,35,70)            121.1798         estimate D2E/DX2                !
 ! A82   A(7,35,70)            129.3916         estimate D2E/DX2                !
 ! A83   A(6,36,37)            123.4479         estimate D2E/DX2                !
 ! A84   A(6,36,38)            124.3615         estimate D2E/DX2                !
 ! A85   A(37,36,38)           112.1905         estimate D2E/DX2                !
 ! A86   A(36,37,43)           105.4811         estimate D2E/DX2                !
 ! A87   A(36,38,44)           107.2859         estimate D2E/DX2                !
 ! A88   A(36,38,71)           130.8647         estimate D2E/DX2                !
 ! A89   A(44,38,71)           121.7801         estimate D2E/DX2                !
 ! A90   A(40,39,44)           115.6972         estimate D2E/DX2                !
 ! A91   A(40,39,48)           122.4437         estimate D2E/DX2                !
 ! A92   A(44,39,48)           121.8459         estimate D2E/DX2                !
 ! A93   A(39,40,41)           121.8605         estimate D2E/DX2                !
 ! A94   A(39,40,45)           118.7072         estimate D2E/DX2                !
 ! A95   A(41,40,45)           119.4311         estimate D2E/DX2                !
 ! A96   A(40,41,42)           121.7123         estimate D2E/DX2                !
 ! A97   A(40,41,46)           118.9057         estimate D2E/DX2                !
 ! A98   A(42,41,46)           119.3818         estimate D2E/DX2                !
 ! A99   A(41,42,43)           117.7738         estimate D2E/DX2                !
 ! A100  A(41,42,47)           121.4281         estimate D2E/DX2                !
 ! A101  A(43,42,47)           120.7968         estimate D2E/DX2                !
 ! A102  A(37,43,42)           131.0167         estimate D2E/DX2                !
 ! A103  A(37,43,44)           109.2944         estimate D2E/DX2                !
 ! A104  A(42,43,44)           119.6885         estimate D2E/DX2                !
 ! A105  A(38,44,39)           130.9875         estimate D2E/DX2                !
 ! A106  A(38,44,43)           105.7463         estimate D2E/DX2                !
 ! A107  A(39,44,43)           123.2636         estimate D2E/DX2                !
 ! A108  A(39,48,49)           115.5321         estimate D2E/DX2                !
 ! A109  A(39,48,50)           121.3181         estimate D2E/DX2                !
 ! A110  A(49,48,50)           123.1455         estimate D2E/DX2                !
 ! A111  A(48,50,51)           120.3225         estimate D2E/DX2                !
 ! A112  A(50,51,52)           117.1958         estimate D2E/DX2                !
 ! A113  A(50,51,53)           108.4252         estimate D2E/DX2                !
 ! A114  A(50,51,54)           105.3389         estimate D2E/DX2                !
 ! A115  A(52,51,53)           110.7044         estimate D2E/DX2                !
 ! A116  A(52,51,54)           107.7573         estimate D2E/DX2                !
 ! A117  A(53,51,54)           106.8255         estimate D2E/DX2                !
 ! A118  A(51,52,55)           110.9948         estimate D2E/DX2                !
 ! A119  A(51,52,56)           109.0899         estimate D2E/DX2                !
 ! A120  A(51,52,57)           110.2153         estimate D2E/DX2                !
 ! A121  A(55,52,56)           109.3913         estimate D2E/DX2                !
 ! A122  A(55,52,57)           110.1022         estimate D2E/DX2                !
 ! A123  A(56,52,57)           106.9518         estimate D2E/DX2                !
 ! A124  A(51,53,58)           111.314          estimate D2E/DX2                !
 ! A125  A(51,53,59)           108.289          estimate D2E/DX2                !
 ! A126  A(51,53,60)           109.1787         estimate D2E/DX2                !
 ! A127  A(58,53,59)           109.8548         estimate D2E/DX2                !
 ! A128  A(58,53,60)           110.9368         estimate D2E/DX2                !
 ! A129  A(59,53,60)           107.1409         estimate D2E/DX2                !
 ! A130  A(52,55,61)           111.5758         estimate D2E/DX2                !
 ! A131  A(52,55,62)           109.739          estimate D2E/DX2                !
 ! A132  A(52,55,63)           109.1816         estimate D2E/DX2                !
 ! A133  A(61,55,62)           110.4228         estimate D2E/DX2                !
 ! A134  A(61,55,63)           109.1249         estimate D2E/DX2                !
 ! A135  A(62,55,63)           106.6633         estimate D2E/DX2                !
 ! A136  A(53,58,61)           111.5026         estimate D2E/DX2                !
 ! A137  A(53,58,64)           110.0017         estimate D2E/DX2                !
 ! A138  A(53,58,65)           109.007          estimate D2E/DX2                !
 ! A139  A(61,58,64)           110.386          estimate D2E/DX2                !
 ! A140  A(61,58,65)           109.0343         estimate D2E/DX2                !
 ! A141  A(64,58,65)           106.7787         estimate D2E/DX2                !
 ! A142  A(55,61,58)           111.12           estimate D2E/DX2                !
 ! A143  A(55,61,66)           110.1569         estimate D2E/DX2                !
 ! A144  A(55,61,67)           109.089          estimate D2E/DX2                !
 ! A145  A(58,61,66)           110.1623         estimate D2E/DX2                !
 ! A146  A(58,61,67)           109.2246         estimate D2E/DX2                !
 ! A147  A(66,61,67)           106.9867         estimate D2E/DX2                !
 ! A148  A(31,72,73)           109.4712         estimate D2E/DX2                !
 ! A149  A(31,72,74)           109.4712         estimate D2E/DX2                !
 ! A150  A(31,72,75)           109.4712         estimate D2E/DX2                !
 ! A151  A(73,72,74)           109.4713         estimate D2E/DX2                !
 ! A152  A(73,72,75)           109.4712         estimate D2E/DX2                !
 ! A153  A(74,72,75)           109.4712         estimate D2E/DX2                !
 ! A154  A(31,76,77)           109.4712         estimate D2E/DX2                !
 ! A155  A(31,76,78)           109.4712         estimate D2E/DX2                !
 ! A156  A(31,76,79)           109.4712         estimate D2E/DX2                !
 ! A157  A(77,76,78)           109.4713         estimate D2E/DX2                !
 ! A158  A(77,76,79)           109.4712         estimate D2E/DX2                !
 ! A159  A(78,76,79)           109.4712         estimate D2E/DX2                !
 ! A160  A(31,80,81)           109.4712         estimate D2E/DX2                !
 ! A161  A(31,80,82)           109.4712         estimate D2E/DX2                !
 ! A162  A(31,80,83)           109.4712         estimate D2E/DX2                !
 ! A163  A(81,80,82)           109.4713         estimate D2E/DX2                !
 ! A164  A(81,80,83)           109.4712         estimate D2E/DX2                !
 ! A165  A(82,80,83)           109.4712         estimate D2E/DX2                !
 ! A166  A(30,84,85)           109.4712         estimate D2E/DX2                !
 ! A167  A(30,84,86)           109.4712         estimate D2E/DX2                !
 ! A168  A(30,84,87)           109.4712         estimate D2E/DX2                !
 ! A169  A(85,84,86)           109.4713         estimate D2E/DX2                !
 ! A170  A(85,84,87)           109.4712         estimate D2E/DX2                !
 ! A171  A(86,84,87)           109.4712         estimate D2E/DX2                !
 ! A172  A(30,88,89)           109.4712         estimate D2E/DX2                !
 ! A173  A(30,88,90)           109.4712         estimate D2E/DX2                !
 ! A174  A(30,88,91)           109.4712         estimate D2E/DX2                !
 ! A175  A(89,88,90)           109.4713         estimate D2E/DX2                !
 ! A176  A(89,88,91)           109.4712         estimate D2E/DX2                !
 ! A177  A(90,88,91)           109.4712         estimate D2E/DX2                !
 ! A178  A(30,92,93)           109.4712         estimate D2E/DX2                !
 ! A179  A(30,92,94)           109.4712         estimate D2E/DX2                !
 ! A180  A(30,92,95)           109.4712         estimate D2E/DX2                !
 ! A181  A(93,92,94)           109.4713         estimate D2E/DX2                !
 ! A182  A(93,92,95)           109.4712         estimate D2E/DX2                !
 ! A183  A(94,92,95)           109.4712         estimate D2E/DX2                !
 ! D1    D(6,1,2,3)              0.3391         estimate D2E/DX2                !
 ! D2    D(6,1,2,21)          -179.2743         estimate D2E/DX2                !
 ! D3    D(35,1,2,3)           179.9014         estimate D2E/DX2                !
 ! D4    D(35,1,2,21)            0.288          estimate D2E/DX2                !
 ! D5    D(2,1,6,5)             -0.3489         estimate D2E/DX2                !
 ! D6    D(2,1,6,36)           179.3111         estimate D2E/DX2                !
 ! D7    D(35,1,6,5)          -179.7977         estimate D2E/DX2                !
 ! D8    D(35,1,6,36)           -0.1377         estimate D2E/DX2                !
 ! D9    D(2,1,35,7)            -0.349          estimate D2E/DX2                !
 ! D10   D(2,1,35,70)          178.9122         estimate D2E/DX2                !
 ! D11   D(6,1,35,7)           179.165          estimate D2E/DX2                !
 ! D12   D(6,1,35,70)           -1.5739         estimate D2E/DX2                !
 ! D13   D(1,2,3,4)             -0.0449         estimate D2E/DX2                !
 ! D14   D(1,2,3,8)            179.8246         estimate D2E/DX2                !
 ! D15   D(21,2,3,4)           179.4467         estimate D2E/DX2                !
 ! D16   D(21,2,3,8)            -0.6839         estimate D2E/DX2                !
 ! D17   D(1,2,21,7)            -0.1321         estimate D2E/DX2                !
 ! D18   D(1,2,21,68)          179.7866         estimate D2E/DX2                !
 ! D19   D(3,2,21,7)          -179.6813         estimate D2E/DX2                !
 ! D20   D(3,2,21,68)            0.2373         estimate D2E/DX2                !
 ! D21   D(2,3,4,5)             -0.2145         estimate D2E/DX2                !
 ! D22   D(2,3,4,9)            179.7301         estimate D2E/DX2                !
 ! D23   D(8,3,4,5)            179.9166         estimate D2E/DX2                !
 ! D24   D(8,3,4,9)             -0.1388         estimate D2E/DX2                !
 ! D25   D(3,4,5,6)              0.1963         estimate D2E/DX2                !
 ! D26   D(3,4,5,10)           179.5692         estimate D2E/DX2                !
 ! D27   D(9,4,5,6)           -179.7485         estimate D2E/DX2                !
 ! D28   D(9,4,5,10)            -0.3755         estimate D2E/DX2                !
 ! D29   D(4,5,6,1)              0.0878         estimate D2E/DX2                !
 ! D30   D(4,5,6,36)          -179.5513         estimate D2E/DX2                !
 ! D31   D(10,5,6,1)          -179.2843         estimate D2E/DX2                !
 ! D32   D(10,5,6,36)            1.0766         estimate D2E/DX2                !
 ! D33   D(1,6,36,37)            5.7739         estimate D2E/DX2                !
 ! D34   D(1,6,36,38)         -174.39           estimate D2E/DX2                !
 ! D35   D(5,6,36,37)         -174.5992         estimate D2E/DX2                !
 ! D36   D(5,6,36,38)            5.2369         estimate D2E/DX2                !
 ! D37   D(21,7,16,11)           0.1675         estimate D2E/DX2                !
 ! D38   D(21,7,16,15)        -179.6351         estimate D2E/DX2                !
 ! D39   D(35,7,16,11)         179.4085         estimate D2E/DX2                !
 ! D40   D(35,7,16,15)          -0.3942         estimate D2E/DX2                !
 ! D41   D(16,7,21,2)          179.2902         estimate D2E/DX2                !
 ! D42   D(16,7,21,68)          -0.6369         estimate D2E/DX2                !
 ! D43   D(35,7,21,2)           -0.0811         estimate D2E/DX2                !
 ! D44   D(35,7,21,68)         179.9918         estimate D2E/DX2                !
 ! D45   D(16,7,35,1)         -179.0689         estimate D2E/DX2                !
 ! D46   D(16,7,35,70)           1.7491         estimate D2E/DX2                !
 ! D47   D(21,7,35,1)            0.2689         estimate D2E/DX2                !
 ! D48   D(21,7,35,70)        -178.9132         estimate D2E/DX2                !
 ! D49   D(16,11,12,13)         -0.1122         estimate D2E/DX2                !
 ! D50   D(16,11,12,34)       -179.6686         estimate D2E/DX2                !
 ! D51   D(33,11,12,13)        179.4897         estimate D2E/DX2                !
 ! D52   D(33,11,12,34)         -0.0668         estimate D2E/DX2                !
 ! D53   D(12,11,16,7)        -179.532          estimate D2E/DX2                !
 ! D54   D(12,11,16,15)          0.2802         estimate D2E/DX2                !
 ! D55   D(33,11,16,7)           0.9539         estimate D2E/DX2                !
 ! D56   D(33,11,16,15)       -179.2339         estimate D2E/DX2                !
 ! D57   D(12,11,33,17)         -0.1345         estimate D2E/DX2                !
 ! D58   D(16,11,33,17)        179.4146         estimate D2E/DX2                !
 ! D59   D(11,12,13,14)         -0.0682         estimate D2E/DX2                !
 ! D60   D(11,12,13,18)        179.918          estimate D2E/DX2                !
 ! D61   D(34,12,13,14)        179.3438         estimate D2E/DX2                !
 ! D62   D(34,12,13,18)         -0.6701         estimate D2E/DX2                !
 ! D63   D(11,12,34,17)          0.2404         estimate D2E/DX2                !
 ! D64   D(11,12,34,69)        179.2402         estimate D2E/DX2                !
 ! D65   D(13,12,34,17)       -179.2472         estimate D2E/DX2                !
 ! D66   D(13,12,34,69)         -0.2474         estimate D2E/DX2                !
 ! D67   D(12,13,14,15)          0.0755         estimate D2E/DX2                !
 ! D68   D(12,13,14,19)        179.997          estimate D2E/DX2                !
 ! D69   D(18,13,14,15)       -179.9107         estimate D2E/DX2                !
 ! D70   D(18,13,14,19)          0.0108         estimate D2E/DX2                !
 ! D71   D(13,14,15,16)          0.1007         estimate D2E/DX2                !
 ! D72   D(13,14,15,20)        179.9736         estimate D2E/DX2                !
 ! D73   D(19,14,15,16)       -179.8212         estimate D2E/DX2                !
 ! D74   D(19,14,15,20)          0.0517         estimate D2E/DX2                !
 ! D75   D(14,15,16,7)         179.5285         estimate D2E/DX2                !
 ! D76   D(14,15,16,11)         -0.2774         estimate D2E/DX2                !
 ! D77   D(20,15,16,7)          -0.3437         estimate D2E/DX2                !
 ! D78   D(20,15,16,11)        179.8504         estimate D2E/DX2                !
 ! D79   D(33,17,23,22)        178.7791         estimate D2E/DX2                !
 ! D80   D(33,17,23,24)         -1.0223         estimate D2E/DX2                !
 ! D81   D(34,17,23,22)         -0.317          estimate D2E/DX2                !
 ! D82   D(34,17,23,24)        179.8816         estimate D2E/DX2                !
 ! D83   D(23,17,33,11)       -178.8849         estimate D2E/DX2                !
 ! D84   D(34,17,33,11)          0.2941         estimate D2E/DX2                !
 ! D85   D(23,17,34,12)        178.8613         estimate D2E/DX2                !
 ! D86   D(23,17,34,69)         -0.2594         estimate D2E/DX2                !
 ! D87   D(33,17,34,12)         -0.3481         estimate D2E/DX2                !
 ! D88   D(33,17,34,69)       -179.4688         estimate D2E/DX2                !
 ! D89   D(27,22,23,17)       -179.2789         estimate D2E/DX2                !
 ! D90   D(27,22,23,24)          0.5235         estimate D2E/DX2                !
 ! D91   D(32,22,23,17)          0.7431         estimate D2E/DX2                !
 ! D92   D(32,22,23,24)       -179.4545         estimate D2E/DX2                !
 ! D93   D(23,22,27,26)         -0.5125         estimate D2E/DX2                !
 ! D94   D(23,22,27,31)        179.74           estimate D2E/DX2                !
 ! D95   D(32,22,27,26)        179.4661         estimate D2E/DX2                !
 ! D96   D(32,22,27,31)         -0.2814         estimate D2E/DX2                !
 ! D97   D(17,23,24,25)        179.3618         estimate D2E/DX2                !
 ! D98   D(17,23,24,28)         -0.3898         estimate D2E/DX2                !
 ! D99   D(22,23,24,25)         -0.4403         estimate D2E/DX2                !
 ! D100  D(22,23,24,28)        179.8081         estimate D2E/DX2                !
 ! D101  D(23,24,25,26)          0.327          estimate D2E/DX2                !
 ! D102  D(23,24,25,30)       -178.4499         estimate D2E/DX2                !
 ! D103  D(28,24,25,26)       -179.9228         estimate D2E/DX2                !
 ! D104  D(28,24,25,30)          1.3004         estimate D2E/DX2                !
 ! D105  D(24,25,26,27)         -0.3194         estimate D2E/DX2                !
 ! D106  D(24,25,26,29)        179.6303         estimate D2E/DX2                !
 ! D107  D(30,25,26,27)        178.4668         estimate D2E/DX2                !
 ! D108  D(30,25,26,29)         -1.5835         estimate D2E/DX2                !
 ! D109  D(24,25,30,84)         97.243          estimate D2E/DX2                !
 ! D110  D(24,25,30,88)       -144.3692         estimate D2E/DX2                !
 ! D111  D(24,25,30,92)        -22.2134         estimate D2E/DX2                !
 ! D112  D(26,25,30,84)        -81.5262         estimate D2E/DX2                !
 ! D113  D(26,25,30,88)         36.8616         estimate D2E/DX2                !
 ! D114  D(26,25,30,92)        159.0175         estimate D2E/DX2                !
 ! D115  D(25,26,27,22)          0.4214         estimate D2E/DX2                !
 ! D116  D(25,26,27,31)       -179.8453         estimate D2E/DX2                !
 ! D117  D(29,26,27,22)       -179.5279         estimate D2E/DX2                !
 ! D118  D(29,26,27,31)          0.2054         estimate D2E/DX2                !
 ! D119  D(22,27,31,72)        -61.9121         estimate D2E/DX2                !
 ! D120  D(22,27,31,76)        177.0386         estimate D2E/DX2                !
 ! D121  D(22,27,31,80)         55.813          estimate D2E/DX2                !
 ! D122  D(26,27,31,72)        118.3501         estimate D2E/DX2                !
 ! D123  D(26,27,31,76)         -2.6993         estimate D2E/DX2                !
 ! D124  D(26,27,31,80)       -123.9248         estimate D2E/DX2                !
 ! D125  D(25,30,84,85)         84.2076         estimate D2E/DX2                !
 ! D126  D(25,30,84,86)       -155.7924         estimate D2E/DX2                !
 ! D127  D(25,30,84,87)        -35.7924         estimate D2E/DX2                !
 ! D128  D(88,30,84,85)        -36.5664         estimate D2E/DX2                !
 ! D129  D(88,30,84,86)         83.4336         estimate D2E/DX2                !
 ! D130  D(88,30,84,87)       -156.5664         estimate D2E/DX2                !
 ! D131  D(92,30,84,85)       -154.2139         estimate D2E/DX2                !
 ! D132  D(92,30,84,86)        -34.2139         estimate D2E/DX2                !
 ! D133  D(92,30,84,87)         85.7861         estimate D2E/DX2                !
 ! D134  D(25,30,88,89)        165.9864         estimate D2E/DX2                !
 ! D135  D(25,30,88,90)        -74.0136         estimate D2E/DX2                !
 ! D136  D(25,30,88,91)         45.9864         estimate D2E/DX2                !
 ! D137  D(84,30,88,89)        -73.8899         estimate D2E/DX2                !
 ! D138  D(84,30,88,90)         46.1102         estimate D2E/DX2                !
 ! D139  D(84,30,88,91)        166.1101         estimate D2E/DX2                !
 ! D140  D(92,30,88,89)         42.7147         estimate D2E/DX2                !
 ! D141  D(92,30,88,90)        162.7147         estimate D2E/DX2                !
 ! D142  D(92,30,88,91)        -77.2853         estimate D2E/DX2                !
 ! D143  D(25,30,92,93)        -48.8129         estimate D2E/DX2                !
 ! D144  D(25,30,92,94)         71.1871         estimate D2E/DX2                !
 ! D145  D(25,30,92,95)       -168.8129         estimate D2E/DX2                !
 ! D146  D(84,30,92,93)       -169.5642         estimate D2E/DX2                !
 ! D147  D(84,30,92,94)        -49.5642         estimate D2E/DX2                !
 ! D148  D(84,30,92,95)         70.4358         estimate D2E/DX2                !
 ! D149  D(88,30,92,93)         74.2783         estimate D2E/DX2                !
 ! D150  D(88,30,92,94)       -165.7217         estimate D2E/DX2                !
 ! D151  D(88,30,92,95)        -45.7217         estimate D2E/DX2                !
 ! D152  D(27,31,72,73)         96.79           estimate D2E/DX2                !
 ! D153  D(27,31,72,74)       -143.21           estimate D2E/DX2                !
 ! D154  D(27,31,72,75)        -23.21           estimate D2E/DX2                !
 ! D155  D(76,31,72,73)       -140.9969         estimate D2E/DX2                !
 ! D156  D(76,31,72,74)        -20.9969         estimate D2E/DX2                !
 ! D157  D(76,31,72,75)         99.0031         estimate D2E/DX2                !
 ! D158  D(80,31,72,73)        -23.4953         estimate D2E/DX2                !
 ! D159  D(80,31,72,74)         96.5047         estimate D2E/DX2                !
 ! D160  D(80,31,72,75)       -143.4953         estimate D2E/DX2                !
 ! D161  D(27,31,76,77)       -178.2375         estimate D2E/DX2                !
 ! D162  D(27,31,76,78)        -58.2375         estimate D2E/DX2                !
 ! D163  D(27,31,76,79)         61.7625         estimate D2E/DX2                !
 ! D164  D(72,31,76,77)         59.6877         estimate D2E/DX2                !
 ! D165  D(72,31,76,78)        179.6877         estimate D2E/DX2                !
 ! D166  D(72,31,76,79)        -60.3123         estimate D2E/DX2                !
 ! D167  D(80,31,76,77)        -56.1028         estimate D2E/DX2                !
 ! D168  D(80,31,76,78)         63.8972         estimate D2E/DX2                !
 ! D169  D(80,31,76,79)       -176.1028         estimate D2E/DX2                !
 ! D170  D(27,31,80,81)        -89.881          estimate D2E/DX2                !
 ! D171  D(27,31,80,82)         30.1191         estimate D2E/DX2                !
 ! D172  D(27,31,80,83)        150.119          estimate D2E/DX2                !
 ! D173  D(72,31,80,81)         30.4283         estimate D2E/DX2                !
 ! D174  D(72,31,80,82)        150.4283         estimate D2E/DX2                !
 ! D175  D(72,31,80,83)        -89.5717         estimate D2E/DX2                !
 ! D176  D(76,31,80,81)        147.8242         estimate D2E/DX2                !
 ! D177  D(76,31,80,82)        -92.1758         estimate D2E/DX2                !
 ! D178  D(76,31,80,83)         27.8242         estimate D2E/DX2                !
 ! D179  D(6,36,37,43)         179.6814         estimate D2E/DX2                !
 ! D180  D(38,36,37,43)         -0.1725         estimate D2E/DX2                !
 ! D181  D(6,36,38,44)        -179.9545         estimate D2E/DX2                !
 ! D182  D(6,36,38,71)           3.1034         estimate D2E/DX2                !
 ! D183  D(37,36,38,44)         -0.1022         estimate D2E/DX2                !
 ! D184  D(37,36,38,71)       -177.0443         estimate D2E/DX2                !
 ! D185  D(36,37,43,42)       -179.856          estimate D2E/DX2                !
 ! D186  D(36,37,43,44)          0.3773         estimate D2E/DX2                !
 ! D187  D(36,38,44,39)       -179.0866         estimate D2E/DX2                !
 ! D188  D(36,38,44,43)          0.3257         estimate D2E/DX2                !
 ! D189  D(71,38,44,39)         -1.8068         estimate D2E/DX2                !
 ! D190  D(71,38,44,43)        177.6055         estimate D2E/DX2                !
 ! D191  D(44,39,40,41)         -0.2811         estimate D2E/DX2                !
 ! D192  D(44,39,40,45)       -179.8837         estimate D2E/DX2                !
 ! D193  D(48,39,40,41)        178.4194         estimate D2E/DX2                !
 ! D194  D(48,39,40,45)         -1.1832         estimate D2E/DX2                !
 ! D195  D(40,39,44,38)       -179.9497         estimate D2E/DX2                !
 ! D196  D(40,39,44,43)          0.7267         estimate D2E/DX2                !
 ! D197  D(48,39,44,38)          1.3412         estimate D2E/DX2                !
 ! D198  D(48,39,44,43)       -177.9823         estimate D2E/DX2                !
 ! D199  D(40,39,48,49)          2.6058         estimate D2E/DX2                !
 ! D200  D(40,39,48,50)       -176.6574         estimate D2E/DX2                !
 ! D201  D(44,39,48,49)       -178.7726         estimate D2E/DX2                !
 ! D202  D(44,39,48,50)          1.9642         estimate D2E/DX2                !
 ! D203  D(39,40,41,42)         -0.1215         estimate D2E/DX2                !
 ! D204  D(39,40,41,46)       -179.9444         estimate D2E/DX2                !
 ! D205  D(45,40,41,42)        179.4784         estimate D2E/DX2                !
 ! D206  D(45,40,41,46)         -0.3446         estimate D2E/DX2                !
 ! D207  D(40,41,42,43)          0.1029         estimate D2E/DX2                !
 ! D208  D(40,41,42,47)       -179.4839         estimate D2E/DX2                !
 ! D209  D(46,41,42,43)        179.9251         estimate D2E/DX2                !
 ! D210  D(46,41,42,47)          0.3382         estimate D2E/DX2                !
 ! D211  D(41,42,43,37)       -179.4262         estimate D2E/DX2                !
 ! D212  D(41,42,43,44)          0.3203         estimate D2E/DX2                !
 ! D213  D(47,42,43,37)          0.1634         estimate D2E/DX2                !
 ! D214  D(47,42,43,44)        179.9099         estimate D2E/DX2                !
 ! D215  D(37,43,44,38)         -0.4404         estimate D2E/DX2                !
 ! D216  D(37,43,44,39)        179.0291         estimate D2E/DX2                !
 ! D217  D(42,43,44,38)        179.7623         estimate D2E/DX2                !
 ! D218  D(42,43,44,39)         -0.7683         estimate D2E/DX2                !
 ! D219  D(39,48,50,51)        179.3925         estimate D2E/DX2                !
 ! D220  D(49,48,50,51)          0.1866         estimate D2E/DX2                !
 ! D221  D(48,50,51,52)         -0.3907         estimate D2E/DX2                !
 ! D222  D(48,50,51,53)        125.7768         estimate D2E/DX2                !
 ! D223  D(48,50,51,54)       -120.1597         estimate D2E/DX2                !
 ! D224  D(50,51,52,55)       -178.8458         estimate D2E/DX2                !
 ! D225  D(50,51,52,56)         60.5479         estimate D2E/DX2                !
 ! D226  D(50,51,52,57)        -56.596          estimate D2E/DX2                !
 ! D227  D(53,51,52,55)         56.1182         estimate D2E/DX2                !
 ! D228  D(53,51,52,56)        -64.4881         estimate D2E/DX2                !
 ! D229  D(53,51,52,57)        178.368          estimate D2E/DX2                !
 ! D230  D(54,51,52,55)        -60.3667         estimate D2E/DX2                !
 ! D231  D(54,51,52,56)        179.027          estimate D2E/DX2                !
 ! D232  D(54,51,52,57)         61.8831         estimate D2E/DX2                !
 ! D233  D(50,51,53,58)        174.2219         estimate D2E/DX2                !
 ! D234  D(50,51,53,59)        -64.9194         estimate D2E/DX2                !
 ! D235  D(50,51,53,60)         51.4143         estimate D2E/DX2                !
 ! D236  D(52,51,53,58)        -55.9191         estimate D2E/DX2                !
 ! D237  D(52,51,53,59)         64.9396         estimate D2E/DX2                !
 ! D238  D(52,51,53,60)       -178.7267         estimate D2E/DX2                !
 ! D239  D(54,51,53,58)         61.1407         estimate D2E/DX2                !
 ! D240  D(54,51,53,59)       -178.0006         estimate D2E/DX2                !
 ! D241  D(54,51,53,60)        -61.6669         estimate D2E/DX2                !
 ! D242  D(51,52,55,61)        -56.0075         estimate D2E/DX2                !
 ! D243  D(51,52,55,62)       -178.7288         estimate D2E/DX2                !
 ! D244  D(51,52,55,63)         64.6954         estimate D2E/DX2                !
 ! D245  D(56,52,55,61)         64.4203         estimate D2E/DX2                !
 ! D246  D(56,52,55,62)        -58.301          estimate D2E/DX2                !
 ! D247  D(56,52,55,63)       -174.8768         estimate D2E/DX2                !
 ! D248  D(57,52,55,61)       -178.3231         estimate D2E/DX2                !
 ! D249  D(57,52,55,62)         58.9557         estimate D2E/DX2                !
 ! D250  D(57,52,55,63)        -57.6201         estimate D2E/DX2                !
 ! D251  D(51,53,58,61)         55.2869         estimate D2E/DX2                !
 ! D252  D(51,53,58,64)        178.0958         estimate D2E/DX2                !
 ! D253  D(51,53,58,65)        -65.1408         estimate D2E/DX2                !
 ! D254  D(59,53,58,61)        -64.6489         estimate D2E/DX2                !
 ! D255  D(59,53,58,64)         58.16           estimate D2E/DX2                !
 ! D256  D(59,53,58,65)        174.9234         estimate D2E/DX2                !
 ! D257  D(60,53,58,61)        177.0791         estimate D2E/DX2                !
 ! D258  D(60,53,58,64)        -60.112          estimate D2E/DX2                !
 ! D259  D(60,53,58,65)         56.6513         estimate D2E/DX2                !
 ! D260  D(52,55,61,58)         54.9972         estimate D2E/DX2                !
 ! D261  D(52,55,61,66)        177.368          estimate D2E/DX2                !
 ! D262  D(52,55,61,67)        -65.4801         estimate D2E/DX2                !
 ! D263  D(62,55,61,58)        177.3265         estimate D2E/DX2                !
 ! D264  D(62,55,61,66)        -60.3026         estimate D2E/DX2                !
 ! D265  D(62,55,61,67)         56.8492         estimate D2E/DX2                !
 ! D266  D(63,55,61,58)        -65.7389         estimate D2E/DX2                !
 ! D267  D(63,55,61,66)         56.632          estimate D2E/DX2                !
 ! D268  D(63,55,61,67)        173.7838         estimate D2E/DX2                !
 ! D269  D(53,58,61,55)        -54.5757         estimate D2E/DX2                !
 ! D270  D(53,58,61,66)       -176.9434         estimate D2E/DX2                !
 ! D271  D(53,58,61,67)         65.8214         estimate D2E/DX2                !
 ! D272  D(64,58,61,55)       -177.1644         estimate D2E/DX2                !
 ! D273  D(64,58,61,66)         60.4679         estimate D2E/DX2                !
 ! D274  D(64,58,61,67)        -56.7673         estimate D2E/DX2                !
 ! D275  D(65,58,61,55)         65.836          estimate D2E/DX2                !
 ! D276  D(65,58,61,66)        -56.5317         estimate D2E/DX2                !
 ! D277  D(65,58,61,67)       -173.7669         estimate D2E/DX2                !
 --------------------------------------------------------------------------------
 Trust Radius=3.00D-01 FncErr=5.00D-06 GrdErr=5.00D-06 EigMax=2.50D+02 EigMin=1.00D-04
 Number of steps in this run=    570 maximum allowed number of steps=    570.
 GradGradGradGradGradGradGradGradGradGradGradGradGradGradGradGradGradGrad

 Leave Link  103 at Thu Dec 20 18:32:35 2018, MaxMem=  1342177280 cpu:               0.6 elap:               0.1
 (Enter /gpfs/apps/hpc/Apps/Restricted/Gaussian/Rev_A.03/g16/l202.exe)
 Symmetry turned off by external request.
 Stoichiometry    C42H45N7O(1+,2)
 Framework group  C1[X(C42H45N7O)]
 Deg. of freedom   279
 Full point group                 C1      NOp   1
                          Input orientation:                          
 ---------------------------------------------------------------------
 Center     Atomic      Atomic             Coordinates (Angstroms)
 Number     Number       Type             X           Y           Z
 ---------------------------------------------------------------------
      1          6           0        1.639765    0.423985    0.897525
      2          6           0        0.550479    1.261041    0.608441
      3          6           0        0.712280    2.637208    0.457157
      4          6           0        2.006953    3.130604    0.609105
      5          6           0        3.097255    2.295324    0.903634
      6          6           0        2.943306    0.913256    1.057630
      7          6           0       -0.183990   -0.849612    0.771418
      8          1           0       -0.124258    3.284623    0.231674
      9          1           0        2.180929    4.193467    0.495876
     10          1           0        4.083275    2.732147    1.003949
     11          6           0       -2.472784   -1.738997    0.550312
     12          6           0       -3.375776   -2.832844    0.576245
     13          6           0       -2.960797   -4.139114    0.827471
     14          6           0       -1.599260   -4.337438    1.055627
     15          6           0       -0.682543   -3.276347    1.036626
     16          6           0       -1.097126   -1.962380    0.788165
     17          6           0       -4.423359   -0.930253    0.123070
     18          1           0       -3.662861   -4.963211    0.845149
     19          1           0       -1.234818   -5.337259    1.254817
     20          1           0        0.364439   -3.482372    1.220249
     21          7           0       -0.556099    0.426523    0.542068
     22          6           0       -6.877547   -0.569697   -0.364088
     23          6           0       -5.517996   -0.038701   -0.205879
     24          6           0       -5.285817    1.316414   -0.376339
     25          6           0       -6.324374    2.203047   -0.708482
     26          6           0       -7.641226    1.701920   -0.866307
     27          6           0       -7.941132    0.370556   -0.711716
     28          1           0       -4.278313    1.695910   -0.253648
     29          1           0       -8.433402    2.399983   -1.116845
     30          6           0       -6.047778    3.658863   -0.922413
     31          6           0       -9.322783   -0.176902   -0.877396
     32          8           0       -7.145440   -1.789883   -0.210630
     33          7           0       -3.139483   -0.571627    0.270465
     34          7           0       -4.599221   -2.273977    0.303993
     35          7           0        1.146168   -0.864142    0.984687
     36          6           0        4.019130   -0.011732    1.370943
     37          7           0        3.862609   -1.334105    1.409487
     38          7           0        5.305909    0.365995    1.656661
     39          6           0        7.369228   -0.965353    2.246866
     40          6           0        7.773700   -2.293517    2.415138
     41          6           0        6.881212   -3.368720    2.247932
     42          6           0        5.545838   -3.165712    1.908036
     43          6           0        5.109955   -1.845055    1.732676
     44          6           0        6.023271   -0.778922    1.896190
     45          1           0        8.804097   -2.493708    2.688433
     46          1           0        7.245639   -4.378906    2.390992
     47          1           0        4.860817   -3.996358    1.788551
     48          6           0        8.276723    0.162613    2.450226
     49          1           0        9.307510   -0.101196    2.700163
     50          7           0        7.867563    1.372473    2.351933
     51          6           0        8.791921    2.485290    2.572951
     52          6           0       10.240241    2.132632    2.929378
     53          6           0        8.743796    3.408643    1.343895
     54          1           0        8.368085    3.052853    3.414331
     55          6           0       11.073738    3.398872    3.157083
     56          1           0       10.679511    1.549839    2.110452
     57          1           0       10.266673    1.499446    3.821562
     58          6           0        9.580799    4.672823    1.564012
     59          1           0        9.128901    2.852482    0.480156
     60          1           0        7.701949    3.662548    1.125562
     61          6           0       11.026321    4.330835    1.941644
     62          1           0       12.107691    3.124272    3.387628
     63          1           0       10.686758    3.932291    4.034423
     64          1           0        9.559057    5.297143    0.665799
     65          1           0        9.130278    5.263571    2.371307
     66          1           0       11.589487    5.246687    2.146438
     67          1           0       11.514638    3.837506    1.091948
     68          1           0       -1.535040    0.657053    0.355657
     69          1           0       -5.520696   -2.695870    0.215462
     70          1           0        1.762503   -1.653803    1.172687
     71          1           0        5.723695    1.286647    1.744351
     72          6           0       -9.368964   -1.197800   -2.029452
     73          1           0       -9.281492   -2.187624   -1.632593
     74          1           0      -10.297853   -1.103914   -2.552185
     75          1           0       -8.559633   -1.011188   -2.704033
     76          6           0      -10.329922    0.951167   -1.168484
     77          1           0      -11.313510    0.538321   -1.252221
     78          1           0      -10.308710    1.663066   -0.369954
     79          1           0      -10.067309    1.435902   -2.085526
     80          6           0       -9.763759   -0.931304    0.390680
     81          1           0       -9.480537   -1.960007    0.310326
     82          1           0       -9.290901   -0.496993    1.246647
     83          1           0      -10.826231   -0.861076    0.496133
     84          6           0       -5.894093    3.950479   -2.426721
     85          1           0       -6.860422    4.097201   -2.862130
     86          1           0       -5.304821    4.833525   -2.560466
     87          1           0       -5.410255    3.123326   -2.902766
     88          6           0       -7.214148    4.524082   -0.409990
     89          1           0       -6.899890    5.544917   -0.346447
     90          1           0       -8.039726    4.446479   -1.086229
     91          1           0       -7.513227    4.182008    0.558739
     92          6           0       -4.745166    4.090268   -0.223349
     93          1           0       -4.748144    3.736254    0.786386
     94          1           0       -3.907011    3.676314   -0.743963
     95          1           0       -4.675280    5.157978   -0.226757
 ---------------------------------------------------------------------
 Rotational constants (GHZ):           0.1246698           0.0178900           0.0157898
 Leave Link  202 at Thu Dec 20 18:32:35 2018, MaxMem=  1342177280 cpu:               0.6 elap:               0.1
 (Enter /gpfs/apps/hpc/Apps/Restricted/Gaussian/Rev_A.03/g16/l301.exe)
 Standard basis: 6-31G(d,p) (6D, 7F)
 Ernie: Thresh=  0.10000D-02 Tol=  0.10000D-05 Strict=F.
   975 basis functions,  1715 primitive gaussians,   975 cartesian basis functions
   177 alpha electrons      176 beta electrons
       nuclear repulsion energy      5778.4599439243 Hartrees.
 IExCor=  402 DFT=T Ex+Corr=B3LYP ExCW=0 ScaHFX=  0.200000
 ScaDFX=  0.800000  0.720000  1.000000  0.810000 ScalE2=  1.000000  1.000000
 IRadAn=      5 IRanWt=     -1 IRanGd=            0 ICorTp=0 IEmpDi=141
 NAtoms=   95 NActive=   95 NUniq=   95 SFac= 1.00D+00 NAtFMM=   60 NAOKFM=T Big=T
 Integral buffers will be    131072 words long.
 Raffenetti 2 integral format.
 Two-electron integral symmetry is turned off.
 R6Disp:  Grimme-D3(BJ) Dispersion energy=       -0.2222075090 Hartrees.
 Nuclear repulsion after empirical dispersion term =     5778.2377364153 Hartrees.
 Using the following non-standard input for PCM:
 radii=bondi
 dis
 rep
 cav
 --- end of non-standard input.
 ------------------------------------------------------------------------------
 Polarizable Continuum Model (PCM)
 =================================
 Model                : C-PCM.
 Atomic radii         : Bondi.
 Polarization charges : Total charges.
 Charge compensation  : None.
 Solution method      : On-the-fly selection.
 Cavity type          : Scaled VdW (van der Waals Surface) (Alpha=1.100).
 Cavity algorithm     : GePol (No added spheres)
                        Default sphere list used, NSphG=   95.
                        Lebedev-Laikov grids with approx.  5.0 points / Ang**2.
                        Smoothing algorithm: York/Karplus (Gamma=1.0000).
                        Polarization charges: spherical gaussians, with
                                              point-specific exponents (IZeta= 3).
                        Self-potential: point-specific (ISelfS= 7).
                        Self-field    : sphere-specific E.n sum rule (ISelfD= 2).
 1st derivatives      : Analytical E(r).r(x)/FMM algorithm (CHGder, D1EAlg=3).
                        Cavity 1st derivative terms included.
 Solvent              : Dichloromethane, Eps=   8.930000 Eps(inf)=   2.028346
 ------------------------------------------------------------------------------
 GePol: Number of generator spheres                  =      95
 GePol: Total number of spheres                      =      95
 GePol: Number of exposed spheres                    =      95 (100.00%)
 GePol: Number of points                             =    6180
 GePol: Average weight of points                     =       0.12
 GePol: Minimum weight of points                     =   0.19D-10
 GePol: Maximum weight of points                     =    0.21770
 GePol: Number of points with low weight             =     423
 GePol: Fraction of low-weight points (<1% of avg)   =       6.84%
 GePol: Cavity surface area                          =    725.818 Ang**2
 GePol: Cavity volume                                =    718.622 Ang**3
 PCM non-electrostatic energy =         0.0305017061 Hartrees.
 Nuclear repulsion after PCM non-electrostatic terms =     5778.2682381214 Hartrees.
 Leave Link  301 at Thu Dec 20 18:32:35 2018, MaxMem=  1342177280 cpu:               4.5 elap:               0.3
 (Enter /gpfs/apps/hpc/Apps/Restricted/Gaussian/Rev_A.03/g16/l302.exe)
 NPDir=0 NMtPBC=     1 NCelOv=     1 NCel=       1 NClECP=     1 NCelD=      1
         NCelK=      1 NCelE2=     1 NClLst=     1 CellRange=     0.0.
 One-electron integrals computed using PRISM.
 NBasis=   975 RedAO= T EigKep=  2.70D-04  NBF=   975
 NBsUse=   975 1.00D-06 EigRej= -1.00D+00 NBFU=   975
 Precomputing XC quadrature grid using
 IXCGrd= 4 IRadAn=           5 IRanWt=          -1 IRanGd=           0 AccXCQ= 0.00D+00.
 Generated NRdTot=       0 NPtTot=           0 NUsed=           0 NTot=          32
 NSgBfM=   835   833   834   834   835 MxSgAt=    95 MxSgA2=    95.
 Leave Link  302 at Thu Dec 20 18:32:37 2018, MaxMem=  1342177280 cpu:              35.4 elap:               2.3
 (Enter /gpfs/apps/hpc/Apps/Restricted/Gaussian/Rev_A.03/g16/l303.exe)
 DipDrv:  MaxL=1.
[...]
     92          6           0       -4.451282    4.016720   -0.539052
     93          1           0       -4.257817    3.800731    0.514386
     94          1           0       -3.712278    3.485731   -1.143533
     95          1           0       -4.302902    5.087036   -0.697410
 ---------------------------------------------------------------------
 Rotational constants (GHZ):           0.1220476           0.0180953           0.0159087
 Leave Link  202 at Thu Dec 20 19:10:19 2018, MaxMem=  1342177280 cpu:               0.5 elap:               0.0
 (Enter /gpfs/apps/hpc/Apps/Restricted/Gaussian/Rev_A.03/g16/l301.exe)
 Standard basis: 6-31G(d,p) (6D, 7F)
 Ernie: Thresh=  0.10000D-02 Tol=  0.10000D-05 Strict=F.
   975 basis functions,  1715 primitive gaussians,   975 cartesian basis functions
   177 alpha electrons      176 beta electrons
       nuclear repulsion energy      5776.5507978192 Hartrees.
 IExCor=  402 DFT=T Ex+Corr=B3LYP ExCW=0 ScaHFX=  0.200000
 ScaDFX=  0.800000  0.720000  1.000000  0.810000 ScalE2=  1.000000  1.000000
 IRadAn=      5 IRanWt=     -1 IRanGd=            0 ICorTp=0 IEmpDi=141
 NAtoms=   95 NActive=   95 NUniq=   95 SFac= 1.00D+00 NAtFMM=   60 NAOKFM=T Big=T
 Integral buffers will be    131072 words long.
 Raffenetti 2 integral format.
 Two-electron integral symmetry is turned off.
 R6Disp:  Grimme-D3(BJ) Dispersion energy=       -0.2212868084 Hartrees.
 Nuclear repulsion after empirical dispersion term =     5776.3295110108 Hartrees.
 ------------------------------------------------------------------------------
 Polarizable Continuum Model (PCM)
 =================================
 Model                : C-PCM.
 Atomic radii         : Bondi.
 Polarization charges : Total charges.
 Charge compensation  : None.
 Solution method      : On-the-fly selection.
 Cavity type          : Scaled VdW (van der Waals Surface) (Alpha=1.100).
 Cavity algorithm     : GePol (No added spheres)
                        Default sphere list used, NSphG=   95.
                        Lebedev-Laikov grids with approx.  5.0 points / Ang**2.
                        Smoothing algorithm: York/Karplus (Gamma=1.0000).
                        Polarization charges: spherical gaussians, with
                                              point-specific exponents (IZeta= 3).
                        Self-potential: point-specific (ISelfS= 7).
                        Self-field    : sphere-specific E.n sum rule (ISelfD= 2).
 1st derivatives      : Analytical E(r).r(x)/FMM algorithm (CHGder, D1EAlg=3).
                        Cavity 1st derivative terms included.
 Solvent              : Dichloromethane, Eps=   8.930000 Eps(inf)=   2.028346
 ------------------------------------------------------------------------------
 GePol: Number of generator spheres                  =      95
 GePol: Total number of spheres                      =      95
 GePol: Number of exposed spheres                    =      95 (100.00%)
 GePol: Number of points                             =    6218
 GePol: Average weight of points                     =       0.12
 GePol: Minimum weight of points                     =   0.59D-11
 GePol: Maximum weight of points                     =    0.21770
 GePol: Number of points with low weight             =     436
 GePol: Fraction of low-weight points (<1% of avg)   =       7.01%
 GePol: Cavity surface area                          =    732.271 Ang**2
 GePol: Cavity volume                                =    722.490 Ang**3
 PCM non-electrostatic energy =         0.0319400459 Hartrees.
 Nuclear repulsion after PCM non-electrostatic terms =     5776.3614510567 Hartrees.
 Leave Link  301 at Thu Dec 20 19:10:19 2018, MaxMem=  1342177280 cpu:               4.5 elap:               0.3
 (Enter /gpfs/apps/hpc/Apps/Restricted/Gaussian/Rev_A.03/g16/l302.exe)
 NPDir=0 NMtPBC=     1 NCelOv=     1 NCel=       1 NClECP=     1 NCelD=      1
         NCelK=      1 NCelE2=     1 NClLst=     1 CellRange=     0.0.
 One-electron integrals computed using PRISM.
 NBasis=   975 RedAO= T EigKep=  2.70D-04  NBF=   975
 NBsUse=   975 1.00D-06 EigRej= -1.00D+00 NBFU=   975
 Precomputing XC quadrature grid using
 IXCGrd= 4 IRadAn=           5 IRanWt=          -1 IRanGd=           0 AccXCQ= 0.00D+00.
 Generated NRdTot=       0 NPtTot=           0 NUsed=           0 NTot=          32
 NSgBfM=   840   830   836   837   840 MxSgAt=    95 MxSgA2=    95.
 Leave Link  302 at Thu Dec 20 19:10:21 2018, MaxMem=  1342177280 cpu:              32.2 elap:               2.0
 (Enter /gpfs/apps/hpc/Apps/Restricted/Gaussian/Rev_A.03/g16/l303.exe)
 DipDrv:  MaxL=1.
 Leave Link  303 at Thu Dec 20 19:10:21 2018, MaxMem=  1342177280 cpu:               1.7 elap:               0.1
 (Enter /gpfs/apps/hpc/Apps/Restricted/Gaussian/Rev_A.03/g16/l401.exe)
 Initial guess from the checkpoint file:  "cyclohexyl-triBIP-E2PT.chk"
 B after Tr=     0.003045   -0.000799    0.017217
         Rot=    1.000000    0.000072    0.000146    0.000181 Ang=   0.03 deg.
 Guess basis will be translated and rotated to current coordinates.
 JPrj=2 DoOrth=T DoCkMO=T.
 Initial guess <Sx>= 0.0000 <Sy>= 0.0000 <Sz>= 0.5000 <S**2>= 0.7741 S= 0.5120
 Generating alternative initial guess.
 ExpMin= 1.61D-01 ExpMax= 5.48D+03 ExpMxC= 8.25D+02 IAcc=2 IRadAn=         4 AccDes= 0.00D+00
 Harris functional with IExCor=  402 and IRadAn=       4 diagonalized for initial guess.
 HarFok:  IExCor=  402 AccDes= 0.00D+00 IRadAn=         4 IDoV= 1 UseB2=F ITyADJ=14
 ICtDFT=  3500011 ScaDFX=  1.000000  1.000000  1.000000  1.000000
 FoFCou: FMM=F IPFlag=           0 FMFlag=      100000 FMFlg1=        2001
         NFxFlg=           0 DoJE=T BraDBF=F KetDBF=T FulRan=T
         wScrn=  0.000000 ICntrl=       500 IOpCl=  0 I1Cent=   200000004 NGrid=           0
         NMat0=    1 NMatS0=      1 NMatT0=    0 NMatD0=    1 NMtDS0=    0 NMtDT0=    0
 Symmetry not used in FoFCou.
 Harris En= -2086.16848013450    
 Leave Link  401 at Thu Dec 20 19:10:28 2018, MaxMem=  1342177280 cpu:             108.5 elap:               6.9
 (Enter /gpfs/apps/hpc/Apps/Restricted/Gaussian/Rev_A.03/g16/l502.exe)
 Two-electron integral symmetry not used.
 UHF open shell SCF:
 Using DIIS extrapolation, IDIIS=  1040.
 NGot=  1342177280 LenX=  1340252438 LenY=  1339300838
 Requested convergence on RMS density matrix=1.00D-08 within 128 cycles.
 Requested convergence on MAX density matrix=1.00D-06.
 Requested convergence on             energy=1.00D-06.
 No special actions if energy rises.
 Fock matrices will be formed incrementally for  20 cycles.

 Cycle   1  Pass 1  IDiag  1:
 FoFJK:  IHMeth= 1 ICntrl=       0 DoSepK=F KAlg= 0 I1Cent=           0 FoldK=F
 IRaf= 540000000 NMat=       1 IRICut=       1 DoRegI=T DoRafI=F ISym2E= 0 IDoP0=0 IntGTp=1.
 FoFCou: FMM=T IPFlag=           0 FMFlag=      100000 FMFlg1=        2001
         NFxFlg=           0 DoJE=F BraDBF=F KetDBF=F FulRan=T
         wScrn=  0.000000 ICntrl=         0 IOpCl=  1 I1Cent=           0 NGrid=           0
         NMat0=    1 NMatS0=      1 NMatT0=    0 NMatD0=    1 NMtDS0=    0 NMtDT0=    0
 Symmetry not used in FoFCou.
 FMM levels:  10  Number of levels for PrismC:   9
 Inv3:  Mode=1 IEnd=   115990572.
 Iteration    1 A*A^-1 deviation from unit magnitude is 2.82D-14 for   2688.
 Iteration    1 A*A^-1 deviation from orthogonality  is 6.29D-15 for   5628    773.
 Iteration    1 A^-1*A deviation from unit magnitude is 2.82D-14 for   2688.
 Iteration    1 A^-1*A deviation from orthogonality  is 4.26D-15 for   5501   4272.
 E= -2086.26800895890    
 DIIS: error= 4.44D-03 at cycle   1 NSaved=   1.
 NSaved= 1 IEnMin= 1 EnMin= -2086.26800895890     IErMin= 1 ErrMin= 4.44D-03
 ErrMax= 4.44D-03  0.00D+00 EMaxC= 1.00D-01 BMatC= 6.21D-02 BMatP= 6.21D-02
 IDIUse=3 WtCom= 9.56D-01 WtEn= 4.44D-02
 Coeff-Com:  0.100D+01
 Coeff-En:   0.100D+01
 Coeff:      0.100D+01
 Gap=     1.581 Goal=   None    Shift=    0.000
 Gap=     1.589 Goal=   None    Shift=    0.000
 GapD=    1.581 DampG=2.000 DampE=1.000 DampFc=2.0000 IDamp=-1.
 RMSDP=1.95D-04 MaxDP=1.32D-02              OVMax= 2.57D-02

 Cycle   2  Pass 1  IDiag  1:
 RMSU=  1.95D-04    CP:  1.00D+00
 E= -2086.29796649012     Delta-E=       -0.029957531221 Rises=F Damp=F
 DIIS: error= 4.08D-04 at cycle   2 NSaved=   2.
 NSaved= 2 IEnMin= 2 EnMin= -2086.29796649012     IErMin= 2 ErrMin= 4.08D-04
 ErrMax= 4.08D-04  0.00D+00 EMaxC= 1.00D-01 BMatC= 6.30D-04 BMatP= 6.21D-02
 IDIUse=3 WtCom= 9.96D-01 WtEn= 4.08D-03
 Coeff-Com: -0.824D-01 0.108D+01
 Coeff-En:   0.000D+00 0.100D+01
 Coeff:     -0.820D-01 0.108D+01
 Gap=     0.127 Goal=   None    Shift=    0.000
 Gap=     0.077 Goal=   None    Shift=    0.000
 RMSDP=2.96D-05 MaxDP=2.06D-03 DE=-3.00D-02 OVMax= 3.95D-03

 Cycle   3  Pass 1  IDiag  1:
 RMSU=  2.14D-05    CP:  1.00D+00  1.11D+00
 E= -2086.29824310387     Delta-E=       -0.000276613752 Rises=F Damp=F
 DIIS: error= 2.50D-04 at cycle   3 NSaved=   3.
 NSaved= 3 IEnMin= 3 EnMin= -2086.29824310387     IErMin= 3 ErrMin= 2.50D-04
 ErrMax= 2.50D-04  0.00D+00 EMaxC= 1.00D-01 BMatC= 3.06D-04 BMatP= 6.30D-04
 IDIUse=3 WtCom= 9.97D-01 WtEn= 2.50D-03
 Coeff-Com: -0.456D-01 0.563D+00 0.483D+00
 Coeff-En:   0.000D+00 0.000D+00 0.100D+01
 Coeff:     -0.455D-01 0.561D+00 0.484D+00
 Gap=     0.128 Goal=   None    Shift=    0.000
 Gap=     0.076 Goal=   None    Shift=    0.000
 RMSDP=1.23D-05 MaxDP=2.51D-03 DE=-2.77D-04 OVMax= 3.61D-03

 Cycle   4  Pass 1  IDiag  1:
 RMSU=  9.79D-06    CP:  1.00D+00  1.11D+00  6.60D-01
 E= -2086.29829955830     Delta-E=       -0.000056454430 Rises=F Damp=F
 DIIS: error= 1.29D-04 at cycle   4 NSaved=   4.
 NSaved= 4 IEnMin= 4 EnMin= -2086.29829955830     IErMin= 4 ErrMin= 1.29D-04
 ErrMax= 1.29D-04  0.00D+00 EMaxC= 1.00D-01 BMatC= 5.50D-05 BMatP= 3.06D-04
 IDIUse=3 WtCom= 9.99D-01 WtEn= 1.29D-03
 Coeff-Com: -0.992D-02 0.111D+00 0.298D+00 0.601D+00
 Coeff-En:   0.000D+00 0.000D+00 0.149D+00 0.851D+00
 Coeff:     -0.991D-02 0.110D+00 0.298D+00 0.602D+00
 Gap=     0.127 Goal=   None    Shift=    0.000
 Gap=     0.076 Goal=   None    Shift=    0.000
 RMSDP=4.72D-06 MaxDP=9.74D-04 DE=-5.65D-05 OVMax= 1.44D-03

 Cycle   5  Pass 1  IDiag  1:
 RMSU=  2.74D-06    CP:  1.00D+00  1.11D+00  7.87D-01  7.24D-01
 E= -2086.29830985103     Delta-E=       -0.000010292730 Rises=F Damp=F
 DIIS: error= 3.48D-05 at cycle   5 NSaved=   5.
 NSaved= 5 IEnMin= 5 EnMin= -2086.29830985103     IErMin= 5 ErrMin= 3.48D-05
 ErrMax= 3.48D-05  0.00D+00 EMaxC= 1.00D-01 BMatC= 6.22D-06 BMatP= 5.50D-05
 IDIUse=1 WtCom= 1.00D+00 WtEn= 0.00D+00
 Coeff-Com: -0.866D-03 0.308D-02 0.122D+00 0.345D+00 0.531D+00
 Coeff:     -0.866D-03 0.308D-02 0.122D+00 0.345D+00 0.531D+00
 Gap=     0.127 Goal=   None    Shift=    0.000
 Gap=     0.076 Goal=   None    Shift=    0.000
 RMSDP=1.46D-06 MaxDP=3.06D-04 DE=-1.03D-05 OVMax= 3.50D-04

 Cycle   6  Pass 1  IDiag  1:
 RMSU=  9.03D-07    CP:  1.00D+00  1.11D+00  7.91D-01  7.83D-01  6.43D-01
 E= -2086.29831121545     Delta-E=       -0.000001364414 Rises=F Damp=F
 DIIS: error= 9.26D-06 at cycle   6 NSaved=   6.
 NSaved= 6 IEnMin= 6 EnMin= -2086.29831121545     IErMin= 6 ErrMin= 9.26D-06
 ErrMax= 9.26D-06  0.00D+00 EMaxC= 1.00D-01 BMatC= 3.99D-07 BMatP= 6.22D-06
 IDIUse=1 WtCom= 1.00D+00 WtEn= 0.00D+00
 Coeff-Com:  0.895D-03-0.137D-01 0.199D-01 0.796D-01 0.243D+00 0.671D+00
 Coeff:      0.895D-03-0.137D-01 0.199D-01 0.796D-01 0.243D+00 0.671D+00
 Gap=     0.127 Goal=   None    Shift=    0.000
 Gap=     0.076 Goal=   None    Shift=    0.000
 RMSDP=4.93D-07 MaxDP=8.50D-05 DE=-1.36D-06 OVMax= 1.97D-04

 Cycle   7  Pass 1  IDiag  1:
 RMSU=  4.08D-07    CP:  1.00D+00  1.11D+00  7.95D-01  7.89D-01  7.16D-01
                    CP:  8.38D-01
 E= -2086.29831131723     Delta-E=       -0.000000101782 Rises=F Damp=F
 DIIS: error= 5.75D-06 at cycle   7 NSaved=   7.
 NSaved= 7 IEnMin= 7 EnMin= -2086.29831131723     IErMin= 7 ErrMin= 5.75D-06
 ErrMax= 5.75D-06  0.00D+00 EMaxC= 1.00D-01 BMatC= 8.94D-08 BMatP= 3.99D-07
 IDIUse=1 WtCom= 1.00D+00 WtEn= 0.00D+00
 Coeff-Com:  0.590D-03-0.817D-02 0.195D-02 0.156D-01 0.959D-01 0.386D+00
 Coeff-Com:  0.508D+00
 Coeff:      0.590D-03-0.817D-02 0.195D-02 0.156D-01 0.959D-01 0.386D+00
 Coeff:      0.508D+00
 Gap=     0.127 Goal=   None    Shift=    0.000
 Gap=     0.076 Goal=   None    Shift=    0.000
 RMSDP=2.11D-07 MaxDP=4.09D-05 DE=-1.02D-07 OVMax= 1.07D-04

 Cycle   8  Pass 1  IDiag  1:
 RMSU=  1.79D-07    CP:  1.00D+00  1.11D+00  7.97D-01  7.89D-01  7.27D-01
                    CP:  9.44D-01  9.30D-01
 E= -2086.29831134668     Delta-E=       -0.000000029450 Rises=F Damp=F
 DIIS: error= 2.61D-06 at cycle   8 NSaved=   8.
 NSaved= 8 IEnMin= 8 EnMin= -2086.29831134668     IErMin= 8 ErrMin= 2.61D-06
 ErrMax= 2.61D-06  0.00D+00 EMaxC= 1.00D-01 BMatC= 1.23D-08 BMatP= 8.94D-08
 IDIUse=1 WtCom= 1.00D+00 WtEn= 0.00D+00
 Coeff-Com: -0.657D-04 0.132D-02-0.404D-02-0.195D-01-0.378D-01-0.710D-01
 Coeff-Com:  0.176D+00 0.955D+00
 Coeff:     -0.657D-04 0.132D-02-0.404D-02-0.195D-01-0.378D-01-0.710D-01
 Coeff:      0.176D+00 0.955D+00
 Gap=     0.127 Goal=   None    Shift=    0.000
 Gap=     0.076 Goal=   None    Shift=    0.000
 RMSDP=1.92D-07 MaxDP=4.09D-05 DE=-2.95D-08 OVMax= 1.25D-04

 Cycle   9  Pass 1  IDiag  1:
 RMSU=  9.50D-08    CP:  1.00D+00  1.11D+00  7.98D-01  7.90D-01  7.42D-01
                    CP:  1.03D+00  1.26D+00  1.21D+00
 E= -2086.29831135915     Delta-E=       -0.000000012474 Rises=F Damp=F
 DIIS: error= 1.35D-06 at cycle   9 NSaved=   9.
 NSaved= 9 IEnMin= 9 EnMin= -2086.29831135915     IErMin= 9 ErrMin= 1.35D-06
 ErrMax= 1.35D-06  0.00D+00 EMaxC= 1.00D-01 BMatC= 4.71D-09 BMatP= 1.23D-08
 IDIUse=1 WtCom= 1.00D+00 WtEn= 0.00D+00
 Coeff-Com: -0.166D-03 0.253D-02-0.231D-02-0.146D-01-0.411D-01-0.125D+00
 Coeff-Com: -0.188D-01 0.518D+00 0.681D+00
 Coeff:     -0.166D-03 0.253D-02-0.231D-02-0.146D-01-0.411D-01-0.125D+00
 Coeff:     -0.188D-01 0.518D+00 0.681D+00
 Gap=     0.127 Goal=   None    Shift=    0.000
 Gap=     0.076 Goal=   None    Shift=    0.000
 RMSDP=1.04D-07 MaxDP=1.94D-05 DE=-1.25D-08 OVMax= 8.06D-05

 Cycle  10  Pass 1  IDiag  1:
 RMSU=  5.14D-08    CP:  1.00D+00  1.11D+00  7.98D-01  7.90D-01  7.51D-01
                    CP:  1.07D+00  1.38D+00  1.55D+00  1.04D+00
 E= -2086.29831136297     Delta-E=       -0.000000003817 Rises=F Damp=F
 DIIS: error= 8.01D-07 at cycle  10 NSaved=  10.
 NSaved=10 IEnMin=10 EnMin= -2086.29831136297     IErMin=10 ErrMin= 8.01D-07
 ErrMax= 8.01D-07  0.00D+00 EMaxC= 1.00D-01 BMatC= 1.31D-09 BMatP= 4.71D-09
 IDIUse=1 WtCom= 1.00D+00 WtEn= 0.00D+00
 Coeff-Com: -0.432D-04 0.526D-03 0.719D-03 0.123D-02-0.178D-02-0.237D-01
 Coeff-Com: -0.874D-01-0.203D+00 0.331D+00 0.983D+00
 Coeff:     -0.432D-04 0.526D-03 0.719D-03 0.123D-02-0.178D-02-0.237D-01
 Coeff:     -0.874D-01-0.203D+00 0.331D+00 0.983D+00
 Gap=     0.127 Goal=   None    Shift=    0.000
 Gap=     0.076 Goal=   None    Shift=    0.000
 RMSDP=8.59D-08 MaxDP=1.72D-05 DE=-3.82D-09 OVMax= 6.00D-05

 Cycle  11  Pass 1  IDiag  1:
 RMSU=  2.07D-08    CP:  1.00D+00  1.11D+00  7.99D-01  7.91D-01  7.55D-01
                    CP:  1.10D+00  1.51D+00  1.75D+00  1.49D+00  1.19D+00
 E= -2086.29831136447     Delta-E=       -0.000000001502 Rises=F Damp=F
 DIIS: error= 1.86D-07 at cycle  11 NSaved=  11.
 NSaved=11 IEnMin=11 EnMin= -2086.29831136447     IErMin=11 ErrMin= 1.86D-07
 ErrMax= 1.86D-07  0.00D+00 EMaxC= 1.00D-01 BMatC= 1.79D-10 BMatP= 1.31D-09
 IDIUse=1 WtCom= 1.00D+00 WtEn= 0.00D+00
 Coeff-Com:  0.884D-05-0.197D-03 0.723D-03 0.292D-02 0.652D-02 0.124D-01
 Coeff-Com: -0.338D-01-0.172D+00 0.419D-01 0.423D+00 0.719D+00
 Coeff:      0.884D-05-0.197D-03 0.723D-03 0.292D-02 0.652D-02 0.124D-01
 Coeff:     -0.338D-01-0.172D+00 0.419D-01 0.423D+00 0.719D+00
 Gap=     0.127 Goal=   None    Shift=    0.000
 Gap=     0.076 Goal=   None    Shift=    0.000
 RMSDP=2.15D-08 MaxDP=4.43D-06 DE=-1.50D-09 OVMax= 1.43D-05

 Cycle  12  Pass 1  IDiag  1:
 RMSU=  1.03D-08    CP:  1.00D+00  1.11D+00  7.99D-01  7.91D-01  7.56D-01
                    CP:  1.11D+00  1.53D+00  1.80D+00  1.58D+00  1.38D+00
                    CP:  8.35D-01
 E= -2086.29831136450     Delta-E=       -0.000000000025 Rises=F Damp=F
 DIIS: error= 1.22D-07 at cycle  12 NSaved=  12.
 NSaved=12 IEnMin=12 EnMin= -2086.29831136450     IErMin=12 ErrMin= 1.22D-07
 ErrMax= 1.22D-07  0.00D+00 EMaxC= 1.00D-01 BMatC= 7.64D-11 BMatP= 1.79D-10
 IDIUse=1 WtCom= 1.00D+00 WtEn= 0.00D+00
 Coeff-Com:  0.151D-04-0.243D-03 0.288D-03 0.158D-02 0.462D-02 0.138D-01
 Coeff-Com: -0.226D-02-0.656D-01-0.478D-01 0.473D-01 0.455D+00 0.593D+00
 Coeff:      0.151D-04-0.243D-03 0.288D-03 0.158D-02 0.462D-02 0.138D-01
 Coeff:     -0.226D-02-0.656D-01-0.478D-01 0.473D-01 0.455D+00 0.593D+00
 Gap=     0.127 Goal=   None    Shift=    0.000
 Gap=     0.076 Goal=   None    Shift=    0.000
 RMSDP=8.75D-09 MaxDP=1.62D-06 DE=-2.46D-11 OVMax= 4.26D-06

 Cycle  13  Pass 1  IDiag  1:
 RMSU=  4.23D-09    CP:  1.00D+00  1.11D+00  7.99D-01  7.91D-01  7.57D-01
                    CP:  1.11D+00  1.54D+00  1.82D+00  1.62D+00  1.42D+00
                    CP:  1.02D+00  7.55D-01
 E= -2086.29831136470     Delta-E=       -0.000000000206 Rises=F Damp=F
 DIIS: error= 4.12D-08 at cycle  13 NSaved=  13.
 NSaved=13 IEnMin=13 EnMin= -2086.29831136470     IErMin=13 ErrMin= 4.12D-08
 ErrMax= 4.12D-08  0.00D+00 EMaxC= 1.00D-01 BMatC= 6.46D-12 BMatP= 7.64D-11
 IDIUse=1 WtCom= 1.00D+00 WtEn= 0.00D+00
 Coeff-Com:  0.460D-05-0.661D-04 0.208D-05 0.222D-03 0.862D-03 0.374D-02
 Coeff-Com:  0.363D-02-0.216D-02-0.245D-01-0.375D-01 0.842D-01 0.233D+00
 Coeff-Com:  0.739D+00
 Coeff:      0.460D-05-0.661D-04 0.208D-05 0.222D-03 0.862D-03 0.374D-02
 Coeff:      0.363D-02-0.216D-02-0.245D-01-0.375D-01 0.842D-01 0.233D+00
 Coeff:      0.739D+00
 Gap=     0.127 Goal=   None    Shift=    0.000
 Gap=     0.076 Goal=   None    Shift=    0.000
 RMSDP=2.92D-09 MaxDP=4.23D-07 DE=-2.06D-10 OVMax= 1.08D-06

 Error on total polarization charges =  0.05485
 SCF Done:  E(UB3LYP) =  -2086.29831136     A.U. after   13 cycles
            NFock= 13  Conv=0.29D-08     -V/T= 2.0096
 <Sx>= 0.0000 <Sy>= 0.0000 <Sz>= 0.5000 <S**2>= 0.7738 S= 0.5118
 <L.S>= 0.000000000000E+00
 KE= 2.066477915000D+03 PE=-1.635733902636D+04 EE= 6.428201348939D+03
 Annihilation of the first spin contaminant:
 S**2 before annihilation     0.7738,   after     0.7504
 Leave Link  502 at Thu Dec 20 19:15:15 2018, MaxMem=  1342177280 cpu:            4461.4 elap:             286.4
 (Enter /gpfs/apps/hpc/Apps/Restricted/Gaussian/Rev_A.03/g16/l701.exe)
 ... and contract with generalized density number  0.
 Compute integral first derivatives.
 R6Disp: Adding Grimme-D3(BJ) dispersion energy 1st derivatives to the gradient.
 D1PCM: C-PCM CHGder 1st derivatives, ID1Alg=3 FixD1E=F DoIter=F DoCFld=F I1PDM=0.
 GePol: Maximum number of non-zero 1st derivatives   =     209
 Leave Link  701 at Thu Dec 20 19:15:19 2018, MaxMem=  1342177280 cpu:              71.1 elap:               4.5
 (Enter /gpfs/apps/hpc/Apps/Restricted/Gaussian/Rev_A.03/g16/l702.exe)
 L702 exits ... SP integral derivatives will be done elsewhere.
 Leave Link  702 at Thu Dec 20 19:15:19 2018, MaxMem=  1342177280 cpu:               0.6 elap:               0.1
 (Enter /gpfs/apps/hpc/Apps/Restricted/Gaussian/Rev_A.03/g16/l703.exe)
 Integral derivatives from FoFJK, PRISM(SPDF).
 Compute integral first derivatives, UseDBF=F ICtDFT=           0.
 Calling FoFJK, ICntrl=      2127 FMM=T ISym2X=0 I1Cent= 0 IOpClX= 1 NMat=1 NMatS=1 NMatT=0.
 FoFJK:  IHMeth= 1 ICntrl=    2127 DoSepK=F KAlg= 0 I1Cent=           0 FoldK=F
 IRaf=         0 NMat=       1 IRICut=       1 DoRegI=T DoRafI=F ISym2E= 0 IDoP0=0 IntGTp=1.
 FoFCou: FMM=T IPFlag=           0 FMFlag=      100000 FMFlg1=        2001
         NFxFlg=           0 DoJE=F BraDBF=F KetDBF=F FulRan=T
         wScrn=  0.000000 ICntrl=      2127 IOpCl=  1 I1Cent=           0 NGrid=           0
         NMat0=    1 NMatS0=      1 NMatT0=    0 NMatD0=    1 NMtDS0=    0 NMtDT0=    0
 Symmetry not used in FoFCou.
 FMM levels:  10  Number of levels for PrismC:   9
