 Entering Gaussian System, Link 0=g16
 Initial command:
 /gpfs/apps/hpc/Apps/Restricted/Gaussian/Rev_A.03/g16/l1.exe "/gpfs/scratch60/fas/hammes_schiffer/jg2487/c13n12/Gau-2523.inp" -scrdir="/gpfs/scratch60/fas/hammes_schiffer/jg2487/c13n12/"
 Entering Link 1 = /gpfs/apps/hpc/Apps/Restricted/Gaussian/Rev_A.03/g16/l1.exe PID=      2526.
  
 Copyright (c) 1988,1990,1992,1993,1995,1998,2003,2009,2016,
            Gaussian, Inc.  All Rights Reserved.
  
 This is part of the Gaussian(R) 16 program.  It is based on
 the Gaussian(R) 09 system (copyright 2009, Gaussian, Inc.),
 the Gaussian(R) 03 system (copyright 2003, Gaussian, Inc.),
 the Gaussian(R) 98 system (copyright 1998, Gaussian, Inc.),
 the Gaussian(R) 94 system (copyright 1995, Gaussian, Inc.),
 the Gaussian 92(TM) system (copyright 1992, Gaussian, Inc.),
 the Gaussian 90(TM) system (copyright 1990, Gaussian, Inc.),
 the Gaussian 88(TM) system (copyright 1988, Gaussian, Inc.),
 the Gaussian 86(TM) system (copyright 1986, Carnegie Mellon
 University), and the Gaussian 82(TM) system (copyright 1983,
 Carnegie Mellon University). Gaussian is a federally registered
 trademark of Gaussian, Inc.
  
 This software contains proprietary and confidential information,
 including trade secrets, belonging to Gaussian, Inc.
  
 This software is provided under written license and may be
 used, copied, transmitted, or stored only in accord with that
 written license.
  
 The following legend is applicable only to US Government
 contracts under FAR:
  
                    RESTRICTED RIGHTS LEGEND
  
 Use, reproduction and disclosure by the US Government is
 subject to restrictions as set forth in subparagraphs (a)
 and (c) of the Commercial Computer Software - Restricted
 Rights clause in FAR 52.227-19.
  
 Gaussian, Inc.
 340 Quinnipiac St., Bldg. 40, Wallingford CT 06492
  
  
 ---------------------------------------------------------------
 Warning -- This program may not be used in any manner that
 competes with the business of Gaussian, Inc. or will provide
 assistance to any competitor of Gaussian, Inc.  The licensee
 of this program is prohibited from giving any competitor of
 Gaussian, Inc. access to this program.  By using this program,
 the user acknowledges that Gaussian, Inc. is engaged in the
 business of creating and licensing software in the field of
 computational chemistry and represents and warrants to the
 licensee that it is not a competitor of Gaussian, Inc. and that
 it will not use this program in any manner prohibited above.
 ---------------------------------------------------------------
  

 Cite this work as:
 Gaussian 16, Revision A.03,
 M. J. Frisch, G. W. Trucks, H. B. Schlegel, G. E. Scuseria, 
 M. A. Robb, J. R. Cheeseman, G. Scalmani, V. Barone, 
 G. A. Petersson, H. Nakatsuji, X. Li, M. Caricato, A. V. Marenich, 
 J. Bloino, B. G. Janesko, R. Gomperts, B. Mennucci, H. P. Hratchian, 
 J. V. Ortiz, A. F. Izmaylov, J. L. Sonnenberg, D. Williams-Young, 
 F. Ding, F. Lipparini, F. Egidi, J. Goings, B. Peng, A. Petrone, 
 T. Henderson, D. Ranasinghe, V. G. Zakrzewski, J. Gao, N. Rega, 
 G. Zheng, W. Liang, M. Hada, M. Ehara, K. Toyota, R. Fukuda, 
 J. Hasegawa, M. Ishida, T. Nakajima, Y. Honda, O. Kitao, H. Nakai, 
 T. Vreven, K. Throssell, J. A. Montgomery, Jr., J. E. Peralta, 
 F. Ogliaro, M. J. Bearpark, J. J. Heyd, E. N. Brothers, K. N. Kudin, 
 V. N. Staroverov, T. A. Keith, R. Kobayashi, J. Normand, 
 K. Raghavachari, A. P. Rendell, J. C. Burant, S. S. Iyengar, 
 J. Tomasi, M. Cossi, J. M. Millam, M. Klene, C. Adamo, R. Cammi, 
 J. W. Ochterski, R. L. Martin, K. Morokuma, O. Farkas, 
 J. B. Foresman, and D. J. Fox, Gaussian, Inc., Wallingford CT, 2016.
 
 ******************************************
 Gaussian 16:  ES64L-G16RevA.03 25-Dec-2016
                16-Dec-2018 
 ******************************************
 %chk=cyclohexyl-triBIP-E2PT.chk
 %mem=10GB
 %nprocshared=16
 Will use up to   16 processors via shared memory.
 ----------------------------------------------------------------------
 #p opt=tight freq=internalmodes b3lyp/6-31g(d,p) scrf=(cpcm,solvent=di
 chloromethane,read) nosymm empiricaldispersion=gd3bj int=grid=ultrafin
 e
 ----------------------------------------------------------------------
 1/7=10,18=20,19=15,26=6,38=1,40=2/1,3;
 2/9=110,12=2,15=1,17=6,18=5,40=1/2;
 3/5=1,6=6,7=101,11=2,25=1,30=1,70=2103,71=1,72=9,74=-5,75=-5,124=41/1,2,3;
 4//1;
 5/5=2,38=5,53=9/2;
 6/7=2,8=2,9=2,10=2,28=1/1;
 7/30=1/1,2,3,16;
 1/7=10,18=20,19=15,26=6/3(2);
 2/9=110,15=1/2;
 99//99;
 2/9=110,15=1/2;
 3/5=1,6=6,7=101,11=2,25=1,30=1,70=2105,71=1,72=9,74=-5,75=-5,124=41/1,2,3;
 4/5=5,16=3,69=1/1;
 5/5=2,38=5,53=9/2;
 7/30=1/1,2,3,16;
 1/7=10,18=20,19=15,26=6/3(-5);
 2/9=110,15=1/2;
 6/7=2,8=2,9=2,10=2,19=2,28=1/1;
 99/9=1/99;
 Leave Link    1 at Sun Dec 16 10:38:43 2018, MaxMem=  1342177280 cpu:               7.4 elap:               0.5
 (Enter /gpfs/apps/hpc/Apps/Restricted/Gaussian/Rev_A.03/g16/l101.exe)
 ----------------------------------------------------------------------
 cyclohexylimine triBIP oxidized, first two protons transferred optimiz
 ation
 ----------------------------------------------------------------------
 Symbolic Z-matrix:
 Charge =  1 Multiplicity = 2
 C                     1.63977   0.42399   0.89753 
 C                     0.55048   1.26104   0.60844 
 C                     0.71228   2.63721   0.45716 
 C                     2.00695   3.1306    0.60911 
 C                     3.09726   2.29532   0.90363 
 C                     2.94331   0.91326   1.05763 
 C                    -0.18399  -0.84961   0.77142 
 H                    -0.12426   3.28462   0.23167 
 H                     2.18093   4.19347   0.49588 
 H                     4.08328   2.73215   1.00395 
 C                    -2.47278  -1.739     0.55031 
 C                    -3.37578  -2.83284   0.57625 
 C                    -2.9608   -4.13911   0.82747 
 C                    -1.59926  -4.33744   1.05563 
 C                    -0.68254  -3.27635   1.03663 
 C                    -1.09713  -1.96238   0.78817 
 C                    -4.42336  -0.93025   0.12307 
 H                    -3.66286  -4.96321   0.84515 
 H                    -1.23482  -5.33726   1.25482 
 H                     0.36444  -3.48237   1.22025 
 N                    -0.5561    0.42652   0.54207 
 C                    -6.87755  -0.5697   -0.36409 
 C                    -5.518    -0.0387   -0.20588 
 C                    -5.28582   1.31641  -0.37634 
 C                    -6.32437   2.20305  -0.70848 
 C                    -7.64123   1.70192  -0.86631 
 C                    -7.94113   0.37056  -0.71172 
 H                    -4.27831   1.69591  -0.25365 
 H                    -8.4334    2.39998  -1.11685 
 C                    -6.04778   3.65886  -0.92241 
 H                    -5.12515   3.96442  -0.42727 
 H                    -5.93835   3.86649  -1.99348 
 H                    -6.87491   4.27243  -0.55903 
 C                    -9.32278  -0.1769   -0.8774 
 H                    -9.3556   -0.90242  -1.69612 
 H                    -9.63593  -0.71262   0.02309 
 H                    -10.03553   0.62143  -1.0834 
 O                    -7.14544  -1.78988  -0.21063 
 N                    -3.13948  -0.57163   0.27047 
 N                    -4.59922  -2.27398   0.30399 
 N                     1.14617  -0.86414   0.98469 
 C                     4.01913  -0.01173   1.37094 
 N                     3.86261  -1.33411   1.40949 
 N                     5.30591   0.366     1.65666 
 C                     7.36923  -0.96535   2.24687 
 C                     7.7737   -2.29352   2.41514 
 C                     6.88121  -3.36872   2.24793 
 C                     5.54584  -3.16571   1.90804 
 C                     5.10996  -1.84506   1.73268 
 C                     6.02327  -0.77892   1.89619 
 H                     8.8041   -2.49371   2.68843 
 H                     7.24564  -4.37891   2.39099 
 H                     4.86082  -3.99636   1.78855 
 C                     8.27672   0.16261   2.45023 
 H                     9.30751  -0.1012    2.70016 
 N                     7.86756   1.37247   2.35193 
 C                     8.79192   2.48529   2.57295 
 C                     10.24024   2.13263   2.92938 
 C                     8.7438    3.40864   1.3439 
 H                     8.36809   3.05285   3.41433 
 C                     11.07374   3.39887   3.15708 
 H                     10.67951   1.54984   2.11045 
 H                     10.26667   1.49945   3.82156 
 C                     9.5808    4.67282   1.56401 
 H                     9.1289    2.85248   0.48016 
 H                     7.70195   3.66255   1.12556 
 C                     11.02632   4.33084   1.94164 
 H                     12.10769   3.12427   3.38763 
 H                     10.68676   3.93229   4.03442 
 H                     9.55906   5.29714   0.6658 
 H                     9.13028   5.26357   2.37131 
 H                     11.58949   5.24669   2.14644 
 H                     11.51464   3.83751   1.09195 
 H                    -1.53504   0.65705   0.35566 
 H                    -5.5207   -2.69587   0.21546 
 H                     1.7625   -1.6538    1.17269 
 H                     5.7237    1.28665   1.74435 
 
 ITRead=  0  0  0  0  0  0  0  0  0  0  0  0  0  0  0  0  0  0  0  0
 ITRead=  0  0  0  0  0  0  0  0  0  0  0  0  0  0  0  0  0  0  0  0
 ITRead=  0  0  0  0  0  0  0  0  0  0  0  0  0  0  0  0  0  0  0  0
 ITRead=  0  0  0  0  0  0  0  0  0  0  0  0  0  0  0  0  0
 MicOpt= -1 -1 -1 -1 -1 -1 -1 -1 -1 -1 -1 -1 -1 -1 -1 -1 -1 -1 -1 -1
 MicOpt= -1 -1 -1 -1 -1 -1 -1 -1 -1 -1 -1 -1 -1 -1 -1 -1 -1 -1 -1 -1
 MicOpt= -1 -1 -1 -1 -1 -1 -1 -1 -1 -1 -1 -1 -1 -1 -1 -1 -1 -1 -1 -1
 MicOpt= -1 -1 -1 -1 -1 -1 -1 -1 -1 -1 -1 -1 -1 -1 -1 -1 -1
 NAtoms=     77 NQM=       77 NQMF=       0 NMMI=      0 NMMIF=      0
                NMic=       0 NMicF=      0.
                    Isotopes and Nuclear Properties:
 (Nuclear quadrupole moments (NQMom) in fm**2, nuclear magnetic moments (NMagM)
  in nuclear magnetons)

  Atom         1           2           3           4           5           6           7           8           9          10
 IAtWgt=          12          12          12          12          12          12          12           1           1           1
 AtmWgt=  12.0000000  12.0000000  12.0000000  12.0000000  12.0000000  12.0000000  12.0000000   1.0078250   1.0078250   1.0078250
 NucSpn=           0           0           0           0           0           0           0           1           1           1
 AtZEff=  -0.0000000  -0.0000000  -0.0000000  -0.0000000  -0.0000000  -0.0000000  -0.0000000  -0.0000000  -0.0000000  -0.0000000
 NQMom=    0.0000000   0.0000000   0.0000000   0.0000000   0.0000000   0.0000000   0.0000000   0.0000000   0.0000000   0.0000000
 NMagM=    0.0000000   0.0000000   0.0000000   0.0000000   0.0000000   0.0000000   0.0000000   2.7928460   2.7928460   2.7928460
 AtZNuc=   6.0000000   6.0000000   6.0000000   6.0000000   6.0000000   6.0000000   6.0000000   1.0000000   1.0000000   1.0000000

  Atom        11          12          13          14          15          16          17          18          19          20
 IAtWgt=          12          12          12          12          12          12          12           1           1           1
 AtmWgt=  12.0000000  12.0000000  12.0000000  12.0000000  12.0000000  12.0000000  12.0000000   1.0078250   1.0078250   1.0078250
 NucSpn=           0           0           0           0           0           0           0           1           1           1
 AtZEff=  -0.0000000  -0.0000000  -0.0000000  -0.0000000  -0.0000000  -0.0000000  -0.0000000  -0.0000000  -0.0000000  -0.0000000
 NQMom=    0.0000000   0.0000000   0.0000000   0.0000000   0.0000000   0.0000000   0.0000000   0.0000000   0.0000000   0.0000000
 NMagM=    0.0000000   0.0000000   0.0000000   0.0000000   0.0000000   0.0000000   0.0000000   2.7928460   2.7928460   2.7928460
 AtZNuc=   6.0000000   6.0000000   6.0000000   6.0000000   6.0000000   6.0000000   6.0000000   1.0000000   1.0000000   1.0000000

  Atom        21          22          23          24          25          26          27          28          29          30
 IAtWgt=          14          12          12          12          12          12          12           1           1          12
 AtmWgt=  14.0030740  12.0000000  12.0000000  12.0000000  12.0000000  12.0000000  12.0000000   1.0078250   1.0078250  12.0000000
 NucSpn=           2           0           0           0           0           0           0           1           1           0
 AtZEff=  -0.0000000  -0.0000000  -0.0000000  -0.0000000  -0.0000000  -0.0000000  -0.0000000  -0.0000000  -0.0000000  -0.0000000
 NQMom=    2.0440000   0.0000000   0.0000000   0.0000000   0.0000000   0.0000000   0.0000000   0.0000000   0.0000000   0.0000000
 NMagM=    0.4037610   0.0000000   0.0000000   0.0000000   0.0000000   0.0000000   0.0000000   2.7928460   2.7928460   0.0000000
 AtZNuc=   7.0000000   6.0000000   6.0000000   6.0000000   6.0000000   6.0000000   6.0000000   1.0000000   1.0000000   6.0000000

  Atom        31          32          33          34          35          36          37          38          39          40
 IAtWgt=           1           1           1          12           1           1           1          16          14          14
 AtmWgt=   1.0078250   1.0078250   1.0078250  12.0000000   1.0078250   1.0078250   1.0078250  15.9949146  14.0030740  14.0030740
 NucSpn=           1           1           1           0           1           1           1           0           2           2
 AtZEff=  -0.0000000  -0.0000000  -0.0000000  -0.0000000  -0.0000000  -0.0000000  -0.0000000  -0.0000000  -0.0000000  -0.0000000
 NQMom=    0.0000000   0.0000000   0.0000000   0.0000000   0.0000000   0.0000000   0.0000000   0.0000000   2.0440000   2.0440000
 NMagM=    2.7928460   2.7928460   2.7928460   0.0000000   2.7928460   2.7928460   2.7928460   0.0000000   0.4037610   0.4037610
 AtZNuc=   1.0000000   1.0000000   1.0000000   6.0000000   1.0000000   1.0000000   1.0000000   8.0000000   7.0000000   7.0000000

  Atom        41          42          43          44          45          46          47          48          49          50
 IAtWgt=          14          12          14          14          12          12          12          12          12          12
 AtmWgt=  14.0030740  12.0000000  14.0030740  14.0030740  12.0000000  12.0000000  12.0000000  12.0000000  12.0000000  12.0000000
 NucSpn=           2           0           2           2           0           0           0           0           0           0
 AtZEff=  -0.0000000  -0.0000000  -0.0000000  -0.0000000  -0.0000000  -0.0000000  -0.0000000  -0.0000000  -0.0000000  -0.0000000
 NQMom=    2.0440000   0.0000000   2.0440000   2.0440000   0.0000000   0.0000000   0.0000000   0.0000000   0.0000000   0.0000000
 NMagM=    0.4037610   0.0000000   0.4037610   0.4037610   0.0000000   0.0000000   0.0000000   0.0000000   0.0000000   0.0000000
 AtZNuc=   7.0000000   6.0000000   7.0000000   7.0000000   6.0000000   6.0000000   6.0000000   6.0000000   6.0000000   6.0000000

  Atom        51          52          53          54          55          56          57          58          59          60
 IAtWgt=           1           1           1          12           1          14          12          12          12           1
 AtmWgt=   1.0078250   1.0078250   1.0078250  12.0000000   1.0078250  14.0030740  12.0000000  12.0000000  12.0000000   1.0078250
 NucSpn=           1           1           1           0           1           2           0           0           0           1
 AtZEff=  -0.0000000  -0.0000000  -0.0000000  -0.0000000  -0.0000000  -0.0000000  -0.0000000  -0.0000000  -0.0000000  -0.0000000
 NQMom=    0.0000000   0.0000000   0.0000000   0.0000000   0.0000000   2.0440000   0.0000000   0.0000000   0.0000000   0.0000000
 NMagM=    2.7928460   2.7928460   2.7928460   0.0000000   2.7928460   0.4037610   0.0000000   0.0000000   0.0000000   2.7928460
 AtZNuc=   1.0000000   1.0000000   1.0000000   6.0000000   1.0000000   7.0000000   6.0000000   6.0000000   6.0000000   1.0000000

  Atom        61          62          63          64          65          66          67          68          69          70
 IAtWgt=          12           1           1          12           1           1          12           1           1           1
 AtmWgt=  12.0000000   1.0078250   1.0078250  12.0000000   1.0078250   1.0078250  12.0000000   1.0078250   1.0078250   1.0078250
 NucSpn=           0           1           1           0           1           1           0           1           1           1
 AtZEff=  -0.0000000  -0.0000000  -0.0000000  -0.0000000  -0.0000000  -0.0000000  -0.0000000  -0.0000000  -0.0000000  -0.0000000
 NQMom=    0.0000000   0.0000000   0.0000000   0.0000000   0.0000000   0.0000000   0.0000000   0.0000000   0.0000000   0.0000000
 NMagM=    0.0000000   2.7928460   2.7928460   0.0000000   2.7928460   2.7928460   0.0000000   2.7928460   2.7928460   2.7928460
 AtZNuc=   6.0000000   1.0000000   1.0000000   6.0000000   1.0000000   1.0000000   6.0000000   1.0000000   1.0000000   1.0000000

  Atom        71          72          73          74          75          76          77
 IAtWgt=           1           1           1           1           1           1           1
 AtmWgt=   1.0078250   1.0078250   1.0078250   1.0078250   1.0078250   1.0078250   1.0078250
 NucSpn=           1           1           1           1           1           1           1
 AtZEff=  -0.0000000  -0.0000000  -0.0000000  -0.0000000  -0.0000000  -0.0000000  -0.0000000
 NQMom=    0.0000000   0.0000000   0.0000000   0.0000000   0.0000000   0.0000000   0.0000000
 NMagM=    2.7928460   2.7928460   2.7928460   2.7928460   2.7928460   2.7928460   2.7928460
 AtZNuc=   1.0000000   1.0000000   1.0000000   1.0000000   1.0000000   1.0000000   1.0000000
 Leave Link  101 at Sun Dec 16 10:38:44 2018, MaxMem=  1342177280 cpu:               4.9 elap:               0.3
 (Enter /gpfs/apps/hpc/Apps/Restricted/Gaussian/Rev_A.03/g16/l103.exe)

 GradGradGradGradGradGradGradGradGradGradGradGradGradGradGradGradGradGrad
 Berny optimization.
 Initialization pass.
                           ----------------------------
                           !    Initial Parameters    !
                           ! (Angstroms and Degrees)  !
 --------------------------                            --------------------------
 ! Name  Definition              Value          Derivative Info.                !
 --------------------------------------------------------------------------------
 ! R1    R(1,2)                  1.4038         estimate D2E/DX2                !
 ! R2    R(1,6)                  1.4015         estimate D2E/DX2                !
 ! R3    R(1,41)                 1.3822         estimate D2E/DX2                !
 ! R4    R(2,3)                  1.3939         estimate D2E/DX2                !
 ! R5    R(2,21)                 1.3876         estimate D2E/DX2                !
 ! R6    R(3,4)                  1.3938         estimate D2E/DX2                !
 ! R7    R(3,8)                  1.0816         estimate D2E/DX2                !
 ! R8    R(4,5)                  1.4047         estimate D2E/DX2                !
 ! R9    R(4,9)                  1.0829         estimate D2E/DX2                !
 ! R10   R(5,6)                  1.3991         estimate D2E/DX2                !
 ! R11   R(5,10)                 1.0831         estimate D2E/DX2                !
 ! R12   R(6,42)                 1.453          estimate D2E/DX2                !
 ! R13   R(7,16)                 1.4396         estimate D2E/DX2                !
 ! R14   R(7,21)                 1.3489         estimate D2E/DX2                !
 ! R15   R(7,41)                 1.3472         estimate D2E/DX2                !
 ! R16   R(11,12)                1.4187         estimate D2E/DX2                !
 ! R17   R(11,16)                1.4138         estimate D2E/DX2                !
 ! R18   R(11,39)                1.3732         estimate D2E/DX2                !
 ! R19   R(12,13)                1.3934         estimate D2E/DX2                !
 ! R20   R(12,40)                1.3723         estimate D2E/DX2                !
 ! R21   R(13,14)                1.3947         estimate D2E/DX2                !
 ! R22   R(13,18)                1.0827         estimate D2E/DX2                !
 ! R23   R(14,15)                1.4024         estimate D2E/DX2                !
 ! R24   R(14,19)                1.0827         estimate D2E/DX2                !
 ! R25   R(15,16)                1.4            estimate D2E/DX2                !
 ! R26   R(15,20)                1.0827         estimate D2E/DX2                !
 ! R27   R(17,23)                1.4496         estimate D2E/DX2                !
 ! R28   R(17,39)                1.3411         estimate D2E/DX2                !
 ! R29   R(17,40)                1.3672         estimate D2E/DX2                !
 ! R30   R(21,74)                1.0228         estimate D2E/DX2                !
 ! R31   R(22,23)                1.4681         estimate D2E/DX2                !
 ! R32   R(22,27)                1.4616         estimate D2E/DX2                !
 ! R33   R(22,38)                1.2586         estimate D2E/DX2                !
 ! R34   R(23,24)                1.3854         estimate D2E/DX2                !
 ! R35   R(24,25)                1.4054         estimate D2E/DX2                !
 ! R36   R(24,28)                1.0836         estimate D2E/DX2                !
 ! R37   R(25,26)                1.4178         estimate D2E/DX2                !
 ! R38   R(25,30)                1.4972         estimate D2E/DX2                !
 ! R39   R(26,27)                1.3735         estimate D2E/DX2                !
 ! R40   R(26,29)                1.0852         estimate D2E/DX2                !
 ! R41   R(27,34)                1.4954         estimate D2E/DX2                !
 ! R42   R(30,31)                1.0908         estimate D2E/DX2                !
 ! R43   R(30,32)                1.0965         estimate D2E/DX2                !
 ! R44   R(30,33)                1.0921         estimate D2E/DX2                !
 ! R45   R(34,35)                1.0944         estimate D2E/DX2                !
 ! R46   R(34,36)                1.0936         estimate D2E/DX2                !
 ! R47   R(34,37)                1.0899         estimate D2E/DX2                !
 ! R48   R(40,75)                1.0173         estimate D2E/DX2                !
 ! R49   R(41,76)                1.0192         estimate D2E/DX2                !
 ! R50   R(42,43)                1.3322         estimate D2E/DX2                !
 ! R51   R(42,44)                1.3712         estimate D2E/DX2                !
 ! R52   R(43,49)                1.3861         estimate D2E/DX2                !
 ! R53   R(44,50)                1.3722         estimate D2E/DX2                !
 ! R54   R(44,77)                1.0148         estimate D2E/DX2                !
 ! R55   R(45,46)                1.3985         estimate D2E/DX2                !
 ! R56   R(45,50)                1.4033         estimate D2E/DX2                !
 ! R57   R(45,54)                1.4619         estimate D2E/DX2                !
 ! R58   R(46,47)                1.4073         estimate D2E/DX2                !
 ! R59   R(46,51)                1.0847         estimate D2E/DX2                !
 ! R60   R(47,48)                1.3928         estimate D2E/DX2                !
 ! R61   R(47,52)                1.0834         estimate D2E/DX2                !
 ! R62   R(48,49)                1.4017         estimate D2E/DX2                !
 ! R63   R(48,53)                1.0833         estimate D2E/DX2                !
 ! R64   R(49,50)                1.4133         estimate D2E/DX2                !
 ! R65   R(54,55)                1.093          estimate D2E/DX2                !
 ! R66   R(54,56)                1.281          estimate D2E/DX2                !
 ! R67   R(56,57)                1.4634         estimate D2E/DX2                !
 ! R68   R(57,58)                1.5327         estimate D2E/DX2                !
 ! R69   R(57,59)                1.538          estimate D2E/DX2                !
 ! R70   R(57,60)                1.0999         estimate D2E/DX2                !
 ! R71   R(58,61)                1.5329         estimate D2E/DX2                !
 ! R72   R(58,62)                1.0969         estimate D2E/DX2                !
 ! R73   R(58,63)                1.0944         estimate D2E/DX2                !
 ! R74   R(59,64)                1.532          estimate D2E/DX2                !
 ! R75   R(59,65)                1.0971         estimate D2E/DX2                !
 ! R76   R(59,66)                1.0943         estimate D2E/DX2                !
 ! R77   R(61,67)                1.5323         estimate D2E/DX2                !
 ! R78   R(61,68)                1.0944         estimate D2E/DX2                !
 ! R79   R(61,69)                1.0973         estimate D2E/DX2                !
 ! R80   R(64,67)                1.5327         estimate D2E/DX2                !
 ! R81   R(64,70)                1.0941         estimate D2E/DX2                !
 ! R82   R(64,71)                1.0971         estimate D2E/DX2                !
 ! R83   R(67,72)                1.0945         estimate D2E/DX2                !
 ! R84   R(67,73)                1.0972         estimate D2E/DX2                !
 ! A1    A(2,1,6)              122.4836         estimate D2E/DX2                !
 ! A2    A(2,1,41)             106.9519         estimate D2E/DX2                !
 ! A3    A(6,1,41)             130.5627         estimate D2E/DX2                !
 ! A4    A(1,2,3)              121.3969         estimate D2E/DX2                !
 ! A5    A(1,2,21)             105.667          estimate D2E/DX2                !
 ! A6    A(3,2,21)             132.9347         estimate D2E/DX2                !
 ! A7    A(2,3,4)              116.4543         estimate D2E/DX2                !
 ! A8    A(2,3,8)              121.5894         estimate D2E/DX2                !
 ! A9    A(4,3,8)              121.9561         estimate D2E/DX2                !
 ! A10   A(3,4,5)              122.2311         estimate D2E/DX2                !
 ! A11   A(3,4,9)              119.0291         estimate D2E/DX2                !
 ! A12   A(5,4,9)              118.7398         estimate D2E/DX2                !
 ! A13   A(4,5,6)              121.6721         estimate D2E/DX2                !
 ! A14   A(4,5,10)             119.0916         estimate D2E/DX2                !
 ! A15   A(6,5,10)             119.2334         estimate D2E/DX2                !
 ! A16   A(1,6,5)              115.7608         estimate D2E/DX2                !
 ! A17   A(1,6,42)             119.41           estimate D2E/DX2                !
 ! A18   A(5,6,42)             124.8282         estimate D2E/DX2                !
 ! A19   A(16,7,21)            123.9368         estimate D2E/DX2                !
 ! A20   A(16,7,41)            128.0318         estimate D2E/DX2                !
 ! A21   A(21,7,41)            108.0279         estimate D2E/DX2                !
 ! A22   A(12,11,16)           119.6322         estimate D2E/DX2                !
 ! A23   A(12,11,39)           110.4983         estimate D2E/DX2                !
 ! A24   A(16,11,39)           129.8681         estimate D2E/DX2                !
 ! A25   A(11,12,13)           122.4491         estimate D2E/DX2                !
 ! A26   A(11,12,40)           104.4676         estimate D2E/DX2                !
 ! A27   A(13,12,40)           133.0814         estimate D2E/DX2                !
 ! A28   A(12,13,14)           116.9702         estimate D2E/DX2                !
 ! A29   A(12,13,18)           121.557          estimate D2E/DX2                !
 ! A30   A(14,13,18)           121.4728         estimate D2E/DX2                !
 ! A31   A(13,14,15)           121.8934         estimate D2E/DX2                !
 ! A32   A(13,14,19)           119.3428         estimate D2E/DX2                !
 ! A33   A(15,14,19)           118.7638         estimate D2E/DX2                !
 ! A34   A(14,15,16)           121.2621         estimate D2E/DX2                !
 ! A35   A(14,15,20)           119.0667         estimate D2E/DX2                !
 ! A36   A(16,15,20)           119.671          estimate D2E/DX2                !
 ! A37   A(7,16,11)            119.5446         estimate D2E/DX2                !
 ! A38   A(7,16,15)            122.6629         estimate D2E/DX2                !
 ! A39   A(11,16,15)           117.7923         estimate D2E/DX2                !
 ! A40   A(23,17,39)           125.6877         estimate D2E/DX2                !
 ! A41   A(23,17,40)           122.5049         estimate D2E/DX2                !
 ! A42   A(39,17,40)           111.8021         estimate D2E/DX2                !
 ! A43   A(2,21,7)             109.9284         estimate D2E/DX2                !
 ! A44   A(2,21,74)            129.5261         estimate D2E/DX2                !
 ! A45   A(7,21,74)            120.5454         estimate D2E/DX2                !
 ! A46   A(23,22,27)           117.8298         estimate D2E/DX2                !
 ! A47   A(23,22,38)           122.3168         estimate D2E/DX2                !
 ! A48   A(27,22,38)           119.8534         estimate D2E/DX2                !
 ! A49   A(17,23,22)           120.086          estimate D2E/DX2                !
 ! A50   A(17,23,24)           120.1964         estimate D2E/DX2                !
 ! A51   A(22,23,24)           119.7173         estimate D2E/DX2                !
 ! A52   A(23,24,25)           121.4892         estimate D2E/DX2                !
 ! A53   A(23,24,28)           118.9776         estimate D2E/DX2                !
 ! A54   A(25,24,28)           119.5328         estimate D2E/DX2                !
 ! A55   A(24,25,26)           119.3208         estimate D2E/DX2                !
 ! A56   A(24,25,30)           120.7101         estimate D2E/DX2                !
 ! A57   A(26,25,30)           119.9578         estimate D2E/DX2                !
 ! A58   A(25,26,27)           122.2021         estimate D2E/DX2                !
 ! A59   A(25,26,29)           118.4478         estimate D2E/DX2                !
 ! A60   A(27,26,29)           119.3501         estimate D2E/DX2                !
 ! A61   A(22,27,26)           119.4379         estimate D2E/DX2                !
 ! A62   A(22,27,34)           117.5938         estimate D2E/DX2                !
 ! A63   A(26,27,34)           122.9678         estimate D2E/DX2                !
 ! A64   A(25,30,31)           111.333          estimate D2E/DX2                !
 ! A65   A(25,30,32)           110.0069         estimate D2E/DX2                !
 ! A66   A(25,30,33)           111.0284         estimate D2E/DX2                !
 ! A67   A(31,30,32)           107.8158         estimate D2E/DX2                !
 ! A68   A(31,30,33)           109.4025         estimate D2E/DX2                !
 ! A69   A(32,30,33)           107.1111         estimate D2E/DX2                !
 ! A70   A(27,34,35)           110.6886         estimate D2E/DX2                !
 ! A71   A(27,34,36)           110.6516         estimate D2E/DX2                !
 ! A72   A(27,34,37)           110.9174         estimate D2E/DX2                !
 ! A73   A(35,34,36)           106.4192         estimate D2E/DX2                !
 ! A74   A(35,34,37)           108.9404         estimate D2E/DX2                !
 ! A75   A(36,34,37)           109.0996         estimate D2E/DX2                !
 ! A76   A(11,39,17)           105.0617         estimate D2E/DX2                !
 ! A77   A(12,40,17)           108.1693         estimate D2E/DX2                !
 ! A78   A(12,40,75)           130.9876         estimate D2E/DX2                !
 ! A79   A(17,40,75)           120.8358         estimate D2E/DX2                !
 ! A80   A(1,41,7)             109.4236         estimate D2E/DX2                !
 ! A81   A(1,41,76)            121.1798         estimate D2E/DX2                !
 ! A82   A(7,41,76)            129.3916         estimate D2E/DX2                !
 ! A83   A(6,42,43)            123.4479         estimate D2E/DX2                !
 ! A84   A(6,42,44)            124.3615         estimate D2E/DX2                !
 ! A85   A(43,42,44)           112.1905         estimate D2E/DX2                !
 ! A86   A(42,43,49)           105.4811         estimate D2E/DX2                !
 ! A87   A(42,44,50)           107.2859         estimate D2E/DX2                !
 ! A88   A(42,44,77)           130.8647         estimate D2E/DX2                !
 ! A89   A(50,44,77)           121.7801         estimate D2E/DX2                !
 ! A90   A(46,45,50)           115.6972         estimate D2E/DX2                !
 ! A91   A(46,45,54)           122.4437         estimate D2E/DX2                !
 ! A92   A(50,45,54)           121.8459         estimate D2E/DX2                !
 ! A93   A(45,46,47)           121.8605         estimate D2E/DX2                !
 ! A94   A(45,46,51)           118.7072         estimate D2E/DX2                !
 ! A95   A(47,46,51)           119.4311         estimate D2E/DX2                !
 ! A96   A(46,47,48)           121.7123         estimate D2E/DX2                !
 ! A97   A(46,47,52)           118.9057         estimate D2E/DX2                !
 ! A98   A(48,47,52)           119.3818         estimate D2E/DX2                !
 ! A99   A(47,48,49)           117.7738         estimate D2E/DX2                !
 ! A100  A(47,48,53)           121.4281         estimate D2E/DX2                !
 ! A101  A(49,48,53)           120.7968         estimate D2E/DX2                !
 ! A102  A(43,49,48)           131.0167         estimate D2E/DX2                !
 ! A103  A(43,49,50)           109.2944         estimate D2E/DX2                !
 ! A104  A(48,49,50)           119.6885         estimate D2E/DX2                !
 ! A105  A(44,50,45)           130.9875         estimate D2E/DX2                !
 ! A106  A(44,50,49)           105.7463         estimate D2E/DX2                !
 ! A107  A(45,50,49)           123.2636         estimate D2E/DX2                !
 ! A108  A(45,54,55)           115.5321         estimate D2E/DX2                !
 ! A109  A(45,54,56)           121.3181         estimate D2E/DX2                !
 ! A110  A(55,54,56)           123.1455         estimate D2E/DX2                !
 ! A111  A(54,56,57)           120.3225         estimate D2E/DX2                !
 ! A112  A(56,57,58)           117.1958         estimate D2E/DX2                !
 ! A113  A(56,57,59)           108.4252         estimate D2E/DX2                !
 ! A114  A(56,57,60)           105.3389         estimate D2E/DX2                !
 ! A115  A(58,57,59)           110.7044         estimate D2E/DX2                !
 ! A116  A(58,57,60)           107.7573         estimate D2E/DX2                !
 ! A117  A(59,57,60)           106.8255         estimate D2E/DX2                !
 ! A118  A(57,58,61)           110.9948         estimate D2E/DX2                !
 ! A119  A(57,58,62)           109.0899         estimate D2E/DX2                !
 ! A120  A(57,58,63)           110.2153         estimate D2E/DX2                !
 ! A121  A(61,58,62)           109.3913         estimate D2E/DX2                !
 ! A122  A(61,58,63)           110.1022         estimate D2E/DX2                !
 ! A123  A(62,58,63)           106.9518         estimate D2E/DX2                !
 ! A124  A(57,59,64)           111.314          estimate D2E/DX2                !
 ! A125  A(57,59,65)           108.289          estimate D2E/DX2                !
 ! A126  A(57,59,66)           109.1787         estimate D2E/DX2                !
 ! A127  A(64,59,65)           109.8548         estimate D2E/DX2                !
 ! A128  A(64,59,66)           110.9368         estimate D2E/DX2                !
 ! A129  A(65,59,66)           107.1409         estimate D2E/DX2                !
 ! A130  A(58,61,67)           111.5758         estimate D2E/DX2                !
 ! A131  A(58,61,68)           109.739          estimate D2E/DX2                !
 ! A132  A(58,61,69)           109.1816         estimate D2E/DX2                !
 ! A133  A(67,61,68)           110.4228         estimate D2E/DX2                !
 ! A134  A(67,61,69)           109.1249         estimate D2E/DX2                !
 ! A135  A(68,61,69)           106.6633         estimate D2E/DX2                !
 ! A136  A(59,64,67)           111.5026         estimate D2E/DX2                !
 ! A137  A(59,64,70)           110.0017         estimate D2E/DX2                !
 ! A138  A(59,64,71)           109.007          estimate D2E/DX2                !
 ! A139  A(67,64,70)           110.386          estimate D2E/DX2                !
 ! A140  A(67,64,71)           109.0343         estimate D2E/DX2                !
 ! A141  A(70,64,71)           106.7787         estimate D2E/DX2                !
 ! A142  A(61,67,64)           111.12           estimate D2E/DX2                !
 ! A143  A(61,67,72)           110.1569         estimate D2E/DX2                !
 ! A144  A(61,67,73)           109.089          estimate D2E/DX2                !
 ! A145  A(64,67,72)           110.1623         estimate D2E/DX2                !
 ! A146  A(64,67,73)           109.2246         estimate D2E/DX2                !
 ! A147  A(72,67,73)           106.9867         estimate D2E/DX2                !
 ! D1    D(6,1,2,3)              0.3391         estimate D2E/DX2                !
 ! D2    D(6,1,2,21)          -179.2743         estimate D2E/DX2                !
 ! D3    D(41,1,2,3)           179.9014         estimate D2E/DX2                !
 ! D4    D(41,1,2,21)            0.288          estimate D2E/DX2                !
 ! D5    D(2,1,6,5)             -0.3489         estimate D2E/DX2                !
 ! D6    D(2,1,6,42)           179.3111         estimate D2E/DX2                !
 ! D7    D(41,1,6,5)          -179.7977         estimate D2E/DX2                !
 ! D8    D(41,1,6,42)           -0.1377         estimate D2E/DX2                !
 ! D9    D(2,1,41,7)            -0.349          estimate D2E/DX2                !
 ! D10   D(2,1,41,76)          178.9122         estimate D2E/DX2                !
 ! D11   D(6,1,41,7)           179.165          estimate D2E/DX2                !
 ! D12   D(6,1,41,76)           -1.5739         estimate D2E/DX2                !
 ! D13   D(1,2,3,4)             -0.0449         estimate D2E/DX2                !
 ! D14   D(1,2,3,8)            179.8246         estimate D2E/DX2                !
 ! D15   D(21,2,3,4)           179.4467         estimate D2E/DX2                !
 ! D16   D(21,2,3,8)            -0.6839         estimate D2E/DX2                !
 ! D17   D(1,2,21,7)            -0.1321         estimate D2E/DX2                !
 ! D18   D(1,2,21,74)          179.7866         estimate D2E/DX2                !
 ! D19   D(3,2,21,7)          -179.6813         estimate D2E/DX2                !
 ! D20   D(3,2,21,74)            0.2373         estimate D2E/DX2                !
 ! D21   D(2,3,4,5)             -0.2145         estimate D2E/DX2                !
 ! D22   D(2,3,4,9)            179.7301         estimate D2E/DX2                !
 ! D23   D(8,3,4,5)            179.9166         estimate D2E/DX2                !
 ! D24   D(8,3,4,9)             -0.1388         estimate D2E/DX2                !
 ! D25   D(3,4,5,6)              0.1963         estimate D2E/DX2                !
 ! D26   D(3,4,5,10)           179.5692         estimate D2E/DX2                !
 ! D27   D(9,4,5,6)           -179.7485         estimate D2E/DX2                !
 ! D28   D(9,4,5,10)            -0.3755         estimate D2E/DX2                !
 ! D29   D(4,5,6,1)              0.0878         estimate D2E/DX2                !
 ! D30   D(4,5,6,42)          -179.5513         estimate D2E/DX2                !
 ! D31   D(10,5,6,1)          -179.2843         estimate D2E/DX2                !
 ! D32   D(10,5,6,42)            1.0766         estimate D2E/DX2                !
 ! D33   D(1,6,42,43)            5.7739         estimate D2E/DX2                !
 ! D34   D(1,6,42,44)         -174.39           estimate D2E/DX2                !
 ! D35   D(5,6,42,43)         -174.5992         estimate D2E/DX2                !
 ! D36   D(5,6,42,44)            5.2369         estimate D2E/DX2                !
 ! D37   D(21,7,16,11)           0.1675         estimate D2E/DX2                !
 ! D38   D(21,7,16,15)        -179.6351         estimate D2E/DX2                !
 ! D39   D(41,7,16,11)         179.4085         estimate D2E/DX2                !
 ! D40   D(41,7,16,15)          -0.3942         estimate D2E/DX2                !
 ! D41   D(16,7,21,2)          179.2902         estimate D2E/DX2                !
 ! D42   D(16,7,21,74)          -0.6369         estimate D2E/DX2                !
 ! D43   D(41,7,21,2)           -0.0811         estimate D2E/DX2                !
 ! D44   D(41,7,21,74)         179.9918         estimate D2E/DX2                !
 ! D45   D(16,7,41,1)         -179.0689         estimate D2E/DX2                !
 ! D46   D(16,7,41,76)           1.7491         estimate D2E/DX2                !
 ! D47   D(21,7,41,1)            0.2689         estimate D2E/DX2                !
 ! D48   D(21,7,41,76)        -178.9132         estimate D2E/DX2                !
 ! D49   D(16,11,12,13)         -0.1122         estimate D2E/DX2                !
 ! D50   D(16,11,12,40)       -179.6686         estimate D2E/DX2                !
 ! D51   D(39,11,12,13)        179.4897         estimate D2E/DX2                !
 ! D52   D(39,11,12,40)         -0.0668         estimate D2E/DX2                !
 ! D53   D(12,11,16,7)        -179.532          estimate D2E/DX2                !
 ! D54   D(12,11,16,15)          0.2802         estimate D2E/DX2                !
 ! D55   D(39,11,16,7)           0.9539         estimate D2E/DX2                !
 ! D56   D(39,11,16,15)       -179.2339         estimate D2E/DX2                !
 ! D57   D(12,11,39,17)         -0.1345         estimate D2E/DX2                !
 ! D58   D(16,11,39,17)        179.4146         estimate D2E/DX2                !
 ! D59   D(11,12,13,14)         -0.0682         estimate D2E/DX2                !
 ! D60   D(11,12,13,18)        179.918          estimate D2E/DX2                !
 ! D61   D(40,12,13,14)        179.3438         estimate D2E/DX2                !
 ! D62   D(40,12,13,18)         -0.6701         estimate D2E/DX2                !
 ! D63   D(11,12,40,17)          0.2404         estimate D2E/DX2                !
 ! D64   D(11,12,40,75)        179.2402         estimate D2E/DX2                !
 ! D65   D(13,12,40,17)       -179.2472         estimate D2E/DX2                !
 ! D66   D(13,12,40,75)         -0.2474         estimate D2E/DX2                !
 ! D67   D(12,13,14,15)          0.0755         estimate D2E/DX2                !
 ! D68   D(12,13,14,19)        179.997          estimate D2E/DX2                !
 ! D69   D(18,13,14,15)       -179.9107         estimate D2E/DX2                !
 ! D70   D(18,13,14,19)          0.0108         estimate D2E/DX2                !
 ! D71   D(13,14,15,16)          0.1007         estimate D2E/DX2                !
 ! D72   D(13,14,15,20)        179.9736         estimate D2E/DX2                !
 ! D73   D(19,14,15,16)       -179.8212         estimate D2E/DX2                !
 ! D74   D(19,14,15,20)          0.0517         estimate D2E/DX2                !
 ! D75   D(14,15,16,7)         179.5285         estimate D2E/DX2                !
 ! D76   D(14,15,16,11)         -0.2774         estimate D2E/DX2                !
 ! D77   D(20,15,16,7)          -0.3437         estimate D2E/DX2                !
 ! D78   D(20,15,16,11)        179.8504         estimate D2E/DX2                !
 ! D79   D(39,17,23,22)        178.7791         estimate D2E/DX2                !
 ! D80   D(39,17,23,24)         -1.0223         estimate D2E/DX2                !
 ! D81   D(40,17,23,22)         -0.317          estimate D2E/DX2                !
 ! D82   D(40,17,23,24)        179.8816         estimate D2E/DX2                !
 ! D83   D(23,17,39,11)       -178.8849         estimate D2E/DX2                !
 ! D84   D(40,17,39,11)          0.2941         estimate D2E/DX2                !
 ! D85   D(23,17,40,12)        178.8613         estimate D2E/DX2                !
 ! D86   D(23,17,40,75)         -0.2594         estimate D2E/DX2                !
 ! D87   D(39,17,40,12)         -0.3481         estimate D2E/DX2                !
 ! D88   D(39,17,40,75)       -179.4688         estimate D2E/DX2                !
 ! D89   D(27,22,23,17)       -179.2789         estimate D2E/DX2                !
 ! D90   D(27,22,23,24)          0.5235         estimate D2E/DX2                !
 ! D91   D(38,22,23,17)          0.7431         estimate D2E/DX2                !
 ! D92   D(38,22,23,24)       -179.4545         estimate D2E/DX2                !
 ! D93   D(23,22,27,26)         -0.5125         estimate D2E/DX2                !
 ! D94   D(23,22,27,34)        179.74           estimate D2E/DX2                !
 ! D95   D(38,22,27,26)        179.4661         estimate D2E/DX2                !
 ! D96   D(38,22,27,34)         -0.2814         estimate D2E/DX2                !
 ! D97   D(17,23,24,25)        179.3618         estimate D2E/DX2                !
 ! D98   D(17,23,24,28)         -0.3898         estimate D2E/DX2                !
 ! D99   D(22,23,24,25)         -0.4403         estimate D2E/DX2                !
 ! D100  D(22,23,24,28)        179.8081         estimate D2E/DX2                !
 ! D101  D(23,24,25,26)          0.327          estimate D2E/DX2                !
 ! D102  D(23,24,25,30)       -178.4499         estimate D2E/DX2                !
 ! D103  D(28,24,25,26)       -179.9228         estimate D2E/DX2                !
 ! D104  D(28,24,25,30)          1.3004         estimate D2E/DX2                !
 ! D105  D(24,25,26,27)         -0.3194         estimate D2E/DX2                !
 ! D106  D(24,25,26,29)        179.6303         estimate D2E/DX2                !
 ! D107  D(30,25,26,27)        178.4668         estimate D2E/DX2                !
 ! D108  D(30,25,26,29)         -1.5835         estimate D2E/DX2                !
 ! D109  D(24,25,30,31)        -22.2134         estimate D2E/DX2                !
 ! D110  D(24,25,30,32)         97.243          estimate D2E/DX2                !
 ! D111  D(24,25,30,33)       -144.3692         estimate D2E/DX2                !
 ! D112  D(26,25,30,31)        159.0175         estimate D2E/DX2                !
 ! D113  D(26,25,30,32)        -81.5262         estimate D2E/DX2                !
 ! D114  D(26,25,30,33)         36.8616         estimate D2E/DX2                !
 ! D115  D(25,26,27,22)          0.4214         estimate D2E/DX2                !
 ! D116  D(25,26,27,34)       -179.8453         estimate D2E/DX2                !
 ! D117  D(29,26,27,22)       -179.5279         estimate D2E/DX2                !
 ! D118  D(29,26,27,34)          0.2054         estimate D2E/DX2                !
 ! D119  D(22,27,34,35)        -61.9121         estimate D2E/DX2                !
 ! D120  D(22,27,34,36)         55.813          estimate D2E/DX2                !
 ! D121  D(22,27,34,37)        177.0386         estimate D2E/DX2                !
 ! D122  D(26,27,34,35)        118.3501         estimate D2E/DX2                !
 ! D123  D(26,27,34,36)       -123.9248         estimate D2E/DX2                !
 ! D124  D(26,27,34,37)         -2.6993         estimate D2E/DX2                !
 ! D125  D(6,42,43,49)         179.6814         estimate D2E/DX2                !
 ! D126  D(44,42,43,49)         -0.1725         estimate D2E/DX2                !
 ! D127  D(6,42,44,50)        -179.9545         estimate D2E/DX2                !
 ! D128  D(6,42,44,77)           3.1034         estimate D2E/DX2                !
 ! D129  D(43,42,44,50)         -0.1022         estimate D2E/DX2                !
 ! D130  D(43,42,44,77)       -177.0443         estimate D2E/DX2                !
 ! D131  D(42,43,49,48)       -179.856          estimate D2E/DX2                !
 ! D132  D(42,43,49,50)          0.3773         estimate D2E/DX2                !
 ! D133  D(42,44,50,45)       -179.0866         estimate D2E/DX2                !
 ! D134  D(42,44,50,49)          0.3257         estimate D2E/DX2                !
 ! D135  D(77,44,50,45)         -1.8068         estimate D2E/DX2                !
 ! D136  D(77,44,50,49)        177.6055         estimate D2E/DX2                !
 ! D137  D(50,45,46,47)         -0.2811         estimate D2E/DX2                !
 ! D138  D(50,45,46,51)       -179.8837         estimate D2E/DX2                !
 ! D139  D(54,45,46,47)        178.4194         estimate D2E/DX2                !
 ! D140  D(54,45,46,51)         -1.1832         estimate D2E/DX2                !
 ! D141  D(46,45,50,44)       -179.9497         estimate D2E/DX2                !
 ! D142  D(46,45,50,49)          0.7267         estimate D2E/DX2                !
 ! D143  D(54,45,50,44)          1.3412         estimate D2E/DX2                !
 ! D144  D(54,45,50,49)       -177.9823         estimate D2E/DX2                !
 ! D145  D(46,45,54,55)          2.6058         estimate D2E/DX2                !
 ! D146  D(46,45,54,56)       -176.6574         estimate D2E/DX2                !
 ! D147  D(50,45,54,55)       -178.7726         estimate D2E/DX2                !
 ! D148  D(50,45,54,56)          1.9642         estimate D2E/DX2                !
 ! D149  D(45,46,47,48)         -0.1215         estimate D2E/DX2                !
 ! D150  D(45,46,47,52)       -179.9444         estimate D2E/DX2                !
 ! D151  D(51,46,47,48)        179.4784         estimate D2E/DX2                !
 ! D152  D(51,46,47,52)         -0.3446         estimate D2E/DX2                !
 ! D153  D(46,47,48,49)          0.1029         estimate D2E/DX2                !
 ! D154  D(46,47,48,53)       -179.4839         estimate D2E/DX2                !
 ! D155  D(52,47,48,49)        179.9251         estimate D2E/DX2                !
 ! D156  D(52,47,48,53)          0.3382         estimate D2E/DX2                !
 ! D157  D(47,48,49,43)       -179.4262         estimate D2E/DX2                !
 ! D158  D(47,48,49,50)          0.3203         estimate D2E/DX2                !
 ! D159  D(53,48,49,43)          0.1634         estimate D2E/DX2                !
 ! D160  D(53,48,49,50)        179.9099         estimate D2E/DX2                !
 ! D161  D(43,49,50,44)         -0.4404         estimate D2E/DX2                !
 ! D162  D(43,49,50,45)        179.0291         estimate D2E/DX2                !
 ! D163  D(48,49,50,44)        179.7623         estimate D2E/DX2                !
 ! D164  D(48,49,50,45)         -0.7683         estimate D2E/DX2                !
 ! D165  D(45,54,56,57)        179.3925         estimate D2E/DX2                !
 ! D166  D(55,54,56,57)          0.1866         estimate D2E/DX2                !
 ! D167  D(54,56,57,58)         -0.3907         estimate D2E/DX2                !
 ! D168  D(54,56,57,59)        125.7768         estimate D2E/DX2                !
 ! D169  D(54,56,57,60)       -120.1597         estimate D2E/DX2                !
 ! D170  D(56,57,58,61)       -178.8458         estimate D2E/DX2                !
 ! D171  D(56,57,58,62)         60.5479         estimate D2E/DX2                !
 ! D172  D(56,57,58,63)        -56.596          estimate D2E/DX2                !
 ! D173  D(59,57,58,61)         56.1182         estimate D2E/DX2                !
 ! D174  D(59,57,58,62)        -64.4881         estimate D2E/DX2                !
 ! D175  D(59,57,58,63)        178.368          estimate D2E/DX2                !
 ! D176  D(60,57,58,61)        -60.3667         estimate D2E/DX2                !
 ! D177  D(60,57,58,62)        179.027          estimate D2E/DX2                !
 ! D178  D(60,57,58,63)         61.8831         estimate D2E/DX2                !
 ! D179  D(56,57,59,64)        174.2219         estimate D2E/DX2                !
 ! D180  D(56,57,59,65)        -64.9194         estimate D2E/DX2                !
 ! D181  D(56,57,59,66)         51.4143         estimate D2E/DX2                !
 ! D182  D(58,57,59,64)        -55.9191         estimate D2E/DX2                !
 ! D183  D(58,57,59,65)         64.9396         estimate D2E/DX2                !
 ! D184  D(58,57,59,66)       -178.7267         estimate D2E/DX2                !
 ! D185  D(60,57,59,64)         61.1407         estimate D2E/DX2                !
 ! D186  D(60,57,59,65)       -178.0006         estimate D2E/DX2                !
 ! D187  D(60,57,59,66)        -61.6669         estimate D2E/DX2                !
 ! D188  D(57,58,61,67)        -56.0075         estimate D2E/DX2                !
 ! D189  D(57,58,61,68)       -178.7288         estimate D2E/DX2                !
 ! D190  D(57,58,61,69)         64.6954         estimate D2E/DX2                !
 ! D191  D(62,58,61,67)         64.4203         estimate D2E/DX2                !
 ! D192  D(62,58,61,68)        -58.301          estimate D2E/DX2                !
 ! D193  D(62,58,61,69)       -174.8768         estimate D2E/DX2                !
 ! D194  D(63,58,61,67)       -178.3231         estimate D2E/DX2                !
 ! D195  D(63,58,61,68)         58.9557         estimate D2E/DX2                !
 ! D196  D(63,58,61,69)        -57.6201         estimate D2E/DX2                !
 ! D197  D(57,59,64,67)         55.2869         estimate D2E/DX2                !
 ! D198  D(57,59,64,70)        178.0958         estimate D2E/DX2                !
 ! D199  D(57,59,64,71)        -65.1408         estimate D2E/DX2                !
 ! D200  D(65,59,64,67)        -64.6489         estimate D2E/DX2                !
 ! D201  D(65,59,64,70)         58.16           estimate D2E/DX2                !
 ! D202  D(65,59,64,71)        174.9234         estimate D2E/DX2                !
 ! D203  D(66,59,64,67)        177.0791         estimate D2E/DX2                !
 ! D204  D(66,59,64,70)        -60.112          estimate D2E/DX2                !
 ! D205  D(66,59,64,71)         56.6513         estimate D2E/DX2                !
 ! D206  D(58,61,67,64)         54.9972         estimate D2E/DX2                !
 ! D207  D(58,61,67,72)        177.368          estimate D2E/DX2                !
 ! D208  D(58,61,67,73)        -65.4801         estimate D2E/DX2                !
 ! D209  D(68,61,67,64)        177.3265         estimate D2E/DX2                !
 ! D210  D(68,61,67,72)        -60.3026         estimate D2E/DX2                !
 ! D211  D(68,61,67,73)         56.8492         estimate D2E/DX2                !
 ! D212  D(69,61,67,64)        -65.7389         estimate D2E/DX2                !
 ! D213  D(69,61,67,72)         56.632          estimate D2E/DX2                !
 ! D214  D(69,61,67,73)        173.7838         estimate D2E/DX2                !
 ! D215  D(59,64,67,61)        -54.5757         estimate D2E/DX2                !
 ! D216  D(59,64,67,72)       -176.9434         estimate D2E/DX2                !
 ! D217  D(59,64,67,73)         65.8214         estimate D2E/DX2                !
 ! D218  D(70,64,67,61)       -177.1644         estimate D2E/DX2                !
 ! D219  D(70,64,67,72)         60.4679         estimate D2E/DX2                !
 ! D220  D(70,64,67,73)        -56.7673         estimate D2E/DX2                !
 ! D221  D(71,64,67,61)         65.836          estimate D2E/DX2                !
 ! D222  D(71,64,67,72)        -56.5317         estimate D2E/DX2                !
 ! D223  D(71,64,67,73)       -173.7669         estimate D2E/DX2                !
 --------------------------------------------------------------------------------
 Trust Radius=3.00D-01 FncErr=5.00D-06 GrdErr=5.00D-06 EigMax=2.50D+02 EigMin=1.00D-04
 Number of steps in this run=    462 maximum allowed number of steps=    462.
 GradGradGradGradGradGradGradGradGradGradGradGradGradGradGradGradGradGrad

 Leave Link  103 at Sun Dec 16 10:38:44 2018, MaxMem=  1342177280 cpu:               0.2 elap:               0.0
 (Enter /gpfs/apps/hpc/Apps/Restricted/Gaussian/Rev_A.03/g16/l202.exe)
 Symmetry turned off by external request.
 Stoichiometry    C36H33N7O(1+,2)
 Framework group  C1[X(C36H33N7O)]
 Deg. of freedom   225
 Full point group                 C1      NOp   1
                          Input orientation:                          
 ---------------------------------------------------------------------
 Center     Atomic      Atomic             Coordinates (Angstroms)
 Number     Number       Type             X           Y           Z
 ---------------------------------------------------------------------
      1          6           0        1.639765    0.423985    0.897525
      2          6           0        0.550479    1.261041    0.608441
      3          6           0        0.712280    2.637208    0.457157
      4          6           0        2.006953    3.130604    0.609105
      5          6           0        3.097255    2.295324    0.903634
      6          6           0        2.943306    0.913256    1.057630
      7          6           0       -0.183990   -0.849612    0.771418
      8          1           0       -0.124258    3.284623    0.231674
      9          1           0        2.180929    4.193467    0.495876
     10          1           0        4.083275    2.732147    1.003949
     11          6           0       -2.472784   -1.738997    0.550312
     12          6           0       -3.375776   -2.832844    0.576245
     13          6           0       -2.960797   -4.139114    0.827471
     14          6           0       -1.599260   -4.337438    1.055627
     15          6           0       -0.682543   -3.276347    1.036626
     16          6           0       -1.097126   -1.962380    0.788165
     17          6           0       -4.423359   -0.930253    0.123070
     18          1           0       -3.662861   -4.963211    0.845149
     19          1           0       -1.234818   -5.337259    1.254817
     20          1           0        0.364439   -3.482372    1.220249
     21          7           0       -0.556099    0.426523    0.542068
     22          6           0       -6.877547   -0.569697   -0.364088
     23          6           0       -5.517996   -0.038701   -0.205879
     24          6           0       -5.285817    1.316414   -0.376339
     25          6           0       -6.324374    2.203047   -0.708482
     26          6           0       -7.641226    1.701920   -0.866307
     27          6           0       -7.941132    0.370556   -0.711716
     28          1           0       -4.278313    1.695910   -0.253648
     29          1           0       -8.433402    2.399983   -1.116845
     30          6           0       -6.047778    3.658863   -0.922413
     31          1           0       -5.125147    3.964424   -0.427271
     32          1           0       -5.938354    3.866494   -1.993483
     33          1           0       -6.874908    4.272432   -0.559029
     34          6           0       -9.322783   -0.176902   -0.877396
     35          1           0       -9.355602   -0.902415   -1.696118
     36          1           0       -9.635927   -0.712615    0.023085
     37          1           0      -10.035532    0.621429   -1.083398
     38          8           0       -7.145440   -1.789883   -0.210630
     39          7           0       -3.139483   -0.571627    0.270465
     40          7           0       -4.599221   -2.273977    0.303993
     41          7           0        1.146168   -0.864142    0.984687
     42          6           0        4.019130   -0.011732    1.370943
     43          7           0        3.862609   -1.334105    1.409487
     44          7           0        5.305909    0.365995    1.656661
     45          6           0        7.369228   -0.965353    2.246866
     46          6           0        7.773700   -2.293517    2.415138
     47          6           0        6.881212   -3.368720    2.247932
     48          6           0        5.545838   -3.165712    1.908036
     49          6           0        5.109955   -1.845055    1.732676
     50          6           0        6.023271   -0.778922    1.896190
     51          1           0        8.804097   -2.493708    2.688433
     52          1           0        7.245639   -4.378906    2.390992
     53          1           0        4.860817   -3.996358    1.788551
     54          6           0        8.276723    0.162613    2.450226
     55          1           0        9.307510   -0.101196    2.700163
     56          7           0        7.867563    1.372473    2.351933
     57          6           0        8.791921    2.485290    2.572951
     58          6           0       10.240241    2.132632    2.929378
     59          6           0        8.743796    3.408643    1.343895
     60          1           0        8.368085    3.052853    3.414331
     61          6           0       11.073738    3.398872    3.157083
     62          1           0       10.679511    1.549839    2.110452
     63          1           0       10.266673    1.499446    3.821562
     64          6           0        9.580799    4.672823    1.564012
     65          1           0        9.128901    2.852482    0.480156
     66          1           0        7.701949    3.662548    1.125562
     67          6           0       11.026321    4.330835    1.941644
     68          1           0       12.107691    3.124272    3.387628
     69          1           0       10.686758    3.932291    4.034423
     70          1           0        9.559057    5.297143    0.665799
     71          1           0        9.130278    5.263571    2.371307
     72          1           0       11.589487    5.246687    2.146438
     73          1           0       11.514638    3.837506    1.091948
     74          1           0       -1.535040    0.657053    0.355657
     75          1           0       -5.520696   -2.695870    0.215462
     76          1           0        1.762503   -1.653803    1.172687
     77          1           0        5.723695    1.286647    1.744351
 ---------------------------------------------------------------------
 Rotational constants (GHZ):           0.1693401           0.0233955           0.0206297
 Leave Link  202 at Sun Dec 16 10:38:44 2018, MaxMem=  1342177280 cpu:               0.3 elap:               0.0
 (Enter /gpfs/apps/hpc/Apps/Restricted/Gaussian/Rev_A.03/g16/l301.exe)
 Standard basis: 6-31G(d,p) (6D, 7F)
 Ernie: Thresh=  0.10000D-02 Tol=  0.10000D-05 Strict=F.
   825 basis functions,  1463 primitive gaussians,   825 cartesian basis functions
   153 alpha electrons      152 beta electrons
       nuclear repulsion energy      4596.4486721029 Hartrees.
 IExCor=  402 DFT=T Ex+Corr=B3LYP ExCW=0 ScaHFX=  0.200000
 ScaDFX=  0.800000  0.720000  1.000000  0.810000 ScalE2=  1.000000  1.000000
 IRadAn=      5 IRanWt=     -1 IRanGd=            0 ICorTp=0 IEmpDi=141
 NAtoms=   77 NActive=   77 NUniq=   77 SFac= 1.00D+00 NAtFMM=   60 NAOKFM=T Big=T
 Integral buffers will be    131072 words long.
 Raffenetti 2 integral format.
 Two-electron integral symmetry is turned off.
 R6Disp:  Grimme-D3(BJ) Dispersion energy=       -0.1790539130 Hartrees.
 Nuclear repulsion after empirical dispersion term =     4596.2696181900 Hartrees.
 Using the following non-standard input for PCM:
 radii=bondi
 dis
 rep
 cav
 --- end of non-standard input.
 ------------------------------------------------------------------------------
 Polarizable Continuum Model (PCM)
 =================================
 Model                : C-PCM.
 Atomic radii         : Bondi.
 Polarization charges : Total charges.
 Charge compensation  : None.
 Solution method      : On-the-fly selection.
 Cavity type          : Scaled VdW (van der Waals Surface) (Alpha=1.100).
 Cavity algorithm     : GePol (No added spheres)
                        Default sphere list used, NSphG=   77.
                        Lebedev-Laikov grids with approx.  5.0 points / Ang**2.
                        Smoothing algorithm: York/Karplus (Gamma=1.0000).
                        Polarization charges: spherical gaussians, with
                                              point-specific exponents (IZeta= 3).
                        Self-potential: point-specific (ISelfS= 7).
                        Self-field    : sphere-specific E.n sum rule (ISelfD= 2).
 1st derivatives      : Analytical E(r).r(x)/FMM algorithm (CHGder, D1EAlg=3).
                        Cavity 1st derivative terms included.
 Solvent              : Dichloromethane, Eps=   8.930000 Eps(inf)=   2.028346
 ------------------------------------------------------------------------------
 GePol: Number of generator spheres                  =      77
 GePol: Total number of spheres                      =      77
 GePol: Number of exposed spheres                    =      77 (100.00%)
 GePol: Number of points                             =    5369
 GePol: Average weight of points                     =       0.12
 GePol: Minimum weight of points                     =   0.19D-10
 GePol: Maximum weight of points                     =    0.21770
 GePol: Number of points with low weight             =     359
 GePol: Fraction of low-weight points (<1% of avg)   =       6.69%
 GePol: Cavity surface area                          =    625.182 Ang**2
 GePol: Cavity volume                                =    608.590 Ang**3
 PCM non-electrostatic energy =         0.0214589249 Hartrees.
 Nuclear repulsion after PCM non-electrostatic terms =     4596.2910771148 Hartrees.
 Leave Link  301 at Sun Dec 16 10:38:44 2018, MaxMem=  1342177280 cpu:               5.4 elap:               0.4
 (Enter /gpfs/apps/hpc/Apps/Restricted/Gaussian/Rev_A.03/g16/l302.exe)
 NPDir=0 NMtPBC=     1 NCelOv=     1 NCel=       1 NClECP=     1 NCelD=      1
         NCelK=      1 NCelE2=     1 NClLst=     1 CellRange=     0.0.
 One-electron integrals computed using PRISM.
 NBasis=   825 RedAO= T EigKep=  2.71D-04  NBF=   825
 NBsUse=   825 1.00D-06 EigRej= -1.00D+00 NBFU=   825
 Precomputing XC quadrature grid using
 IXCGrd= 4 IRadAn=           5 IRanWt=          -1 IRanGd=           0 AccXCQ= 0.00D+00.
 Generated NRdTot=       0 NPtTot=           0 NUsed=           0 NTot=          32
 NSgBfM=   721   719   719   720   721 MxSgAt=    77 MxSgA2=    77.
 Leave Link  302 at Sun Dec 16 10:38:46 2018, MaxMem=  1342177280 cpu:              29.2 elap:               1.9
 (Enter /gpfs/apps/hpc/Apps/Restricted/Gaussian/Rev_A.03/g16/l303.exe)
 DipDrv:  MaxL=1.
 Leave Link  303 at Sun Dec 16 10:38:47 2018, MaxMem=  1342177280 cpu:               1.6 elap:               0.1
 (Enter /gpfs/apps/hpc/Apps/Restricted/Gaussian/Rev_A.03/g16/l401.exe)
 ExpMin= 1.61D-01 ExpMax= 5.48D+03 ExpMxC= 8.25D+02 IAcc=3 IRadAn=         5 AccDes= 0.00D+00
 Harris functional with IExCor=  402 and IRadAn=       5 diagonalized for initial guess.
 HarFok:  IExCor=  402 AccDes= 0.00D+00 IRadAn=         5 IDoV= 1 UseB2=F ITyADJ=14
 ICtDFT=  3500011 ScaDFX=  1.000000  1.000000  1.000000  1.000000
 FoFCou: FMM=F IPFlag=           0 FMFlag=      100000 FMFlg1=        2001
         NFxFlg=           0 DoJE=T BraDBF=F KetDBF=T FulRan=T
         wScrn=  0.000000 ICntrl=       500 IOpCl=  0 I1Cent=   200000004 NGrid=           0
         NMat0=    1 NMatS0=      1 NMatT0=    0 NMatD0=    1 NMtDS0=    0 NMtDT0=    0
 Symmetry not used in FoFCou.
 Harris En= -1850.19273492562    
 JPrj=0 DoOrth=F DoCkMO=F.
 Initial guess <Sx>= 0.0000 <Sy>= 0.0000 <Sz>= 0.5000 <S**2>= 0.7500 S= 0.5000
 Leave Link  401 at Sun Dec 16 10:38:52 2018, MaxMem=  1342177280 cpu:              90.8 elap:               5.7
 (Enter /gpfs/apps/hpc/Apps/Restricted/Gaussian/Rev_A.03/g16/l502.exe)
 Two-electron integral symmetry not used.
 UHF open shell SCF:
 Using DIIS extrapolation, IDIIS=  1040.
 NGot=  1342177280 LenX=  1340796146 LenY=  1340114696
 Requested convergence on RMS density matrix=1.00D-08 within 128 cycles.
 Requested convergence on MAX density matrix=1.00D-06.
 Requested convergence on             energy=1.00D-06.
 No special actions if energy rises.
 Fock matrices will be formed incrementally for  20 cycles.

 Cycle   1  Pass 1  IDiag  1:
 FoFJK:  IHMeth= 1 ICntrl=       0 DoSepK=F KAlg= 0 I1Cent=           0 FoldK=F
 IRaf= 580000000 NMat=       1 IRICut=       1 DoRegI=T DoRafI=F ISym2E= 0 IDoP0=0 IntGTp=1.
 FoFCou: FMM=T IPFlag=           0 FMFlag=      100000 FMFlg1=        2001
         NFxFlg=           0 DoJE=F BraDBF=F KetDBF=F FulRan=T
         wScrn=  0.000000 ICntrl=         0 IOpCl=  1 I1Cent=           0 NGrid=           0
         NMat0=    1 NMatS0=      1 NMatT0=    0 NMatD0=    1 NMtDS0=    0 NMtDT0=    0
 Symmetry not used in FoFCou.
 FMM levels:  10  Number of levels for PrismC:   9
 Inv3:  Mode=1 IEnd=    86478483.
 Iteration    1 A*A^-1 deviation from unit magnitude is 1.03D-14 for    658.
 Iteration    1 A*A^-1 deviation from orthogonality  is 6.13D-15 for   2812    671.
 Iteration    1 A^-1*A deviation from unit magnitude is 1.03D-14 for    658.
 Iteration    1 A^-1*A deviation from orthogonality  is 4.78D-15 for   5351   3758.
 E= -1849.51497431555    
 DIIS: error= 2.55D-02 at cycle   1 NSaved=   1.
 NSaved= 1 IEnMin= 1 EnMin= -1849.51497431555     IErMin= 1 ErrMin= 2.55D-02
 ErrMax= 2.55D-02  0.00D+00 EMaxC= 1.00D-01 BMatC= 3.34D+00 BMatP= 3.34D+00
 IDIUse=3 WtCom= 7.45D-01 WtEn= 2.55D-01
 Coeff-Com:  0.100D+01
 Coeff-En:   0.100D+01
 Coeff:      0.100D+01
 Gap=     0.119 Goal=   None    Shift=    0.000
 Gap=     0.079 Goal=   None    Shift=    0.000
 GapD=    0.079 DampG=0.500 DampE=0.500 DampFc=0.2500 IDamp=-1.
 Damping current iteration by 2.50D-01
 RMSDP=2.81D-03 MaxDP=1.86D-01              OVMax= 3.04D-01

 Cycle   2  Pass 1  IDiag  1:
 RMSU=  6.78D-04    CP:  9.84D-01
 E= -1849.82174112104     Delta-E=       -0.306766805487 Rises=F Damp=T
 DIIS: error= 1.42D-02 at cycle   2 NSaved=   2.
 NSaved= 2 IEnMin= 2 EnMin= -1849.82174112104     IErMin= 2 ErrMin= 1.42D-02
 ErrMax= 1.42D-02  0.00D+00 EMaxC= 1.00D-01 BMatC= 9.34D-01 BMatP= 3.34D+00
 IDIUse=3 WtCom= 8.58D-01 WtEn= 1.42D-01
 Coeff-Com: -0.852D+00 0.185D+01
 Coeff-En:   0.000D+00 0.100D+01
 Coeff:     -0.731D+00 0.173D+01
 Gap=     0.147 Goal=   None    Shift=    0.000
 Gap=     0.080 Goal=   None    Shift=    0.000
 RMSDP=1.18D-03 MaxDP=7.91D-02 DE=-3.07D-01 OVMax= 1.68D-01

 Cycle   3  Pass 1  IDiag  1:
 RMSU=  8.20D-04    CP:  9.48D-01  2.10D+00
 E= -1850.33448711348     Delta-E=       -0.512745992444 Rises=F Damp=F
 DIIS: error= 1.13D-02 at cycle   3 NSaved=   3.
 NSaved= 3 IEnMin= 3 EnMin= -1850.33448711348     IErMin= 3 ErrMin= 1.13D-02
 ErrMax= 1.13D-02  0.00D+00 EMaxC= 1.00D-01 BMatC= 1.85D-01 BMatP= 9.34D-01
 IDIUse=3 WtCom= 8.87D-01 WtEn= 1.13D-01
 Coeff-Com: -0.413D+00 0.840D+00 0.573D+00
 Coeff-En:   0.000D+00 0.000D+00 0.100D+01
 Coeff:     -0.367D+00 0.745D+00 0.621D+00
 Gap=     0.124 Goal=   None    Shift=    0.000
 Gap=     0.074 Goal=   None    Shift=    0.000
 RMSDP=4.41D-04 MaxDP=7.01D-02 DE=-5.13D-01 OVMax= 8.75D-02

 Cycle   4  Pass 1  IDiag  1:
 RMSU=  3.37D-04    CP:  9.52D-01  2.17D+00  6.65D-01
 E= -1850.36354793956     Delta-E=       -0.029060826077 Rises=F Damp=F
 DIIS: error= 7.99D-03 at cycle   4 NSaved=   4.
 NSaved= 4 IEnMin= 4 EnMin= -1850.36354793956     IErMin= 4 ErrMin= 7.99D-03
 ErrMax= 7.99D-03  0.00D+00 EMaxC= 1.00D-01 BMatC= 7.47D-02 BMatP= 1.85D-01
 IDIUse=3 WtCom= 9.20D-01 WtEn= 7.99D-02
 Coeff-Com: -0.838D-01 0.176D+00 0.390D+00 0.518D+00
 Coeff-En:   0.000D+00 0.000D+00 0.283D+00 0.717D+00
 Coeff:     -0.771D-01 0.162D+00 0.381D+00 0.534D+00
 Gap=     0.126 Goal=   None    Shift=    0.000
 Gap=     0.073 Goal=   None    Shift=    0.000
 RMSDP=2.10D-04 MaxDP=3.49D-02 DE=-2.91D-02 OVMax= 3.70D-02

 Cycle   5  Pass 1  IDiag  1:
 RMSU=  1.13D-04    CP:  9.51D-01  2.11D+00  7.77D-01  5.69D-01
 E= -1850.37827283137     Delta-E=       -0.014724891812 Rises=F Damp=F
 DIIS: error= 2.34D-03 at cycle   5 NSaved=   5.
 NSaved= 5 IEnMin= 5 EnMin= -1850.37827283137     IErMin= 5 ErrMin= 2.34D-03
 ErrMax= 2.34D-03  0.00D+00 EMaxC= 1.00D-01 BMatC= 6.29D-03 BMatP= 7.47D-02
 IDIUse=3 WtCom= 9.77D-01 WtEn= 2.34D-02
 Coeff-Com: -0.541D-02 0.142D-01 0.169D+00 0.315D+00 0.507D+00
 Coeff-En:   0.000D+00 0.000D+00 0.000D+00 0.000D+00 0.100D+01
 Coeff:     -0.528D-02 0.139D-01 0.165D+00 0.308D+00 0.519D+00
 Gap=     0.126 Goal=   None    Shift=    0.000
 Gap=     0.075 Goal=   None    Shift=    0.000
 RMSDP=6.42D-05 MaxDP=1.29D-02 DE=-1.47D-02 OVMax= 1.80D-02

 Cycle   6  Pass 1  IDiag  1:
 RMSU=  3.82D-05    CP:  9.51D-01  2.12D+00  7.84D-01  6.29D-01  5.85D-01
 E= -1850.37965933209     Delta-E=       -0.001386500722 Rises=F Damp=F
 DIIS: error= 6.26D-04 at cycle   6 NSaved=   6.
 NSaved= 6 IEnMin= 6 EnMin= -1850.37965933209     IErMin= 6 ErrMin= 6.26D-04
 ErrMax= 6.26D-04  0.00D+00 EMaxC= 1.00D-01 BMatC= 5.80D-04 BMatP= 6.29D-03
 IDIUse=3 WtCom= 9.94D-01 WtEn= 6.26D-03
 Coeff-Com:  0.413D-02-0.706D-02 0.526D-01 0.110D+00 0.286D+00 0.555D+00
 Coeff-En:   0.000D+00 0.000D+00 0.000D+00 0.000D+00 0.000D+00 0.100D+01
 Coeff:      0.410D-02-0.702D-02 0.523D-01 0.109D+00 0.284D+00 0.557D+00
 Gap=     0.127 Goal=   None    Shift=    0.000
 Gap=     0.076 Goal=   None    Shift=    0.000
 RMSDP=1.94D-05 MaxDP=3.24D-03 DE=-1.39D-03 OVMax= 6.56D-03

 Cycle   7  Pass 1  IDiag  1:
 RMSU=  1.55D-05    CP:  9.51D-01  2.12D+00  7.86D-01  6.30D-01  6.82D-01
                    CP:  8.94D-01
 E= -1850.37982543253     Delta-E=       -0.000166100440 Rises=F Damp=F
 DIIS: error= 2.73D-04 at cycle   7 NSaved=   7.
 NSaved= 7 IEnMin= 7 EnMin= -1850.37982543253     IErMin= 7 ErrMin= 2.73D-04
 ErrMax= 2.73D-04  0.00D+00 EMaxC= 1.00D-01 BMatC= 6.97D-05 BMatP= 5.80D-04
 IDIUse=3 WtCom= 9.97D-01 WtEn= 2.73D-03
 Coeff-Com:  0.277D-02-0.557D-02-0.107D-01-0.208D-01 0.254D-01 0.223D+00
 Coeff-Com:  0.786D+00
 Coeff-En:   0.000D+00 0.000D+00 0.000D+00 0.000D+00 0.000D+00 0.000D+00
 Coeff-En:   0.100D+01
 Coeff:      0.277D-02-0.555D-02-0.107D-01-0.207D-01 0.253D-01 0.222D+00
 Coeff:      0.787D+00
 Gap=     0.127 Goal=   None    Shift=    0.000
 Gap=     0.076 Goal=   None    Shift=    0.000
 RMSDP=1.14D-05 MaxDP=2.39D-03 DE=-1.66D-04 OVMax= 5.78D-03

 Cycle   8  Pass 1  IDiag  1:
 RMSU=  8.09D-06    CP:  9.51D-01  2.12D+00  7.88D-01  6.34D-01  7.15D-01
                    CP:  1.07D+00  1.07D+00
 E= -1850.37987576501     Delta-E=       -0.000050332473 Rises=F Damp=F
 DIIS: error= 1.40D-04 at cycle   8 NSaved=   8.
 NSaved= 8 IEnMin= 8 EnMin= -1850.37987576501     IErMin= 8 ErrMin= 1.40D-04
 ErrMax= 1.40D-04  0.00D+00 EMaxC= 1.00D-01 BMatC= 2.51D-05 BMatP= 6.97D-05
 IDIUse=3 WtCom= 9.99D-01 WtEn= 1.40D-03
 Coeff-Com:  0.686D-04-0.162D-03-0.205D-01-0.468D-01-0.801D-01-0.125D+00
 Coeff-Com:  0.328D+00 0.945D+00
 Coeff-En:   0.000D+00 0.000D+00 0.000D+00 0.000D+00 0.000D+00 0.000D+00
 Coeff-En:   0.000D+00 0.100D+01
 Coeff:      0.685D-04-0.161D-03-0.205D-01-0.467D-01-0.800D-01-0.125D+00
 Coeff:      0.327D+00 0.945D+00
 Gap=     0.128 Goal=   None    Shift=    0.000
 Gap=     0.077 Goal=   None    Shift=    0.000
 RMSDP=9.90D-06 MaxDP=1.58D-03 DE=-5.03D-05 OVMax= 4.84D-03

 Cycle   9  Pass 1  IDiag  1:
 RMSU=  4.62D-06    CP:  9.51D-01  2.12D+00  7.89D-01  6.34D-01  7.45D-01
                    CP:  1.19D+00  1.46D+00  1.25D+00
 E= -1850.37989646225     Delta-E=       -0.000020697245 Rises=F Damp=F
 DIIS: error= 6.16D-05 at cycle   9 NSaved=   9.
 NSaved= 9 IEnMin= 9 EnMin= -1850.37989646225     IErMin= 9 ErrMin= 6.16D-05
 ErrMax= 6.16D-05  0.00D+00 EMaxC= 1.00D-01 BMatC= 1.04D-05 BMatP= 2.51D-05
 IDIUse=1 WtCom= 1.00D+00 WtEn= 0.00D+00
 Coeff-Com: -0.419D-03 0.951D-03-0.106D-01-0.260D-01-0.570D-01-0.142D+00
 Coeff-Com:  0.278D-01 0.609D+00 0.598D+00
 Coeff:     -0.419D-03 0.951D-03-0.106D-01-0.260D-01-0.570D-01-0.142D+00
 Coeff:      0.278D-01 0.609D+00 0.598D+00
 Gap=     0.128 Goal=   None    Shift=    0.000
 Gap=     0.077 Goal=   None    Shift=    0.000
 RMSDP=4.24D-06 MaxDP=7.15D-04 DE=-2.07D-05 OVMax= 1.67D-03

 Cycle  10  Pass 1  IDiag  1:
 RMSU=  2.13D-06    CP:  9.51D-01  2.12D+00  7.90D-01  6.34D-01  7.58D-01
                    CP:  1.24D+00  1.58D+00  1.51D+00  7.81D-01
 E= -1850.37990135760     Delta-E=       -0.000004895353 Rises=F Damp=F
 DIIS: error= 1.81D-05 at cycle  10 NSaved=  10.
 NSaved=10 IEnMin=10 EnMin= -1850.37990135760     IErMin=10 ErrMin= 1.81D-05
 ErrMax= 1.81D-05  0.00D+00 EMaxC= 1.00D-01 BMatC= 1.32D-06 BMatP= 1.04D-05
 IDIUse=1 WtCom= 1.00D+00 WtEn= 0.00D+00
 Coeff-Com: -0.698D-04 0.246D-03 0.203D-03-0.527D-03-0.508D-02-0.353D-01
 Coeff-Com: -0.587D-01 0.422D-01 0.276D+00 0.781D+00
 Coeff:     -0.698D-04 0.246D-03 0.203D-03-0.527D-03-0.508D-02-0.353D-01
 Coeff:     -0.587D-01 0.422D-01 0.276D+00 0.781D+00
 Gap=     0.128 Goal=   None    Shift=    0.000
 Gap=     0.077 Goal=   None    Shift=    0.000
 RMSDP=1.74D-06 MaxDP=3.59D-04 DE=-4.90D-06 OVMax= 6.52D-04

 Cycle  11  Pass 1  IDiag  1:
 RMSU=  9.81D-07    CP:  9.51D-01  2.12D+00  7.90D-01  6.33D-01  7.61D-01
                    CP:  1.25D+00  1.62D+00  1.59D+00  9.73D-01  1.03D+00
 E= -1850.37990206618     Delta-E=       -0.000000708580 Rises=F Damp=F
 DIIS: error= 1.11D-05 at cycle  11 NSaved=  11.
 NSaved=11 IEnMin=11 EnMin= -1850.37990206618     IErMin=11 ErrMin= 1.11D-05
 ErrMax= 1.11D-05  0.00D+00 EMaxC= 1.00D-01 BMatC= 3.39D-07 BMatP= 1.32D-06
 IDIUse=1 WtCom= 1.00D+00 WtEn= 0.00D+00
 Coeff-Com:  0.201D-04-0.577D-05 0.228D-02 0.501D-02 0.898D-02 0.934D-02
 Coeff-Com: -0.357D-01-0.996D-01 0.328D-01 0.425D+00 0.652D+00
 Coeff:      0.201D-04-0.577D-05 0.228D-02 0.501D-02 0.898D-02 0.934D-02
 Coeff:     -0.357D-01-0.996D-01 0.328D-01 0.425D+00 0.652D+00
 Gap=     0.128 Goal=   None    Shift=    0.000
 Gap=     0.077 Goal=   None    Shift=    0.000
 RMSDP=6.88D-07 MaxDP=1.48D-04 DE=-7.09D-07 OVMax= 2.47D-04

 Cycle  12  Pass 1  IDiag  1:
 RMSU=  3.86D-07    CP:  9.51D-01  2.12D+00  7.90D-01  6.33D-01  7.61D-01
                    CP:  1.25D+00  1.63D+00  1.62D+00  1.02D+00  1.22D+00
                    CP:  9.22D-01
 E= -1850.37990222340     Delta-E=       -0.000000157213 Rises=F Damp=F
 DIIS: error= 5.08D-06 at cycle  12 NSaved=  12.
 NSaved=12 IEnMin=12 EnMin= -1850.37990222340     IErMin=12 ErrMin= 5.08D-06
 ErrMax= 5.08D-06  0.00D+00 EMaxC= 1.00D-01 BMatC= 4.34D-08 BMatP= 3.39D-07
 IDIUse=1 WtCom= 1.00D+00 WtEn= 0.00D+00
 Coeff-Com:  0.146D-04-0.507D-04 0.812D-03 0.210D-02 0.458D-02 0.117D-01
 Coeff-Com: -0.149D-02-0.467D-01-0.466D-01-0.471D-02 0.235D+00 0.845D+00
 Coeff:      0.146D-04-0.507D-04 0.812D-03 0.210D-02 0.458D-02 0.117D-01
 Coeff:     -0.149D-02-0.467D-01-0.466D-01-0.471D-02 0.235D+00 0.845D+00
 Gap=     0.128 Goal=   None    Shift=    0.000
 Gap=     0.077 Goal=   None    Shift=    0.000
 RMSDP=3.38D-07 MaxDP=7.11D-05 DE=-1.57D-07 OVMax= 1.68D-04

 Cycle  13  Pass 1  IDiag  1:
 RMSU=  1.99D-07    CP:  9.51D-01  2.12D+00  7.90D-01  6.33D-01  7.61D-01
                    CP:  1.25D+00  1.63D+00  1.63D+00  1.05D+00  1.29D+00
                    CP:  1.09D+00  1.02D+00
 E= -1850.37990225305     Delta-E=       -0.000000029650 Rises=F Damp=F
 DIIS: error= 2.44D-06 at cycle  13 NSaved=  13.
 NSaved=13 IEnMin=13 EnMin= -1850.37990225305     IErMin=13 ErrMin= 2.44D-06
 ErrMax= 2.44D-06  0.00D+00 EMaxC= 1.00D-01 BMatC= 2.12D-08 BMatP= 4.34D-08
 IDIUse=1 WtCom= 1.00D+00 WtEn= 0.00D+00
 Coeff-Com: -0.149D-05-0.224D-04 0.187D-04 0.264D-03 0.882D-03 0.552D-02
 Coeff-Com:  0.599D-02-0.773D-02-0.359D-01-0.931D-01 0.377D-02 0.512D+00
 Coeff-Com:  0.609D+00
 Coeff:     -0.149D-05-0.224D-04 0.187D-04 0.264D-03 0.882D-03 0.552D-02
 Coeff:      0.599D-02-0.773D-02-0.359D-01-0.931D-01 0.377D-02 0.512D+00
[...]
 0000018,0.00000062,0.00000028,0.00000002,-0.00000008,-0.00000015,-0.00
 000017,0.00000010,0.00000012,-0.00000015,-0.00000011,-0.00000008,0.000
 00018,-0.00000026,-0.00000018,-0.00000018,0.00000006,0.00000017,-0.000
 00016,-0.00000023,0.00000002,-0.00000007,0.00000016,-0.00000005,0.0000
 0015,0.00000024,0.00000019,0.00000010,0.00000005,0.00000005,-0.0000000
 9,-0.00000016,0.00000009,0.00000039,-0.00000026,0.00000006,-0.00000014
 ,-0.00000010,0.00000006,0.00000010,0.00000001,0.00000011,-0.00000013,-
 0.00000018,-0.00021590,-0.00007753,0.00023697,0.03181077,0.00784687,0.
 02493953,0.01851073,-0.00546497,0.00383211,0.00072633,-0.00486493,0.00
 027685,0.00100459,0.00011793,0.00005129,-0.00012114,-0.00028364,0.0000
 3814,-0.00056505,0.00020453,-0.00012208,-0.00062229,0.00003210,0.00009
 157,-0.01220361,0.01913451,-0.00318698,-0.00006020,-0.00042128,0.00004
 588,-0.00008232,0.00000368,-0.00001333,-0.00003101,-0.00011356,0.00000
 423,-0.00047091,0.00080785,-0.00017353,-0.00003340,-0.00011672,0.00001
 027,-0.00004213,0.00051362,-0.00008326,0.00098679,-0.00018904,0.000211
 43,-0.00039785,0.00049591,0.00000229,0.00088502,0.00072766,0.00025724,
 -0.00009825,-0.00028470,0.00002583,0.00008037,-0.00000259,0.00000337,0
 .00001745,0.00009415,-0.00001240,-0.00164453,-0.00220955,0.00039957,-0
 .00230817,-0.00458868,-0.00035998,0.00002390,-0.00016368,0.00003183,-0
 .00007229,0.00019937,-0.00004205,0.00018948,-0.00033901,0.00008502,-0.
 00026366,0.00016277,-0.00008918,0.00008593,0.00010754,0.00000154,-0.00
 009135,-0.00006459,-0.00000583,-0.00000304,0.00001095,-0.00000221,0.00
 001446,-0.00000809,0.00000389,0.00000954,-0.00001852,0.00003716,-0.000
 00115,-0.00000578,-0.00000396,-0.00000191,-0.00001888,-0.00000209,-0.0
 0000172,-0.00001647,-0.00000751,0.00000405,0.00002274,-0.00000131,0.00
 001374,0.00000344,0.00000263,0.00001296,0.00000236,0.00000022,0.000013
 19,-0.00000321,0.00000215,0.00009246,0.00011756,-0.00000208,0.00059468
 ,-0.00027661,0.00013904,0.00023899,0.00018531,0.00000833,-0.18352234,0
 .16643048,-0.04541543,-0.00019549,-0.00817637,0.00054366,0.00490660,-0
 .00007790,0.00070003,0.00332676,0.00247029,0.00065137,0.00034951,0.000
 58751,0.00007964,0.00016648,0.00010635,0.00002480,-0.00015488,-0.00034
 893,-0.00000833,0.00041022,-0.00020538,0.00010163,-0.00203875,0.005296
 43,-0.00094037,0.00141149,0.00119774,0.00034665,0.00006527,-0.00002003
 ,0.00001720,0.00009182,-0.00005924,0.00002815,-0.00018576,-0.00007130,
 -0.00008065,-0.00008086,-0.00047162,0.00000665,0.00009736,0.00005013,0
 .00002480,0.00017677,0.00031292,0.00002616,-0.00005833,-0.00012464,-0.
 00003128,0.00002089,0.00008891,0.00000372,0.00005681,0.00001432,0.0000
 6822,0.00003767,0.00004501,0.00002402,0.00001067,-0.00003135,-0.000004
 98,-0.00000208,-0.00000410,0.00000573,-0.00000241,-0.00000502,-0.00000
 968,-0.00001285,-0.00000624,-0.00003611,-0.00000159,-0.00000344,-0.000
 00685,-0.00000350,-0.00000690,-0.00000082,-0.00000422,0.00000560,0.000
 01062,0.00001771,0.00001257,0.00000365,-0.00000079,0.00000675,0.000003
 41,0.00000995,0.00002056,-0.00000318,0.00000089,0.00000456,0.00000567,
 0.00000837,0.00000846,-0.00000206,-0.00000012,-0.00000234,-0.00000191,
 0.00008465,0.00042981,-0.00037192,-0.00009877,-0.00005124,-0.00001042,
 0.17054144,0.01724030,-0.01796483,0.00460334,-0.00400895,-0.00429576,0
 .00026464,0.00144232,-0.00007842,0.00034763,-0.00020229,0.00027664,-0.
 00009276,0.00061483,-0.00037293,0.00015193,0.00046611,0.00160301,-0.00
 024024,0.00295603,0.01283215,-0.00212863,-0.00013363,-0.00021681,0.000
 01332,-0.00000415,0.00002487,-0.00000269,0.00001753,0.00011086,-0.0000
 0488,0.00068097,-0.00064720,0.00018293,-0.00006632,-0.00006504,0.00000
 100,0.00015879,-0.00013149,0.00004355,-0.00006986,-0.00038504,0.000027
 99,-0.00096458,0.00146380,-0.00044611,-0.00071103,-0.00145397,-0.00012
 129,0.00042398,0.00023899,0.00003013,0.00004143,-0.00002036,0.00001374
 ,-0.00002525,-0.00004602,0.00000376,-0.00101829,-0.00169238,-0.0001503
 4,-0.00624637,0.00385539,-0.00103025,0.00000873,0.00009656,-0.00001468
 ,-0.00001725,-0.00003404,0.00000098,-0.00006579,0.00010662,-0.00002790
 ,0.00008619,-0.00005706,0.00003050,-0.00003082,-0.00003802,-0.00000059
 ,0.00003811,0.00002236,0.00000338,0.00000327,-0.00000910,0.00000187,-0
 .00000592,0.00000330,-0.00000157,-0.00000296,0.00000671,-0.00001219,0.
 00000030,0.00000133,0.00000084,0.00000137,0.00000682,0.00000059,-0.000
 00007,0.00000621,0.00000257,-0.00000222,-0.00000914,0.00000033,-0.0000
 0613,-0.00000123,-0.00000150,-0.00000582,-0.00000071,0.00000009,-0.000
 00555,0.00000105,-0.00000086,-0.00004139,-0.00006904,0.00000342,-0.000
 69708,0.00019734,-0.00014700,-0.00008349,-0.00032064,0.00003797,0.1617
 7065,-0.29470369,0.06029494,-0.00304402,0.00009062,-0.00057184,0.00064
 722,-0.00461996,0.00010419,-0.00005117,-0.00045913,0.00003427,-0.00008
 383,0.00005332,0.00000768,0.00001996,-0.00007700,0.00000344,0.00007216
 ,-0.00000780,0.00002559,-0.00002176,0.00016923,-0.00000440,0.00050421,
 0.00017380,-0.00001980,0.00021771,-0.00013597,0.00007460,0.00000066,-0
 .00000409,0.00000007,0.00001015,-0.00000540,0.00000156,0.00002689,-0.0
 0004812,0.00003803,0.00001171,-0.00001194,0.00000186,0.00000641,0.0000
 0448,0.00000061,-0.00001086,-0.00000401,-0.00000159,-0.00000226,0.0000
 0500,-0.00000017,-0.00000124,-0.00000144,0.00000012,-0.00000424,0.0000
 0160,-0.00000113,-0.00000073,-0.00000089,-0.00000138,-0.00000033,0.000
 00113,0.00000014,0.00000063,-0.00000029,-0.00000049,0.00000055,-0.0000
 0052,0.00000079,0.00000036,-0.00000007,0.00000107,0.00000070,-0.000000
 38,-0.00000057,0.00000187,-0.00000036,0.00000066,-0.00000075,0.0000006
 7,-0.00000007,0.00000041,-0.00000042,0.00000026,-0.00000008,-0.0000003
 4,-0.00000050,-0.00000040,-0.00000071,0.00000055,0.,-0.00000053,-0.000
 00092,0.00000015,-0.00000032,0.00000025,0.00000053,-0.00000026,-0.0000
 0037,0.00069995,0.00105936,0.00021105,0.00005178,0.00001188,0.00000890
 ,-0.17051054,0.30552131,0.00091930,0.00125738,-0.00238886,0.00030875,0
 .00029653,0.00246787,-0.00019929,0.00009170,0.00069493,0.00010104,-0.0
 0011874,-0.00024565,-0.00013865,0.00010915,-0.00014710,-0.00003314,-0.
 00038008,-0.00097001,-0.00135946,0.00073702,-0.00770352,-0.00002370,-0
 .00000190,0.00019159,-0.00001461,0.00000222,0.00001983,-0.00002416,-0.
 00000532,0.00012066,-0.00014463,0.00017297,-0.00023815,-0.00000463,-0.
 00000199,0.00002731,-0.00003804,0.00008738,-0.00002744,0.00017698,0.00
 000879,-0.00019131,0.00022777,-0.00053660,-0.00033259,0.00054179,0.000
 10327,-0.00171262,-0.00007582,-0.00007776,-0.00000949,-0.00000607,0.00
 001064,0.00005490,0.00000268,0.00001803,0.00000746,0.00034725,0.000269
 43,-0.00129000,-0.00046244,-0.00069631,0.00415174,0.00000146,-0.000033
 90,0.00000619,-0.00000504,0.00002688,-0.00001385,0.00003351,-0.0000572
 4,0.00001389,-0.00004591,0.00002866,-0.00001343,0.00001541,0.00001912,
 -0.00000018,-0.00001712,-0.00001184,-0.00000143,-0.00000096,0.00000259
 ,-0.00000006,0.00000264,-0.00000147,0.00000099,0.00000238,-0.00000331,
 0.00000634,-0.00000071,-0.00000092,0.00000021,-0.00000106,-0.00000288,
 -0.00000085,0.00000023,-0.00000317,-0.00000120,0.00000074,0.00000438,0
 .00000027,0.00000241,0.00000026,0.00000042,0.00000262,0.00000074,-0.00
 000004,0.00000243,-0.00000058,0.00000061,0.00001791,0.00002411,-0.0000
 0438,0.00017644,-0.00007332,0.00003251,0.00003409,0.00007123,0.0000004
 3,-0.04462270,0.05980704,-0.02827267,0.00022592,-0.00127891,-0.0002157
 4,0.00153547,0.00043674,-0.00290571,0.00045013,0.00033898,0.00032558,0
 .00001935,0.00004950,0.00016837,0.00003530,0.00003038,-0.00002496,-0.0
 0004547,-0.00004494,0.00001014,0.00014166,-0.00007589,-0.00007126,-0.0
 0039832,0.00051005,-0.00053167,0.00005782,0.00026252,0.00011333,0.0000
 0916,-0.00000257,-0.00000130,0.00000890,-0.00000723,0.00000650,0.00000
 612,-0.00001573,-0.00009700,-0.00002188,-0.00006104,0.00000829,0.00001
 222,0.00000452,0.00000096,0.00002958,0.00004407,-0.00000771,-0.0000102
 9,-0.00001804,-0.00000091,0.00000265,0.00001282,0.00000142,0.00000795,
 0.00000202,0.00001193,0.00000560,0.00000473,0.00000211,0.00000127,-0.0
 0000443,0.00000017,0.00000044,-0.00000104,0.00000010,-0.00000083,-0.00
 000007,-0.00000197,-0.00000207,-0.00000004,-0.00000501,0.00000119,-0.0
 0000127,-0.00000235,-0.00000150,-0.00000056,0.00000059,-0.00000084,0.0
 0000058,0.00000236,0.00000247,0.00000196,0.00000041,0.00000005,0.00000
 032,-0.00000033,0.00000162,0.00000371,-0.00000087,0.00000023,-0.000000
 36,0.00000009,0.00000109,0.00000144,-0.00000047,0.00000052,-0.00000061
 ,-0.00000098,-0.00041941,0.00026624,0.00216106,-0.00002360,-0.00000437
 ,0.00002126,0.04268712,-0.06153510,0.03662728,-0.00015140,-0.00041593,
 0.00007859,-0.00002941,-0.00009097,0.00001160,0.00023595,-0.00018329,0
 .00004497,0.00036679,0.00045765,0.00009531,-0.00032161,-0.00104955,-0.
 00015169,0.00009898,0.00001140,0.00032791,-0.00015092,-0.00003938,-0.0
 0000665,0.00007323,0.00002266,-0.00000890,0.00001844,-0.00005917,0.000
 01690,0.00056728,0.00132572,-0.00043816,-0.00004806,0.00007866,-0.0000
 1950,-0.00000533,-0.00001391,0.00000178,-0.00002221,0.00005433,-0.0000
 1147,0.00007990,0.00001677,0.00000978,0.00002132,-0.00008809,0.0000164
 7,0.00004337,0.00009627,-0.00000794,-0.00003771,-0.00003894,-0.0000005
 5,0.00000169,0.00000128,-0.00000005,0.00000111,0.00000752,-0.00000115,
 -0.00000368,-0.00000912,0.00000074,0.00015838,0.00009802,0.00000511,-0
 .00000028,-0.00002469,0.00000392,-0.00000595,0.00002198,-0.00000451,0.
 00001958,-0.00004134,0.00000988,-0.00003280,0.00001947,-0.00001086,0.0
 0001155,0.00001550,-0.00000009,-0.00001390,-0.00000922,-0.00000099,-0.
 00000109,0.00000204,-0.00000053,0.00000223,-0.00000133,0.00000062,-0.0
 0000008,-0.00000271,0.00000361,0.00000018,0.00000001,0.00000024,-0.000
 00096,-0.00000198,-0.00000020,0.00000057,-0.00000204,-0.00000121,0.000
 00083,0.00000404,-0.00000024,0.00000203,0.00000057,0.00000051,0.000001
 99,0.00000029,-0.00000007,0.00000200,-0.00000074,0.00000031,0.00001405
 ,0.00001907,-0.00000020,0.00009347,-0.00001862,0.00001906,0.00002397,0
 .00004209,-0.00000255,0.00020962,0.00021233,0.00003166,-0.00152966,-0.
 02132897,0.00254005,-0.00437128,0.00026780,-0.00261050,-0.11797891,-0.
 13680782,-0.02573675,-0.00179891,-0.00157345,0.00006210,-0.00040398,0.
 00018017,-0.00010423,-0.00053347,0.00014020,-0.00005040,0.00149743,-0.
 00007061,0.00008106,-0.00107315,0.00588769,-0.00134178,0.01794878,0.01
 350775,0.00514896,-0.00003540,0.00006882,-0.00004324,-0.00006390,-0.00
 003495,-0.00001735,-0.00013440,0.00044557,-0.00011159,0.00124659,0.006
 23824,0.00016535,0.00051323,-0.00131906,-0.00016362,0.00443376,-0.0017
 4892,0.00325306,0.00128118,-0.00342547,0.00016275,0.00042229,0.0013312
 6,0.00006519,-0.00018665,0.00008621,0.00025815,-0.00021703,0.00010749,
 0.00016372,0.00033451,-0.00036843,0.00001153,0.00000958,-0.00004129,-0
 .00001235,-0.00003294,-0.00006623,-0.00000273,0.00000963,-0.00009367,-
 0.00014564,0.00005339,0.00002849,-0.00001016,-0.00006666,-0.00023482,-
 0.00009417,-0.00003032,0.00003341,0.00008863,0.00017375,0.00018022,0.0
 0004725,-0.00001566,0.00004363,0.00003066,0.00004108,0.00009326,-0.000
 02717,-0.00000121,0.00001429,0.00002669,0.00004356,0.00004598,-0.00002
 207,0.00000344,-0.00001012,-0.00002000,-0.00007729,0.00002307,-0.00002
 057,-0.00001422,-0.00000437,-0.00000179,0.00018279,-0.00007756,-0.0000
 1933,0.09914691,-0.00015891,-0.00053818,0.00004130,0.00003125,-0.00005
 103,0.00001090,0.00006147,-0.00005554,0.00002521,-0.00009514,-0.000155
 17,-0.00001760,0.00078089,0.00064919,0.00022362,0.00006760,-0.00014450
 ,0.00000342,-0.00033522,0.00000831,-0.00004530,-0.00001650,-0.00001558
 ,0.00000126,0.00002656,-0.00003707,0.00000678,0.00037232,-0.00040849,0
 .00026553,-0.00003241,0.00004234,-0.00001156,-0.00000127,-0.00000708,0
 .00000093,-0.00001451,0.00002826,-0.00000631,0.00004672,0.00000809,0.0
 0000601,0.00000094,-0.00005132,0.00000712,0.00003628,0.00005842,-0.000
 00243,-0.00001796,-0.00001851,-0.00000013,0.00000112,0.00000055,0.0000
 0009,-0.00000021,0.00000272,-0.00000034,-0.00000437,-0.00001004,0.0000
 0126,0.00013110,-0.00013400,0.00003936,0.00000124,-0.00001208,0.000002
 47,-0.00000577,0.00001607,-0.00000341,0.00001509,-0.00002872,0.0000070
 3,-0.00002127,0.00001570,-0.00000786,0.00000631,0.00000812,0.00000008,
 -0.00000744,-0.00000502,-0.00000054,-0.00000075,0.00000182,-0.00000032
 ,0.00000149,-0.00000071,0.00000039,0.00000063,-0.00000202,0.00000380,-
 0.00000008,-0.00000024,-0.00000039,-0.00000027,-0.00000156,-0.00000028
 ,0.00000009,-0.00000151,-0.00000080,0.00000040,0.00000222,-0.00000009,
 0.00000113,0.00000021,0.00000005,0.00000100,0.00000023,0.00000016,0.00
 000123,-0.00000038,0.00000024,0.00000806,0.00000761,-0.00000013,0.0000
 5489,-0.00001378,0.00001083,0.00001585,0.00002002,-0.00000069,0.000440
 08,0.00012832,0.00003701,-0.00492673,0.00412390,-0.00134497,0.00328393
 ,0.00613888,0.00049917,-0.12985882,-0.38084665,-0.02476471,-0.00119818
 ,0.00098256,-0.00032713,-0.00060447,-0.00060734,-0.00009257,0.00011999
 ,0.00041802,-0.00000866,-0.00117527,-0.00048878,-0.00020514,0.00399747
 ,-0.00253883,0.00113626,-0.01027145,-0.01804748,-0.00226488,-0.0000789
 2,0.00009475,-0.00002871,-0.00001196,0.00002891,-0.00000403,0.00017794
 ,-0.00011730,0.00005797,0.00269468,0.00164126,0.00059522,-0.00005983,-
 0.00042987,-0.00002658,-0.00057241,-0.00451629,-0.00022705,-0.00018879
 ,-0.00019058,-0.00006375,-0.00008814,0.00000227,-0.00000923,-0.0002915
 0,0.00009078,-0.00008087,-0.00008825,-0.00003551,-0.00006877,0.0000064
 4,-0.00001023,0.00000391,0.00001161,-0.00000156,-0.00000406,0.00001919
 ,-0.00000571,0.00001215,0.00004943,-0.00005639,0.00001762,0.00004701,-
 0.00000146,0.00001054,0.00000735,-0.00015726,-0.00007873,-0.00001429,0
 .00003442,-0.00000136,0.00000751,0.00000216,0.00000687,-0.00000319,0.0
 0000271,0.00000135,-0.00000348,-0.00000092,-0.00000650,-0.00000442,-0.
 00000281,-0.00000106,0.00001651,0.00000198,0.00000498,0.00000256,-0.00
 000412,-0.00000358,-0.00004814,0.00000823,-0.00000830,-0.00000925,-0.0
 0000160,-0.00000101,-0.00040131,0.00004642,-0.00006056,0.13806554,0.39
 513778,0.00008183,-0.00008067,0.00000408,-0.00001725,0.00004633,-0.000
 01275,0.00003453,-0.00010835,0.00003235,0.00027549,0.00015159,-0.00018
 875,-0.00070834,-0.00029906,-0.00015241,0.00010403,0.00004246,-0.00111
 211,0.00000437,-0.00000463,-0.00001730,0.00002329,0.00001823,0.0000489
 5,0.00000267,-0.00001408,-0.00000168,-0.00022680,0.00096871,0.00008580
 ,-0.00001135,0.00002089,-0.00000416,-0.00000178,-0.00000345,0.00000022
 ,-0.00000497,0.00001393,-0.00000259,0.00001920,0.00000422,0.00000173,0
 .00000736,-0.00002124,0.00000288,0.00001005,0.00002213,-0.00000440,-0.
 00000925,-0.00000992,0.00000060,0.00000029,0.00000039,0.00000038,0.000
 00026,0.00000225,0.00000066,-0.00000095,-0.00000111,0.00000204,0.00002
 923,0.00004110,0.00000472,-0.00000028,-0.00000561,0.00000159,-0.000001
 18,0.00000446,-0.00000072,0.00000417,-0.00000856,0.00000136,-0.0000070
 7,0.00000352,-0.00000195,0.00000270,0.00000350,-0.00000027,-0.00000305
 ,-0.00000214,-0.00000031,-0.00000036,0.00000043,0.00000073,0.00000040,
 -0.00000026,0.00000038,0.00000020,-0.00000040,0.00000063,-0.00000024,0
 .,0.00000058,-0.00000051,-0.00000027,-0.00000034,0.00000041,-0.0000004
 8,-0.00000012,0.00000014,0.00000089,0.00000012,0.00000042,-0.00000007,
 0.00000008,0.00000049,0.00000025,-0.00000010,0.00000040,-0.00000014,0.
 00000019,0.00000319,0.00000451,-0.00000137,0.00002271,-0.00000524,0.00
 000204,0.00000522,0.00001025,-0.00000176,-0.00000252,0.00002322,-0.000
 06325,0.00280917,-0.00469113,-0.00898099,-0.00236031,0.00009469,0.0061
 5113,-0.02676309,-0.02949452,-0.01553158,0.00019672,-0.00064500,-0.001
 37599,-0.00004874,0.00024091,-0.00011526,-0.00019527,-0.00007502,-0.00
 034939,0.00036320,0.00000043,0.00099425,-0.00146045,0.00197138,0.00205
 107,0.00560665,0.00487317,-0.00169092,-0.00004133,0.00002921,0.0001279
 6,-0.00002229,-0.00001064,0.00001252,-0.00008863,0.00014261,0.00012762
 ,0.00034528,0.00158311,-0.00009369,-0.00002657,-0.00037711,0.00071298,
 0.00301483,-0.00049047,-0.00197547,0.00024645,-0.00097104,-0.00001089,
 0.00012596,0.00038470,0.00010931,0.00012976,-0.00011412,0.00004123,0.0
 0000493,0.00005976,0.00001357,0.00008867,-0.00009519,0.00002828,-0.000
 02506,-0.00002083,-0.00002071,0.00000831,-0.00000573,-0.00000878,-0.00
 002398,0.00001732,-0.00006391,-0.00004707,-0.00006595,-0.00011988,-0.0
 0006314,0.00003806,-0.00011915,0.00000123,-0.00002110,0.00003312,0.000
 04721,0.00004992,0.00001000,-0.00000102,0.00000896,0.00000237,0.000015
 71,0.00003111,-0.00000854,-0.00000299,-0.00001111,-0.00000121,0.000000
 76,0.00001442,-0.00000952,0.00000488,-0.00000221,-0.00000861,-0.000019
 61,0.00001061,0.00001220,-0.00000317,-0.00000094,0.00000105,0.00010704
 ,-0.00001529,0.00017296,0.01843879,0.02673944,0.02125710\\-0.00000012,
 -0.00000004,0.00000008,0.00000024,0.00000029,0.00000002,0.00000098,0.0
 0000043,-0.00000059,0.00000146,-0.00000027,-0.00000109,0.00000100,-0.0
 0000077,-0.00000106,0.00000020,-0.00000060,-0.00000045,-0.00000076,0.0
 0000109,0.00000107,0.00000130,0.00000075,-0.00000063,0.00000191,-0.000
 00044,-0.00000157,0.00000120,-0.00000130,-0.00000148,-0.00000149,0.000
 00232,0.00000193,-0.00000205,0.00000296,0.00000254,-0.00000264,0.00000
 248,0.00000310,-0.00000252,0.00000190,0.00000282,-0.00000212,0.0000013
 7,0.00000214,-0.00000153,0.00000139,0.00000174,-0.00000088,0.00000303,
 0.00000212,-0.00000313,0.00000289,0.00000358,-0.00000320,0.00000176,0.
 00000311,-0.00000219,0.00000086,0.00000195,-0.00000015,0.00000115,0.00
 000062,-0.00000102,0.00000421,0.00000294,-0.00000062,0.00000351,0.0000
 0205,0.00000011,0.00000347,0.00000137,0.00000055,0.00000385,0.00000138
 ,0.00000016,0.00000454,0.00000187,-0.00000060,0.00000471,0.00000256,0.
 00000032,0.00000284,0.00000109,0.00000050,0.00000481,0.00000188,0.0000
 0125,0.00000353,0.00000078,0.00000150,0.00000327,0.00000047,0.00000115
 ,0.00000306,0.00000065,0.00000164,0.00000417,0.00000064,-0.00000089,0.
 00000537,0.00000312,-0.00000150,0.00000518,0.00000335,-0.00000089,0.00
 000585,0.00000339,-0.00000050,0.00000572,0.00000310,-0.00000153,0.0000
 0439,0.00000321,-0.00000072,0.00000221,0.00000178,-0.00000186,0.000003
 19,0.00000286,-0.00000074,0.00000030,0.00000071,-0.00000014,-0.0000010
 1,-0.00000038,-0.00000094,-0.00000110,0.00000024,0.00000015,-0.0000017
 1,-0.00000078,-0.00000050,-0.00000266,-0.00000083,-0.00000123,-0.00000
 278,-0.00000046,-0.00000184,-0.00000232,0.00000024,-0.00000179,-0.0000
 0171,0.00000050,-0.00000109,-0.00000162,0.00000006,-0.00000057,-0.0000
 0196,-0.00000059,-0.00000125,-0.00000324,-0.00000062,-0.00000237,-0.00
 000249,0.00000055,-0.00000231,-0.00000141,0.00000100,0.00000016,-0.000
 00303,-0.00000147,0.00000010,-0.00000352,-0.00000168,0.00000081,-0.000
 00291,-0.00000198,0.00000146,-0.00000321,-0.00000260,0.00000150,-0.000
 00394,-0.00000288,0.00000171,-0.00000370,-0.00000302,0.00000198,-0.000
 00275,-0.00000268,0.00000222,-0.00000426,-0.00000356,0.00000083,-0.000
 00453,-0.00000269,0.00000127,-0.00000360,-0.00000255,0.00000246,-0.000
 00410,-0.00000376,0.00000114,-0.00000432,-0.00000280,0.00000178,-0.000
 00325,-0.00000279,0.00000241,-0.00000466,-0.00000377,0.00000205,-0.000
 00474,-0.00000362,0.00000256,-0.00000378,-0.00000372,0.00000252,-0.000
 00436,-0.00000384,0.00000298,-0.00000365,-0.00000370,0.00000303,-0.000
 00505,-0.00000457,0.00000172,-0.00000554,-0.00000384,-0.00000009,0.000
 00156,0.00000079,-0.00000195,0.00000372,0.00000314,-0.00000120,0.00000
 012,0.00000084,0.00000059,-0.00000193,-0.00000136\\\@


 THE WORLD OF CHEMICAL REACTIONS IS LIKE A STAGE,
 ON WHICH SCENE AFTER SCENE IS CEASELESSLY PLAYED.
 THE ACTORS ON IT ARE THE ELEMENTS.
   -- CLEMENS WINKLER   BER. 30,13(1897)
 (DISCOVERER OF GERMANIUM, FEB 6, 1886)
 Job cpu time:       1 days  0 hours 40 minutes 46.7 seconds.
 Elapsed time:       0 days  1 hours 32 minutes 51.5 seconds.
 File lengths (MBytes):  RWF=  10460 Int=      0 D2E=      0 Chk=    104 Scr=      8
 Normal termination of Gaussian 16 at Sun Dec 16 12:45:01 2018.
