 Entering Gaussian System, Link 0=g16
 Initial command:
 /gpfs/apps/hpc/Apps/Restricted/Gaussian/Rev_A.03/g16/l1.exe "/gpfs/scratch60/fas/hammes_schiffer/jg2487/c45n04/Gau-23909.inp" -scrdir="/gpfs/scratch60/fas/hammes_schiffer/jg2487/c45n04/"
 Entering Link 1 = /gpfs/apps/hpc/Apps/Restricted/Gaussian/Rev_A.03/g16/l1.exe PID=     23910.
  
 Copyright (c) 1988,1990,1992,1993,1995,1998,2003,2009,2016,
            Gaussian, Inc.  All Rights Reserved.
  
 This is part of the Gaussian(R) 16 program.  It is based on
 the Gaussian(R) 09 system (copyright 2009, Gaussian, Inc.),
 the Gaussian(R) 03 system (copyright 2003, Gaussian, Inc.),
 the Gaussian(R) 98 system (copyright 1998, Gaussian, Inc.),
 the Gaussian(R) 94 system (copyright 1995, Gaussian, Inc.),
 the Gaussian 92(TM) system (copyright 1992, Gaussian, Inc.),
 the Gaussian 90(TM) system (copyright 1990, Gaussian, Inc.),
 the Gaussian 88(TM) system (copyright 1988, Gaussian, Inc.),
 the Gaussian 86(TM) system (copyright 1986, Carnegie Mellon
 University), and the Gaussian 82(TM) system (copyright 1983,
 Carnegie Mellon University). Gaussian is a federally registered
 trademark of Gaussian, Inc.
  
 This software contains proprietary and confidential information,
 including trade secrets, belonging to Gaussian, Inc.
  
 This software is provided under written license and may be
 used, copied, transmitted, or stored only in accord with that
 written license.
  
 The following legend is applicable only to US Government
 contracts under FAR:
  
                    RESTRICTED RIGHTS LEGEND
  
 Use, reproduction and disclosure by the US Government is
 subject to restrictions as set forth in subparagraphs (a)
 and (c) of the Commercial Computer Software - Restricted
 Rights clause in FAR 52.227-19.
  
 Gaussian, Inc.
 340 Quinnipiac St., Bldg. 40, Wallingford CT 06492
  
  
 ---------------------------------------------------------------
 Warning -- This program may not be used in any manner that
 competes with the business of Gaussian, Inc. or will provide
 assistance to any competitor of Gaussian, Inc.  The licensee
 of this program is prohibited from giving any competitor of
 Gaussian, Inc. access to this program.  By using this program,
 the user acknowledges that Gaussian, Inc. is engaged in the
 business of creating and licensing software in the field of
 computational chemistry and represents and warrants to the
 licensee that it is not a competitor of Gaussian, Inc. and that
 it will not use this program in any manner prohibited above.
 ---------------------------------------------------------------
  

 Cite this work as:
 Gaussian 16, Revision A.03,
 M. J. Frisch, G. W. Trucks, H. B. Schlegel, G. E. Scuseria, 
 M. A. Robb, J. R. Cheeseman, G. Scalmani, V. Barone, 
 G. A. Petersson, H. Nakatsuji, X. Li, M. Caricato, A. V. Marenich, 
 J. Bloino, B. G. Janesko, R. Gomperts, B. Mennucci, H. P. Hratchian, 
 J. V. Ortiz, A. F. Izmaylov, J. L. Sonnenberg, D. Williams-Young, 
 F. Ding, F. Lipparini, F. Egidi, J. Goings, B. Peng, A. Petrone, 
 T. Henderson, D. Ranasinghe, V. G. Zakrzewski, J. Gao, N. Rega, 
 G. Zheng, W. Liang, M. Hada, M. Ehara, K. Toyota, R. Fukuda, 
 J. Hasegawa, M. Ishida, T. Nakajima, Y. Honda, O. Kitao, H. Nakai, 
 T. Vreven, K. Throssell, J. A. Montgomery, Jr., J. E. Peralta, 
 F. Ogliaro, M. J. Bearpark, J. J. Heyd, E. N. Brothers, K. N. Kudin, 
 V. N. Staroverov, T. A. Keith, R. Kobayashi, J. Normand, 
 K. Raghavachari, A. P. Rendell, J. C. Burant, S. S. Iyengar, 
 J. Tomasi, M. Cossi, J. M. Millam, M. Klene, C. Adamo, R. Cammi, 
 J. W. Ochterski, R. L. Martin, K. Morokuma, O. Farkas, 
 J. B. Foresman, and D. J. Fox, Gaussian, Inc., Wallingford CT, 2016.
 
 ******************************************
 Gaussian 16:  ES64L-G16RevA.03 25-Dec-2016
                20-Dec-2018 
 ******************************************
 %chk=cyclohexyl-diBIP-E1PT.chk
 %mem=10GB
 %nprocshared=16
 Will use up to   16 processors via shared memory.
 ----------------------------------------------------------------------
 #p opt=tight freq=internalmodes b3lyp/6-31g(d,p) scrf=(cpcm,solvent=di
 chloromethane,read) nosymm empiricaldispersion=gd3bj int=grid=ultrafin
 e
 ----------------------------------------------------------------------
 1/7=10,18=20,19=15,26=6,38=1,40=2/1,3;
 2/9=110,12=2,15=1,17=6,18=5,40=1/2;
 3/5=1,6=6,7=101,11=2,25=1,30=1,70=2103,71=1,72=9,74=-5,75=-5,124=41/1,2,3;
 4//1;
 5/5=2,38=5,53=9/2;
 6/7=2,8=2,9=2,10=2,28=1/1;
 7/30=1/1,2,3,16;
 1/7=10,18=20,19=15,26=6/3(2);
 2/9=110,15=1/2;
 99//99;
 2/9=110,15=1/2;
 3/5=1,6=6,7=101,11=2,25=1,30=1,70=2105,71=1,72=9,74=-5,75=-5,124=41/1,2,3;
 4/5=5,16=3,69=1/1;
 5/5=2,38=5,53=9/2;
 7/30=1/1,2,3,16;
 1/7=10,18=20,19=15,26=6/3(-5);
 2/9=110,15=1/2;
 6/7=2,8=2,9=2,10=2,19=2,28=1/1;
 99/9=1/99;
 Leave Link    1 at Thu Dec 20 18:08:28 2018, MaxMem=  1342177280 cpu:               8.5 elap:               0.6
 (Enter /gpfs/apps/hpc/Apps/Restricted/Gaussian/Rev_A.03/g16/l101.exe)
 ----------------------------------------------------------------------
 cyclohexylimine diBIP oxidized, first proton transferred, optimization
 ----------------------------------------------------------------------
 Symbolic Z-matrix:
 Charge =  1 Multiplicity = 2
 C                     1.55755   1.10165   0.12963 
 C                     0.32628   1.79475   0.10301 
 C                     0.31545   3.19311   0.00859 
 C                     1.54156   3.84818  -0.06628 
 C                     2.75795   3.14209  -0.04488 
 C                     2.80182   1.74703   0.05458 
 C                    -0.13585  -0.31394   0.24568 
 H                    -0.61917   3.74035  -0.00906 
 H                     1.56437   4.92871  -0.14176 
 H                     3.69217   3.68956  -0.10648 
 C                    -2.2883   -1.50697   0.28003 
 C                    -3.08938  -2.65971   0.33066 
 C                    -2.52457  -3.93024   0.4502 
 C                    -1.13468  -3.98528   0.5109 
 C                    -0.33084  -2.83199   0.45015 
 C                    -0.88651  -1.55539   0.3302 
 C                    -4.41674  -0.86465   0.14343 
 H                    -3.13523  -4.822     0.4922 
 H                    -0.65154  -4.94956   0.60601 
 H                     0.74544  -2.94142   0.50272 
 N                    -0.71507   0.88445   0.17713 
 C                    -6.90879  -0.73394  -0.09344 
 C                    -5.60808  -0.06073   0.01571 
 C                    -5.53587   1.31823  -0.01406 
 C                    -6.69526   2.10981  -0.17221 
 C                    -7.94967   1.47608  -0.30364 
 C                    -8.09247   0.10581  -0.26203 
 H                    -4.57909   1.81926   0.08469 
 H                    -8.8308    2.09551  -0.42809 
 C                    -6.57916   3.60114  -0.20818 
 C                    -9.41969  -0.56994  -0.37133 
 O                    -7.01791  -1.98406  -0.04284 
 N                    -3.14023  -0.42896   0.17029 
 N                    -4.39515  -2.20905   0.24178 
 H                    -2.76871   0.51999   0.11376 
 N                     1.23245  -0.22848   0.22258 
 H                     1.93936  -0.95532   0.24095 
 C                     4.0595    1.00743   0.07601 
 H                     4.96702   1.61575  -0.002 
 N                     4.09025  -0.27079   0.17411 
 C                     5.41582  -0.91384   0.16526 
 C                     6.14637  -0.69138  -1.16953 
 C                     6.29526  -0.46703   1.34518 
 H                     5.23599  -1.98946   0.27444 
 C                     7.50721  -1.3956   -1.18734 
 H                     6.29047   0.38688  -1.30906 
 H                     5.51686  -1.04149  -1.99339 
 C                     7.65445  -1.17528   1.32521 
 H                     6.4497    0.61617   1.28032 
 H                     5.77032  -0.66294   2.2851 
 C                     8.38019  -0.95654  -0.00684 
 H                     8.01469  -1.19207  -2.13564 
 H                     7.3532   -2.48066  -1.13588 
 H                     8.26733  -0.8203    2.15978 
 H                     7.50247  -2.25121   1.47922 
 H                     9.33018  -1.49978  -0.01521 
 H                     8.62077   0.10862  -0.11532 
 H                    -5.27425  -2.72611   0.21658 
 C                    -7.96455   4.27365  -0.20255 
 H                    -7.845     5.33636  -0.16706 
 H                    -8.49554   4.00396  -1.09149 
 H                    -8.51567   3.9479    0.65479 
 C                    -5.82584   4.04563  -1.47567 
 H                    -4.77152   3.99171  -1.30131 
 H                    -6.08615   3.40164  -2.28956 
 H                    -6.09645   5.05237  -1.71681 
 C                    -5.76613   4.11362   0.99513 
 H                    -6.06434   3.58684   1.87744 
 H                    -4.72383   3.94986   0.8171 
 H                    -5.94532   5.16025   1.12691 
 C                    -9.42087  -1.59003  -1.52502 
 H                    -9.19372  -2.5627   -1.14132 
 H                    -10.38601  -1.60519  -1.98673 
 H                    -8.68368  -1.31096  -2.24861 
 C                    -10.54118   0.46037  -0.60009 
 H                    -10.57898   1.13631   0.22851 
 H                    -10.34484   1.00777  -1.49826 
 H                    -11.47893  -0.04711  -0.68947 
 C                    -9.72907  -1.36195   0.91265 
 H                    -10.78774  -1.39629   1.06417 
 H                    -9.34991  -2.35797   0.81741 
 H                    -9.26454  -0.88188   1.7485 
 
 ITRead=  0  0  0  0  0  0  0  0  0  0  0  0  0  0  0  0  0  0  0  0
 ITRead=  0  0  0  0  0  0  0  0  0  0  0  0  0  0  0  0  0  0  0  0
 ITRead=  0  0  0  0  0  0  0  0  0  0  0  0  0  0  0  0  0  0  0  0
 ITRead=  0  0  0  0  0  0  0  0  0  0  0  0  0  0  0  0  0  0  0  0
 ITRead=  0  0
 MicOpt= -1 -1 -1 -1 -1 -1 -1 -1 -1 -1 -1 -1 -1 -1 -1 -1 -1 -1 -1 -1
 MicOpt= -1 -1 -1 -1 -1 -1 -1 -1 -1 -1 -1 -1 -1 -1 -1 -1 -1 -1 -1 -1
 MicOpt= -1 -1 -1 -1 -1 -1 -1 -1 -1 -1 -1 -1 -1 -1 -1 -1 -1 -1 -1 -1
 MicOpt= -1 -1 -1 -1 -1 -1 -1 -1 -1 -1 -1 -1 -1 -1 -1 -1 -1 -1 -1 -1
 MicOpt= -1 -1
 NAtoms=     82 NQM=       82 NQMF=       0 NMMI=      0 NMMIF=      0
                NMic=       0 NMicF=      0.
                    Isotopes and Nuclear Properties:
 (Nuclear quadrupole moments (NQMom) in fm**2, nuclear magnetic moments (NMagM)
  in nuclear magnetons)

  Atom         1           2           3           4           5           6           7           8           9          10
 IAtWgt=          12          12          12          12          12          12          12           1           1           1
 AtmWgt=  12.0000000  12.0000000  12.0000000  12.0000000  12.0000000  12.0000000  12.0000000   1.0078250   1.0078250   1.0078250
 NucSpn=           0           0           0           0           0           0           0           1           1           1
 AtZEff=  -0.0000000  -0.0000000  -0.0000000  -0.0000000  -0.0000000  -0.0000000  -0.0000000  -0.0000000  -0.0000000  -0.0000000
 NQMom=    0.0000000   0.0000000   0.0000000   0.0000000   0.0000000   0.0000000   0.0000000   0.0000000   0.0000000   0.0000000
 NMagM=    0.0000000   0.0000000   0.0000000   0.0000000   0.0000000   0.0000000   0.0000000   2.7928460   2.7928460   2.7928460
 AtZNuc=   6.0000000   6.0000000   6.0000000   6.0000000   6.0000000   6.0000000   6.0000000   1.0000000   1.0000000   1.0000000

  Atom        11          12          13          14          15          16          17          18          19          20
 IAtWgt=          12          12          12          12          12          12          12           1           1           1
 AtmWgt=  12.0000000  12.0000000  12.0000000  12.0000000  12.0000000  12.0000000  12.0000000   1.0078250   1.0078250   1.0078250
 NucSpn=           0           0           0           0           0           0           0           1           1           1
 AtZEff=  -0.0000000  -0.0000000  -0.0000000  -0.0000000  -0.0000000  -0.0000000  -0.0000000  -0.0000000  -0.0000000  -0.0000000
 NQMom=    0.0000000   0.0000000   0.0000000   0.0000000   0.0000000   0.0000000   0.0000000   0.0000000   0.0000000   0.0000000
 NMagM=    0.0000000   0.0000000   0.0000000   0.0000000   0.0000000   0.0000000   0.0000000   2.7928460   2.7928460   2.7928460
 AtZNuc=   6.0000000   6.0000000   6.0000000   6.0000000   6.0000000   6.0000000   6.0000000   1.0000000   1.0000000   1.0000000

  Atom        21          22          23          24          25          26          27          28          29          30
 IAtWgt=          14          12          12          12          12          12          12           1           1          12
 AtmWgt=  14.0030740  12.0000000  12.0000000  12.0000000  12.0000000  12.0000000  12.0000000   1.0078250   1.0078250  12.0000000
 NucSpn=           2           0           0           0           0           0           0           1           1           0
 AtZEff=  -0.0000000  -0.0000000  -0.0000000  -0.0000000  -0.0000000  -0.0000000  -0.0000000  -0.0000000  -0.0000000  -0.0000000
 NQMom=    2.0440000   0.0000000   0.0000000   0.0000000   0.0000000   0.0000000   0.0000000   0.0000000   0.0000000   0.0000000
 NMagM=    0.4037610   0.0000000   0.0000000   0.0000000   0.0000000   0.0000000   0.0000000   2.7928460   2.7928460   0.0000000
 AtZNuc=   7.0000000   6.0000000   6.0000000   6.0000000   6.0000000   6.0000000   6.0000000   1.0000000   1.0000000   6.0000000

  Atom        31          32          33          34          35          36          37          38          39          40
 IAtWgt=          12          16          14          14           1          14           1          12           1          14
 AtmWgt=  12.0000000  15.9949146  14.0030740  14.0030740   1.0078250  14.0030740   1.0078250  12.0000000   1.0078250  14.0030740
 NucSpn=           0           0           2           2           1           2           1           0           1           2
 AtZEff=  -0.0000000  -0.0000000  -0.0000000  -0.0000000  -0.0000000  -0.0000000  -0.0000000  -0.0000000  -0.0000000  -0.0000000
 NQMom=    0.0000000   0.0000000   2.0440000   2.0440000   0.0000000   2.0440000   0.0000000   0.0000000   0.0000000   2.0440000
 NMagM=    0.0000000   0.0000000   0.4037610   0.4037610   2.7928460   0.4037610   2.7928460   0.0000000   2.7928460   0.4037610
 AtZNuc=   6.0000000   8.0000000   7.0000000   7.0000000   1.0000000   7.0000000   1.0000000   6.0000000   1.0000000   7.0000000

  Atom        41          42          43          44          45          46          47          48          49          50
 IAtWgt=          12          12          12           1          12           1           1          12           1           1
 AtmWgt=  12.0000000  12.0000000  12.0000000   1.0078250  12.0000000   1.0078250   1.0078250  12.0000000   1.0078250   1.0078250
 NucSpn=           0           0           0           1           0           1           1           0           1           1
 AtZEff=  -0.0000000  -0.0000000  -0.0000000  -0.0000000  -0.0000000  -0.0000000  -0.0000000  -0.0000000  -0.0000000  -0.0000000
 NQMom=    0.0000000   0.0000000   0.0000000   0.0000000   0.0000000   0.0000000   0.0000000   0.0000000   0.0000000   0.0000000
 NMagM=    0.0000000   0.0000000   0.0000000   2.7928460   0.0000000   2.7928460   2.7928460   0.0000000   2.7928460   2.7928460
 AtZNuc=   6.0000000   6.0000000   6.0000000   1.0000000   6.0000000   1.0000000   1.0000000   6.0000000   1.0000000   1.0000000

  Atom        51          52          53          54          55          56          57          58          59          60
 IAtWgt=          12           1           1           1           1           1           1           1          12           1
 AtmWgt=  12.0000000   1.0078250   1.0078250   1.0078250   1.0078250   1.0078250   1.0078250   1.0078250  12.0000000   1.0078250
 NucSpn=           0           1           1           1           1           1           1           1           0           1
 AtZEff=  -0.0000000  -0.0000000  -0.0000000  -0.0000000  -0.0000000  -0.0000000  -0.0000000  -0.0000000  -0.0000000  -0.0000000
 NQMom=    0.0000000   0.0000000   0.0000000   0.0000000   0.0000000   0.0000000   0.0000000   0.0000000   0.0000000   0.0000000
 NMagM=    0.0000000   2.7928460   2.7928460   2.7928460   2.7928460   2.7928460   2.7928460   2.7928460   0.0000000   2.7928460
 AtZNuc=   6.0000000   1.0000000   1.0000000   1.0000000   1.0000000   1.0000000   1.0000000   1.0000000   6.0000000   1.0000000

  Atom        61          62          63          64          65          66          67          68          69          70
 IAtWgt=           1           1          12           1           1           1          12           1           1           1
 AtmWgt=   1.0078250   1.0078250  12.0000000   1.0078250   1.0078250   1.0078250  12.0000000   1.0078250   1.0078250   1.0078250
 NucSpn=           1           1           0           1           1           1           0           1           1           1
 AtZEff=  -0.0000000  -0.0000000  -0.0000000  -0.0000000  -0.0000000  -0.0000000  -0.0000000  -0.0000000  -0.0000000  -0.0000000
 NQMom=    0.0000000   0.0000000   0.0000000   0.0000000   0.0000000   0.0000000   0.0000000   0.0000000   0.0000000   0.0000000
 NMagM=    2.7928460   2.7928460   0.0000000   2.7928460   2.7928460   2.7928460   0.0000000   2.7928460   2.7928460   2.7928460
 AtZNuc=   1.0000000   1.0000000   6.0000000   1.0000000   1.0000000   1.0000000   6.0000000   1.0000000   1.0000000   1.0000000

  Atom        71          72          73          74          75          76          77          78          79          80
 IAtWgt=          12           1           1           1          12           1           1           1          12           1
 AtmWgt=  12.0000000   1.0078250   1.0078250   1.0078250  12.0000000   1.0078250   1.0078250   1.0078250  12.0000000   1.0078250
 NucSpn=           0           1           1           1           0           1           1           1           0           1
 AtZEff=  -0.0000000  -0.0000000  -0.0000000  -0.0000000  -0.0000000  -0.0000000  -0.0000000  -0.0000000  -0.0000000  -0.0000000
 NQMom=    0.0000000   0.0000000   0.0000000   0.0000000   0.0000000   0.0000000   0.0000000   0.0000000   0.0000000   0.0000000
 NMagM=    0.0000000   2.7928460   2.7928460   2.7928460   0.0000000   2.7928460   2.7928460   2.7928460   0.0000000   2.7928460
 AtZNuc=   6.0000000   1.0000000   1.0000000   1.0000000   6.0000000   1.0000000   1.0000000   1.0000000   6.0000000   1.0000000

  Atom        81          82
 IAtWgt=           1           1
 AtmWgt=   1.0078250   1.0078250
 NucSpn=           1           1
 AtZEff=  -0.0000000  -0.0000000
 NQMom=    0.0000000   0.0000000
 NMagM=    2.7928460   2.7928460
 AtZNuc=   1.0000000   1.0000000
 Leave Link  101 at Thu Dec 20 18:08:28 2018, MaxMem=  1342177280 cpu:               4.3 elap:               0.3
 (Enter /gpfs/apps/hpc/Apps/Restricted/Gaussian/Rev_A.03/g16/l103.exe)

 GradGradGradGradGradGradGradGradGradGradGradGradGradGradGradGradGradGrad
 Berny optimization.
 Initialization pass.
                           ----------------------------
                           !    Initial Parameters    !
                           ! (Angstroms and Degrees)  !
 --------------------------                            --------------------------
 ! Name  Definition              Value          Derivative Info.                !
 --------------------------------------------------------------------------------
 ! R1    R(1,2)                  1.4132         estimate D2E/DX2                !
 ! R2    R(1,6)                  1.4037         estimate D2E/DX2                !
 ! R3    R(1,36)                 1.3724         estimate D2E/DX2                !
 ! R4    R(2,3)                  1.4016         estimate D2E/DX2                !
 ! R5    R(2,21)                 1.3851         estimate D2E/DX2                !
 ! R6    R(3,4)                  1.3921         estimate D2E/DX2                !
 ! R7    R(3,8)                  1.0832         estimate D2E/DX2                !
 ! R8    R(4,5)                  1.4066         estimate D2E/DX2                !
 ! R9    R(4,9)                  1.0834         estimate D2E/DX2                !
 ! R10   R(5,6)                  1.3993         estimate D2E/DX2                !
 ! R11   R(5,10)                 1.0846         estimate D2E/DX2                !
 ! R12   R(6,38)                 1.4592         estimate D2E/DX2                !
 ! R13   R(7,16)                 1.4532         estimate D2E/DX2                !
 ! R14   R(7,21)                 1.3328         estimate D2E/DX2                !
 ! R15   R(7,36)                 1.3712         estimate D2E/DX2                !
 ! R16   R(11,12)                1.4047         estimate D2E/DX2                !
 ! R17   R(11,16)                1.4035         estimate D2E/DX2                !
 ! R18   R(11,33)                1.3784         estimate D2E/DX2                !
 ! R19   R(12,13)                1.3955         estimate D2E/DX2                !
 ! R20   R(12,34)                1.3842         estimate D2E/DX2                !
 ! R21   R(13,14)                1.3923         estimate D2E/DX2                !
 ! R22   R(13,18)                1.0816         estimate D2E/DX2                !
 ! R23   R(14,15)                1.4071         estimate D2E/DX2                !
 ! R24   R(14,19)                1.0827         estimate D2E/DX2                !
 ! R25   R(15,16)                1.3974         estimate D2E/DX2                !
 ! R26   R(15,20)                1.0831         estimate D2E/DX2                !
 ! R27   R(17,23)                1.4429         estimate D2E/DX2                !
 ! R28   R(17,33)                1.3491         estimate D2E/DX2                !
 ! R29   R(17,34)                1.3482         estimate D2E/DX2                !
 ! R30   R(22,23)                1.4687         estimate D2E/DX2                !
 ! R31   R(22,27)                1.4611         estimate D2E/DX2                !
 ! R32   R(22,32)                1.2559         estimate D2E/DX2                !
 ! R33   R(23,24)                1.3812         estimate D2E/DX2                !
 ! R34   R(24,25)                1.4127         estimate D2E/DX2                !
 ! R35   R(24,28)                1.0845         estimate D2E/DX2                !
 ! R36   R(25,26)                1.4115         estimate D2E/DX2                !
 ! R37   R(25,30)                1.4963         estimate D2E/DX2                !
 ! R38   R(26,27)                1.3783         estimate D2E/DX2                !
 ! R39   R(26,29)                1.0842         estimate D2E/DX2                !
 ! R40   R(27,31)                1.4933         estimate D2E/DX2                !
 ! R41   R(30,59)                1.54           estimate D2E/DX2                !
 ! R42   R(30,63)                1.54           estimate D2E/DX2                !
 ! R43   R(30,67)                1.54           estimate D2E/DX2                !
 ! R44   R(31,71)                1.54           estimate D2E/DX2                !
 ! R45   R(31,75)                1.54           estimate D2E/DX2                !
 ! R46   R(31,79)                1.54           estimate D2E/DX2                !
 ! R47   R(33,35)                1.0207         estimate D2E/DX2                !
 ! R48   R(34,58)                1.0202         estimate D2E/DX2                !
 ! R49   R(36,37)                1.0141         estimate D2E/DX2                !
 ! R50   R(38,39)                1.0953         estimate D2E/DX2                !
 ! R51   R(38,40)                1.2823         estimate D2E/DX2                !
 ! R52   R(40,41)                1.4733         estimate D2E/DX2                !
 ! R53   R(41,42)                1.5378         estimate D2E/DX2                !
 ! R54   R(41,43)                1.5379         estimate D2E/DX2                !
 ! R55   R(41,44)                1.096          estimate D2E/DX2                !
 ! R56   R(42,45)                1.5324         estimate D2E/DX2                !
 ! R57   R(42,46)                1.0968         estimate D2E/DX2                !
 ! R58   R(42,47)                1.0944         estimate D2E/DX2                !
 ! R59   R(43,48)                1.5328         estimate D2E/DX2                !
 ! R60   R(43,49)                1.0961         estimate D2E/DX2                !
 ! R61   R(43,50)                1.0943         estimate D2E/DX2                !
 ! R62   R(45,51)                1.5325         estimate D2E/DX2                !
 ! R63   R(45,52)                1.0946         estimate D2E/DX2                !
 ! R64   R(45,53)                1.0971         estimate D2E/DX2                !
 ! R65   R(48,51)                1.5326         estimate D2E/DX2                !
 ! R66   R(48,54)                1.0946         estimate D2E/DX2                !
 ! R67   R(48,55)                1.0975         estimate D2E/DX2                !
 ! R68   R(51,56)                1.0944         estimate D2E/DX2                !
 ! R69   R(51,57)                1.0974         estimate D2E/DX2                !
 ! R70   R(59,60)                1.07           estimate D2E/DX2                !
 ! R71   R(59,61)                1.07           estimate D2E/DX2                !
 ! R72   R(59,62)                1.07           estimate D2E/DX2                !
 ! R73   R(63,64)                1.07           estimate D2E/DX2                !
 ! R74   R(63,65)                1.07           estimate D2E/DX2                !
 ! R75   R(63,66)                1.07           estimate D2E/DX2                !
 ! R76   R(67,68)                1.07           estimate D2E/DX2                !
 ! R77   R(67,69)                1.07           estimate D2E/DX2                !
 ! R78   R(67,70)                1.07           estimate D2E/DX2                !
 ! R79   R(71,72)                1.07           estimate D2E/DX2                !
 ! R80   R(71,73)                1.07           estimate D2E/DX2                !
 ! R81   R(71,74)                1.07           estimate D2E/DX2                !
 ! R82   R(75,76)                1.07           estimate D2E/DX2                !
 ! R83   R(75,77)                1.07           estimate D2E/DX2                !
 ! R84   R(75,78)                1.07           estimate D2E/DX2                !
 ! R85   R(79,80)                1.07           estimate D2E/DX2                !
 ! R86   R(79,81)                1.07           estimate D2E/DX2                !
 ! R87   R(79,82)                1.07           estimate D2E/DX2                !
 ! A1    A(2,1,6)              123.0799         estimate D2E/DX2                !
 ! A2    A(2,1,36)             105.6774         estimate D2E/DX2                !
 ! A3    A(6,1,36)             131.2389         estimate D2E/DX2                !
 ! A4    A(1,2,3)              119.823          estimate D2E/DX2                !
 ! A5    A(1,2,21)             109.3716         estimate D2E/DX2                !
 ! A6    A(3,2,21)             130.805          estimate D2E/DX2                !
 ! A7    A(2,3,4)              117.7931         estimate D2E/DX2                !
 ! A8    A(2,3,8)              120.7846         estimate D2E/DX2                !
 ! A9    A(4,3,8)              121.4219         estimate D2E/DX2                !
 ! A10   A(3,4,5)              121.6415         estimate D2E/DX2                !
 ! A11   A(3,4,9)              119.4453         estimate D2E/DX2                !
 ! A12   A(5,4,9)              118.9131         estimate D2E/DX2                !
 ! A13   A(4,5,6)              121.9137         estimate D2E/DX2                !
 ! A14   A(4,5,10)             119.3823         estimate D2E/DX2                !
 ! A15   A(6,5,10)             118.704          estimate D2E/DX2                !
 ! A16   A(1,6,5)              115.7468         estimate D2E/DX2                !
 ! A17   A(1,6,38)             122.0179         estimate D2E/DX2                !
 ! A18   A(5,6,38)             122.2351         estimate D2E/DX2                !
 ! A19   A(16,7,21)            123.1363         estimate D2E/DX2                !
 ! A20   A(16,7,36)            124.7292         estimate D2E/DX2                !
 ! A21   A(21,7,36)            112.1342         estimate D2E/DX2                !
 ! A22   A(12,11,16)           122.6835         estimate D2E/DX2                !
 ! A23   A(12,11,33)           106.9899         estimate D2E/DX2                !
 ! A24   A(16,11,33)           130.3252         estimate D2E/DX2                !
 ! A25   A(11,12,13)           121.2923         estimate D2E/DX2                !
 ! A26   A(11,12,34)           105.5744         estimate D2E/DX2                !
 ! A27   A(13,12,34)           133.1332         estimate D2E/DX2                !
 ! A28   A(12,13,14)           116.3433         estimate D2E/DX2                !
 ! A29   A(12,13,18)           121.6973         estimate D2E/DX2                !
 ! A30   A(14,13,18)           121.9594         estimate D2E/DX2                !
 ! A31   A(13,14,15)           122.4114         estimate D2E/DX2                !
 ! A32   A(13,14,19)           118.979          estimate D2E/DX2                !
 ! A33   A(15,14,19)           118.6095         estimate D2E/DX2                !
 ! A34   A(14,15,16)           121.6886         estimate D2E/DX2                !
 ! A35   A(14,15,20)           118.866          estimate D2E/DX2                !
 ! A36   A(16,15,20)           119.4448         estimate D2E/DX2                !
 ! A37   A(7,16,11)            118.971          estimate D2E/DX2                !
 ! A38   A(7,16,15)            125.4507         estimate D2E/DX2                !
 ! A39   A(11,16,15)           115.5764         estimate D2E/DX2                !
 ! A40   A(23,17,33)           127.0909         estimate D2E/DX2                !
 ! A41   A(23,17,34)           125.1198         estimate D2E/DX2                !
 ! A42   A(33,17,34)           107.7847         estimate D2E/DX2                !
 ! A43   A(2,21,7)             105.4828         estimate D2E/DX2                !
 ! A44   A(23,22,27)           117.5564         estimate D2E/DX2                !
 ! A45   A(23,22,32)           122.0213         estimate D2E/DX2                !
 ! A46   A(27,22,32)           120.4221         estimate D2E/DX2                !
 ! A47   A(17,23,22)           118.8445         estimate D2E/DX2                !
 ! A48   A(17,23,24)           120.998          estimate D2E/DX2                !
 ! A49   A(22,23,24)           120.156          estimate D2E/DX2                !
 ! A50   A(23,24,25)           121.2602         estimate D2E/DX2                !
 ! A51   A(23,24,28)           120.358          estimate D2E/DX2                !
 ! A52   A(25,24,28)           118.3818         estimate D2E/DX2                !
 ! A53   A(24,25,26)           119.2209         estimate D2E/DX2                !
 ! A54   A(24,25,30)           119.8335         estimate D2E/DX2                !
 ! A55   A(26,25,30)           120.9442         estimate D2E/DX2                !
 ! A56   A(25,26,27)           122.3853         estimate D2E/DX2                !
 ! A57   A(25,26,29)           118.4502         estimate D2E/DX2                !
 ! A58   A(27,26,29)           119.1591         estimate D2E/DX2                !
 ! A59   A(22,27,26)           119.4025         estimate D2E/DX2                !
 ! A60   A(22,27,31)           117.9299         estimate D2E/DX2                !
 ! A61   A(26,27,31)           122.6656         estimate D2E/DX2                !
 ! A62   A(25,30,59)           111.4298         estimate D2E/DX2                !
 ! A63   A(25,30,63)           110.2072         estimate D2E/DX2                !
 ! A64   A(25,30,67)           110.7236         estimate D2E/DX2                !
 ! A65   A(59,30,63)           108.4827         estimate D2E/DX2                !
 ! A66   A(59,30,67)           109.0724         estimate D2E/DX2                !
 ! A67   A(63,30,67)           106.7863         estimate D2E/DX2                !
 ! A68   A(27,31,71)           110.8086         estimate D2E/DX2                !
 ! A69   A(27,31,75)           110.8153         estimate D2E/DX2                !
 ! A70   A(27,31,79)           110.5022         estimate D2E/DX2                !
 ! A71   A(71,31,75)           109.349          estimate D2E/DX2                !
 ! A72   A(71,31,79)           106.4867         estimate D2E/DX2                !
 ! A73   A(75,31,79)           108.7614         estimate D2E/DX2                !
 ! A74   A(11,33,17)           109.5013         estimate D2E/DX2                !
 ! A75   A(11,33,35)           120.4358         estimate D2E/DX2                !
 ! A76   A(17,33,35)           130.0596         estimate D2E/DX2                !
 ! A77   A(12,34,17)           110.1485         estimate D2E/DX2                !
 ! A78   A(12,34,58)           130.5002         estimate D2E/DX2                !
 ! A79   A(17,34,58)           119.3274         estimate D2E/DX2                !
 ! A80   A(1,36,7)             107.3336         estimate D2E/DX2                !
 ! A81   A(1,36,37)            122.0566         estimate D2E/DX2                !
 ! A82   A(7,36,37)            130.5913         estimate D2E/DX2                !
 ! A83   A(6,38,39)            115.5676         estimate D2E/DX2                !
 ! A84   A(6,38,40)            121.8043         estimate D2E/DX2                !
 ! A85   A(39,38,40)           122.6274         estimate D2E/DX2                !
 ! A86   A(38,40,41)           117.1399         estimate D2E/DX2                !
 ! A87   A(40,41,42)           111.6843         estimate D2E/DX2                !
 ! A88   A(40,41,43)           112.524          estimate D2E/DX2                !
 ! A89   A(40,41,44)           106.2673         estimate D2E/DX2                !
 ! A90   A(42,41,43)           110.6239         estimate D2E/DX2                !
 ! A91   A(42,41,44)           107.8419         estimate D2E/DX2                !
 ! A92   A(43,41,44)           107.6088         estimate D2E/DX2                !
 ! A93   A(41,42,45)           111.4381         estimate D2E/DX2                !
 ! A94   A(41,42,46)           108.3648         estimate D2E/DX2                !
 ! A95   A(41,42,47)           109.5046         estimate D2E/DX2                !
 ! A96   A(45,42,46)           109.491          estimate D2E/DX2                !
 ! A97   A(45,42,47)           110.7976         estimate D2E/DX2                !
 ! A98   A(46,42,47)           107.1178         estimate D2E/DX2                !
 ! A99   A(41,43,48)           111.2745         estimate D2E/DX2                !
 ! A100  A(41,43,49)           108.8012         estimate D2E/DX2                !
 ! A101  A(41,43,50)           109.4304         estimate D2E/DX2                !
 ! A102  A(48,43,49)           109.3248         estimate D2E/DX2                !
 ! A103  A(48,43,50)           110.7234         estimate D2E/DX2                !
 ! A104  A(49,43,50)           107.1789         estimate D2E/DX2                !
 ! A105  A(42,45,51)           111.4242         estimate D2E/DX2                !
 ! A106  A(42,45,52)           109.654          estimate D2E/DX2                !
 ! A107  A(42,45,53)           109.2261         estimate D2E/DX2                !
 ! A108  A(51,45,52)           110.4861         estimate D2E/DX2                !
 ! A109  A(51,45,53)           109.0978         estimate D2E/DX2                !
 ! A110  A(52,45,53)           106.8338         estimate D2E/DX2                !
 ! A111  A(43,48,51)           111.4246         estimate D2E/DX2                !
 ! A112  A(43,48,54)           109.6776         estimate D2E/DX2                !
 ! A113  A(43,48,55)           109.1696         estimate D2E/DX2                !
 ! A114  A(51,48,54)           110.5637         estimate D2E/DX2                !
 ! A115  A(51,48,55)           109.1152         estimate D2E/DX2                !
 ! A116  A(54,48,55)           106.7668         estimate D2E/DX2                !
 ! A117  A(45,51,48)           111.0316         estimate D2E/DX2                !
 ! A118  A(45,51,56)           110.2663         estimate D2E/DX2                !
 ! A119  A(45,51,57)           109.0765         estimate D2E/DX2                !
 ! A120  A(48,51,56)           110.2954         estimate D2E/DX2                !
 ! A121  A(48,51,57)           109.1639         estimate D2E/DX2                !
 ! A122  A(56,51,57)           106.903          estimate D2E/DX2                !
 ! A123  A(30,59,60)           109.4712         estimate D2E/DX2                !
 ! A124  A(30,59,61)           109.4712         estimate D2E/DX2                !
 ! A125  A(30,59,62)           109.4712         estimate D2E/DX2                !
 ! A126  A(60,59,61)           109.4713         estimate D2E/DX2                !
 ! A127  A(60,59,62)           109.4712         estimate D2E/DX2                !
 ! A128  A(61,59,62)           109.4712         estimate D2E/DX2                !
 ! A129  A(30,63,64)           109.4712         estimate D2E/DX2                !
 ! A130  A(30,63,65)           109.4712         estimate D2E/DX2                !
 ! A131  A(30,63,66)           109.4712         estimate D2E/DX2                !
 ! A132  A(64,63,65)           109.4713         estimate D2E/DX2                !
 ! A133  A(64,63,66)           109.4712         estimate D2E/DX2                !
 ! A134  A(65,63,66)           109.4712         estimate D2E/DX2                !
 ! A135  A(30,67,68)           109.4712         estimate D2E/DX2                !
 ! A136  A(30,67,69)           109.4712         estimate D2E/DX2                !
 ! A137  A(30,67,70)           109.4712         estimate D2E/DX2                !
 ! A138  A(68,67,69)           109.4713         estimate D2E/DX2                !
 ! A139  A(68,67,70)           109.4712         estimate D2E/DX2                !
 ! A140  A(69,67,70)           109.4712         estimate D2E/DX2                !
 ! A141  A(31,71,72)           109.4712         estimate D2E/DX2                !
 ! A142  A(31,71,73)           109.4712         estimate D2E/DX2                !
 ! A143  A(31,71,74)           109.4712         estimate D2E/DX2                !
 ! A144  A(72,71,73)           109.4713         estimate D2E/DX2                !
 ! A145  A(72,71,74)           109.4712         estimate D2E/DX2                !
 ! A146  A(73,71,74)           109.4712         estimate D2E/DX2                !
 ! A147  A(31,75,76)           109.4712         estimate D2E/DX2                !
 ! A148  A(31,75,77)           109.4712         estimate D2E/DX2                !
 ! A149  A(31,75,78)           109.4712         estimate D2E/DX2                !
 ! A150  A(76,75,77)           109.4713         estimate D2E/DX2                !
 ! A151  A(76,75,78)           109.4712         estimate D2E/DX2                !
 ! A152  A(77,75,78)           109.4712         estimate D2E/DX2                !
 ! A153  A(31,79,80)           109.4712         estimate D2E/DX2                !
 ! A154  A(31,79,81)           109.4712         estimate D2E/DX2                !
 ! A155  A(31,79,82)           109.4712         estimate D2E/DX2                !
 ! A156  A(80,79,81)           109.4713         estimate D2E/DX2                !
 ! A157  A(80,79,82)           109.4712         estimate D2E/DX2                !
 ! A158  A(81,79,82)           109.4712         estimate D2E/DX2                !
 ! D1    D(6,1,2,3)             -0.5298         estimate D2E/DX2                !
 ! D2    D(6,1,2,21)           179.2693         estimate D2E/DX2                !
 ! D3    D(36,1,2,3)          -179.8974         estimate D2E/DX2                !
 ! D4    D(36,1,2,21)           -0.0984         estimate D2E/DX2                !
 ! D5    D(2,1,6,5)              0.2396         estimate D2E/DX2                !
 ! D6    D(2,1,6,38)          -179.6232         estimate D2E/DX2                !
 ! D7    D(36,1,6,5)           179.4299         estimate D2E/DX2                !
 ! D8    D(36,1,6,38)           -0.4328         estimate D2E/DX2                !
 ! D9    D(2,1,36,7)             0.1689         estimate D2E/DX2                !
 ! D10   D(2,1,36,37)          178.7596         estimate D2E/DX2                !
 ! D11   D(6,1,36,7)          -179.1265         estimate D2E/DX2                !
 ! D12   D(6,1,36,37)           -0.5358         estimate D2E/DX2                !
 ! D13   D(1,2,3,4)              0.4814         estimate D2E/DX2                !
 ! D14   D(1,2,3,8)           -179.7552         estimate D2E/DX2                !
 ! D15   D(21,2,3,4)          -179.2682         estimate D2E/DX2                !
 ! D16   D(21,2,3,8)             0.4952         estimate D2E/DX2                !
 ! D17   D(1,2,21,7)            -0.0137         estimate D2E/DX2                !
 ! D18   D(3,2,21,7)           179.756          estimate D2E/DX2                !
 ! D19   D(2,3,4,5)             -0.1841         estimate D2E/DX2                !
 ! D20   D(2,3,4,9)            179.8942         estimate D2E/DX2                !
 ! D21   D(8,3,4,5)           -179.9459         estimate D2E/DX2                !
 ! D22   D(8,3,4,9)              0.1324         estimate D2E/DX2                !
 ! D23   D(3,4,5,6)             -0.0989         estimate D2E/DX2                !
 ! D24   D(3,4,5,10)           179.9306         estimate D2E/DX2                !
 ! D25   D(9,4,5,6)            179.8232         estimate D2E/DX2                !
 ! D26   D(9,4,5,10)            -0.1473         estimate D2E/DX2                !
 ! D27   D(4,5,6,1)              0.0733         estimate D2E/DX2                !
 ! D28   D(4,5,6,38)           179.9357         estimate D2E/DX2                !
 ! D29   D(10,5,6,1)          -179.9561         estimate D2E/DX2                !
 ! D30   D(10,5,6,38)           -0.0937         estimate D2E/DX2                !
 ! D31   D(1,6,38,39)          179.21           estimate D2E/DX2                !
 ! D32   D(1,6,38,40)           -0.4989         estimate D2E/DX2                !
 ! D33   D(5,6,38,39)           -0.6439         estimate D2E/DX2                !
 ! D34   D(5,6,38,40)          179.6473         estimate D2E/DX2                !
 ! D35   D(21,7,16,11)           2.8506         estimate D2E/DX2                !
 ! D36   D(21,7,16,15)        -177.6727         estimate D2E/DX2                !
 ! D37   D(36,7,16,11)        -176.9409         estimate D2E/DX2                !
 ! D38   D(36,7,16,15)           2.5358         estimate D2E/DX2                !
 ! D39   D(16,7,21,2)         -179.6897         estimate D2E/DX2                !
 ! D40   D(36,7,21,2)            0.1253         estimate D2E/DX2                !
 ! D41   D(16,7,36,1)          179.6206         estimate D2E/DX2                !
 ! D42   D(16,7,36,37)           1.1936         estimate D2E/DX2                !
 ! D43   D(21,7,36,1)           -0.1909         estimate D2E/DX2                !
 ! D44   D(21,7,36,37)        -178.6179         estimate D2E/DX2                !
 ! D45   D(16,11,12,13)          0.7326         estimate D2E/DX2                !
 ! D46   D(16,11,12,34)       -179.3616         estimate D2E/DX2                !
 ! D47   D(33,11,12,13)       -179.6491         estimate D2E/DX2                !
 ! D48   D(33,11,12,34)          0.2567         estimate D2E/DX2                !
 ! D49   D(12,11,16,7)         178.8204         estimate D2E/DX2                !
 ! D50   D(12,11,16,15)         -0.7069         estimate D2E/DX2                !
 ! D51   D(33,11,16,7)          -0.7008         estimate D2E/DX2                !
 ! D52   D(33,11,16,15)        179.7718         estimate D2E/DX2                !
 ! D53   D(12,11,33,17)         -0.3615         estimate D2E/DX2                !
 ! D54   D(12,11,33,35)       -179.764          estimate D2E/DX2                !
 ! D55   D(16,11,33,17)        179.2172         estimate D2E/DX2                !
 ! D56   D(16,11,33,35)         -0.1853         estimate D2E/DX2                !
 ! D57   D(11,12,13,14)         -0.2102         estimate D2E/DX2                !
 ! D58   D(11,12,13,18)        179.8486         estimate D2E/DX2                !
 ! D59   D(34,12,13,14)        179.9142         estimate D2E/DX2                !
 ! D60   D(34,12,13,18)         -0.027          estimate D2E/DX2                !
 ! D61   D(11,12,34,17)         -0.0669         estimate D2E/DX2                !
 ! D62   D(11,12,34,58)        178.1059         estimate D2E/DX2                !
 ! D63   D(13,12,34,17)        179.8228         estimate D2E/DX2                !
 ! D64   D(13,12,34,58)         -2.0044         estimate D2E/DX2                !
 ! D65   D(12,13,14,15)         -0.2776         estimate D2E/DX2                !
 ! D66   D(12,13,14,19)        179.8697         estimate D2E/DX2                !
 ! D67   D(18,13,14,15)        179.6634         estimate D2E/DX2                !
 ! D68   D(18,13,14,19)         -0.1893         estimate D2E/DX2                !
 ! D69   D(13,14,15,16)          0.2783         estimate D2E/DX2                !
 ! D70   D(13,14,15,20)        179.9907         estimate D2E/DX2                !
 ! D71   D(19,14,15,16)       -179.8686         estimate D2E/DX2                !
 ! D72   D(19,14,15,20)         -0.1561         estimate D2E/DX2                !
 ! D73   D(14,15,16,7)        -179.2795         estimate D2E/DX2                !
 ! D74   D(14,15,16,11)          0.2129         estimate D2E/DX2                !
 ! D75   D(20,15,16,7)           1.0097         estimate D2E/DX2                !
 ! D76   D(20,15,16,11)       -179.4979         estimate D2E/DX2                !
 ! D77   D(33,17,23,22)        175.5088         estimate D2E/DX2                !
 ! D78   D(33,17,23,24)         -4.0282         estimate D2E/DX2                !
 ! D79   D(34,17,23,22)         -3.6254         estimate D2E/DX2                !
 ! D80   D(34,17,23,24)        176.8376         estimate D2E/DX2                !
 ! D81   D(23,17,33,11)       -178.9349         estimate D2E/DX2                !
 ! D82   D(23,17,33,35)          0.3921         estimate D2E/DX2                !
 ! D83   D(34,17,33,11)          0.3214         estimate D2E/DX2                !
 ! D84   D(34,17,33,35)        179.6484         estimate D2E/DX2                !
 ! D85   D(23,17,34,12)        179.1204         estimate D2E/DX2                !
 ! D86   D(23,17,34,58)          0.714          estimate D2E/DX2                !
 ! D87   D(33,17,34,12)         -0.1543         estimate D2E/DX2                !
 ! D88   D(33,17,34,58)       -178.5608         estimate D2E/DX2                !
 ! D89   D(27,22,23,17)       -178.2            estimate D2E/DX2                !
 ! D90   D(27,22,23,24)          1.341          estimate D2E/DX2                !
 ! D91   D(32,22,23,17)          1.9521         estimate D2E/DX2                !
 ! D92   D(32,22,23,24)       -178.5069         estimate D2E/DX2                !
 ! D93   D(23,22,27,26)         -0.3891         estimate D2E/DX2                !
 ! D94   D(23,22,27,31)       -179.8876         estimate D2E/DX2                !
 ! D95   D(32,22,27,26)        179.4613         estimate D2E/DX2                !
 ! D96   D(32,22,27,31)         -0.0371         estimate D2E/DX2                !
 ! D97   D(17,23,24,25)        178.4124         estimate D2E/DX2                !
 ! D98   D(17,23,24,28)         -1.603          estimate D2E/DX2                !
 ! D99   D(22,23,24,25)         -1.1186         estimate D2E/DX2                !
 ! D100  D(22,23,24,28)        178.8661         estimate D2E/DX2                !
 ! D101  D(23,24,25,26)         -0.0766         estimate D2E/DX2                !
 ! D102  D(23,24,25,30)       -179.6386         estimate D2E/DX2                !
 ! D103  D(28,24,25,26)        179.9384         estimate D2E/DX2                !
 ! D104  D(28,24,25,30)          0.3765         estimate D2E/DX2                !
 ! D105  D(24,25,26,27)          1.0761         estimate D2E/DX2                !
 ! D106  D(24,25,26,29)       -179.7746         estimate D2E/DX2                !
 ! D107  D(30,25,26,27)       -179.3669         estimate D2E/DX2                !
 ! D108  D(30,25,26,29)         -0.2176         estimate D2E/DX2                !
 ! D109  D(24,25,30,59)       -172.6139         estimate D2E/DX2                !
 ! D110  D(24,25,30,63)         66.8976         estimate D2E/DX2                !
 ! D111  D(24,25,30,67)        -51.0257         estimate D2E/DX2                !
 ! D112  D(26,25,30,59)          7.8319         estimate D2E/DX2                !
 ! D113  D(26,25,30,63)       -112.6566         estimate D2E/DX2                !
 ! D114  D(26,25,30,67)        129.42           estimate D2E/DX2                !
 ! D115  D(25,26,27,22)         -0.808          estimate D2E/DX2                !
 ! D116  D(25,26,27,31)        178.6657         estimate D2E/DX2                !
 ! D117  D(29,26,27,22)       -179.9514         estimate D2E/DX2                !
 ! D118  D(29,26,27,31)         -0.4778         estimate D2E/DX2                !
 ! D119  D(22,27,31,71)        -56.149          estimate D2E/DX2                !
 ! D120  D(22,27,31,75)       -177.7276         estimate D2E/DX2                !
 ! D121  D(22,27,31,79)         61.6411         estimate D2E/DX2                !
 ! D122  D(26,27,31,71)        124.3701         estimate D2E/DX2                !
 ! D123  D(26,27,31,75)          2.7914         estimate D2E/DX2                !
 ! D124  D(26,27,31,79)       -117.8399         estimate D2E/DX2                !
 ! D125  D(25,30,59,60)        176.4956         estimate D2E/DX2                !
 ! D126  D(25,30,59,61)        -63.5044         estimate D2E/DX2                !
 ! D127  D(25,30,59,62)         56.4956         estimate D2E/DX2                !
 ! D128  D(63,30,59,60)        -62.008          estimate D2E/DX2                !
 ! D129  D(63,30,59,61)         57.992          estimate D2E/DX2                !
 ! D130  D(63,30,59,62)        177.992          estimate D2E/DX2                !
 ! D131  D(67,30,59,60)         53.9533         estimate D2E/DX2                !
 ! D132  D(67,30,59,61)        173.9533         estimate D2E/DX2                !
 ! D133  D(67,30,59,62)        -66.0467         estimate D2E/DX2                !
 ! D134  D(25,30,63,64)        -83.9778         estimate D2E/DX2                !
 ! D135  D(25,30,63,65)         36.0222         estimate D2E/DX2                !
 ! D136  D(25,30,63,66)        156.0222         estimate D2E/DX2                !
 ! D137  D(59,30,63,64)        153.778          estimate D2E/DX2                !
 ! D138  D(59,30,63,65)        -86.2219         estimate D2E/DX2                !
 ! D139  D(59,30,63,66)         33.7781         estimate D2E/DX2                !
 ! D140  D(67,30,63,64)         36.3458         estimate D2E/DX2                !
 ! D141  D(67,30,63,65)        156.3458         estimate D2E/DX2                !
 ! D142  D(67,30,63,66)        -83.6542         estimate D2E/DX2                !
 ! D143  D(25,30,67,68)        -42.5039         estimate D2E/DX2                !
 ! D144  D(25,30,67,69)         77.4961         estimate D2E/DX2                !
 ! D145  D(25,30,67,70)       -162.5039         estimate D2E/DX2                !
 ! D146  D(59,30,67,68)         80.4614         estimate D2E/DX2                !
 ! D147  D(59,30,67,69)       -159.5385         estimate D2E/DX2                !
 ! D148  D(59,30,67,70)        -39.5385         estimate D2E/DX2                !
 ! D149  D(63,30,67,68)       -162.4958         estimate D2E/DX2                !
 ! D150  D(63,30,67,69)        -42.4958         estimate D2E/DX2                !
 ! D151  D(63,30,67,70)         77.5042         estimate D2E/DX2                !
 ! D152  D(27,31,71,72)         95.0785         estimate D2E/DX2                !
 ! D153  D(27,31,71,73)       -144.9215         estimate D2E/DX2                !
 ! D154  D(27,31,71,74)        -24.9215         estimate D2E/DX2                !
 ! D155  D(75,31,71,72)       -142.4852         estimate D2E/DX2                !
 ! D156  D(75,31,71,73)        -22.4852         estimate D2E/DX2                !
 ! D157  D(75,31,71,74)         97.5148         estimate D2E/DX2                !
 ! D158  D(79,31,71,72)        -25.1351         estimate D2E/DX2                !
 ! D159  D(79,31,71,73)         94.8649         estimate D2E/DX2                !
 ! D160  D(79,31,71,74)       -145.1351         estimate D2E/DX2                !
 ! D161  D(27,31,75,76)        -60.8259         estimate D2E/DX2                !
 ! D162  D(27,31,75,77)         59.1741         estimate D2E/DX2                !
 ! D163  D(27,31,75,78)        179.1741         estimate D2E/DX2                !
 ! D164  D(71,31,75,76)        176.7418         estimate D2E/DX2                !
 ! D165  D(71,31,75,77)        -63.2582         estimate D2E/DX2                !
 ! D166  D(71,31,75,78)         56.7418         estimate D2E/DX2                !
 ! D167  D(79,31,75,76)         60.8331         estimate D2E/DX2                !
 ! D168  D(79,31,75,77)       -179.1669         estimate D2E/DX2                !
 ! D169  D(79,31,75,78)        -59.1669         estimate D2E/DX2                !
 ! D170  D(27,31,79,80)        150.2562         estimate D2E/DX2                !
 ! D171  D(27,31,79,81)        -89.7437         estimate D2E/DX2                !
 ! D172  D(27,31,79,82)         30.2562         estimate D2E/DX2                !
 ! D173  D(71,31,79,80)        -89.3327         estimate D2E/DX2                !
 ! D174  D(71,31,79,81)         30.6674         estimate D2E/DX2                !
 ! D175  D(71,31,79,82)        150.6674         estimate D2E/DX2                !
 ! D176  D(75,31,79,80)         28.4065         estimate D2E/DX2                !
 ! D177  D(75,31,79,81)        148.4066         estimate D2E/DX2                !
 ! D178  D(75,31,79,82)        -91.5934         estimate D2E/DX2                !
 ! D179  D(6,38,40,41)         179.0914         estimate D2E/DX2                !
 ! D180  D(39,38,40,41)         -0.5967         estimate D2E/DX2                !
 ! D181  D(38,40,41,42)        -63.5939         estimate D2E/DX2                !
 ! D182  D(38,40,41,43)         61.5239         estimate D2E/DX2                !
 ! D183  D(38,40,41,44)        179.051          estimate D2E/DX2                !
 ! D184  D(40,41,42,45)       -178.3903         estimate D2E/DX2                !
 ! D185  D(40,41,42,46)         61.0758         estimate D2E/DX2                !
 ! D186  D(40,41,42,47)        -55.45           estimate D2E/DX2                !
 ! D187  D(43,41,42,45)         55.4441         estimate D2E/DX2                !
 ! D188  D(43,41,42,46)        -65.0898         estimate D2E/DX2                !
 ! D189  D(43,41,42,47)        178.3844         estimate D2E/DX2                !
 ! D190  D(44,41,42,45)        -61.9882         estimate D2E/DX2                !
 ! D191  D(44,41,42,46)        177.4778         estimate D2E/DX2                !
 ! D192  D(44,41,42,47)         60.9521         estimate D2E/DX2                !
 ! D193  D(40,41,43,48)        178.7688         estimate D2E/DX2                !
 ! D194  D(40,41,43,49)        -60.7204         estimate D2E/DX2                !
 ! D195  D(40,41,43,50)         56.0838         estimate D2E/DX2                !
 ! D196  D(42,41,43,48)        -55.5363         estimate D2E/DX2                !
 ! D197  D(42,41,43,49)         64.9746         estimate D2E/DX2                !
 ! D198  D(42,41,43,50)       -178.2212         estimate D2E/DX2                !
 ! D199  D(44,41,43,48)         62.0392         estimate D2E/DX2                !
 ! D200  D(44,41,43,49)       -177.45           estimate D2E/DX2                !
 ! D201  D(44,41,43,50)        -60.6458         estimate D2E/DX2                !
 ! D202  D(41,42,45,51)        -55.558          estimate D2E/DX2                !
 ! D203  D(41,42,45,52)       -178.1977         estimate D2E/DX2                !
 ! D204  D(41,42,45,53)         65.0439         estimate D2E/DX2                !
 ! D205  D(46,42,45,51)         64.3124         estimate D2E/DX2                !
 ! D206  D(46,42,45,52)        -58.3273         estimate D2E/DX2                !
 ! D207  D(46,42,45,53)       -175.0857         estimate D2E/DX2                !
 ! D208  D(47,42,45,51)       -177.7556         estimate D2E/DX2                !
 ! D209  D(47,42,45,52)         59.6048         estimate D2E/DX2                !
 ! D210  D(47,42,45,53)        -57.1537         estimate D2E/DX2                !
 ! D211  D(41,43,48,51)         55.8389         estimate D2E/DX2                !
 ! D212  D(41,43,48,54)        178.5937         estimate D2E/DX2                !
 ! D213  D(41,43,48,55)        -64.7477         estimate D2E/DX2                !
 ! D214  D(49,43,48,51)        -64.363          estimate D2E/DX2                !
 ! D215  D(49,43,48,54)         58.3918         estimate D2E/DX2                !
 ! D216  D(49,43,48,55)        175.0504         estimate D2E/DX2                !
 ! D217  D(50,43,48,51)        177.7766         estimate D2E/DX2                !
 ! D218  D(50,43,48,54)        -59.4685         estimate D2E/DX2                !
 ! D219  D(50,43,48,55)         57.1901         estimate D2E/DX2                !
 ! D220  D(42,45,51,48)         55.1805         estimate D2E/DX2                !
 ! D221  D(42,45,51,56)        177.7358         estimate D2E/DX2                !
 ! D222  D(42,45,51,57)        -65.1579         estimate D2E/DX2                !
 ! D223  D(52,45,51,48)        177.3412         estimate D2E/DX2                !
 ! D224  D(52,45,51,56)        -60.1036         estimate D2E/DX2                !
 ! D225  D(52,45,51,57)         57.0028         estimate D2E/DX2                !
 ! D226  D(53,45,51,48)        -65.4967         estimate D2E/DX2                !
 ! D227  D(53,45,51,56)         57.0586         estimate D2E/DX2                !
 ! D228  D(53,45,51,57)        174.1649         estimate D2E/DX2                !
 ! D229  D(43,48,51,45)        -55.366          estimate D2E/DX2                !
 ! D230  D(43,48,51,56)       -177.9044         estimate D2E/DX2                !
 ! D231  D(43,48,51,57)         64.9206         estimate D2E/DX2                !
 ! D232  D(54,48,51,45)       -177.6112         estimate D2E/DX2                !
 ! D233  D(54,48,51,56)         59.8503         estimate D2E/DX2                !
 ! D234  D(54,48,51,57)        -57.3247         estimate D2E/DX2                !
 ! D235  D(55,48,51,45)         65.2525         estimate D2E/DX2                !
 ! D236  D(55,48,51,56)        -57.286          estimate D2E/DX2                !
 ! D237  D(55,48,51,57)       -174.461          estimate D2E/DX2                !
 --------------------------------------------------------------------------------
 Trust Radius=3.00D-01 FncErr=5.00D-06 GrdErr=5.00D-06 EigMax=2.50D+02 EigMin=1.00D-04
 Number of steps in this run=    492 maximum allowed number of steps=    492.
 GradGradGradGradGradGradGradGradGradGradGradGradGradGradGradGradGradGrad

 Leave Link  103 at Thu Dec 20 18:08:28 2018, MaxMem=  1342177280 cpu:               0.4 elap:               0.1
 (Enter /gpfs/apps/hpc/Apps/Restricted/Gaussian/Rev_A.03/g16/l202.exe)
 Symmetry turned off by external request.
 Stoichiometry    C35H41N5O(1+,2)
 Framework group  C1[X(C35H41N5O)]
 Deg. of freedom   240
 Full point group                 C1      NOp   1
                          Input orientation:                          
 ---------------------------------------------------------------------
 Center     Atomic      Atomic             Coordinates (Angstroms)
 Number     Number       Type             X           Y           Z
 ---------------------------------------------------------------------
      1          6           0        1.557551    1.101651    0.129625
      2          6           0        0.326278    1.794754    0.103007
      3          6           0        0.315448    3.193112    0.008591
      4          6           0        1.541555    3.848177   -0.066277
      5          6           0        2.757948    3.142094   -0.044879
      6          6           0        2.801818    1.747034    0.054584
      7          6           0       -0.135851   -0.313943    0.245680
      8          1           0       -0.619168    3.740346   -0.009058
      9          1           0        1.564371    4.928710   -0.141757
     10          1           0        3.692171    3.689561   -0.106483
     11          6           0       -2.288300   -1.506974    0.280029
     12          6           0       -3.089379   -2.659711    0.330655
     13          6           0       -2.524565   -3.930243    0.450199
     14          6           0       -1.134677   -3.985283    0.510903
     15          6           0       -0.330844   -2.831985    0.450149
     16          6           0       -0.886505   -1.555386    0.330198
     17          6           0       -4.416741   -0.864650    0.143433
     18          1           0       -3.135227   -4.821997    0.492202
     19          1           0       -0.651537   -4.949558    0.606008
     20          1           0        0.745444   -2.941417    0.502715
     21          7           0       -0.715074    0.884445    0.177134
     22          6           0       -6.908789   -0.733943   -0.093444
     23          6           0       -5.608083   -0.060733    0.015706
     24          6           0       -5.535867    1.318231   -0.014057
     25          6           0       -6.695261    2.109812   -0.172205
     26          6           0       -7.949667    1.476076   -0.303641
     27          6           0       -8.092472    0.105808   -0.262025
     28          1           0       -4.579087    1.819257    0.084691
     29          1           0       -8.830796    2.095509   -0.428085
     30          6           0       -6.579160    3.601142   -0.208177
     31          6           0       -9.419691   -0.569940   -0.371326
     32          8           0       -7.017912   -1.984060   -0.042841
     33          7           0       -3.140231   -0.428963    0.170293
     34          7           0       -4.395148   -2.209054    0.241781
     35          1           0       -2.768708    0.519987    0.113760
     36          7           0        1.232447   -0.228480    0.222584
     37          1           0        1.939356   -0.955324    0.240953
     38          6           0        4.059499    1.007427    0.076007
     39          1           0        4.967018    1.615747   -0.002002
     40          7           0        4.090247   -0.270794    0.174107
     41          6           0        5.415817   -0.913841    0.165256
     42          6           0        6.146372   -0.691375   -1.169526
     43          6           0        6.295263   -0.467031    1.345175
     44          1           0        5.235986   -1.989462    0.274442
     45          6           0        7.507209   -1.395596   -1.187339
     46          1           0        6.290469    0.386884   -1.309056
     47          1           0        5.516861   -1.041492   -1.993385
     48          6           0        7.654452   -1.175277    1.325209
     49          1           0        6.449704    0.616168    1.280315
     50          1           0        5.770321   -0.662943    2.285098
     51          6           0        8.380186   -0.956540   -0.006836
     52          1           0        8.014693   -1.192071   -2.135637
     53          1           0        7.353195   -2.480661   -1.135876
     54          1           0        8.267333   -0.820302    2.159776
     55          1           0        7.502466   -2.251206    1.479222
     56          1           0        9.330175   -1.499780   -0.015212
     57          1           0        8.620772    0.108620   -0.115321
     58          1           0       -5.274247   -2.726107    0.216577
     59          6           0       -7.964548    4.273651   -0.202555
     60          1           0       -7.845004    5.336360   -0.167060
     61          1           0       -8.495543    4.003959   -1.091493
     62          1           0       -8.515671    3.947898    0.654795
     63          6           0       -5.825843    4.045628   -1.475673
     64          1           0       -4.771524    3.991708   -1.301311
     65          1           0       -6.086149    3.401637   -2.289564
     66          1           0       -6.096449    5.052368   -1.716808
     67          6           0       -5.766129    4.113624    0.995128
     68          1           0       -6.064340    3.586841    1.877438
     69          1           0       -4.723831    3.949858    0.817096
     70          1           0       -5.945319    5.160249    1.126912
     71          6           0       -9.420866   -1.590028   -1.525024
     72          1           0       -9.193723   -2.562695   -1.141325
     73          1           0      -10.386008   -1.605189   -1.986728
     74          1           0       -8.683682   -1.310962   -2.248614
     75          6           0      -10.541178    0.460367   -0.600092
     76          1           0      -10.578980    1.136308    0.228507
     77          1           0      -10.344839    1.007765   -1.498260
     78          1           0      -11.478930   -0.047109   -0.689469
     79          6           0       -9.729073   -1.361949    0.912654
     80          1           0      -10.787735   -1.396287    1.064166
     81          1           0       -9.349910   -2.357973    0.817413
     82          1           0       -9.264535   -0.881877    1.748498
 ---------------------------------------------------------------------
 Rotational constants (GHZ):           0.1793724           0.0307565           0.0268777
 Leave Link  202 at Thu Dec 20 18:08:29 2018, MaxMem=  1342177280 cpu:               1.1 elap:               0.1
 (Enter /gpfs/apps/hpc/Apps/Restricted/Gaussian/Rev_A.03/g16/l301.exe)
 Standard basis: 6-31G(d,p) (6D, 7F)
 Ernie: Thresh=  0.10000D-02 Tol=  0.10000D-05 Strict=F.
   820 basis functions,  1435 primitive gaussians,   820 cartesian basis functions
   147 alpha electrons      146 beta electrons
       nuclear repulsion energy      4425.8198341789 Hartrees.
 IExCor=  402 DFT=T Ex+Corr=B3LYP ExCW=0 ScaHFX=  0.200000
 ScaDFX=  0.800000  0.720000  1.000000  0.810000 ScalE2=  1.000000  1.000000
 IRadAn=      5 IRanWt=     -1 IRanGd=            0 ICorTp=0 IEmpDi=141
 NAtoms=   82 NActive=   82 NUniq=   82 SFac= 1.00D+00 NAtFMM=   60 NAOKFM=T Big=T
 Integral buffers will be    131072 words long.
 Raffenetti 2 integral format.
 Two-electron integral symmetry is turned off.
 R6Disp:  Grimme-D3(BJ) Dispersion energy=       -0.1871013274 Hartrees.
 Nuclear repulsion after empirical dispersion term =     4425.6327328516 Hartrees.
 Using the following non-standard input for PCM:
 radii=bondi
 dis
 rep
 cav
 --- end of non-standard input.
 ------------------------------------------------------------------------------
 Polarizable Continuum Model (PCM)
 =================================
 Model                : C-PCM.
 Atomic radii         : Bondi.
 Polarization charges : Total charges.
 Charge compensation  : None.
 Solution method      : On-the-fly selection.
 Cavity type          : Scaled VdW (van der Waals Surface) (Alpha=1.100).
 Cavity algorithm     : GePol (No added spheres)
                        Default sphere list used, NSphG=   82.
                        Lebedev-Laikov grids with approx.  5.0 points / Ang**2.
                        Smoothing algorithm: York/Karplus (Gamma=1.0000).
                        Polarization charges: spherical gaussians, with
                                              point-specific exponents (IZeta= 3).
                        Self-potential: point-specific (ISelfS= 7).
                        Self-field    : sphere-specific E.n sum rule (ISelfD= 2).
 1st derivatives      : Analytical E(r).r(x)/FMM algorithm (CHGder, D1EAlg=3).
                        Cavity 1st derivative terms included.
 Solvent              : Dichloromethane, Eps=   8.930000 Eps(inf)=   2.028346
 ------------------------------------------------------------------------------
 GePol: Number of generator spheres                  =      82
 GePol: Total number of spheres                      =      82
 GePol: Number of exposed spheres                    =      82 (100.00%)
 GePol: Number of points                             =    5190
 GePol: Average weight of points                     =       0.12
 GePol: Minimum weight of points                     =   0.53D-11
 GePol: Maximum weight of points                     =    0.21770
 GePol: Number of points with low weight             =     335
 GePol: Fraction of low-weight points (<1% of avg)   =       6.45%
 GePol: Cavity surface area                          =    617.762 Ang**2
 GePol: Cavity volume                                =    608.035 Ang**3
 PCM non-electrostatic energy =         0.0276122013 Hartrees.
 Nuclear repulsion after PCM non-electrostatic terms =     4425.6603450529 Hartrees.
 Leave Link  301 at Thu Dec 20 18:08:29 2018, MaxMem=  1342177280 cpu:               3.8 elap:               0.3
 (Enter /gpfs/apps/hpc/Apps/Restricted/Gaussian/Rev_A.03/g16/l302.exe)
 NPDir=0 NMtPBC=     1 NCelOv=     1 NCel=       1 NClECP=     1 NCelD=      1
         NCelK=      1 NCelE2=     1 NClLst=     1 CellRange=     0.0.
 One-electron integrals computed using PRISM.
 NBasis=   820 RedAO= T EigKep=  2.72D-04  NBF=   820
 NBsUse=   820 1.00D-06 EigRej= -1.00D+00 NBFU=   820
 Precomputing XC quadrature grid using
 IXCGrd= 4 IRadAn=           5 IRanWt=          -1 IRanGd=           0 AccXCQ= 0.00D+00.
 Generated NRdTot=       0 NPtTot=           0 NUsed=           0 NTot=          32
 NSgBfM=   751   751   751   751   751 MxSgAt=    82 MxSgA2=    82.
 Leave Link  302 at Thu Dec 20 18:08:31 2018, MaxMem=  1342177280 cpu:              24.7 elap:               1.6
 (Enter /gpfs/apps/hpc/Apps/Restricted/Gaussian/Rev_A.03/g16/l303.exe)
 DipDrv:  MaxL=1.
 Leave Link  303 at Thu Dec 20 18:08:31 2018, MaxMem=  1342177280 cpu:               2.4 elap:               0.2
 (Enter /gpfs/apps/hpc/Apps/Restricted/Gaussian/Rev_A.03/g16/l401.exe)
 ExpMin= 1.61D-01 ExpMax= 5.48D+03 ExpMxC= 8.25D+02 IAcc=3 IRadAn=         5 AccDes= 0.00D+00
 Harris functional with IExCor=  402 and IRadAn=       5 diagonalized for initial guess.
 HarFok:  IExCor=  402 AccDes= 0.00D+00 IRadAn=         5 IDoV= 1 UseB2=F ITyADJ=14
 ICtDFT=  3500011 ScaDFX=  1.000000  1.000000  1.000000  1.000000
 FoFCou: FMM=F IPFlag=           0 FMFlag=      100000 FMFlg1=        2001
         NFxFlg=           0 DoJE=T BraDBF=F KetDBF=T FulRan=T
         wScrn=  0.000000 ICntrl=       500 IOpCl=  0 I1Cent=   200000004 NGrid=           0
         NMat0=    1 NMatS0=      1 NMatT0=    0 NMatD0=    1 NMtDS0=    0 NMtDT0=    0
 Symmetry not used in FoFCou.
 Harris En= -1707.48754457928    
 JPrj=0 DoOrth=F DoCkMO=F.
 Initial guess <Sx>= 0.0000 <Sy>= 0.0000 <Sz>= 0.5000 <S**2>= 0.7500 S= 0.5000
 Leave Link  401 at Thu Dec 20 18:08:36 2018, MaxMem=  1342177280 cpu:              77.0 elap:               4.9
 (Enter /gpfs/apps/hpc/Apps/Restricted/Gaussian/Rev_A.03/g16/l502.exe)
 Two-electron integral symmetry not used.
 UHF open shell SCF:
 Using DIIS extrapolation, IDIIS=  1040.
 NGot=  1342177280 LenX=  1340812546 LenY=  1340139326
 Requested convergence on RMS density matrix=1.00D-08 within 128 cycles.
 Requested convergence on MAX density matrix=1.00D-06.
 Requested convergence on             energy=1.00D-06.
 No special actions if energy rises.
 Fock matrices will be formed incrementally for  20 cycles.

 Cycle   1  Pass 1  IDiag  1:
 FoFJK:  IHMeth= 1 ICntrl=       0 DoSepK=F KAlg= 0 I1Cent=           0 FoldK=F
 IRaf= 630000000 NMat=       1 IRICut=       1 DoRegI=T DoRafI=F ISym2E= 0 IDoP0=0 IntGTp=1.
 FoFCou: FMM=T IPFlag=           0 FMFlag=      100000 FMFlg1=        2001
         NFxFlg=           0 DoJE=F BraDBF=F KetDBF=F FulRan=T
         wScrn=  0.000000 ICntrl=         0 IOpCl=  1 I1Cent=           0 NGrid=           0
         NMat0=    1 NMatS0=      1 NMatT0=    0 NMatD0=    1 NMtDS0=    0 NMtDT0=    0
 Symmetry not used in FoFCou.
 FMM levels:  10  Number of levels for PrismC:   9
 Inv3:  Mode=1 IEnd=    80808300.
 Iteration    1 A*A^-1 deviation from unit magnitude is 9.99D-15 for    635.
 Iteration    1 A*A^-1 deviation from orthogonality  is 4.83D-15 for   3145    632.
 Iteration    1 A^-1*A deviation from unit magnitude is 9.33D-15 for    635.
 Iteration    1 A^-1*A deviation from orthogonality  is 3.71D-15 for   3639    965.
 E= -1706.51849640717    
 DIIS: error= 3.30D-02 at cycle   1 NSaved=   1.
 NSaved= 1 IEnMin= 1 EnMin= -1706.51849640717     IErMin= 1 ErrMin= 3.30D-02
 ErrMax= 3.30D-02  0.00D+00 EMaxC= 1.00D-01 BMatC= 3.84D+00 BMatP= 3.84D+00
 IDIUse=3 WtCom= 6.70D-01 WtEn= 3.30D-01
 Coeff-Com:  0.100D+01
 Coeff-En:   0.100D+01
 Coeff:      0.100D+01
 Gap=     0.144 Goal=   None    Shift=    0.000
 Gap=     0.059 Goal=   None    Shift=    0.000
 GapD=    0.059 DampG=0.500 DampE=0.500 DampFc=0.2500 IDamp=-1.
 Damping current iteration by 2.50D-01
 RMSDP=2.98D-03 MaxDP=1.81D-01              OVMax= 2.74D-01

 Cycle   2  Pass 1  IDiag  1:
 RMSU=  7.24D-04    CP:  9.84D-01
 E= -1706.88186499873     Delta-E=       -0.363368591559 Rises=F Damp=T
 DIIS: error= 1.74D-02 at cycle   2 NSaved=   2.
 NSaved= 2 IEnMin= 2 EnMin= -1706.88186499873     IErMin= 2 ErrMin= 1.74D-02
 ErrMax= 1.74D-02  0.00D+00 EMaxC= 1.00D-01 BMatC= 1.01D+00 BMatP= 3.84D+00
 IDIUse=3 WtCom= 8.26D-01 WtEn= 1.74D-01
 Coeff-Com: -0.832D+00 0.183D+01
 Coeff-En:   0.000D+00 0.100D+01
 Coeff:     -0.687D+00 0.169D+01
 Gap=     0.164 Goal=   None    Shift=    0.000
 Gap=     0.086 Goal=   None    Shift=    0.000
 RMSDP=1.14D-03 MaxDP=7.45D-02 DE=-3.63D-01 OVMax= 2.08D-01

 Cycle   3  Pass 1  IDiag  1:
 RMSU=  8.09D-04    CP:  9.50D-01  1.99D+00
 E= -1707.48766151690     Delta-E=       -0.605796518174 Rises=F Damp=F
 DIIS: error= 1.01D-02 at cycle   3 NSaved=   3.
 NSaved= 3 IEnMin= 3 EnMin= -1707.48766151690     IErMin= 3 ErrMin= 1.01D-02
 ErrMax= 1.01D-02  0.00D+00 EMaxC= 1.00D-01 BMatC= 1.80D-01 BMatP= 1.01D+00
 IDIUse=3 WtCom= 8.99D-01 WtEn= 1.01D-01
 Coeff-Com: -0.360D+00 0.790D+00 0.570D+00
 Coeff-En:   0.000D+00 0.000D+00 0.100D+01
 Coeff:     -0.324D+00 0.711D+00 0.613D+00
 Gap=     0.137 Goal=   None    Shift=    0.000
 Gap=     0.065 Goal=   None    Shift=    0.000
 RMSDP=4.39D-04 MaxDP=7.57D-02 DE=-6.06D-01 OVMax= 8.79D-02

 Cycle   4  Pass 1  IDiag  1:
 RMSU=  3.55D-04    CP:  9.54D-01  2.03D+00  6.88D-01
 E= -1707.51366279233     Delta-E=       -0.026001275430 Rises=F Damp=F
 DIIS: error= 9.12D-03 at cycle   4 NSaved=   4.
 NSaved= 4 IEnMin= 4 EnMin= -1707.51366279233     IErMin= 4 ErrMin= 9.12D-03
 ErrMax= 9.12D-03  0.00D+00 EMaxC= 1.00D-01 BMatC= 8.34D-02 BMatP= 1.80D-01
 IDIUse=3 WtCom= 9.09D-01 WtEn= 9.12D-02
 Coeff-Com: -0.553D-01 0.140D+00 0.398D+00 0.516D+00
 Coeff-En:   0.000D+00 0.000D+00 0.307D+00 0.693D+00
 Coeff:     -0.502D-01 0.128D+00 0.390D+00 0.532D+00
 Gap=     0.141 Goal=   None    Shift=    0.000
 Gap=     0.065 Goal=   None    Shift=    0.000
 RMSDP=2.15D-04 MaxDP=3.94D-02 DE=-2.60D-02 OVMax= 3.63D-02

 Cycle   5  Pass 1  IDiag  1:
 RMSU=  1.16D-04    CP:  9.53D-01  1.98D+00  7.93D-01  5.58D-01
 E= -1707.52992738944     Delta-E=       -0.016264597108 Rises=F Damp=F
 DIIS: error= 1.77D-03 at cycle   5 NSaved=   5.
 NSaved= 5 IEnMin= 5 EnMin= -1707.52992738944     IErMin= 5 ErrMin= 1.77D-03
 ErrMax= 1.77D-03  0.00D+00 EMaxC= 1.00D-01 BMatC= 6.19D-03 BMatP= 8.34D-02
 IDIUse=3 WtCom= 9.82D-01 WtEn= 1.77D-02
 Coeff-Com:  0.244D-02 0.481D-02 0.172D+00 0.305D+00 0.515D+00
 Coeff-En:   0.000D+00 0.000D+00 0.000D+00 0.000D+00 0.100D+01
 Coeff:      0.239D-02 0.472D-02 0.169D+00 0.300D+00 0.524D+00
 Gap=     0.140 Goal=   None    Shift=    0.000
 Gap=     0.067 Goal=   None    Shift=    0.000
 RMSDP=6.41D-05 MaxDP=1.35D-02 DE=-1.63D-02 OVMax= 1.80D-02

 Cycle   6  Pass 1  IDiag  1:
 RMSU=  4.06D-05    CP:  9.53D-01  1.98D+00  8.03D-01  6.23D-01  6.27D-01
 E= -1707.53127526326     Delta-E=       -0.001347873820 Rises=F Damp=F
 DIIS: error= 7.07D-04 at cycle   6 NSaved=   6.
 NSaved= 6 IEnMin= 6 EnMin= -1707.53127526326     IErMin= 6 ErrMin= 7.07D-04
 ErrMax= 7.07D-04  0.00D+00 EMaxC= 1.00D-01 BMatC= 6.62D-04 BMatP= 6.19D-03
 IDIUse=3 WtCom= 9.93D-01 WtEn= 7.07D-03
 Coeff-Com:  0.636D-02-0.101D-01 0.524D-01 0.105D+00 0.293D+00 0.554D+00
 Coeff-En:   0.000D+00 0.000D+00 0.000D+00 0.000D+00 0.000D+00 0.100D+01
 Coeff:      0.631D-02-0.100D-01 0.520D-01 0.104D+00 0.291D+00 0.557D+00
 Gap=     0.140 Goal=   None    Shift=    0.000
 Gap=     0.068 Goal=   None    Shift=    0.000
 RMSDP=2.17D-05 MaxDP=3.43D-03 DE=-1.35D-03 OVMax= 8.30D-03

 Cycle   7  Pass 1  IDiag  1:
 RMSU=  1.79D-05    CP:  9.53D-01  1.98D+00  8.04D-01  6.22D-01  7.20D-01
                    CP:  8.66D-01
 E= -1707.53146891209     Delta-E=       -0.000193648829 Rises=F Damp=F
 DIIS: error= 2.51D-04 at cycle   7 NSaved=   7.
 NSaved= 7 IEnMin= 7 EnMin= -1707.53146891209     IErMin= 7 ErrMin= 2.51D-04
 ErrMax= 2.51D-04  0.00D+00 EMaxC= 1.00D-01 BMatC= 8.10D-05 BMatP= 6.62D-04
 IDIUse=3 WtCom= 9.97D-01 WtEn= 2.51D-03
 Coeff-Com:  0.190D-02-0.446D-02-0.116D-01-0.216D-01 0.216D-01 0.228D+00
 Coeff-Com:  0.786D+00
 Coeff-En:   0.000D+00 0.000D+00 0.000D+00 0.000D+00 0.000D+00 0.000D+00
 Coeff-En:   0.100D+01
 Coeff:      0.190D-02-0.445D-02-0.116D-01-0.216D-01 0.216D-01 0.227D+00
 Coeff:      0.787D+00
 Gap=     0.140 Goal=   None    Shift=    0.000
 Gap=     0.069 Goal=   None    Shift=    0.000
 RMSDP=1.23D-05 MaxDP=2.53D-03 DE=-1.94D-04 OVMax= 5.75D-03

 Cycle   8  Pass 1  IDiag  1:
 RMSU=  8.29D-06    CP:  9.53D-01  1.98D+00  8.06D-01  6.26D-01  7.58D-01
                    CP:  1.06D+00  1.03D+00
 E= -1707.53152320967     Delta-E=       -0.000054297579 Rises=F Damp=F
 DIIS: error= 1.53D-04 at cycle   8 NSaved=   8.
 NSaved= 8 IEnMin= 8 EnMin= -1707.53152320967     IErMin= 8 ErrMin= 1.53D-04
 ErrMax= 1.53D-04  0.00D+00 EMaxC= 1.00D-01 BMatC= 2.87D-05 BMatP= 8.10D-05
 IDIUse=3 WtCom= 9.98D-01 WtEn= 1.53D-03
 Coeff-Com: -0.105D-02 0.129D-02-0.202D-01-0.444D-01-0.765D-01-0.884D-01
 Coeff-Com:  0.368D+00 0.861D+00
 Coeff-En:   0.000D+00 0.000D+00 0.000D+00 0.000D+00 0.000D+00 0.000D+00
 Coeff-En:   0.000D+00 0.100D+01
 Coeff:     -0.105D-02 0.128D-02-0.202D-01-0.444D-01-0.763D-01-0.882D-01
 Coeff:      0.368D+00 0.861D+00
 Gap=     0.141 Goal=   None    Shift=    0.000
 Gap=     0.069 Goal=   None    Shift=    0.000
 RMSDP=9.49D-06 MaxDP=1.64D-03 DE=-5.43D-05 OVMax= 4.37D-03

 Cycle   9  Pass 1  IDiag  1:
 RMSU=  4.93D-06    CP:  9.53D-01  1.98D+00  8.08D-01  6.27D-01  7.86D-01
                    CP:  1.16D+00  1.36D+00  1.17D+00
 E= -1707.53154341326     Delta-E=       -0.000020203592 Rises=F Damp=F
 DIIS: error= 7.71D-05 at cycle   9 NSaved=   9.
 NSaved= 9 IEnMin= 9 EnMin= -1707.53154341326     IErMin= 9 ErrMin= 7.71D-05
 ErrMax= 7.71D-05  0.00D+00 EMaxC= 1.00D-01 BMatC= 1.13D-05 BMatP= 2.87D-05
 IDIUse=1 WtCom= 1.00D+00 WtEn= 0.00D+00
 Coeff-Com: -0.929D-03 0.165D-02-0.960D-02-0.233D-01-0.525D-01-0.125D+00
 Coeff-Com:  0.309D-01 0.546D+00 0.633D+00
 Coeff:     -0.929D-03 0.165D-02-0.960D-02-0.233D-01-0.525D-01-0.125D+00
 Coeff:      0.309D-01 0.546D+00 0.633D+00
 Gap=     0.141 Goal=   None    Shift=    0.000
 Gap=     0.069 Goal=   None    Shift=    0.000
 RMSDP=4.48D-06 MaxDP=8.18D-04 DE=-2.02D-05 OVMax= 1.87D-03

 Cycle  10  Pass 1  IDiag  1:
 RMSU=  2.29D-06    CP:  9.53D-01  1.98D+00  8.08D-01  6.26D-01  7.99D-01
[...]
   D113      -2.05530  -0.00000  -0.00060  -0.00020  -0.00079  -2.05609
   D114       2.15149  -0.00000  -0.00053  -0.00024  -0.00077   2.15072
   D115       0.00086  -0.00000  -0.00011   0.00001  -0.00010   0.00076
   D116       3.13917  -0.00000   0.00014  -0.00039  -0.00025   3.13892
   D117      -3.13068   0.00000  -0.00006   0.00003  -0.00003  -3.13071
   D118       0.00763  -0.00000   0.00019  -0.00037  -0.00018   0.00745
   D119      -1.07189   0.00001   0.00016   0.00017   0.00033  -1.07156
   D120       3.12032   0.00002   0.00020   0.00017   0.00037   3.12069
   D121       1.03344   0.00001   0.00016   0.00019   0.00035   1.03379
   D122       2.07304   0.00001  -0.00009   0.00057   0.00048   2.07352
   D123      -0.01793   0.00002  -0.00005   0.00057   0.00052  -0.01741
   D124      -2.10481   0.00001  -0.00010   0.00059   0.00050  -2.10432
   D125       3.12335  -0.00001  -0.00006  -0.00004  -0.00010   3.12326
   D126      -1.07724  -0.00001  -0.00006  -0.00004  -0.00010  -1.07734
   D127       1.04257  -0.00001  -0.00005  -0.00003  -0.00008   1.04249
   D128      -1.05813   0.00000  -0.00005   0.00005  -0.00000  -1.05813
   D129       1.02447   0.00000  -0.00005   0.00005  -0.00001   1.02446
   D130      -3.13891   0.00000  -0.00004   0.00005   0.00002  -3.13889
   D131       1.01819   0.00000  -0.00004   0.00005   0.00001   1.01820
   D132       3.10078   0.00000  -0.00004   0.00005   0.00000   3.10079
   D133      -1.06260   0.00000  -0.00003   0.00005   0.00003  -1.06257
   D134      -1.03506   0.00001   0.00024   0.00016   0.00040  -1.03466
   D135       1.07648   0.00001   0.00025   0.00014   0.00038   1.07686
   D136      -3.12144   0.00001   0.00025   0.00014   0.00039  -3.12105
   D137       3.10821  -0.00000   0.00017   0.00007   0.00025   3.10846
   D138      -1.06344  -0.00000   0.00018   0.00005   0.00023  -1.06320
   D139       1.02183  -0.00001   0.00019   0.00005   0.00024   1.02207
   D140       1.03856  -0.00000   0.00015   0.00013   0.00028   1.03884
   D141      -3.13308  -0.00000   0.00015   0.00011   0.00026  -3.13282
   D142      -1.04781  -0.00001   0.00016   0.00011   0.00027  -1.04754
   D143      -1.05491   0.00000   0.00023   0.00021   0.00045  -1.05446
   D144       1.05933  -0.00001   0.00026   0.00016   0.00042   1.05974
   D145      -3.13898  -0.00000   0.00025   0.00022   0.00048  -3.13850
   D146       1.08492   0.00001   0.00028   0.00022   0.00049   1.08542
   D147      -3.08403   0.00001   0.00030   0.00016   0.00046  -3.08356
   D148      -0.99915   0.00001   0.00030   0.00022   0.00052  -0.99862
   D149      -3.12471   0.00000   0.00032   0.00016   0.00048  -3.12423
   D150      -1.01048  -0.00001   0.00034   0.00011   0.00045  -1.01003
   D151       1.07441  -0.00000   0.00033   0.00017   0.00051   1.07491
   D152       1.06037   0.00000  -0.00027   0.00005  -0.00022   1.06014
   D153      -3.12714  -0.00000  -0.00018  -0.00003  -0.00021  -3.12734
   D154      -1.04962  -0.00001  -0.00015  -0.00011  -0.00026  -1.04988
   D155      -3.09455   0.00000  -0.00032   0.00012  -0.00021  -3.09476
   D156      -0.99887  -0.00001  -0.00023   0.00004  -0.00019  -0.99906
   D157       1.07864  -0.00001  -0.00021  -0.00004  -0.00024   1.07840
   D158      -1.04590   0.00001  -0.00034   0.00015  -0.00018  -1.04609
   D159       1.04978   0.00000  -0.00025   0.00008  -0.00017   1.04961
   D160       3.12730  -0.00000  -0.00022  -0.00000  -0.00022   3.12707
   D161      -1.04995   0.00001   0.00027   0.00013   0.00040  -1.04955
   D162       1.07790   0.00001   0.00030   0.00010   0.00040   1.07830
   D163      -3.12747   0.00001   0.00031   0.00007   0.00038  -3.12709
   D164       3.13189  -0.00000   0.00043  -0.00008   0.00035   3.13225
   D165      -1.02345  -0.00001   0.00046  -0.00011   0.00036  -1.02309
   D166       1.05438  -0.00001   0.00047  -0.00014   0.00033   1.05471
   D167       1.05956   0.00000   0.00042  -0.00006   0.00035   1.05991
   D168      -3.09578   0.00000   0.00044  -0.00009   0.00036  -3.09543
   D169      -1.01796  -0.00000   0.00045  -0.00012   0.00033  -1.01763
   D170       3.12329  -0.00001   0.00027  -0.00070  -0.00044   3.12285
   D171      -1.06209  -0.00001   0.00033  -0.00083  -0.00050  -1.06259
   D172       1.05401  -0.00001   0.00032  -0.00081  -0.00048   1.05353
   D173      -1.06063   0.00001   0.00016  -0.00054  -0.00038  -1.06101
   D174       1.03718   0.00000   0.00022  -0.00067  -0.00045   1.03673
   D175      -3.12990   0.00001   0.00021  -0.00065  -0.00043  -3.13033
   D176       0.99387  -0.00000   0.00020  -0.00064  -0.00045   0.99343
   D177       3.09168  -0.00001   0.00026  -0.00077  -0.00051   3.09117
   D178      -1.07540  -0.00001   0.00025  -0.00074  -0.00049  -1.07589
   D179       3.13793   0.00002  -0.00033   0.00040   0.00007   3.13801
   D180       0.00024  -0.00000  -0.00002   0.00010   0.00008   0.00032
   D181      -1.08352  -0.00001  -0.00007   0.00014   0.00007  -1.08345
   D182       1.10609  -0.00002   0.00004  -0.00005  -0.00001   1.10609
   D183      -3.12998  -0.00002  -0.00002   0.00005   0.00003  -3.12995
   D184      -3.10158  -0.00002   0.00024  -0.00038  -0.00015  -3.10173
   D185       1.07793  -0.00002   0.00027  -0.00040  -0.00013   1.07780
   D186      -0.95805  -0.00002   0.00026  -0.00037  -0.00011  -0.95816
   D187       0.97610   0.00000   0.00011  -0.00013  -0.00002   0.97607
   D188      -1.12757   0.00000   0.00015  -0.00015  -0.00001  -1.12758
   D189       3.11963   0.00000   0.00013  -0.00012   0.00001   3.11964
   D190      -1.06967  -0.00001   0.00018  -0.00028  -0.00010  -1.06976
   D191       3.10985  -0.00000   0.00022  -0.00030  -0.00008   3.10977
   D192       1.07387  -0.00000   0.00020  -0.00027  -0.00006   1.07380
   D193       3.10212   0.00001  -0.00027   0.00041   0.00015   3.10227
   D194      -1.07681   0.00001  -0.00026   0.00044   0.00018  -1.07663
   D195       0.96061   0.00000  -0.00024   0.00037   0.00012   0.96073
   D196      -0.97616  -0.00000  -0.00011   0.00016   0.00006  -0.97610
   D197       1.12809   0.00000  -0.00010   0.00019   0.00009   1.12818
   D198      -3.11768  -0.00000  -0.00009   0.00012   0.00003  -3.11764
   D199       1.06957   0.00000  -0.00019   0.00031   0.00012   1.06969
   D200      -3.10937   0.00000  -0.00018   0.00033   0.00014  -3.10922
   D201      -1.07195  -0.00000  -0.00017   0.00026   0.00009  -1.07186
   D202      -0.97689  -0.00000  -0.00001  -0.00002  -0.00003  -0.97692
   D203      -3.11951  -0.00000  -0.00002   0.00000  -0.00002  -3.11953
   D204       1.12670  -0.00000  -0.00002  -0.00001  -0.00003   1.12667
   D205       1.12044  -0.00000  -0.00001  -0.00003  -0.00004   1.12040
   D206      -1.02219  -0.00000  -0.00001  -0.00001  -0.00003  -1.02221
   D207      -3.05916  -0.00000  -0.00002  -0.00002  -0.00004  -3.05920
   D208      -3.10547  -0.00000  -0.00002  -0.00001  -0.00003  -3.10550
   D209       1.03509   0.00000  -0.00002   0.00001  -0.00001   1.03508
   D210      -1.00188  -0.00000  -0.00003   0.00000  -0.00003  -1.00191
   D211       0.97763  -0.00000   0.00005  -0.00008  -0.00003   0.97760
   D212       3.12075  -0.00000   0.00005  -0.00009  -0.00004   3.12071
   D213      -1.12547  -0.00000   0.00006  -0.00007  -0.00001  -1.12548
   D214      -1.12012   0.00000   0.00005  -0.00007  -0.00002  -1.12014
   D215       1.02299   0.00000   0.00006  -0.00009  -0.00003   1.02297
   D216       3.05996   0.00000   0.00007  -0.00007  -0.00000   3.05996
   D217       3.10625  -0.00000   0.00002  -0.00006  -0.00004   3.10621
   D218      -1.03383   0.00000   0.00003  -0.00008  -0.00005  -1.03387
   D219       1.00314  -0.00000   0.00004  -0.00006  -0.00002   1.00312
   D220       0.97064   0.00000   0.00000   0.00006   0.00006   0.97070
   D221       3.10982   0.00000   0.00001   0.00005   0.00006   3.10988
   D222      -1.12915   0.00000  -0.00000   0.00007   0.00007  -1.12908
   D223       3.10486  -0.00000   0.00001   0.00003   0.00004   3.10490
   D224      -1.03914  -0.00000   0.00002   0.00002   0.00004  -1.03910
   D225       1.00507  -0.00000   0.00001   0.00004   0.00005   1.00513
   D226      -1.13400  -0.00000   0.00002   0.00002   0.00004  -1.13396
   D227       1.00518  -0.00000   0.00003   0.00001   0.00004   1.00522
   D228       3.04940  -0.00000   0.00002   0.00003   0.00005   3.04945
   D229      -0.97112   0.00000  -0.00003  -0.00000  -0.00004  -0.97115
   D230      -3.11027  -0.00000  -0.00004  -0.00002  -0.00006  -3.11033
   D231       1.12806  -0.00000  -0.00002  -0.00003  -0.00005   1.12801
   D232      -3.10734   0.00000  -0.00006   0.00001  -0.00005  -3.10739
   D233       1.03669   0.00000  -0.00007  -0.00001  -0.00008   1.03661
   D234      -1.00817   0.00000  -0.00005  -0.00002  -0.00007  -1.00824
   D235       1.13214   0.00000  -0.00005   0.00001  -0.00004   1.13210
   D236      -1.00701   0.00000  -0.00006   0.00000  -0.00006  -1.00707
   D237      -3.05187   0.00000  -0.00005  -0.00001  -0.00006  -3.05193
         Item               Value     Threshold  Converged?
 Maximum Force            0.000091     0.000015     NO 
 RMS     Force            0.000009     0.000010     YES
 Maximum Displacement     0.005672     0.000060     NO 
 RMS     Displacement     0.001113     0.000040     NO 
 Predicted change in Energy=-1.328405D-07
 Lowest energy point so far.  Saving SCF results.
 GradGradGradGradGradGradGradGradGradGradGradGradGradGradGradGradGradGrad

 Leave Link  103 at Thu Dec 20 19:15:43 2018, MaxMem=  1342177280 cpu:               4.2 elap:               0.3
 (Enter /gpfs/apps/hpc/Apps/Restricted/Gaussian/Rev_A.03/g16/l202.exe)
 Symmetry turned off by external request.
 Stoichiometry    C35H41N5O(1+,2)
 Framework group  C1[X(C35H41N5O)]
 Deg. of freedom   240
 Full point group                 C1      NOp   1
                          Input orientation:                          
 ---------------------------------------------------------------------
 Center     Atomic      Atomic             Coordinates (Angstroms)
 Number     Number       Type             X           Y           Z
 ---------------------------------------------------------------------
      1          6           0        1.549934    1.098294   -0.073931
      2          6           0        0.313319    1.775874   -0.170725
      3          6           0        0.292574    3.164041   -0.362502
      4          6           0        1.514728    3.824488   -0.457570
      5          6           0        2.736595    3.133784   -0.358094
      6          6           0        2.790023    1.749216   -0.166538
      7          6           0       -0.132685   -0.323453    0.102710
      8          1           0       -0.646660    3.698706   -0.438325
      9          1           0        1.530278    4.897814   -0.605949
     10          1           0        3.667817    3.684288   -0.434201
     11          6           0       -2.275417   -1.528624    0.203289
     12          6           0       -3.067092   -2.684973    0.295078
     13          6           0       -2.492071   -3.947180    0.449668
     14          6           0       -1.101236   -3.990084    0.504664
     15          6           0       -0.307055   -2.833358    0.399351
     16          6           0       -0.873335   -1.565555    0.242925
     17          6           0       -4.410201   -0.904129    0.073177
     18          1           0       -3.096064   -4.841487    0.523660
     19          1           0       -0.609519   -4.946598    0.630087
     20          1           0        0.770346   -2.933204    0.444697
     21          7           0       -0.721056    0.862183   -0.052967
     22          6           0       -6.910154   -0.771972   -0.127881
     23          6           0       -5.605507   -0.100204   -0.032865
     24          6           0       -5.521534    1.276296   -0.032513
     25          6           0       -6.678005    2.081734   -0.115293
     26          6           0       -7.933399    1.446718   -0.228865
     27          6           0       -8.102519    0.075132   -0.240673
     28          1           0       -4.555375    1.759238    0.046194
     29          1           0       -8.809384    2.071635   -0.301367
     30          6           0       -6.528899    3.597085   -0.079176
     31          6           0       -9.481170   -0.566349   -0.362069
     32          8           0       -6.981706   -2.026735   -0.109878
     33          7           0       -3.135695   -0.460111    0.071968
     34          7           0       -4.376795   -2.245457    0.204832
     35          1           0       -2.768791    0.487934   -0.022583
     36          7           0        1.234770   -0.225975    0.099711
     37          1           0        1.947627   -0.942658    0.182753
     38          6           0        4.052919    1.025101   -0.063454
     39          1           0        4.956517    1.638099   -0.148341
     40          7           0        4.089885   -0.244652    0.110675
     41          6           0        5.416039   -0.878263    0.196818
     42          6           0        6.229765   -0.705089   -1.097004
     43          6           0        6.219901   -0.387791    1.412961
     44          1           0        5.233661   -1.950751    0.331647
     45          6           0        7.580490   -1.421295   -0.999629
     46          1           0        6.396143    0.365079   -1.269369
     47          1           0        5.649132   -1.080171   -1.945036
     48          6           0        7.570831   -1.105185    1.506486
     49          1           0        6.385652    0.691899    1.315463
     50          1           0        5.634461   -0.541820    2.324261
     51          6           0        8.380059   -0.938638    0.215676
     52          1           0        8.149237   -1.265198   -1.921213
     53          1           0        7.410799   -2.501879   -0.911926
     54          1           0        8.134278   -0.726724    2.364642
     55          1           0        7.398988   -2.173810    1.687753
     56          1           0        9.326672   -1.482910    0.287989
     57          1           0        8.631087    0.121397    0.082293
     58          1           0       -5.251154   -2.769281    0.196239
     59          6           0       -7.884054    4.315092   -0.109597
     60          1           0       -7.720581    5.393433   -0.063069
     61          1           0       -8.434028    4.096254   -1.028051
     62          1           0       -8.505025    4.030233    0.743593
     63          6           0       -5.696642    4.041104   -1.303182
     64          1           0       -4.706289    3.579267   -1.306368
     65          1           0       -6.203274    3.777251   -2.234518
     66          1           0       -5.565430    5.125990   -1.276060
     67          6           0       -5.786223    3.998617    1.214739
     68          1           0       -6.343576    3.681303    2.099257
     69          1           0       -4.786576    3.561071    1.262617
     70          1           0       -5.679501    5.085839    1.246849
     71          6           0       -9.534498   -1.421635   -1.648141
     72          1           0       -8.791427   -2.217672   -1.621868
     73          1           0      -10.527295   -1.869375   -1.742223
     74          1           0       -9.354145   -0.803051   -2.531146
     75          6           0      -10.595313    0.488191   -0.438994
     76          1           0      -10.614866    1.121622    0.451471
     77          1           0      -10.493488    1.130627   -1.317563
     78          1           0      -11.558115   -0.022631   -0.509567
     79          6           0       -9.759301   -1.456046    0.872234
     80          1           0      -10.757365   -1.892253    0.778677
     81          1           0       -9.029870   -2.259419    0.955458
     82          1           0       -9.735544   -0.859707    1.787974
 ---------------------------------------------------------------------
 Rotational constants (GHZ):           0.1793259           0.0307456           0.0268849
 Leave Link  202 at Thu Dec 20 19:15:43 2018, MaxMem=  1342177280 cpu:               0.4 elap:               0.0
 (Enter /gpfs/apps/hpc/Apps/Restricted/Gaussian/Rev_A.03/g16/l301.exe)
 Standard basis: 6-31G(d,p) (6D, 7F)
 Ernie: Thresh=  0.10000D-02 Tol=  0.10000D-05 Strict=F.
   820 basis functions,  1435 primitive gaussians,   820 cartesian basis functions
   147 alpha electrons      146 beta electrons
       nuclear repulsion energy      4417.9365167221 Hartrees.
 IExCor=  402 DFT=T Ex+Corr=B3LYP ExCW=0 ScaHFX=  0.200000
 ScaDFX=  0.800000  0.720000  1.000000  0.810000 ScalE2=  1.000000  1.000000
 IRadAn=      5 IRanWt=     -1 IRanGd=            0 ICorTp=0 IEmpDi=141
 NAtoms=   82 NActive=   82 NUniq=   82 SFac= 1.00D+00 NAtFMM=   60 NAOKFM=T Big=T
 Integral buffers will be    131072 words long.
 Raffenetti 2 integral format.
 Two-electron integral symmetry is turned off.
 R6Disp:  Grimme-D3(BJ) Dispersion energy=       -0.1859698556 Hartrees.
 Nuclear repulsion after empirical dispersion term =     4417.7505468665 Hartrees.
 ------------------------------------------------------------------------------
 Polarizable Continuum Model (PCM)
 =================================
 Model                : C-PCM.
 Atomic radii         : Bondi.
 Polarization charges : Total charges.
 Charge compensation  : None.
 Solution method      : On-the-fly selection.
 Cavity type          : Scaled VdW (van der Waals Surface) (Alpha=1.100).
 Cavity algorithm     : GePol (No added spheres)
                        Default sphere list used, NSphG=   82.
                        Lebedev-Laikov grids with approx.  5.0 points / Ang**2.
                        Smoothing algorithm: York/Karplus (Gamma=1.0000).
                        Polarization charges: spherical gaussians, with
                                              point-specific exponents (IZeta= 3).
                        Self-potential: point-specific (ISelfS= 7).
                        Self-field    : sphere-specific E.n sum rule (ISelfD= 2).
 1st derivatives      : Analytical E(r).r(x)/FMM algorithm (CHGder, D1EAlg=3).
                        Cavity 1st derivative terms included.
 Solvent              : Dichloromethane, Eps=   8.930000 Eps(inf)=   2.028346
 ------------------------------------------------------------------------------
 GePol: Number of generator spheres                  =      82
 GePol: Total number of spheres                      =      82
 GePol: Number of exposed spheres                    =      82 (100.00%)
 GePol: Number of points                             =    5293
 GePol: Average weight of points                     =       0.12
 GePol: Minimum weight of points                     =   0.95D-11
 GePol: Maximum weight of points                     =    0.21770
 GePol: Number of points with low weight             =     386
 GePol: Fraction of low-weight points (<1% of avg)   =       7.29%
 GePol: Cavity surface area                          =    624.055 Ang**2
 GePol: Cavity volume                                =    611.581 Ang**3
 PCM non-electrostatic energy =         0.0288103555 Hartrees.
 Nuclear repulsion after PCM non-electrostatic terms =     4417.7793572220 Hartrees.
 Leave Link  301 at Thu Dec 20 19:15:43 2018, MaxMem=  1342177280 cpu:               4.0 elap:               0.3
 (Enter /gpfs/apps/hpc/Apps/Restricted/Gaussian/Rev_A.03/g16/l302.exe)
 NPDir=0 NMtPBC=     1 NCelOv=     1 NCel=       1 NClECP=     1 NCelD=      1
         NCelK=      1 NCelE2=     1 NClLst=     1 CellRange=     0.0.
 One-electron integrals computed using PRISM.
 NBasis=   820 RedAO= T EigKep=  2.72D-04  NBF=   820
 NBsUse=   820 1.00D-06 EigRej= -1.00D+00 NBFU=   820
 Precomputing XC quadrature grid using
 IXCGrd= 4 IRadAn=           5 IRanWt=          -1 IRanGd=           0 AccXCQ= 0.00D+00.
