 Entering Gaussian System, Link 0=g16
 Initial command:
 /gpfs/apps/hpc/Apps/Restricted/Gaussian/Rev_A.03/g16/l1.exe "/gpfs/scratch60/fas/hammes_schiffer/jg2487/c23n08/Gau-3081.inp" -scrdir="/gpfs/scratch60/fas/hammes_schiffer/jg2487/c23n08/"
 Entering Link 1 = /gpfs/apps/hpc/Apps/Restricted/Gaussian/Rev_A.03/g16/l1.exe PID=      3082.
  
 Copyright (c) 1988,1990,1992,1993,1995,1998,2003,2009,2016,
            Gaussian, Inc.  All Rights Reserved.
  
 This is part of the Gaussian(R) 16 program.  It is based on
 the Gaussian(R) 09 system (copyright 2009, Gaussian, Inc.),
 the Gaussian(R) 03 system (copyright 2003, Gaussian, Inc.),
 the Gaussian(R) 98 system (copyright 1998, Gaussian, Inc.),
 the Gaussian(R) 94 system (copyright 1995, Gaussian, Inc.),
 the Gaussian 92(TM) system (copyright 1992, Gaussian, Inc.),
 the Gaussian 90(TM) system (copyright 1990, Gaussian, Inc.),
 the Gaussian 88(TM) system (copyright 1988, Gaussian, Inc.),
 the Gaussian 86(TM) system (copyright 1986, Carnegie Mellon
 University), and the Gaussian 82(TM) system (copyright 1983,
 Carnegie Mellon University). Gaussian is a federally registered
 trademark of Gaussian, Inc.
  
 This software contains proprietary and confidential information,
 including trade secrets, belonging to Gaussian, Inc.
  
 This software is provided under written license and may be
 used, copied, transmitted, or stored only in accord with that
 written license.
  
 The following legend is applicable only to US Government
 contracts under FAR:
  
                    RESTRICTED RIGHTS LEGEND
  
 Use, reproduction and disclosure by the US Government is
 subject to restrictions as set forth in subparagraphs (a)
 and (c) of the Commercial Computer Software - Restricted
 Rights clause in FAR 52.227-19.
  
 Gaussian, Inc.
 340 Quinnipiac St., Bldg. 40, Wallingford CT 06492
  
  
 ---------------------------------------------------------------
 Warning -- This program may not be used in any manner that
 competes with the business of Gaussian, Inc. or will provide
 assistance to any competitor of Gaussian, Inc.  The licensee
 of this program is prohibited from giving any competitor of
 Gaussian, Inc. access to this program.  By using this program,
 the user acknowledges that Gaussian, Inc. is engaged in the
 business of creating and licensing software in the field of
 computational chemistry and represents and warrants to the
 licensee that it is not a competitor of Gaussian, Inc. and that
 it will not use this program in any manner prohibited above.
 ---------------------------------------------------------------
  

 Cite this work as:
 Gaussian 16, Revision A.03,
 M. J. Frisch, G. W. Trucks, H. B. Schlegel, G. E. Scuseria, 
 M. A. Robb, J. R. Cheeseman, G. Scalmani, V. Barone, 
 G. A. Petersson, H. Nakatsuji, X. Li, M. Caricato, A. V. Marenich, 
 J. Bloino, B. G. Janesko, R. Gomperts, B. Mennucci, H. P. Hratchian, 
 J. V. Ortiz, A. F. Izmaylov, J. L. Sonnenberg, D. Williams-Young, 
 F. Ding, F. Lipparini, F. Egidi, J. Goings, B. Peng, A. Petrone, 
 T. Henderson, D. Ranasinghe, V. G. Zakrzewski, J. Gao, N. Rega, 
 G. Zheng, W. Liang, M. Hada, M. Ehara, K. Toyota, R. Fukuda, 
 J. Hasegawa, M. Ishida, T. Nakajima, Y. Honda, O. Kitao, H. Nakai, 
 T. Vreven, K. Throssell, J. A. Montgomery, Jr., J. E. Peralta, 
 F. Ogliaro, M. J. Bearpark, J. J. Heyd, E. N. Brothers, K. N. Kudin, 
 V. N. Staroverov, T. A. Keith, R. Kobayashi, J. Normand, 
 K. Raghavachari, A. P. Rendell, J. C. Burant, S. S. Iyengar, 
 J. Tomasi, M. Cossi, J. M. Millam, M. Klene, C. Adamo, R. Cammi, 
 J. W. Ochterski, R. L. Martin, K. Morokuma, O. Farkas, 
 J. B. Foresman, and D. J. Fox, Gaussian, Inc., Wallingford CT, 2016.
 
 ******************************************
 Gaussian 16:  ES64L-G16RevA.03 25-Dec-2016
                14-Dec-2018 
 ******************************************
 %chk=cyclohexyl-diBIP-E1PT.chk
 %mem=10GB
 %nprocshared=16
 Will use up to   16 processors via shared memory.
 ----------------------------------------------------------------------
 #p opt=tight freq=internalmodes b3lyp/6-31g(d,p) scrf=(cpcm,solvent=di
 chloromethane,read) nosymm empiricaldispersion=gd3bj int=grid=ultrafin
 e
 ----------------------------------------------------------------------
 1/7=10,18=20,19=15,26=6,38=1,40=2/1,3;
 2/9=110,12=2,15=1,17=6,18=5,40=1/2;
 3/5=1,6=6,7=101,11=2,25=1,30=1,70=2103,71=1,72=9,74=-5,75=-5,124=41/1,2,3;
 4//1;
 5/5=2,38=5,53=9/2;
 6/7=2,8=2,9=2,10=2,28=1/1;
 7/30=1/1,2,3,16;
 1/7=10,18=20,19=15,26=6/3(2);
 2/9=110,15=1/2;
 99//99;
 2/9=110,15=1/2;
 3/5=1,6=6,7=101,11=2,25=1,30=1,70=2105,71=1,72=9,74=-5,75=-5,124=41/1,2,3;
 4/5=5,16=3,69=1/1;
 5/5=2,38=5,53=9/2;
 7/30=1/1,2,3,16;
 1/7=10,18=20,19=15,26=6/3(-5);
 2/9=110,15=1/2;
 6/7=2,8=2,9=2,10=2,19=2,28=1/1;
 99/9=1/99;
 Leave Link    1 at Fri Dec 14 11:48:15 2018, MaxMem=  1342177280 cpu:               8.3 elap:               0.6
 (Enter /gpfs/apps/hpc/Apps/Restricted/Gaussian/Rev_A.03/g16/l101.exe)
 ----------------------------------------------------------------------
 cyclohexylimine diBIP oxidized, first proton transferred, optimization
 ----------------------------------------------------------------------
 Symbolic Z-matrix:
 Charge =  1 Multiplicity = 2
 C                     1.55755   1.10165   0.12963 
 C                     0.32628   1.79475   0.10301 
 C                     0.31545   3.19311   0.00859 
 C                     1.54156   3.84818  -0.06628 
 C                     2.75795   3.14209  -0.04488 
 C                     2.80182   1.74703   0.05458 
 C                    -0.13585  -0.31394   0.24568 
 H                    -0.61917   3.74035  -0.00906 
 H                     1.56437   4.92871  -0.14176 
 H                     3.69217   3.68956  -0.10648 
 C                    -2.2883   -1.50697   0.28003 
 C                    -3.08938  -2.65971   0.33066 
 C                    -2.52457  -3.93024   0.4502 
 C                    -1.13468  -3.98528   0.5109 
 C                    -0.33084  -2.83199   0.45015 
 C                    -0.88651  -1.55539   0.3302 
 C                    -4.41674  -0.86465   0.14343 
 H                    -3.13523  -4.822     0.4922 
 H                    -0.65154  -4.94956   0.60601 
 H                     0.74544  -2.94142   0.50272 
 N                    -0.71507   0.88445   0.17713 
 C                    -6.90879  -0.73394  -0.09344 
 C                    -5.60808  -0.06073   0.01571 
 C                    -5.53587   1.31823  -0.01406 
 C                    -6.69526   2.10981  -0.17221 
 C                    -7.94967   1.47608  -0.30364 
 C                    -8.09247   0.10581  -0.26203 
 H                    -4.57909   1.81926   0.08469 
 H                    -8.8308    2.09551  -0.42809 
 C                    -6.57916   3.60114  -0.20818 
 H                    -6.0017    3.96514   0.64648 
 H                    -6.04328   3.91733  -1.10983 
 H                    -7.55965   4.0771   -0.2042 
 C                    -9.41969  -0.56994  -0.37133 
 H                    -9.42052  -1.29423  -1.19049 
 H                    -9.63958  -1.13285   0.54125 
 H                    -10.21323   0.15909  -0.5332 
 O                    -7.01791  -1.98406  -0.04284 
 N                    -3.14023  -0.42896   0.17029 
 N                    -4.39515  -2.20905   0.24178 
 H                    -2.76871   0.51999   0.11376 
 N                     1.23245  -0.22848   0.22258 
 H                     1.93936  -0.95532   0.24095 
 C                     4.0595    1.00743   0.07601 
 H                     4.96702   1.61575  -0.002 
 N                     4.09025  -0.27079   0.17411 
 C                     5.41582  -0.91384   0.16526 
 C                     6.14637  -0.69138  -1.16953 
 C                     6.29526  -0.46703   1.34518 
 H                     5.23599  -1.98946   0.27444 
 C                     7.50721  -1.3956   -1.18734 
 H                     6.29047   0.38688  -1.30906 
 H                     5.51686  -1.04149  -1.99339 
 C                     7.65445  -1.17528   1.32521 
 H                     6.4497    0.61617   1.28032 
 H                     5.77032  -0.66294   2.2851 
 C                     8.38019  -0.95654  -0.00684 
 H                     8.01469  -1.19207  -2.13564 
 H                     7.3532   -2.48066  -1.13588 
 H                     8.26733  -0.8203    2.15978 
 H                     7.50247  -2.25121   1.47922 
 H                     9.33018  -1.49978  -0.01521 
 H                     8.62077   0.10862  -0.11532 
 H                    -5.27425  -2.72611   0.21658 
 
 ITRead=  0  0  0  0  0  0  0  0  0  0  0  0  0  0  0  0  0  0  0  0
 ITRead=  0  0  0  0  0  0  0  0  0  0  0  0  0  0  0  0  0  0  0  0
 ITRead=  0  0  0  0  0  0  0  0  0  0  0  0  0  0  0  0  0  0  0  0
 ITRead=  0  0  0  0
 MicOpt= -1 -1 -1 -1 -1 -1 -1 -1 -1 -1 -1 -1 -1 -1 -1 -1 -1 -1 -1 -1
 MicOpt= -1 -1 -1 -1 -1 -1 -1 -1 -1 -1 -1 -1 -1 -1 -1 -1 -1 -1 -1 -1
 MicOpt= -1 -1 -1 -1 -1 -1 -1 -1 -1 -1 -1 -1 -1 -1 -1 -1 -1 -1 -1 -1
 MicOpt= -1 -1 -1 -1
 NAtoms=     64 NQM=       64 NQMF=       0 NMMI=      0 NMMIF=      0
                NMic=       0 NMicF=      0.
                    Isotopes and Nuclear Properties:
 (Nuclear quadrupole moments (NQMom) in fm**2, nuclear magnetic moments (NMagM)
  in nuclear magnetons)

  Atom         1           2           3           4           5           6           7           8           9          10
 IAtWgt=          12          12          12          12          12          12          12           1           1           1
 AtmWgt=  12.0000000  12.0000000  12.0000000  12.0000000  12.0000000  12.0000000  12.0000000   1.0078250   1.0078250   1.0078250
 NucSpn=           0           0           0           0           0           0           0           1           1           1
 AtZEff=  -0.0000000  -0.0000000  -0.0000000  -0.0000000  -0.0000000  -0.0000000  -0.0000000  -0.0000000  -0.0000000  -0.0000000
 NQMom=    0.0000000   0.0000000   0.0000000   0.0000000   0.0000000   0.0000000   0.0000000   0.0000000   0.0000000   0.0000000
 NMagM=    0.0000000   0.0000000   0.0000000   0.0000000   0.0000000   0.0000000   0.0000000   2.7928460   2.7928460   2.7928460
 AtZNuc=   6.0000000   6.0000000   6.0000000   6.0000000   6.0000000   6.0000000   6.0000000   1.0000000   1.0000000   1.0000000

  Atom        11          12          13          14          15          16          17          18          19          20
 IAtWgt=          12          12          12          12          12          12          12           1           1           1
 AtmWgt=  12.0000000  12.0000000  12.0000000  12.0000000  12.0000000  12.0000000  12.0000000   1.0078250   1.0078250   1.0078250
 NucSpn=           0           0           0           0           0           0           0           1           1           1
 AtZEff=  -0.0000000  -0.0000000  -0.0000000  -0.0000000  -0.0000000  -0.0000000  -0.0000000  -0.0000000  -0.0000000  -0.0000000
 NQMom=    0.0000000   0.0000000   0.0000000   0.0000000   0.0000000   0.0000000   0.0000000   0.0000000   0.0000000   0.0000000
 NMagM=    0.0000000   0.0000000   0.0000000   0.0000000   0.0000000   0.0000000   0.0000000   2.7928460   2.7928460   2.7928460
 AtZNuc=   6.0000000   6.0000000   6.0000000   6.0000000   6.0000000   6.0000000   6.0000000   1.0000000   1.0000000   1.0000000

  Atom        21          22          23          24          25          26          27          28          29          30
 IAtWgt=          14          12          12          12          12          12          12           1           1          12
 AtmWgt=  14.0030740  12.0000000  12.0000000  12.0000000  12.0000000  12.0000000  12.0000000   1.0078250   1.0078250  12.0000000
 NucSpn=           2           0           0           0           0           0           0           1           1           0
 AtZEff=  -0.0000000  -0.0000000  -0.0000000  -0.0000000  -0.0000000  -0.0000000  -0.0000000  -0.0000000  -0.0000000  -0.0000000
 NQMom=    2.0440000   0.0000000   0.0000000   0.0000000   0.0000000   0.0000000   0.0000000   0.0000000   0.0000000   0.0000000
 NMagM=    0.4037610   0.0000000   0.0000000   0.0000000   0.0000000   0.0000000   0.0000000   2.7928460   2.7928460   0.0000000
 AtZNuc=   7.0000000   6.0000000   6.0000000   6.0000000   6.0000000   6.0000000   6.0000000   1.0000000   1.0000000   6.0000000

  Atom        31          32          33          34          35          36          37          38          39          40
 IAtWgt=           1           1           1          12           1           1           1          16          14          14
 AtmWgt=   1.0078250   1.0078250   1.0078250  12.0000000   1.0078250   1.0078250   1.0078250  15.9949146  14.0030740  14.0030740
 NucSpn=           1           1           1           0           1           1           1           0           2           2
 AtZEff=  -0.0000000  -0.0000000  -0.0000000  -0.0000000  -0.0000000  -0.0000000  -0.0000000  -0.0000000  -0.0000000  -0.0000000
 NQMom=    0.0000000   0.0000000   0.0000000   0.0000000   0.0000000   0.0000000   0.0000000   0.0000000   2.0440000   2.0440000
 NMagM=    2.7928460   2.7928460   2.7928460   0.0000000   2.7928460   2.7928460   2.7928460   0.0000000   0.4037610   0.4037610
 AtZNuc=   1.0000000   1.0000000   1.0000000   6.0000000   1.0000000   1.0000000   1.0000000   8.0000000   7.0000000   7.0000000

  Atom        41          42          43          44          45          46          47          48          49          50
 IAtWgt=           1          14           1          12           1          14          12          12          12           1
 AtmWgt=   1.0078250  14.0030740   1.0078250  12.0000000   1.0078250  14.0030740  12.0000000  12.0000000  12.0000000   1.0078250
 NucSpn=           1           2           1           0           1           2           0           0           0           1
 AtZEff=  -0.0000000  -0.0000000  -0.0000000  -0.0000000  -0.0000000  -0.0000000  -0.0000000  -0.0000000  -0.0000000  -0.0000000
 NQMom=    0.0000000   2.0440000   0.0000000   0.0000000   0.0000000   2.0440000   0.0000000   0.0000000   0.0000000   0.0000000
 NMagM=    2.7928460   0.4037610   2.7928460   0.0000000   2.7928460   0.4037610   0.0000000   0.0000000   0.0000000   2.7928460
 AtZNuc=   1.0000000   7.0000000   1.0000000   6.0000000   1.0000000   7.0000000   6.0000000   6.0000000   6.0000000   1.0000000

  Atom        51          52          53          54          55          56          57          58          59          60
 IAtWgt=          12           1           1          12           1           1          12           1           1           1
 AtmWgt=  12.0000000   1.0078250   1.0078250  12.0000000   1.0078250   1.0078250  12.0000000   1.0078250   1.0078250   1.0078250
 NucSpn=           0           1           1           0           1           1           0           1           1           1
 AtZEff=  -0.0000000  -0.0000000  -0.0000000  -0.0000000  -0.0000000  -0.0000000  -0.0000000  -0.0000000  -0.0000000  -0.0000000
 NQMom=    0.0000000   0.0000000   0.0000000   0.0000000   0.0000000   0.0000000   0.0000000   0.0000000   0.0000000   0.0000000
 NMagM=    0.0000000   2.7928460   2.7928460   0.0000000   2.7928460   2.7928460   0.0000000   2.7928460   2.7928460   2.7928460
 AtZNuc=   6.0000000   1.0000000   1.0000000   6.0000000   1.0000000   1.0000000   6.0000000   1.0000000   1.0000000   1.0000000

  Atom        61          62          63          64
 IAtWgt=           1           1           1           1
 AtmWgt=   1.0078250   1.0078250   1.0078250   1.0078250
 NucSpn=           1           1           1           1
 AtZEff=  -0.0000000  -0.0000000  -0.0000000  -0.0000000
 NQMom=    0.0000000   0.0000000   0.0000000   0.0000000
 NMagM=    2.7928460   2.7928460   2.7928460   2.7928460
 AtZNuc=   1.0000000   1.0000000   1.0000000   1.0000000
 Leave Link  101 at Fri Dec 14 11:48:16 2018, MaxMem=  1342177280 cpu:               5.3 elap:               0.4
 (Enter /gpfs/apps/hpc/Apps/Restricted/Gaussian/Rev_A.03/g16/l103.exe)

 GradGradGradGradGradGradGradGradGradGradGradGradGradGradGradGradGradGrad
 Berny optimization.
 Initialization pass.
                           ----------------------------
                           !    Initial Parameters    !
                           ! (Angstroms and Degrees)  !
 --------------------------                            --------------------------
 ! Name  Definition              Value          Derivative Info.                !
 --------------------------------------------------------------------------------
 ! R1    R(1,2)                  1.4132         estimate D2E/DX2                !
 ! R2    R(1,6)                  1.4037         estimate D2E/DX2                !
 ! R3    R(1,42)                 1.3724         estimate D2E/DX2                !
 ! R4    R(2,3)                  1.4016         estimate D2E/DX2                !
 ! R5    R(2,21)                 1.3851         estimate D2E/DX2                !
 ! R6    R(3,4)                  1.3921         estimate D2E/DX2                !
 ! R7    R(3,8)                  1.0832         estimate D2E/DX2                !
 ! R8    R(4,5)                  1.4066         estimate D2E/DX2                !
 ! R9    R(4,9)                  1.0834         estimate D2E/DX2                !
 ! R10   R(5,6)                  1.3993         estimate D2E/DX2                !
 ! R11   R(5,10)                 1.0846         estimate D2E/DX2                !
 ! R12   R(6,44)                 1.4592         estimate D2E/DX2                !
 ! R13   R(7,16)                 1.4532         estimate D2E/DX2                !
 ! R14   R(7,21)                 1.3328         estimate D2E/DX2                !
 ! R15   R(7,42)                 1.3712         estimate D2E/DX2                !
 ! R16   R(11,12)                1.4047         estimate D2E/DX2                !
 ! R17   R(11,16)                1.4035         estimate D2E/DX2                !
 ! R18   R(11,39)                1.3784         estimate D2E/DX2                !
 ! R19   R(12,13)                1.3955         estimate D2E/DX2                !
 ! R20   R(12,40)                1.3842         estimate D2E/DX2                !
 ! R21   R(13,14)                1.3923         estimate D2E/DX2                !
 ! R22   R(13,18)                1.0816         estimate D2E/DX2                !
 ! R23   R(14,15)                1.4071         estimate D2E/DX2                !
 ! R24   R(14,19)                1.0827         estimate D2E/DX2                !
 ! R25   R(15,16)                1.3974         estimate D2E/DX2                !
 ! R26   R(15,20)                1.0831         estimate D2E/DX2                !
 ! R27   R(17,23)                1.4429         estimate D2E/DX2                !
 ! R28   R(17,39)                1.3491         estimate D2E/DX2                !
 ! R29   R(17,40)                1.3482         estimate D2E/DX2                !
 ! R30   R(22,23)                1.4687         estimate D2E/DX2                !
 ! R31   R(22,27)                1.4611         estimate D2E/DX2                !
 ! R32   R(22,38)                1.2559         estimate D2E/DX2                !
 ! R33   R(23,24)                1.3812         estimate D2E/DX2                !
 ! R34   R(24,25)                1.4127         estimate D2E/DX2                !
 ! R35   R(24,28)                1.0845         estimate D2E/DX2                !
 ! R36   R(25,26)                1.4115         estimate D2E/DX2                !
 ! R37   R(25,30)                1.4963         estimate D2E/DX2                !
 ! R38   R(26,27)                1.3783         estimate D2E/DX2                !
 ! R39   R(26,29)                1.0842         estimate D2E/DX2                !
 ! R40   R(27,34)                1.4933         estimate D2E/DX2                !
 ! R41   R(30,31)                1.0938         estimate D2E/DX2                !
 ! R42   R(30,32)                1.0955         estimate D2E/DX2                !
 ! R43   R(30,33)                1.0899         estimate D2E/DX2                !
 ! R44   R(34,35)                1.0934         estimate D2E/DX2                !
 ! R45   R(34,36)                1.0945         estimate D2E/DX2                !
 ! R46   R(34,37)                1.0897         estimate D2E/DX2                !
 ! R47   R(39,41)                1.0207         estimate D2E/DX2                !
 ! R48   R(40,64)                1.0202         estimate D2E/DX2                !
 ! R49   R(42,43)                1.0141         estimate D2E/DX2                !
 ! R50   R(44,45)                1.0953         estimate D2E/DX2                !
 ! R51   R(44,46)                1.2823         estimate D2E/DX2                !
 ! R52   R(46,47)                1.4733         estimate D2E/DX2                !
 ! R53   R(47,48)                1.5378         estimate D2E/DX2                !
 ! R54   R(47,49)                1.5379         estimate D2E/DX2                !
 ! R55   R(47,50)                1.096          estimate D2E/DX2                !
 ! R56   R(48,51)                1.5324         estimate D2E/DX2                !
 ! R57   R(48,52)                1.0968         estimate D2E/DX2                !
 ! R58   R(48,53)                1.0944         estimate D2E/DX2                !
 ! R59   R(49,54)                1.5328         estimate D2E/DX2                !
 ! R60   R(49,55)                1.0961         estimate D2E/DX2                !
 ! R61   R(49,56)                1.0943         estimate D2E/DX2                !
 ! R62   R(51,57)                1.5325         estimate D2E/DX2                !
 ! R63   R(51,58)                1.0946         estimate D2E/DX2                !
 ! R64   R(51,59)                1.0971         estimate D2E/DX2                !
 ! R65   R(54,57)                1.5326         estimate D2E/DX2                !
 ! R66   R(54,60)                1.0946         estimate D2E/DX2                !
 ! R67   R(54,61)                1.0975         estimate D2E/DX2                !
 ! R68   R(57,62)                1.0944         estimate D2E/DX2                !
 ! R69   R(57,63)                1.0974         estimate D2E/DX2                !
 ! A1    A(2,1,6)              123.0799         estimate D2E/DX2                !
 ! A2    A(2,1,42)             105.6774         estimate D2E/DX2                !
 ! A3    A(6,1,42)             131.2389         estimate D2E/DX2                !
 ! A4    A(1,2,3)              119.823          estimate D2E/DX2                !
 ! A5    A(1,2,21)             109.3716         estimate D2E/DX2                !
 ! A6    A(3,2,21)             130.805          estimate D2E/DX2                !
 ! A7    A(2,3,4)              117.7931         estimate D2E/DX2                !
 ! A8    A(2,3,8)              120.7846         estimate D2E/DX2                !
 ! A9    A(4,3,8)              121.4219         estimate D2E/DX2                !
 ! A10   A(3,4,5)              121.6415         estimate D2E/DX2                !
 ! A11   A(3,4,9)              119.4453         estimate D2E/DX2                !
 ! A12   A(5,4,9)              118.9131         estimate D2E/DX2                !
 ! A13   A(4,5,6)              121.9137         estimate D2E/DX2                !
 ! A14   A(4,5,10)             119.3823         estimate D2E/DX2                !
 ! A15   A(6,5,10)             118.704          estimate D2E/DX2                !
 ! A16   A(1,6,5)              115.7468         estimate D2E/DX2                !
 ! A17   A(1,6,44)             122.0179         estimate D2E/DX2                !
 ! A18   A(5,6,44)             122.2351         estimate D2E/DX2                !
 ! A19   A(16,7,21)            123.1363         estimate D2E/DX2                !
 ! A20   A(16,7,42)            124.7292         estimate D2E/DX2                !
 ! A21   A(21,7,42)            112.1342         estimate D2E/DX2                !
 ! A22   A(12,11,16)           122.6835         estimate D2E/DX2                !
 ! A23   A(12,11,39)           106.9899         estimate D2E/DX2                !
 ! A24   A(16,11,39)           130.3252         estimate D2E/DX2                !
 ! A25   A(11,12,13)           121.2923         estimate D2E/DX2                !
 ! A26   A(11,12,40)           105.5744         estimate D2E/DX2                !
 ! A27   A(13,12,40)           133.1332         estimate D2E/DX2                !
 ! A28   A(12,13,14)           116.3433         estimate D2E/DX2                !
 ! A29   A(12,13,18)           121.6973         estimate D2E/DX2                !
 ! A30   A(14,13,18)           121.9594         estimate D2E/DX2                !
 ! A31   A(13,14,15)           122.4114         estimate D2E/DX2                !
 ! A32   A(13,14,19)           118.979          estimate D2E/DX2                !
 ! A33   A(15,14,19)           118.6095         estimate D2E/DX2                !
 ! A34   A(14,15,16)           121.6886         estimate D2E/DX2                !
 ! A35   A(14,15,20)           118.866          estimate D2E/DX2                !
 ! A36   A(16,15,20)           119.4448         estimate D2E/DX2                !
 ! A37   A(7,16,11)            118.971          estimate D2E/DX2                !
 ! A38   A(7,16,15)            125.4507         estimate D2E/DX2                !
 ! A39   A(11,16,15)           115.5764         estimate D2E/DX2                !
 ! A40   A(23,17,39)           127.0909         estimate D2E/DX2                !
 ! A41   A(23,17,40)           125.1198         estimate D2E/DX2                !
 ! A42   A(39,17,40)           107.7847         estimate D2E/DX2                !
 ! A43   A(2,21,7)             105.4828         estimate D2E/DX2                !
 ! A44   A(23,22,27)           117.5564         estimate D2E/DX2                !
 ! A45   A(23,22,38)           122.0213         estimate D2E/DX2                !
 ! A46   A(27,22,38)           120.4221         estimate D2E/DX2                !
 ! A47   A(17,23,22)           118.8445         estimate D2E/DX2                !
 ! A48   A(17,23,24)           120.998          estimate D2E/DX2                !
 ! A49   A(22,23,24)           120.156          estimate D2E/DX2                !
 ! A50   A(23,24,25)           121.2602         estimate D2E/DX2                !
 ! A51   A(23,24,28)           120.358          estimate D2E/DX2                !
 ! A52   A(25,24,28)           118.3818         estimate D2E/DX2                !
 ! A53   A(24,25,26)           119.2209         estimate D2E/DX2                !
 ! A54   A(24,25,30)           119.8335         estimate D2E/DX2                !
 ! A55   A(26,25,30)           120.9442         estimate D2E/DX2                !
 ! A56   A(25,26,27)           122.3853         estimate D2E/DX2                !
 ! A57   A(25,26,29)           118.4502         estimate D2E/DX2                !
 ! A58   A(27,26,29)           119.1591         estimate D2E/DX2                !
 ! A59   A(22,27,26)           119.4025         estimate D2E/DX2                !
 ! A60   A(22,27,34)           117.9299         estimate D2E/DX2                !
 ! A61   A(26,27,34)           122.6656         estimate D2E/DX2                !
 ! A62   A(25,30,31)           110.7236         estimate D2E/DX2                !
 ! A63   A(25,30,32)           110.2072         estimate D2E/DX2                !
 ! A64   A(25,30,33)           111.4298         estimate D2E/DX2                !
 ! A65   A(31,30,32)           106.7863         estimate D2E/DX2                !
 ! A66   A(31,30,33)           109.0724         estimate D2E/DX2                !
 ! A67   A(32,30,33)           108.4827         estimate D2E/DX2                !
 ! A68   A(27,34,35)           110.8086         estimate D2E/DX2                !
 ! A69   A(27,34,36)           110.5022         estimate D2E/DX2                !
 ! A70   A(27,34,37)           110.8153         estimate D2E/DX2                !
 ! A71   A(35,34,36)           106.4867         estimate D2E/DX2                !
 ! A72   A(35,34,37)           109.349          estimate D2E/DX2                !
 ! A73   A(36,34,37)           108.7614         estimate D2E/DX2                !
 ! A74   A(11,39,17)           109.5013         estimate D2E/DX2                !
 ! A75   A(11,39,41)           120.4358         estimate D2E/DX2                !
 ! A76   A(17,39,41)           130.0596         estimate D2E/DX2                !
 ! A77   A(12,40,17)           110.1485         estimate D2E/DX2                !
 ! A78   A(12,40,64)           130.5002         estimate D2E/DX2                !
 ! A79   A(17,40,64)           119.3274         estimate D2E/DX2                !
 ! A80   A(1,42,7)             107.3336         estimate D2E/DX2                !
 ! A81   A(1,42,43)            122.0566         estimate D2E/DX2                !
 ! A82   A(7,42,43)            130.5913         estimate D2E/DX2                !
 ! A83   A(6,44,45)            115.5676         estimate D2E/DX2                !
 ! A84   A(6,44,46)            121.8043         estimate D2E/DX2                !
 ! A85   A(45,44,46)           122.6274         estimate D2E/DX2                !
 ! A86   A(44,46,47)           117.1399         estimate D2E/DX2                !
 ! A87   A(46,47,48)           111.6843         estimate D2E/DX2                !
 ! A88   A(46,47,49)           112.524          estimate D2E/DX2                !
 ! A89   A(46,47,50)           106.2673         estimate D2E/DX2                !
 ! A90   A(48,47,49)           110.6239         estimate D2E/DX2                !
 ! A91   A(48,47,50)           107.8419         estimate D2E/DX2                !
 ! A92   A(49,47,50)           107.6088         estimate D2E/DX2                !
 ! A93   A(47,48,51)           111.4381         estimate D2E/DX2                !
 ! A94   A(47,48,52)           108.3648         estimate D2E/DX2                !
 ! A95   A(47,48,53)           109.5046         estimate D2E/DX2                !
 ! A96   A(51,48,52)           109.491          estimate D2E/DX2                !
 ! A97   A(51,48,53)           110.7976         estimate D2E/DX2                !
 ! A98   A(52,48,53)           107.1178         estimate D2E/DX2                !
 ! A99   A(47,49,54)           111.2745         estimate D2E/DX2                !
 ! A100  A(47,49,55)           108.8012         estimate D2E/DX2                !
 ! A101  A(47,49,56)           109.4304         estimate D2E/DX2                !
 ! A102  A(54,49,55)           109.3248         estimate D2E/DX2                !
 ! A103  A(54,49,56)           110.7234         estimate D2E/DX2                !
 ! A104  A(55,49,56)           107.1789         estimate D2E/DX2                !
 ! A105  A(48,51,57)           111.4242         estimate D2E/DX2                !
 ! A106  A(48,51,58)           109.654          estimate D2E/DX2                !
 ! A107  A(48,51,59)           109.2261         estimate D2E/DX2                !
 ! A108  A(57,51,58)           110.4861         estimate D2E/DX2                !
 ! A109  A(57,51,59)           109.0978         estimate D2E/DX2                !
 ! A110  A(58,51,59)           106.8338         estimate D2E/DX2                !
 ! A111  A(49,54,57)           111.4246         estimate D2E/DX2                !
 ! A112  A(49,54,60)           109.6776         estimate D2E/DX2                !
 ! A113  A(49,54,61)           109.1696         estimate D2E/DX2                !
 ! A114  A(57,54,60)           110.5637         estimate D2E/DX2                !
 ! A115  A(57,54,61)           109.1152         estimate D2E/DX2                !
 ! A116  A(60,54,61)           106.7668         estimate D2E/DX2                !
 ! A117  A(51,57,54)           111.0316         estimate D2E/DX2                !
 ! A118  A(51,57,62)           110.2663         estimate D2E/DX2                !
 ! A119  A(51,57,63)           109.0765         estimate D2E/DX2                !
 ! A120  A(54,57,62)           110.2954         estimate D2E/DX2                !
 ! A121  A(54,57,63)           109.1639         estimate D2E/DX2                !
 ! A122  A(62,57,63)           106.903          estimate D2E/DX2                !
 ! D1    D(6,1,2,3)             -0.5298         estimate D2E/DX2                !
 ! D2    D(6,1,2,21)           179.2693         estimate D2E/DX2                !
 ! D3    D(42,1,2,3)          -179.8974         estimate D2E/DX2                !
 ! D4    D(42,1,2,21)           -0.0984         estimate D2E/DX2                !
 ! D5    D(2,1,6,5)              0.2396         estimate D2E/DX2                !
 ! D6    D(2,1,6,44)          -179.6232         estimate D2E/DX2                !
 ! D7    D(42,1,6,5)           179.4299         estimate D2E/DX2                !
 ! D8    D(42,1,6,44)           -0.4328         estimate D2E/DX2                !
 ! D9    D(2,1,42,7)             0.1689         estimate D2E/DX2                !
 ! D10   D(2,1,42,43)          178.7596         estimate D2E/DX2                !
 ! D11   D(6,1,42,7)          -179.1265         estimate D2E/DX2                !
 ! D12   D(6,1,42,43)           -0.5358         estimate D2E/DX2                !
 ! D13   D(1,2,3,4)              0.4814         estimate D2E/DX2                !
 ! D14   D(1,2,3,8)           -179.7552         estimate D2E/DX2                !
 ! D15   D(21,2,3,4)          -179.2682         estimate D2E/DX2                !
 ! D16   D(21,2,3,8)             0.4952         estimate D2E/DX2                !
 ! D17   D(1,2,21,7)            -0.0137         estimate D2E/DX2                !
 ! D18   D(3,2,21,7)           179.756          estimate D2E/DX2                !
 ! D19   D(2,3,4,5)             -0.1841         estimate D2E/DX2                !
 ! D20   D(2,3,4,9)            179.8942         estimate D2E/DX2                !
 ! D21   D(8,3,4,5)           -179.9459         estimate D2E/DX2                !
 ! D22   D(8,3,4,9)              0.1324         estimate D2E/DX2                !
 ! D23   D(3,4,5,6)             -0.0989         estimate D2E/DX2                !
 ! D24   D(3,4,5,10)           179.9306         estimate D2E/DX2                !
 ! D25   D(9,4,5,6)            179.8232         estimate D2E/DX2                !
 ! D26   D(9,4,5,10)            -0.1473         estimate D2E/DX2                !
 ! D27   D(4,5,6,1)              0.0733         estimate D2E/DX2                !
 ! D28   D(4,5,6,44)           179.9357         estimate D2E/DX2                !
 ! D29   D(10,5,6,1)          -179.9561         estimate D2E/DX2                !
 ! D30   D(10,5,6,44)           -0.0937         estimate D2E/DX2                !
 ! D31   D(1,6,44,45)          179.21           estimate D2E/DX2                !
 ! D32   D(1,6,44,46)           -0.4989         estimate D2E/DX2                !
 ! D33   D(5,6,44,45)           -0.6439         estimate D2E/DX2                !
 ! D34   D(5,6,44,46)          179.6473         estimate D2E/DX2                !
 ! D35   D(21,7,16,11)           2.8506         estimate D2E/DX2                !
 ! D36   D(21,7,16,15)        -177.6727         estimate D2E/DX2                !
 ! D37   D(42,7,16,11)        -176.9409         estimate D2E/DX2                !
 ! D38   D(42,7,16,15)           2.5358         estimate D2E/DX2                !
 ! D39   D(16,7,21,2)         -179.6897         estimate D2E/DX2                !
 ! D40   D(42,7,21,2)            0.1253         estimate D2E/DX2                !
 ! D41   D(16,7,42,1)          179.6206         estimate D2E/DX2                !
 ! D42   D(16,7,42,43)           1.1936         estimate D2E/DX2                !
 ! D43   D(21,7,42,1)           -0.1909         estimate D2E/DX2                !
 ! D44   D(21,7,42,43)        -178.6179         estimate D2E/DX2                !
 ! D45   D(16,11,12,13)          0.7326         estimate D2E/DX2                !
 ! D46   D(16,11,12,40)       -179.3616         estimate D2E/DX2                !
 ! D47   D(39,11,12,13)       -179.6491         estimate D2E/DX2                !
 ! D48   D(39,11,12,40)          0.2567         estimate D2E/DX2                !
 ! D49   D(12,11,16,7)         178.8204         estimate D2E/DX2                !
 ! D50   D(12,11,16,15)         -0.7069         estimate D2E/DX2                !
 ! D51   D(39,11,16,7)          -0.7008         estimate D2E/DX2                !
 ! D52   D(39,11,16,15)        179.7718         estimate D2E/DX2                !
 ! D53   D(12,11,39,17)         -0.3615         estimate D2E/DX2                !
 ! D54   D(12,11,39,41)       -179.764          estimate D2E/DX2                !
 ! D55   D(16,11,39,17)        179.2172         estimate D2E/DX2                !
 ! D56   D(16,11,39,41)         -0.1853         estimate D2E/DX2                !
 ! D57   D(11,12,13,14)         -0.2102         estimate D2E/DX2                !
 ! D58   D(11,12,13,18)        179.8486         estimate D2E/DX2                !
 ! D59   D(40,12,13,14)        179.9142         estimate D2E/DX2                !
 ! D60   D(40,12,13,18)         -0.027          estimate D2E/DX2                !
 ! D61   D(11,12,40,17)         -0.0669         estimate D2E/DX2                !
 ! D62   D(11,12,40,64)        178.1059         estimate D2E/DX2                !
 ! D63   D(13,12,40,17)        179.8228         estimate D2E/DX2                !
 ! D64   D(13,12,40,64)         -2.0044         estimate D2E/DX2                !
 ! D65   D(12,13,14,15)         -0.2776         estimate D2E/DX2                !
 ! D66   D(12,13,14,19)        179.8697         estimate D2E/DX2                !
 ! D67   D(18,13,14,15)        179.6634         estimate D2E/DX2                !
 ! D68   D(18,13,14,19)         -0.1893         estimate D2E/DX2                !
 ! D69   D(13,14,15,16)          0.2783         estimate D2E/DX2                !
 ! D70   D(13,14,15,20)        179.9907         estimate D2E/DX2                !
 ! D71   D(19,14,15,16)       -179.8686         estimate D2E/DX2                !
 ! D72   D(19,14,15,20)         -0.1561         estimate D2E/DX2                !
 ! D73   D(14,15,16,7)        -179.2795         estimate D2E/DX2                !
 ! D74   D(14,15,16,11)          0.2129         estimate D2E/DX2                !
 ! D75   D(20,15,16,7)           1.0097         estimate D2E/DX2                !
 ! D76   D(20,15,16,11)       -179.4979         estimate D2E/DX2                !
 ! D77   D(39,17,23,22)        175.5088         estimate D2E/DX2                !
 ! D78   D(39,17,23,24)         -4.0282         estimate D2E/DX2                !
 ! D79   D(40,17,23,22)         -3.6254         estimate D2E/DX2                !
 ! D80   D(40,17,23,24)        176.8376         estimate D2E/DX2                !
 ! D81   D(23,17,39,11)       -178.9349         estimate D2E/DX2                !
 ! D82   D(23,17,39,41)          0.3921         estimate D2E/DX2                !
 ! D83   D(40,17,39,11)          0.3214         estimate D2E/DX2                !
 ! D84   D(40,17,39,41)        179.6484         estimate D2E/DX2                !
 ! D85   D(23,17,40,12)        179.1204         estimate D2E/DX2                !
 ! D86   D(23,17,40,64)          0.714          estimate D2E/DX2                !
 ! D87   D(39,17,40,12)         -0.1543         estimate D2E/DX2                !
 ! D88   D(39,17,40,64)       -178.5608         estimate D2E/DX2                !
 ! D89   D(27,22,23,17)       -178.2            estimate D2E/DX2                !
 ! D90   D(27,22,23,24)          1.341          estimate D2E/DX2                !
 ! D91   D(38,22,23,17)          1.9521         estimate D2E/DX2                !
 ! D92   D(38,22,23,24)       -178.5069         estimate D2E/DX2                !
 ! D93   D(23,22,27,26)         -0.3891         estimate D2E/DX2                !
 ! D94   D(23,22,27,34)       -179.8876         estimate D2E/DX2                !
 ! D95   D(38,22,27,26)        179.4613         estimate D2E/DX2                !
 ! D96   D(38,22,27,34)         -0.0371         estimate D2E/DX2                !
 ! D97   D(17,23,24,25)        178.4124         estimate D2E/DX2                !
 ! D98   D(17,23,24,28)         -1.603          estimate D2E/DX2                !
 ! D99   D(22,23,24,25)         -1.1186         estimate D2E/DX2                !
 ! D100  D(22,23,24,28)        178.8661         estimate D2E/DX2                !
 ! D101  D(23,24,25,26)         -0.0766         estimate D2E/DX2                !
 ! D102  D(23,24,25,30)       -179.6386         estimate D2E/DX2                !
 ! D103  D(28,24,25,26)        179.9384         estimate D2E/DX2                !
 ! D104  D(28,24,25,30)          0.3765         estimate D2E/DX2                !
 ! D105  D(24,25,26,27)          1.0761         estimate D2E/DX2                !
 ! D106  D(24,25,26,29)       -179.7746         estimate D2E/DX2                !
 ! D107  D(30,25,26,27)       -179.3669         estimate D2E/DX2                !
 ! D108  D(30,25,26,29)         -0.2176         estimate D2E/DX2                !
 ! D109  D(24,25,30,31)        -51.0257         estimate D2E/DX2                !
 ! D110  D(24,25,30,32)         66.8976         estimate D2E/DX2                !
 ! D111  D(24,25,30,33)       -172.6139         estimate D2E/DX2                !
 ! D112  D(26,25,30,31)        129.42           estimate D2E/DX2                !
 ! D113  D(26,25,30,32)       -112.6566         estimate D2E/DX2                !
 ! D114  D(26,25,30,33)          7.8319         estimate D2E/DX2                !
 ! D115  D(25,26,27,22)         -0.808          estimate D2E/DX2                !
 ! D116  D(25,26,27,34)        178.6657         estimate D2E/DX2                !
 ! D117  D(29,26,27,22)       -179.9514         estimate D2E/DX2                !
 ! D118  D(29,26,27,34)         -0.4778         estimate D2E/DX2                !
 ! D119  D(22,27,34,35)        -56.149          estimate D2E/DX2                !
 ! D120  D(22,27,34,36)         61.6411         estimate D2E/DX2                !
 ! D121  D(22,27,34,37)       -177.7276         estimate D2E/DX2                !
 ! D122  D(26,27,34,35)        124.3701         estimate D2E/DX2                !
 ! D123  D(26,27,34,36)       -117.8399         estimate D2E/DX2                !
 ! D124  D(26,27,34,37)          2.7914         estimate D2E/DX2                !
 ! D125  D(6,44,46,47)         179.0914         estimate D2E/DX2                !
 ! D126  D(45,44,46,47)         -0.5967         estimate D2E/DX2                !
 ! D127  D(44,46,47,48)        -63.5939         estimate D2E/DX2                !
 ! D128  D(44,46,47,49)         61.5239         estimate D2E/DX2                !
 ! D129  D(44,46,47,50)        179.051          estimate D2E/DX2                !
 ! D130  D(46,47,48,51)       -178.3903         estimate D2E/DX2                !
 ! D131  D(46,47,48,52)         61.0758         estimate D2E/DX2                !
 ! D132  D(46,47,48,53)        -55.45           estimate D2E/DX2                !
 ! D133  D(49,47,48,51)         55.4441         estimate D2E/DX2                !
 ! D134  D(49,47,48,52)        -65.0898         estimate D2E/DX2                !
 ! D135  D(49,47,48,53)        178.3844         estimate D2E/DX2                !
 ! D136  D(50,47,48,51)        -61.9882         estimate D2E/DX2                !
 ! D137  D(50,47,48,52)        177.4778         estimate D2E/DX2                !
 ! D138  D(50,47,48,53)         60.9521         estimate D2E/DX2                !
 ! D139  D(46,47,49,54)        178.7688         estimate D2E/DX2                !
 ! D140  D(46,47,49,55)        -60.7204         estimate D2E/DX2                !
 ! D141  D(46,47,49,56)         56.0838         estimate D2E/DX2                !
 ! D142  D(48,47,49,54)        -55.5363         estimate D2E/DX2                !
 ! D143  D(48,47,49,55)         64.9746         estimate D2E/DX2                !
 ! D144  D(48,47,49,56)       -178.2212         estimate D2E/DX2                !
 ! D145  D(50,47,49,54)         62.0392         estimate D2E/DX2                !
 ! D146  D(50,47,49,55)       -177.45           estimate D2E/DX2                !
 ! D147  D(50,47,49,56)        -60.6458         estimate D2E/DX2                !
 ! D148  D(47,48,51,57)        -55.558          estimate D2E/DX2                !
 ! D149  D(47,48,51,58)       -178.1977         estimate D2E/DX2                !
 ! D150  D(47,48,51,59)         65.0439         estimate D2E/DX2                !
 ! D151  D(52,48,51,57)         64.3124         estimate D2E/DX2                !
 ! D152  D(52,48,51,58)        -58.3273         estimate D2E/DX2                !
 ! D153  D(52,48,51,59)       -175.0857         estimate D2E/DX2                !
 ! D154  D(53,48,51,57)       -177.7556         estimate D2E/DX2                !
 ! D155  D(53,48,51,58)         59.6048         estimate D2E/DX2                !
 ! D156  D(53,48,51,59)        -57.1537         estimate D2E/DX2                !
 ! D157  D(47,49,54,57)         55.8389         estimate D2E/DX2                !
 ! D158  D(47,49,54,60)        178.5937         estimate D2E/DX2                !
 ! D159  D(47,49,54,61)        -64.7477         estimate D2E/DX2                !
 ! D160  D(55,49,54,57)        -64.363          estimate D2E/DX2                !
 ! D161  D(55,49,54,60)         58.3918         estimate D2E/DX2                !
 ! D162  D(55,49,54,61)        175.0504         estimate D2E/DX2                !
 ! D163  D(56,49,54,57)        177.7766         estimate D2E/DX2                !
 ! D164  D(56,49,54,60)        -59.4685         estimate D2E/DX2                !
 ! D165  D(56,49,54,61)         57.1901         estimate D2E/DX2                !
 ! D166  D(48,51,57,54)         55.1805         estimate D2E/DX2                !
 ! D167  D(48,51,57,62)        177.7358         estimate D2E/DX2                !
 ! D168  D(48,51,57,63)        -65.1579         estimate D2E/DX2                !
 ! D169  D(58,51,57,54)        177.3412         estimate D2E/DX2                !
 ! D170  D(58,51,57,62)        -60.1036         estimate D2E/DX2                !
 ! D171  D(58,51,57,63)         57.0028         estimate D2E/DX2                !
 ! D172  D(59,51,57,54)        -65.4967         estimate D2E/DX2                !
 ! D173  D(59,51,57,62)         57.0586         estimate D2E/DX2                !
 ! D174  D(59,51,57,63)        174.1649         estimate D2E/DX2                !
 ! D175  D(49,54,57,51)        -55.366          estimate D2E/DX2                !
 ! D176  D(49,54,57,62)       -177.9044         estimate D2E/DX2                !
 ! D177  D(49,54,57,63)         64.9206         estimate D2E/DX2                !
 ! D178  D(60,54,57,51)       -177.6112         estimate D2E/DX2                !
 ! D179  D(60,54,57,62)         59.8503         estimate D2E/DX2                !
 ! D180  D(60,54,57,63)        -57.3247         estimate D2E/DX2                !
 ! D181  D(61,54,57,51)         65.2525         estimate D2E/DX2                !
 ! D182  D(61,54,57,62)        -57.286          estimate D2E/DX2                !
 ! D183  D(61,54,57,63)       -174.461          estimate D2E/DX2                !
 --------------------------------------------------------------------------------
 Trust Radius=3.00D-01 FncErr=5.00D-06 GrdErr=5.00D-06 EigMax=2.50D+02 EigMin=1.00D-04
 Number of steps in this run=    384 maximum allowed number of steps=    384.
 GradGradGradGradGradGradGradGradGradGradGradGradGradGradGradGradGradGrad

 Leave Link  103 at Fri Dec 14 11:48:16 2018, MaxMem=  1342177280 cpu:               0.9 elap:               0.1
 (Enter /gpfs/apps/hpc/Apps/Restricted/Gaussian/Rev_A.03/g16/l202.exe)
 Symmetry turned off by external request.
 Stoichiometry    C29H29N5O(1+,2)
 Framework group  C1[X(C29H29N5O)]
 Deg. of freedom   186
 Full point group                 C1      NOp   1
                          Input orientation:                          
 ---------------------------------------------------------------------
 Center     Atomic      Atomic             Coordinates (Angstroms)
 Number     Number       Type             X           Y           Z
 ---------------------------------------------------------------------
      1          6           0        1.557551    1.101651    0.129625
      2          6           0        0.326278    1.794754    0.103007
      3          6           0        0.315448    3.193112    0.008591
      4          6           0        1.541555    3.848177   -0.066277
      5          6           0        2.757948    3.142094   -0.044879
      6          6           0        2.801818    1.747034    0.054584
      7          6           0       -0.135851   -0.313943    0.245680
      8          1           0       -0.619168    3.740346   -0.009058
      9          1           0        1.564371    4.928710   -0.141757
     10          1           0        3.692171    3.689561   -0.106483
     11          6           0       -2.288300   -1.506974    0.280029
     12          6           0       -3.089379   -2.659711    0.330655
     13          6           0       -2.524565   -3.930243    0.450199
     14          6           0       -1.134677   -3.985283    0.510903
     15          6           0       -0.330844   -2.831985    0.450149
     16          6           0       -0.886505   -1.555386    0.330198
     17          6           0       -4.416741   -0.864650    0.143433
     18          1           0       -3.135227   -4.821997    0.492202
     19          1           0       -0.651537   -4.949558    0.606008
     20          1           0        0.745444   -2.941417    0.502715
     21          7           0       -0.715074    0.884445    0.177134
     22          6           0       -6.908789   -0.733943   -0.093444
     23          6           0       -5.608083   -0.060733    0.015706
     24          6           0       -5.535867    1.318231   -0.014057
     25          6           0       -6.695261    2.109812   -0.172205
     26          6           0       -7.949667    1.476076   -0.303641
     27          6           0       -8.092472    0.105808   -0.262025
     28          1           0       -4.579087    1.819257    0.084691
     29          1           0       -8.830796    2.095509   -0.428085
     30          6           0       -6.579160    3.601142   -0.208177
     31          1           0       -6.001701    3.965135    0.646476
     32          1           0       -6.043276    3.917334   -1.109831
     33          1           0       -7.559653    4.077103   -0.204198
     34          6           0       -9.419691   -0.569940   -0.371326
     35          1           0       -9.420525   -1.294234   -1.190487
     36          1           0       -9.639581   -1.132851    0.541248
     37          1           0      -10.213233    0.159085   -0.533196
     38          8           0       -7.017912   -1.984060   -0.042841
     39          7           0       -3.140231   -0.428963    0.170293
     40          7           0       -4.395148   -2.209054    0.241781
     41          1           0       -2.768708    0.519987    0.113760
     42          7           0        1.232447   -0.228480    0.222584
     43          1           0        1.939356   -0.955324    0.240953
     44          6           0        4.059499    1.007427    0.076007
     45          1           0        4.967018    1.615747   -0.002002
     46          7           0        4.090247   -0.270794    0.174107
     47          6           0        5.415817   -0.913841    0.165256
     48          6           0        6.146372   -0.691375   -1.169526
     49          6           0        6.295263   -0.467031    1.345175
     50          1           0        5.235986   -1.989462    0.274442
     51          6           0        7.507209   -1.395596   -1.187339
     52          1           0        6.290469    0.386884   -1.309056
     53          1           0        5.516861   -1.041492   -1.993385
     54          6           0        7.654452   -1.175277    1.325209
     55          1           0        6.449704    0.616168    1.280315
     56          1           0        5.770321   -0.662943    2.285098
     57          6           0        8.380186   -0.956540   -0.006836
     58          1           0        8.014693   -1.192071   -2.135637
     59          1           0        7.353195   -2.480661   -1.135876
     60          1           0        8.267333   -0.820302    2.159776
     61          1           0        7.502466   -2.251206    1.479222
     62          1           0        9.330175   -1.499780   -0.015212
     63          1           0        8.620772    0.108620   -0.115321
     64          1           0       -5.274247   -2.726107    0.216577
 ---------------------------------------------------------------------
 Rotational constants (GHZ):           0.2607158           0.0422299           0.0369535
 Leave Link  202 at Fri Dec 14 11:48:16 2018, MaxMem=  1342177280 cpu:               1.3 elap:               0.1
 (Enter /gpfs/apps/hpc/Apps/Restricted/Gaussian/Rev_A.03/g16/l301.exe)
 Standard basis: 6-31G(d,p) (6D, 7F)
 Ernie: Thresh=  0.10000D-02 Tol=  0.10000D-05 Strict=F.
   670 basis functions,  1183 primitive gaussians,   670 cartesian basis functions
   123 alpha electrons      122 beta electrons
       nuclear repulsion energy      3331.2903224891 Hartrees.
 IExCor=  402 DFT=T Ex+Corr=B3LYP ExCW=0 ScaHFX=  0.200000
 ScaDFX=  0.800000  0.720000  1.000000  0.810000 ScalE2=  1.000000  1.000000
 IRadAn=      5 IRanWt=     -1 IRanGd=            0 ICorTp=0 IEmpDi=141
 NAtoms=   64 NActive=   64 NUniq=   64 SFac= 1.00D+00 NAtFMM=   60 NAOKFM=T Big=T
 Integral buffers will be    131072 words long.
 Raffenetti 2 integral format.
 Two-electron integral symmetry is turned off.
 R6Disp:  Grimme-D3(BJ) Dispersion energy=       -0.1439341323 Hartrees.
 Nuclear repulsion after empirical dispersion term =     3331.1463883568 Hartrees.
 Using the following non-standard input for PCM:
 radii=bondi
 dis
 rep
 cav
 --- end of non-standard input.
 ------------------------------------------------------------------------------
 Polarizable Continuum Model (PCM)
 =================================
 Model                : C-PCM.
 Atomic radii         : Bondi.
 Polarization charges : Total charges.
 Charge compensation  : None.
 Solution method      : On-the-fly selection.
 Cavity type          : Scaled VdW (van der Waals Surface) (Alpha=1.100).
 Cavity algorithm     : GePol (No added spheres)
                        Default sphere list used, NSphG=   64.
                        Lebedev-Laikov grids with approx.  5.0 points / Ang**2.
                        Smoothing algorithm: York/Karplus (Gamma=1.0000).
                        Polarization charges: spherical gaussians, with
                                              point-specific exponents (IZeta= 3).
                        Self-potential: point-specific (ISelfS= 7).
                        Self-field    : sphere-specific E.n sum rule (ISelfD= 2).
 1st derivatives      : Analytical E(r).r(x)/FMM algorithm (CHGder, D1EAlg=3).
                        Cavity 1st derivative terms included.
 Solvent              : Dichloromethane, Eps=   8.930000 Eps(inf)=   2.028346
 ------------------------------------------------------------------------------
 GePol: Number of generator spheres                  =      64
 GePol: Total number of spheres                      =      64
 GePol: Number of exposed spheres                    =      64 (100.00%)
 GePol: Number of points                             =    4401
 GePol: Average weight of points                     =       0.12
 GePol: Minimum weight of points                     =   0.53D-11
 GePol: Maximum weight of points                     =    0.21770
 GePol: Number of points with low weight             =     272
 GePol: Fraction of low-weight points (<1% of avg)   =       6.18%
 GePol: Cavity surface area                          =    516.413 Ang**2
 GePol: Cavity volume                                =    498.583 Ang**3
 PCM non-electrostatic energy =         0.0185833469 Hartrees.
 Nuclear repulsion after PCM non-electrostatic terms =     3331.1649717037 Hartrees.
 Leave Link  301 at Fri Dec 14 11:48:16 2018, MaxMem=  1342177280 cpu:               4.6 elap:               0.3
 (Enter /gpfs/apps/hpc/Apps/Restricted/Gaussian/Rev_A.03/g16/l302.exe)
 NPDir=0 NMtPBC=     1 NCelOv=     1 NCel=       1 NClECP=     1 NCelD=      1
         NCelK=      1 NCelE2=     1 NClLst=     1 CellRange=     0.0.
 One-electron integrals computed using PRISM.
 NBasis=   670 RedAO= T EigKep=  2.72D-04  NBF=   670
 NBsUse=   670 1.00D-06 EigRej= -1.00D+00 NBFU=   670
 Precomputing XC quadrature grid using
 IXCGrd= 4 IRadAn=           5 IRanWt=          -1 IRanGd=           0 AccXCQ= 0.00D+00.
 Generated NRdTot=       0 NPtTot=           0 NUsed=           0 NTot=          32
 NSgBfM=   618   618   618   618   618 MxSgAt=    64 MxSgA2=    64.
 Leave Link  302 at Fri Dec 14 11:48:18 2018, MaxMem=  1342177280 cpu:              26.4 elap:               1.8
 (Enter /gpfs/apps/hpc/Apps/Restricted/Gaussian/Rev_A.03/g16/l303.exe)
 DipDrv:  MaxL=1.
 Leave Link  303 at Fri Dec 14 11:48:19 2018, MaxMem=  1342177280 cpu:               3.5 elap:               0.3
 (Enter /gpfs/apps/hpc/Apps/Restricted/Gaussian/Rev_A.03/g16/l401.exe)
 ExpMin= 1.61D-01 ExpMax= 5.48D+03 ExpMxC= 8.25D+02 IAcc=3 IRadAn=         5 AccDes= 0.00D+00
 Harris functional with IExCor=  402 and IRadAn=       5 diagonalized for initial guess.
 HarFok:  IExCor=  402 AccDes= 0.00D+00 IRadAn=         5 IDoV= 1 UseB2=F ITyADJ=14
 ICtDFT=  3500011 ScaDFX=  1.000000  1.000000  1.000000  1.000000
 FoFCou: FMM=F IPFlag=           0 FMFlag=      100000 FMFlg1=        2001
         NFxFlg=           0 DoJE=T BraDBF=F KetDBF=T FulRan=T
         wScrn=  0.000000 ICntrl=       500 IOpCl=  0 I1Cent=   200000004 NGrid=           0
         NMat0=    1 NMatS0=      1 NMatT0=    0 NMatD0=    1 NMtDS0=    0 NMtDT0=    0
 Symmetry not used in FoFCou.
 Harris En= -1471.50128017101    
 JPrj=0 DoOrth=F DoCkMO=F.
 Initial guess <Sx>= 0.0000 <Sy>= 0.0000 <Sz>= 0.5000 <S**2>= 0.7500 S= 0.5000
 Leave Link  401 at Fri Dec 14 11:48:24 2018, MaxMem=  1342177280 cpu:              81.1 elap:               5.2
 (Enter /gpfs/apps/hpc/Apps/Restricted/Gaussian/Rev_A.03/g16/l502.exe)
 Two-electron integral symmetry not used.
 UHF open shell SCF:
 Using DIIS extrapolation, IDIIS=  1040.
 NGot=  1342177280 LenX=  1341263254 LenY=  1340813684
 Requested convergence on RMS density matrix=1.00D-08 within 128 cycles.
 Requested convergence on MAX density matrix=1.00D-06.
 Requested convergence on             energy=1.00D-06.
 No special actions if energy rises.
 Fock matrices will be formed incrementally for  20 cycles.

 Cycle   1  Pass 1  IDiag  1:
 FoFJK:  IHMeth= 1 ICntrl=       0 DoSepK=F KAlg= 0 I1Cent=           0 FoldK=F
 IRaf= 680000000 NMat=       1 IRICut=       1 DoRegI=T DoRafI=F ISym2E= 0 IDoP0=0 IntGTp=1.
 FoFCou: FMM=T IPFlag=           0 FMFlag=      100000 FMFlg1=        2001
         NFxFlg=           0 DoJE=F BraDBF=F KetDBF=F FulRan=T
         wScrn=  0.000000 ICntrl=         0 IOpCl=  1 I1Cent=           0 NGrid=           0
         NMat0=    1 NMatS0=      1 NMatT0=    0 NMatD0=    1 NMtDS0=    0 NMtDT0=    0
 Symmetry not used in FoFCou.
 FMM levels:  10  Number of levels for PrismC:   9
 Inv3:  Mode=1 IEnd=    58106403.
 Iteration    1 A*A^-1 deviation from unit magnitude is 1.77D-14 for    909.
 Iteration    1 A*A^-1 deviation from orthogonality  is 4.29D-15 for   3301    718.
 Iteration    1 A^-1*A deviation from unit magnitude is 1.77D-14 for    909.
 Iteration    1 A^-1*A deviation from orthogonality  is 2.38D-15 for   4386   1666.
 E= -1470.91093195445    
 DIIS: error= 2.41D-02 at cycle   1 NSaved=   1.
 NSaved= 1 IEnMin= 1 EnMin= -1470.91093195445     IErMin= 1 ErrMin= 2.41D-02
 ErrMax= 2.41D-02  0.00D+00 EMaxC= 1.00D-01 BMatC= 2.78D+00 BMatP= 2.78D+00
 IDIUse=3 WtCom= 7.59D-01 WtEn= 2.41D-01
 Coeff-Com:  0.100D+01
 Coeff-En:   0.100D+01
 Coeff:      0.100D+01
 Gap=     0.151 Goal=   None    Shift=    0.000
 Gap=     0.059 Goal=   None    Shift=    0.000
 GapD=    0.059 DampG=0.500 DampE=0.500 DampFc=0.2500 IDamp=-1.
 Damping current iteration by 2.50D-01
 RMSDP=3.15D-03 MaxDP=1.82D-01              OVMax= 2.94D-01

 Cycle   2  Pass 1  IDiag  1:
 RMSU=  7.64D-04    CP:  9.85D-01
 E= -1471.16800321995     Delta-E=       -0.257071265503 Rises=F Damp=T
 DIIS: error= 1.34D-02 at cycle   2 NSaved=   2.
 NSaved= 2 IEnMin= 2 EnMin= -1471.16800321995     IErMin= 2 ErrMin= 1.34D-02
 ErrMax= 1.34D-02  0.00D+00 EMaxC= 1.00D-01 BMatC= 7.59D-01 BMatP= 2.78D+00
 IDIUse=3 WtCom= 8.66D-01 WtEn= 1.34D-01
 Coeff-Com: -0.827D+00 0.183D+01
 Coeff-En:   0.000D+00 0.100D+01
 Coeff:     -0.716D+00 0.172D+01
 Gap=     0.169 Goal=   None    Shift=    0.000
 Gap=     0.078 Goal=   None    Shift=    0.000
 RMSDP=1.27D-03 MaxDP=7.39D-02 DE=-2.57D-01 OVMax= 1.90D-01

 Cycle   3  Pass 1  IDiag  1:
 RMSU=  9.18D-04    CP:  9.50D-01  2.01D+00
 E= -1471.59516261789     Delta-E=       -0.427159397937 Rises=F Damp=F
 DIIS: error= 1.02D-02 at cycle   3 NSaved=   3.
 NSaved= 3 IEnMin= 3 EnMin= -1471.59516261789     IErMin= 3 ErrMin= 1.02D-02
 ErrMax= 1.02D-02  0.00D+00 EMaxC= 1.00D-01 BMatC= 1.63D-01 BMatP= 7.59D-01
 IDIUse=3 WtCom= 8.98D-01 WtEn= 1.02D-01
 Coeff-Com: -0.412D+00 0.848D+00 0.564D+00
 Coeff-En:   0.000D+00 0.000D+00 0.100D+01
 Coeff:     -0.370D+00 0.761D+00 0.609D+00
 Gap=     0.139 Goal=   None    Shift=    0.000
 Gap=     0.065 Goal=   None    Shift=    0.000
 RMSDP=5.00D-04 MaxDP=7.09D-02 DE=-4.27D-01 OVMax= 9.22D-02

 Cycle   4  Pass 1  IDiag  1:
 RMSU=  3.81D-04    CP:  9.54D-01  2.11D+00  6.62D-01
 E= -1471.62086602330     Delta-E=       -0.025703405410 Rises=F Damp=F
 DIIS: error= 8.10D-03 at cycle   4 NSaved=   4.
 NSaved= 4 IEnMin= 4 EnMin= -1471.62086602330     IErMin= 4 ErrMin= 8.10D-03
 ErrMax= 8.10D-03  0.00D+00 EMaxC= 1.00D-01 BMatC= 6.35D-02 BMatP= 1.63D-01
 IDIUse=3 WtCom= 9.19D-01 WtEn= 8.10D-02
 Coeff-Com: -0.877D-01 0.184D+00 0.385D+00 0.519D+00
 Coeff-En:   0.000D+00 0.000D+00 0.276D+00 0.724D+00
 Coeff:     -0.806D-01 0.169D+00 0.376D+00 0.536D+00
 Gap=     0.142 Goal=   None    Shift=    0.000
 Gap=     0.064 Goal=   None    Shift=    0.000
 RMSDP=2.37D-04 MaxDP=3.40D-02 DE=-2.57D-02 OVMax= 3.75D-02

 Cycle   5  Pass 1  IDiag  1:
 RMSU=  1.27D-04    CP:  9.53D-01  2.05D+00  7.73D-01  5.66D-01
 E= -1471.63317047370     Delta-E=       -0.012304450405 Rises=F Damp=F
 DIIS: error= 1.62D-03 at cycle   5 NSaved=   5.
 NSaved= 5 IEnMin= 5 EnMin= -1471.63317047370     IErMin= 5 ErrMin= 1.62D-03
 ErrMax= 1.62D-03  0.00D+00 EMaxC= 1.00D-01 BMatC= 5.05D-03 BMatP= 6.35D-02
 IDIUse=3 WtCom= 9.84D-01 WtEn= 1.62D-02
 Coeff-Com: -0.718D-02 0.166D-01 0.164D+00 0.311D+00 0.516D+00
 Coeff-En:   0.000D+00 0.000D+00 0.000D+00 0.000D+00 0.100D+01
 Coeff:     -0.706D-02 0.163D-01 0.161D+00 0.306D+00 0.524D+00
 Gap=     0.140 Goal=   None    Shift=    0.000
 Gap=     0.066 Goal=   None    Shift=    0.000
 RMSDP=7.05D-05 MaxDP=1.17D-02 DE=-1.23D-02 OVMax= 1.85D-02

 Cycle   6  Pass 1  IDiag  1:
 RMSU=  4.26D-05    CP:  9.53D-01  2.05D+00  7.80D-01  6.31D-01  6.09D-01
 E= -1471.63430695528     Delta-E=       -0.001136481579 Rises=F Damp=F
 DIIS: error= 6.03D-04 at cycle   6 NSaved=   6.
 NSaved= 6 IEnMin= 6 EnMin= -1471.63430695528     IErMin= 6 ErrMin= 6.03D-04
 ErrMax= 6.03D-04  0.00D+00 EMaxC= 1.00D-01 BMatC= 4.79D-04 BMatP= 5.05D-03
 IDIUse=3 WtCom= 9.94D-01 WtEn= 6.03D-03
 Coeff-Com:  0.385D-02-0.695D-02 0.498D-01 0.106D+00 0.286D+00 0.561D+00
 Coeff-En:   0.000D+00 0.000D+00 0.000D+00 0.000D+00 0.000D+00 0.100D+01
 Coeff:      0.383D-02-0.691D-02 0.495D-01 0.106D+00 0.284D+00 0.564D+00
 Gap=     0.140 Goal=   None    Shift=    0.000
 Gap=     0.066 Goal=   None    Shift=    0.000
 RMSDP=2.25D-05 MaxDP=2.99D-03 DE=-1.14D-03 OVMax= 6.88D-03

 Cycle   7  Pass 1  IDiag  1:
 RMSU=  1.83D-05    CP:  9.53D-01  2.06D+00  7.82D-01  6.31D-01  7.02D-01
                    CP:  8.94D-01
 E= -1471.63445034424     Delta-E=       -0.000143388960 Rises=F Damp=F
 DIIS: error= 2.69D-04 at cycle   7 NSaved=   7.
 NSaved= 7 IEnMin= 7 EnMin= -1471.63445034424     IErMin= 7 ErrMin= 2.69D-04
 ErrMax= 2.69D-04  0.00D+00 EMaxC= 1.00D-01 BMatC= 6.48D-05 BMatP= 4.79D-04
 IDIUse=3 WtCom= 9.97D-01 WtEn= 2.69D-03
 Coeff-Com:  0.306D-02-0.608D-02-0.127D-01-0.255D-01 0.145D-01 0.228D+00
 Coeff-Com:  0.798D+00
 Coeff-En:   0.000D+00 0.000D+00 0.000D+00 0.000D+00 0.000D+00 0.000D+00
 Coeff-En:   0.100D+01
 Coeff:      0.306D-02-0.607D-02-0.127D-01-0.255D-01 0.144D-01 0.228D+00
 Coeff:      0.799D+00
 Gap=     0.140 Goal=   None    Shift=    0.000
 Gap=     0.067 Goal=   None    Shift=    0.000
 RMSDP=1.33D-05 MaxDP=2.40D-03 DE=-1.43D-04 OVMax= 5.32D-03

 Cycle   8  Pass 1  IDiag  1:
 RMSU=  9.23D-06    CP:  9.53D-01  2.05D+00  7.84D-01  6.34D-01  7.38D-01
                    CP:  1.08D+00  1.05D+00
 E= -1471.63449579802     Delta-E=       -0.000045453771 Rises=F Damp=F
 DIIS: error= 1.63D-04 at cycle   8 NSaved=   8.
 NSaved= 8 IEnMin= 8 EnMin= -1471.63449579802     IErMin= 8 ErrMin= 1.63D-04
 ErrMax= 1.63D-04  0.00D+00 EMaxC= 1.00D-01 BMatC= 2.29D-05 BMatP= 6.48D-05
 IDIUse=3 WtCom= 9.98D-01 WtEn= 1.63D-03
 Coeff-Com:  0.397D-03-0.658D-03-0.206D-01-0.479D-01-0.825D-01-0.108D+00
 Coeff-Com:  0.358D+00 0.901D+00
 Coeff-En:   0.000D+00 0.000D+00 0.000D+00 0.000D+00 0.000D+00 0.000D+00
 Coeff-En:   0.000D+00 0.100D+01
 Coeff:      0.397D-03-0.657D-03-0.206D-01-0.478D-01-0.824D-01-0.108D+00
 Coeff:      0.357D+00 0.901D+00
 Gap=     0.141 Goal=   None    Shift=    0.000
 Gap=     0.068 Goal=   None    Shift=    0.000
 RMSDP=1.09D-05 MaxDP=1.60D-03 DE=-4.55D-05 OVMax= 3.98D-03

 Cycle   9  Pass 1  IDiag  1:
 RMSU=  5.48D-06    CP:  9.53D-01  2.05D+00  7.85D-01  6.34D-01  7.67D-01
                    CP:  1.20D+00  1.41D+00  1.19D+00
 E= -1471.63451263018     Delta-E=       -0.000016832168 Rises=F Damp=F
 DIIS: error= 7.74D-05 at cycle   9 NSaved=   9.
 NSaved= 9 IEnMin= 9 EnMin= -1471.63451263018     IErMin= 9 ErrMin= 7.74D-05
 ErrMax= 7.74D-05  0.00D+00 EMaxC= 1.00D-01 BMatC= 9.66D-06 BMatP= 2.29D-05
 IDIUse=1 WtCom= 1.00D+00 WtEn= 0.00D+00
 Coeff-Com: -0.274D-03 0.771D-03-0.100D-01-0.254D-01-0.558D-01-0.135D+00
 Coeff-Com:  0.394D-01 0.590D+00 0.596D+00
 Coeff:     -0.274D-03 0.771D-03-0.100D-01-0.254D-01-0.558D-01-0.135D+00
 Coeff:      0.394D-01 0.590D+00 0.596D+00
 Gap=     0.141 Goal=   None    Shift=    0.000
 Gap=     0.068 Goal=   None    Shift=    0.000
 RMSDP=4.67D-06 MaxDP=6.58D-04 DE=-1.68D-05 OVMax= 1.51D-03

 Cycle  10  Pass 1  IDiag  1:
 RMSU=  2.38D-06    CP:  9.53D-01  2.05D+00  7.86D-01  6.34D-01  7.79D-01
                    CP:  1.24D+00  1.51D+00  1.44D+00  7.76D-01
 E= -1471.63451676063     Delta-E=       -0.000004130451 Rises=F Damp=F
 DIIS: error= 2.38D-05 at cycle  10 NSaved=  10.
 NSaved=10 IEnMin=10 EnMin= -1471.63451676063     IErMin=10 ErrMin= 2.38D-05
 ErrMax= 2.38D-05  0.00D+00 EMaxC= 1.00D-01 BMatC= 9.81D-07 BMatP= 9.66D-06
 IDIUse=1 WtCom= 1.00D+00 WtEn= 0.00D+00
 Coeff-Com: -0.721D-04 0.259D-03 0.125D-03-0.761D-03-0.488D-02-0.372D-01
 Coeff-Com: -0.501D-01 0.577D-01 0.258D+00 0.777D+00
 Coeff:     -0.721D-04 0.259D-03 0.125D-03-0.761D-03-0.488D-02-0.372D-01
 Coeff:     -0.501D-01 0.577D-01 0.258D+00 0.777D+00
 Gap=     0.141 Goal=   None    Shift=    0.000
 Gap=     0.068 Goal=   None    Shift=    0.000
 RMSDP=1.72D-06 MaxDP=2.82D-04 DE=-4.13D-06 OVMax= 5.01D-04

 Cycle  11  Pass 1  IDiag  1:
 RMSU=  1.06D-06    CP:  9.53D-01  2.05D+00  7.86D-01  6.33D-01  7.81D-01
                    CP:  1.25D+00  1.54D+00  1.50D+00  9.40D-01  1.04D+00
 E= -1471.63451722759     Delta-E=       -0.000000466953 Rises=F Damp=F
 DIIS: error= 1.45D-05 at cycle  11 NSaved=  11.
 NSaved=11 IEnMin=11 EnMin= -1471.63451722759     IErMin=11 ErrMin= 1.45D-05
 ErrMax= 1.45D-05  0.00D+00 EMaxC= 1.00D-01 BMatC= 2.79D-07 BMatP= 9.81D-07
 IDIUse=1 WtCom= 1.00D+00 WtEn= 0.00D+00
 Coeff-Com: -0.917D-05 0.412D-04 0.194D-02 0.430D-02 0.789D-02 0.339D-02
 Coeff-Com: -0.329D-01-0.774D-01 0.361D-01 0.437D+00 0.620D+00
 Coeff:     -0.917D-05 0.412D-04 0.194D-02 0.430D-02 0.789D-02 0.339D-02
 Coeff:     -0.329D-01-0.774D-01 0.361D-01 0.437D+00 0.620D+00
 Gap=     0.141 Goal=   None    Shift=    0.000
 Gap=     0.068 Goal=   None    Shift=    0.000
 RMSDP=7.08D-07 MaxDP=1.23D-04 DE=-4.67D-07 OVMax= 2.27D-04

 Cycle  12  Pass 1  IDiag  1:
 RMSU=  4.21D-07    CP:  9.53D-01  2.05D+00  7.86D-01  6.33D-01  7.81D-01
                    CP:  1.25D+00  1.55D+00  1.53D+00  9.84D-01  1.21D+00
                    CP:  8.82D-01
 E= -1471.63451734071     Delta-E=       -0.000000113120 Rises=F Damp=F
 DIIS: error= 5.96D-06 at cycle  12 NSaved=  12.
 NSaved=12 IEnMin=12 EnMin= -1471.63451734071     IErMin=12 ErrMin= 5.96D-06
 ErrMax= 5.96D-06  0.00D+00 EMaxC= 1.00D-01 BMatC= 3.13D-08 BMatP= 2.79D-07
 IDIUse=1 WtCom= 1.00D+00 WtEn= 0.00D+00
 Coeff-Com:  0.624D-05-0.335D-04 0.759D-03 0.197D-02 0.430D-02 0.840D-02
 Coeff-Com: -0.393D-02-0.437D-01-0.336D-01 0.360D-01 0.237D+00 0.792D+00
 Coeff:      0.624D-05-0.335D-04 0.759D-03 0.197D-02 0.430D-02 0.840D-02
 Coeff:     -0.393D-02-0.437D-01-0.336D-01 0.360D-01 0.237D+00 0.792D+00
 Gap=     0.141 Goal=   None    Shift=    0.000
 Gap=     0.068 Goal=   None    Shift=    0.000
 RMSDP=3.38D-07 MaxDP=4.92D-05 DE=-1.13D-07 OVMax= 1.23D-04

 Cycle  13  Pass 1  IDiag  1:
 RMSU=  2.11D-07    CP:  9.53D-01  2.05D+00  7.86D-01  6.33D-01  7.81D-01
                    CP:  1.25D+00  1.55D+00  1.54D+00  1.00D+00  1.28D+00
                    CP:  1.04D+00  9.74D-01
 E= -1471.63451736006     Delta-E=       -0.000000019355 Rises=F Damp=F
 DIIS: error= 3.99D-06 at cycle  13 NSaved=  13.
 NSaved=13 IEnMin=13 EnMin= -1471.63451736006     IErMin=13 ErrMin= 3.99D-06
 ErrMax= 3.99D-06  0.00D+00 EMaxC= 1.00D-01 BMatC= 1.71D-08 BMatP= 3.13D-08
 IDIUse=1 WtCom= 1.00D+00 WtEn= 0.00D+00
 Coeff-Com:  0.656D-06-0.241D-04 0.332D-04 0.282D-03 0.904D-03 0.459D-02
 Coeff-Com:  0.477D-02-0.101D-01-0.293D-01-0.760D-01 0.180D-02 0.502D+00
 Coeff-Com:  0.601D+00
 Coeff:      0.656D-06-0.241D-04 0.332D-04 0.282D-03 0.904D-03 0.459D-02
 Coeff:      0.477D-02-0.101D-01-0.293D-01-0.760D-01 0.180D-02 0.502D+00
 Coeff:      0.601D+00
 Gap=     0.141 Goal=   None    Shift=    0.000
 Gap=     0.068 Goal=   None    Shift=    0.000
 RMSDP=1.75D-07 MaxDP=3.04D-05 DE=-1.94D-08 OVMax= 5.99D-05

 Cycle  14  Pass 1  IDiag  1:
 RMSU=  1.05D-07    CP:  9.53D-01  2.05D+00  7.86D-01  6.33D-01  7.81D-01
                    CP:  1.25D+00  1.55D+00  1.54D+00  1.01D+00  1.31D+00
                    CP:  1.09D+00  1.20D+00  8.66D-01
 E= -1471.63451736738     Delta-E=       -0.000000007313 Rises=F Damp=F
 DIIS: error= 1.11D-06 at cycle  14 NSaved=  14.
 NSaved=14 IEnMin=14 EnMin= -1471.63451736738     IErMin=14 ErrMin= 1.11D-06
 ErrMax= 1.11D-06  0.00D+00 EMaxC= 1.00D-01 BMatC= 1.90D-09 BMatP= 1.71D-08
 IDIUse=1 WtCom= 1.00D+00 WtEn= 0.00D+00
 Coeff-Com: -0.739D-05 0.813D-05-0.152D-03-0.311D-03-0.659D-03-0.394D-04
 Coeff-Com:  0.244D-02 0.593D-02-0.354D-02-0.367D-01-0.566D-01 0.707D-02
 Coeff-Com:  0.224D+00 0.858D+00
 Coeff:     -0.739D-05 0.813D-05-0.152D-03-0.311D-03-0.659D-03-0.394D-04
 Coeff:      0.244D-02 0.593D-02-0.354D-02-0.367D-01-0.566D-01 0.707D-02
 Coeff:      0.224D+00 0.858D+00
 Gap=     0.141 Goal=   None    Shift=    0.000
 Gap=     0.068 Goal=   None    Shift=    0.000
 RMSDP=9.37D-08 MaxDP=1.06D-05 DE=-7.31D-09 OVMax= 2.95D-05

 Cycle  15  Pass 1  IDiag  1:
 RMSU=  4.83D-08    CP:  9.53D-01  2.05D+00  7.86D-01  6.33D-01  7.81D-01
                    CP:  1.25D+00  1.55D+00  1.54D+00  1.01D+00  1.32D+00
                    CP:  1.11D+00  1.30D+00  1.10D+00  1.11D+00
 E= -1471.63451736885     Delta-E=       -0.000000001475 Rises=F Damp=F
 DIIS: error= 5.53D-07 at cycle  15 NSaved=  15.
 NSaved=15 IEnMin=15 EnMin= -1471.63451736885     IErMin=15 ErrMin= 5.53D-07
 ErrMax= 5.53D-07  0.00D+00 EMaxC= 1.00D-01 BMatC= 8.72D-10 BMatP= 1.90D-09
 IDIUse=1 WtCom= 1.00D+00 WtEn= 0.00D+00
 Coeff-Com: -0.510D-05 0.108D-04-0.101D-03-0.245D-03-0.611D-03-0.100D-02
 Coeff-Com:  0.325D-03 0.568D-02 0.412D-02-0.462D-02-0.319D-01-0.981D-01
 Coeff-Com:  0.560D-02 0.510D+00 0.611D+00
 Coeff:     -0.510D-05 0.108D-04-0.101D-03-0.245D-03-0.611D-03-0.100D-02
 Coeff:      0.325D-03 0.568D-02 0.412D-02-0.462D-02-0.319D-01-0.981D-01
 Coeff:      0.560D-02 0.510D+00 0.611D+00
 Gap=     0.141 Goal=   None    Shift=    0.000
 Gap=     0.068 Goal=   None    Shift=    0.000
 RMSDP=4.32D-08 MaxDP=4.64D-06 DE=-1.48D-09 OVMax= 1.22D-05

 Cycle  16  Pass 1  IDiag  1:
 RMSU=  2.62D-08    CP:  9.53D-01  2.05D+00  7.86D-01  6.33D-01  7.81D-01
                    CP:  1.25D+00  1.55D+00  1.54D+00  1.01D+00  1.32D+00
                    CP:  1.12D+00  1.33D+00  1.17D+00  1.34D+00  8.78D-01
 E= -1471.63451736934     Delta-E=       -0.000000000491 Rises=F Damp=F
 DIIS: error= 2.97D-07 at cycle  16 NSaved=  16.
 NSaved=16 IEnMin=16 EnMin= -1471.63451736934     IErMin=16 ErrMin= 2.97D-07
 ErrMax= 2.97D-07  0.00D+00 EMaxC= 1.00D-01 BMatC= 1.76D-10 BMatP= 8.72D-10
 IDIUse=1 WtCom= 1.00D+00 WtEn= 0.00D+00
 Coeff-Com: -0.577D-07 0.245D-05 0.911D-05 0.711D-05-0.508D-04-0.451D-03
 Coeff-Com: -0.847D-03 0.466D-03 0.317D-02 0.118D-01 0.530D-02-0.534D-01
 Coeff-Com: -0.800D-01-0.588D-01 0.297D+00 0.876D+00
 Coeff:     -0.577D-07 0.245D-05 0.911D-05 0.711D-05-0.508D-04-0.451D-03
 Coeff:     -0.847D-03 0.466D-03 0.317D-02 0.118D-01 0.530D-02-0.534D-01
 Coeff:     -0.800D-01-0.588D-01 0.297D+00 0.876D+00
 Gap=     0.141 Goal=   None    Shift=    0.000
 Gap=     0.068 Goal=   None    Shift=    0.000
 RMSDP=3.19D-08 MaxDP=3.30D-06 DE=-4.91D-10 OVMax= 9.27D-06

 Cycle  17  Pass 1  IDiag  1:
 RMSU=  1.42D-08    CP:  9.53D-01  2.05D+00  7.86D-01  6.33D-01  7.81D-01
                    CP:  1.25D+00  1.55D+00  1.54D+00  1.01D+00  1.32D+00
                    CP:  1.13D+00  1.35D+00  1.23D+00  1.48D+00  1.22D+00
                    CP:  1.15D+00
 E= -1471.63451736956     Delta-E=       -0.000000000221 Rises=F Damp=F
 DIIS: error= 1.65D-07 at cycle  17 NSaved=  17.
 NSaved=17 IEnMin=17 EnMin= -1471.63451736956     IErMin=17 ErrMin= 1.65D-07
 ErrMax= 1.65D-07  0.00D+00 EMaxC= 1.00D-01 BMatC= 6.25D-11 BMatP= 1.76D-10
 IDIUse=1 WtCom= 1.00D+00 WtEn= 0.00D+00
 Coeff-Com:  0.760D-06-0.549D-06 0.260D-04 0.572D-04 0.102D-03-0.349D-04
 Coeff-Com: -0.538D-03-0.897D-03 0.848D-03 0.755D-02 0.945D-02-0.941D-02
 Coeff-Com: -0.441D-01-0.140D+00 0.427D-01 0.508D+00 0.626D+00
 Coeff:      0.760D-06-0.549D-06 0.260D-04 0.572D-04 0.102D-03-0.349D-04
 Coeff:     -0.538D-03-0.897D-03 0.848D-03 0.755D-02 0.945D-02-0.941D-02
 Coeff:     -0.441D-01-0.140D+00 0.427D-01 0.508D+00 0.626D+00
 Gap=     0.141 Goal=   None    Shift=    0.000
 Gap=     0.068 Goal=   None    Shift=    0.000
 RMSDP=1.30D-08 MaxDP=1.50D-06 DE=-2.21D-10 OVMax= 3.84D-06

 Cycle  18  Pass 1  IDiag  1:
 RMSU=  6.83D-09    CP:  9.53D-01  2.05D+00  7.86D-01  6.33D-01  7.81D-01
                    CP:  1.25D+00  1.55D+00  1.54D+00  1.01D+00  1.32D+00
                    CP:  1.13D+00  1.35D+00  1.25D+00  1.53D+00  1.31D+00
                    CP:  1.43D+00  9.96D-01
 E= -1471.63451736947     Delta-E=        0.000000000090 Rises=F Damp=F
 DIIS: error= 9.59D-08 at cycle  18 NSaved=  18.
 NSaved=18 IEnMin=17 EnMin= -1471.63451736956     IErMin=18 ErrMin= 9.59D-08
 ErrMax= 9.59D-08  0.00D+00 EMaxC= 1.00D-01 BMatC= 9.44D-12 BMatP= 6.25D-11
 IDIUse=1 WtCom= 1.00D+00 WtEn= 0.00D+00
 Coeff-Com:  0.232D-07-0.691D-06 0.509D-05 0.169D-04 0.537D-04 0.139D-03
 Coeff-Com:  0.116D-03-0.425D-03-0.841D-03-0.169D-02 0.113D-02 0.159D-01
 Coeff-Com:  0.160D-01-0.298D-01-0.914D-01-0.148D+00 0.166D+00 0.107D+01
 Coeff:      0.232D-07-0.691D-06 0.509D-05 0.169D-04 0.537D-04 0.139D-03
 Coeff:      0.116D-03-0.425D-03-0.841D-03-0.169D-02 0.113D-02 0.159D-01
 Coeff:      0.160D-01-0.298D-01-0.914D-01-0.148D+00 0.166D+00 0.107D+01
 Gap=     0.141 Goal=   None    Shift=    0.000
 Gap=     0.068 Goal=   None    Shift=    0.000
 RMSDP=1.09D-08 MaxDP=1.38D-06 DE= 9.00D-11 OVMax= 3.37D-06

 Cycle  19  Pass 1  IDiag  1:
 RMSU=  3.35D-09    CP:  9.53D-01  2.05D+00  7.86D-01  6.33D-01  7.81D-01
                    CP:  1.25D+00  1.55D+00  1.54D+00  1.01D+00  1.32D+00
                    CP:  1.13D+00  1.36D+00  1.26D+00  1.56D+00  1.41D+00
                    CP:  1.63D+00  1.38D+00  1.36D+00
 E= -1471.63451736948     Delta-E=       -0.000000000003 Rises=F Damp=F
 DIIS: error= 5.28D-08 at cycle  19 NSaved=  19.
 NSaved=19 IEnMin=17 EnMin= -1471.63451736956     IErMin=19 ErrMin= 5.28D-08
 ErrMax= 5.28D-08  0.00D+00 EMaxC= 1.00D-01 BMatC= 3.04D-12 BMatP= 9.44D-12
 IDIUse=1 WtCom= 1.00D+00 WtEn= 0.00D+00
 Coeff-Com: -0.138D-06-0.183D-06-0.285D-05-0.418D-05 0.441D-05 0.695D-04
 Coeff-Com:  0.170D-03-0.469D-05-0.562D-03-0.233D-02-0.143D-02 0.887D-02
 Coeff-Com:  0.165D-01 0.144D-01-0.487D-01-0.167D+00-0.598D-01 0.486D+00
 Coeff-Com:  0.753D+00
 Coeff:     -0.138D-06-0.183D-06-0.285D-05-0.418D-05 0.441D-05 0.695D-04
 Coeff:      0.170D-03-0.469D-05-0.562D-03-0.233D-02-0.143D-02 0.887D-02
 Coeff:      0.165D-01 0.144D-01-0.487D-01-0.167D+00-0.598D-01 0.486D+00
 Coeff:      0.753D+00
 Gap=     0.141 Goal=   None    Shift=    0.000
 Gap=     0.068 Goal=   None    Shift=    0.000
 RMSDP=4.34D-09 MaxDP=5.38D-07 DE=-2.73D-12 OVMax= 1.33D-06

 Error on total polarization charges =  0.04412
 SCF Done:  E(UB3LYP) =  -1471.63451737     A.U. after   19 cycles
            NFock= 19  Conv=0.43D-08     -V/T= 2.0096
 <Sx>= 0.0000 <Sy>= 0.0000 <Sz>= 0.5000 <S**2>= 0.7725 S= 0.5112
 <L.S>= 0.000000000000E+00
 KE= 1.457623542489D+03 PE=-1.004953779161D+04 EE= 3.789114760048D+03
 Annihilation of the first spin contaminant:
 S**2 before annihilation     0.7725,   after     0.7504
 Leave Link  502 at Fri Dec 14 11:53:42 2018, MaxMem=  1342177280 cpu:            4979.6 elap:             317.5
 (Enter /gpfs/apps/hpc/Apps/Restricted/Gaussian/Rev_A.03/g16/l601.exe)
 Copying SCF densities to generalized density rwf, IOpCl= 1 IROHF=0.

 **********************************************************************

            Population analysis using the SCF density.

 **********************************************************************

 Alpha  occ. eigenvalues --  -19.17608 -14.43318 -14.43186 -14.40119 -14.34620
 Alpha  occ. eigenvalues --  -14.33745 -10.33008 -10.29738 -10.28527 -10.27056
 Alpha  occ. eigenvalues --  -10.27000 -10.25371 -10.25035 -10.24285 -10.24136
 Alpha  occ. eigenvalues --  -10.24073 -10.23982 -10.23678 -10.22977 -10.22729
 Alpha  occ. eigenvalues --  -10.22504 -10.22083 -10.22025 -10.21468 -10.21397
 Alpha  occ. eigenvalues --  -10.20775 -10.20713 -10.20159 -10.20095 -10.19638
 Alpha  occ. eigenvalues --  -10.18151 -10.18133 -10.17949 -10.17944 -10.17747
 Alpha  occ. eigenvalues --   -1.09003  -1.06493  -1.03812  -0.95664  -0.93305
 Alpha  occ. eigenvalues --   -0.90334  -0.89700  -0.88924  -0.86376  -0.83126
 Alpha  occ. eigenvalues --   -0.82489  -0.80838  -0.80416  -0.77512  -0.77191
 Alpha  occ. eigenvalues --   -0.74747  -0.74231  -0.73176  -0.71828  -0.70533
 Alpha  occ. eigenvalues --   -0.69690  -0.68384  -0.66789  -0.65743  -0.64754
 Alpha  occ. eigenvalues --   -0.62469  -0.61998  -0.61503  -0.61112  -0.60069
 Alpha  occ. eigenvalues --   -0.58884  -0.56627  -0.55967  -0.55462  -0.54583
 Alpha  occ. eigenvalues --   -0.52619  -0.52544  -0.51825  -0.51429  -0.50917
 Alpha  occ. eigenvalues --   -0.50398  -0.49705  -0.48676  -0.47632  -0.46941
 Alpha  occ. eigenvalues --   -0.46820  -0.46707  -0.46266  -0.45389  -0.45039
 Alpha  occ. eigenvalues --   -0.44568  -0.44399  -0.44018  -0.43947  -0.43923
 Alpha  occ. eigenvalues --   -0.42063  -0.41940  -0.41625  -0.40608  -0.40485
 Alpha  occ. eigenvalues --   -0.40374  -0.39859  -0.39294  -0.39183  -0.38886
[...]
 00368,0.00000058,0.00000012,0.00000034,0.,-0.00000005,-0.00000029,-0.0
 0000007,0.,0.00000003,0.00000172,-0.00000016,0.00000017,0.00000011,0.,
 0.00000036,0.00000019,-0.00000002,-0.00000021,0.00000103,-0.00000010,0
 .00000149,0.00000020,0.00000007,-0.00000068,-0.00000095,0.00000002,-0.
 00000148,-0.00000041,0.,-0.00000136,-0.00000065,-0.00000004,0.00000003
 ,-0.00000002,0.,-0.00000023,-0.00000011,0.,-0.00000006,-0.00000023,-0.
 00000003,0.00000256,-0.00000087,0.00000010,0.00000024,-0.00000025,0.00
 000003,-0.00000031,0.00000005,-0.00000002,0.00000066,-0.00000111,0.000
 00007,-0.00000158,0.00000056,-0.00000020,0.00000077,0.00000130,0.00000
 003,-0.00000069,-0.00000116,0.,-0.00000002,0.00000014,0.,0.00000013,-0
 .00000008,0.00000002,-0.00000012,-0.00000011,0.00000005,-0.00000002,0.
 ,0.00000009,-0.00000004,-0.00000003,-0.00000009,0.00000012,-0.00000007
 ,0.,0.00000008,0.00000035,-0.00000006,0.00000008,0.00000001,0.00000002
 ,0.00000010,0.00000002,0.00000002,0.00000010,-0.00000005,0.00000002,0.
 00000060,0.00000028,0.00000006,0.00000179,0.00000106,0.00000002,0.0000
 0047,0.00000083,-0.00000001,-0.00000167,-0.00000071,-0.00000004,0.0000
 0170,-0.00000109,0.00000017,-0.00000258,0.00000031,-0.00000053,-0.0000
 0883,-0.00001480,0.00001181,-0.00001316,0.00000478,0.00000169,0.000018
 66,0.00003185,0.00002660,0.00014782,-0.00014169,-0.00007197,-0.0009359
 4,0.00006543,-0.00144388,-0.00045688,0.00070436,0.00058373,-0.00001629
 ,-0.00002703,0.00001469,-0.01049517,0.00498193,0.00016927,-0.00024587,
 0.00032262,-0.00004110,-0.00034104,0.00035635,-0.00015740,-0.00610779,
 0.00208385,0.00052553,-0.00029600,0.00034270,0.00001669,0.00001315,0.0
 0027250,0.00011914,0.11558698,-0.11636351,-0.00065055,0.00045856,0.000
 01545,0.00047450,0.00023054,0.00098456,0.00062504,0.00020051,0.0000138
 7,-0.00033358,0.00014586,0.00049920,-0.00063406,-0.12469142,0.12130035
 ,-0.00000032,-0.00000313,-0.00000001,-0.00000037,0.00000059,0.00000077
 ,0.00000026,-0.00000183,-0.00000014,0.00000204,0.00000021,0.00000416,0
 .00000156,0.00000265,0.00000329,0.00000035,-0.00000749,-0.00005821,-0.
 00000206,0.00000024,0.00000173,0.00000014,-0.00000011,-0.00000050,0.00
 000026,-0.00000038,-0.00000012,-0.00000037,0.00000007,-0.00000161,-0.0
 0000007,0.00000033,-0.00000019,-0.00000004,0.00000007,-0.00000016,0.00
 000011,0.00000026,0.00000006,0.00000017,-0.00000011,0.00000034,0.00000
 002,0.00000012,0.00000069,-0.00000022,-0.00000039,-0.00000035,-0.00000
 014,-0.00000026,-0.00000025,0.00000004,0.,-0.00000012,0.,0.00000005,-0
 .00000026,-0.00000001,-0.00000029,-0.00000107,0.00000166,-0.00000073,0
 .00000020,-0.00000015,0.,-0.00000014,0.00000008,0.,-0.00000023,-0.0000
 0003,-0.00000007,0.00000004,-0.00000007,-0.00000004,-0.00000007,0.0000
 0013,0.00000020,-0.00000003,-0.00000002,-0.00000025,0.00000020,0.,0.,0
 .,-0.00000002,0.,-0.00000002,0.00000004,0.00000008,0.00000001,-0.00000
 003,0.00000001,-0.00000002,0.,-0.00000001,-0.00000003,0.00000001,0.,0.
 00000001,-0.00000004,-0.00000006,-0.00000013,-0.00000003,0.00000007,0.
 00000002,0.00000002,-0.00000003,0.00000003,0.00000002,-0.00000001,-0.0
 0000003,0.00000006,0.00000012,0.00000031,0.00000048,0.00000016,0.00000
 034,0.00000017,0.00000027,0.00000025,-0.00000048,-0.00000024,-0.000000
 57,0.00000449,0.00000173,0.00000102,-0.00000367,-0.00000174,-0.0000058
 6,-0.00000085,0.00001851,0.00010106,-0.00000263,0.00000659,0.00001219,
 0.00003401,0.00002130,0.00035020,-0.00013000,-0.00007591,-0.00088060,-
 0.00224720,-0.00292462,-0.00425000,0.00182919,0.00222757,-0.00552833,0
 .00001367,0.00001856,0.00012386,-0.02291848,0.01480956,0.00066783,0.00
 031826,-0.00005780,-0.00001895,-0.00182299,0.00055725,0.00006056,0.025
 98407,-0.01600497,-0.00007126,-0.00028844,-0.00000948,0.00001624,0.001
 98579,-0.00068661,-0.00007848,0.00140486,-0.00058090,-0.04709095,0.000
 94010,0.00047695,0.00078544,0.00083177,-0.00014747,0.00098418,-0.00073
 890,-0.00034383,0.00106268,-0.00072646,0.00017628,0.00122914,-0.001717
 28,0.00102980,0.05306534,0.00000253,-0.00000318,0.00000029,0.00000003,
 0.00000117,-0.00000011,-0.00000121,-0.00000062,0.00000006,0.00000247,0
 .00000203,-0.00000016,-0.00000537,0.00000011,0.00000013,0.00000723,0.0
 0001557,-0.00000299,0.,-0.00000032,0.00000010,0.00000037,0.00000004,-0
 .00000001,-0.00000048,0.00000035,0.00000003,0.00000048,0.00000210,-0.0
 0000016,0.00000030,0.00000082,-0.00000008,-0.00000017,0.00000008,-0.00
 000004,0.00000054,0.00000073,-0.00000003,0.00000015,-0.00000077,0.0000
 0011,0.00000088,0.00000064,0.00000001,-0.00000134,-0.00000183,0.000000
 10,-0.00000117,-0.00000111,0.00000003,0.00000011,-0.00000002,0.,0.0000
 0011,0.00000039,-0.00000006,-0.00000001,-0.00000063,0.,0.00000162,0.00
 000183,-0.00000011,-0.00000027,-0.00000022,0.,0.00000022,-0.00000009,0
 .,-0.00000027,-0.00000006,-0.00000003,-0.00000013,-0.00000034,0.000000
 02,0.00000024,0.00000042,0.,-0.00000017,-0.00000049,0.00000001,0.00000
 001,-0.00000001,0.00000002,-0.00000002,-0.00000001,0.,0.00000010,0.000
 00020,-0.00000005,-0.00000009,0.00000002,0.00000009,-0.00000010,0.0000
 0003,-0.00000007,0.00000005,0.00000002,0.00000001,-0.00000003,0.000000
 07,-0.00000002,0.00000003,0.,0.00000003,0.00000004,0.,-0.00000002,0.00
 000002,-0.00000001,0.,0.00000019,0.00000051,-0.00000002,0.00000128,0.0
 0000093,0.,0.00000044,0.00000112,-0.00000005,-0.00000138,-0.00000092,0
 .00000002,-0.00000037,0.00000019,-0.00000015,0.00000097,-0.00000098,0.
 ,-0.00004254,-0.00004417,0.00000721,0.00005183,0.00002140,-0.00000524,
 -0.00002963,0.00004367,0.00000628,-0.00004034,0.00009340,-0.00002726,0
 .00082742,-0.00103811,0.00061972,0.00062777,-0.00107335,-0.00042817,0.
 00009127,0.00012003,-0.00001833,-0.00489713,-0.01860733,0.00120103,-0.
 00029411,0.00017889,-0.00009888,0.00020531,0.00021651,-0.00003902,-0.0
 0411594,-0.01533268,0.00202134,-0.00012889,0.00041428,0.00007778,0.000
 17156,0.00019700,-0.00002869,-0.06075921,-0.05036435,0.00558058,0.0006
 1993,0.00059990,0.00027600,-0.00153656,-0.00137441,-0.00305865,0.00048
 063,0.00051217,-0.00034244,-0.00073042,-0.00068767,0.00286266,0.006489
 65,0.02680607,-0.00275237,0.06300167,0.00000214,0.00001814,-0.00000129
 ,0.00000281,-0.00000160,0.00000003,-0.00000344,0.00001297,-0.00000087,
 -0.00001208,0.00000047,0.00000033,-0.00001419,-0.00001871,0.00000159,-
 0.00000201,0.00002994,-0.00000436,0.00002049,-0.00000321,0.00000004,-0
 .00000090,0.00000051,-0.00000004,-0.00000230,0.00000366,-0.00000012,0.
 00000460,0.00000088,0.00000017,0.00000085,-0.00000074,0.00000005,-0.00
 000039,-0.00000055,0.00000004,0.00000092,-0.00000141,0.00000017,-0.000
 00292,-0.00000098,0.00000001,0.00000157,0.00000268,0.00000002,0.000000
 88,-0.00000087,0.00000008,0.00000107,-0.00000033,0.00000008,0.00000004
 ,-0.00000008,-0.00000002,0.00000053,0.00000042,-0.00000009,0.,-0.00000
 020,-0.00000019,-0.00001006,0.00000932,-0.00000058,-0.00000040,0.,-0.0
 0000004,0.00000087,-0.00000060,0.00000006,-0.00000219,0.00000268,-0.00
 000028,0.00000276,-0.00000233,0.00000042,-0.00000074,-0.00000123,-0.00
 000004,0.00000059,0.00000128,-0.00000002,0.00000010,-0.00000037,0.0000
 0003,-0.00000024,0.00000007,-0.00000001,0.00000026,0.00000035,-0.00000
 019,-0.00000005,0.00000010,0.00000012,-0.00000005,0.00000016,-0.000000
 09,-0.00000024,0.00000022,0.00000004,-0.00000002,-0.00000024,0.0000000
 4,-0.00000006,-0.00000009,0.00000001,-0.00000008,-0.00000011,-0.000000
 03,-0.00000018,0.00000010,-0.00000003,-0.00000103,0.00000036,-0.000000
 11,-0.00000306,-0.00000036,-0.00000009,-0.00000102,-0.00000027,-0.0000
 0005,0.00000267,0.00000013,0.00000009,-0.00002578,-0.00000915,0.000000
 82,0.00002117,0.00000244,-0.00000041,-0.00003083,-0.00012719,0.0000150
 4,-0.00010807,-0.00005473,0.00001579,-0.00012972,0.00009396,0.00001072
 ,0.00013399,0.00021099,-0.00005003,0.00066469,0.00055078,0.00050372,0.
 00039891,0.00053955,-0.00049629,0.00009028,-0.00010574,-0.00000053,-0.
 00193101,-0.01023814,0.00023876,-0.00077469,0.00014471,0.00012492,-0.0
 0006165,0.00029161,-0.00012713,-0.00083552,-0.00550331,0.00108203,-0.0
 0043514,-0.00003501,-0.00023342,-0.00010338,0.00027510,0.00007439,-0.0
 5134297,-0.28758903,0.02404467,0.00017695,0.00047281,-0.00030618,-0.00
 137989,0.00056138,-0.00200912,0.00009223,0.00045976,0.00034971,-0.0004
 9336,0.00109304,0.00120298,-0.00321449,-0.01544016,0.00149927,0.059301
 34,0.31435608,-0.00000047,-0.00000077,0.00000042,-0.00000009,0.0000000
 7,0.00000005,0.00000029,-0.00000077,-0.00000003,0.00000060,-0.00000017
 ,0.00000101,0.00000134,0.00000135,0.00000002,-0.00000060,-0.00000457,-
 0.00001477,-0.00000159,0.00000016,0.00000035,0.00000003,-0.00000005,-0
 .00000008,0.00000021,-0.00000027,0.00000021,-0.00000035,-0.00000017,0.
 00000093,-0.00000008,-0.00000002,-0.00000007,0.00000005,0.00000004,-0.
 00000009,-0.00000009,0.00000007,0.00000008,0.00000021,0.00000013,0.000
 00022,-0.00000024,-0.00000020,0.00000039,0.00000003,0.00000017,-0.0000
 0009,0.00000005,0.00000004,-0.00000010,0.,0.,-0.00000010,-0.00000005,-
 0.00000007,-0.00000027,0.,0.,-0.00000061,0.00000073,-0.00000089,0.0000
 0006,0.,0.00000014,-0.00000006,-0.00000007,0.00000002,-0.00000010,0.00
 000013,-0.00000017,0.00000002,-0.00000019,0.00000014,-0.00000005,0.000
 00009,0.00000013,0.,0.,-0.00000018,0.00000008,0.,0.00000003,0.00000001
 ,0.,0.,0.,0.,0.,0.00000003,0.,0.,-0.00000003,0.,-0.00000001,0.,0.00000
 002,-0.00000001,0.,-0.00000002,-0.00000002,-0.00000006,-0.00000001,0.0
 0000003,0.,0.,0.,0.00000002,0.00000002,-0.00000001,-0.00000001,0.00000
 005,-0.00000008,0.00000016,0.00000013,-0.00000001,0.00000011,0.0000000
 5,-0.00000002,0.00000014,-0.00000012,0.00000002,-0.00000016,0.00000234
 ,0.00000047,0.00000016,-0.00000206,-0.00000040,-0.00000101,0.00000606,
 0.00001572,0.00002573,0.00000415,0.00000404,-0.00000188,0.00002213,0.0
 0000131,0.00012543,-0.00002474,-0.00005378,-0.00028141,0.00117858,-0.0
 0029316,0.00091381,-0.00122289,0.00051955,0.00114364,-0.00001644,-0.00
 000361,-0.00005287,-0.00636660,-0.02692746,0.00071142,-0.00006011,0.00
 058709,0.00002595,0.00031300,0.00016421,-0.00009254,0.00683563,0.03013
 091,-0.00518856,0.00017092,-0.00079468,0.00007966,-0.00033387,-0.00025
 242,-0.00003343,0.00565916,0.02394773,-0.04890380,0.00084442,0.0003558
 9,0.00114131,-0.00400725,-0.00177313,-0.00364554,-0.00082203,-0.000398
 84,0.00116142,0.00378011,0.00097144,-0.00499047,-0.00011008,-0.0002602
 3,-0.00048329,-0.00585045,-0.02593470,0.05835875,0.00014552,0.00009718
 ,-0.00000851,0.00008271,-0.00003335,0.00000010,-0.00001256,-0.00014555
 ,0.00001086,0.00016615,0.00002781,-0.00000533,-0.00004195,0.00015964,-
 0.00001051,-0.00004987,-0.00009812,0.00000946,-0.00036451,-0.00013993,
 -0.00002259,-0.00001286,0.00000528,-0.00000035,0.00000810,0.00001392,-
 0.00000065,0.00000853,0.00000788,-0.00000068,-0.00259761,0.00477878,-0
 .00067284,-0.01289547,-0.00662600,0.00004315,0.00228964,-0.00073038,0.
 00026673,-0.00109885,-0.00097267,0.00004071,0.00035676,0.00092739,-0.0
 0004374,0.00072604,-0.00074096,0.00002797,0.01020158,-0.00893254,0.001
 44152,-0.00097687,-0.00010068,-0.00021051,0.00012330,-0.00002484,-0.00
 000476,0.00006320,0.00000696,-0.00000274,0.00031583,0.00023652,0.00002
 997,0.00461273,0.01263714,-0.00018901,-0.00094278,0.00049700,0.0002768
 3,-0.00037926,-0.00139988,0.00005153,-0.00001087,0.00088492,-0.0000681
 9,0.00006250,-0.00097113,0.00003370,-0.00051819,-0.00184941,-0.0001758
 2,-0.00007215,-0.00034006,-0.00002724,0.00000813,-0.00033567,0.0000305
 6,-0.00041913,-0.00031739,0.00009333,0.00010254,-0.00010466,-0.0000090
 7,0.00009765,-0.00011610,-0.00002387,0.00001149,-0.00002243,-0.0000247
 3,-0.00014109,-0.00012074,0.00002512,-0.00002694,-0.00001764,-0.000086
 27,-0.00003039,-0.00000323,0.00006358,0.00011702,-0.00003831,0.0000110
 2,-0.00142944,-0.01388818,0.00145199,0.00728622,0.00734240,-0.00052364
 ,-0.31737845,-0.16362723,-0.00776023,0.00043461,-0.00099802,-0.0001103
 9,0.00020898,0.00000859,-0.00000105,-0.00006559,0.00001908,-0.00000135
 ,-0.00006339,0.00004013,-0.00000202,0.00001721,0.00000330,-0.00000069,
 0.00004387,-0.00003981,0.00000325,-0.00001506,0.00002500,-0.00000219,0
 .00000560,-0.00000840,0.00001031,0.00000461,-0.00001014,-0.00000915,0.
 00000410,-0.00000422,0.00000020,-0.00000160,0.00000355,-0.00000545,-0.
 00000045,0.00000083,-0.00000005,-0.00000096,0.00000012,0.00000088,-0.0
 0000100,0.00000449,0.00000500,-0.00000070,0.00000097,-0.00000029,-0.00
 000096,0.00000003,-0.00000038,-0.00000148,-0.00000259,0.00000015,0.000
 00451,-0.00000127,-0.00000191,0.00000020,-0.00000039,0.00000074,0.0000
 0466,-0.00000095,0.00000156,0.00000010,-0.00000056,-0.00000071,0.00000
 335,-0.00000071,-0.00000005,-0.00000014,0.00000142,-0.00000006,0.31203
 311,0.00006014,0.00003756,-0.00000470,0.00000807,0.00015052,-0.0000127
 3,-0.00001332,-0.00008242,0.00000542,0.00009952,0.00000747,-0.00000242
 ,-0.00002084,0.00008876,-0.00000577,-0.00004254,-0.00002704,0.00000292
 ,0.00021052,-0.00042150,0.00004767,-0.00000480,0.00000049,-0.00000018,
 0.00000183,0.00000536,-0.00000033,0.00000388,0.00000497,-0.00000016,0.
 00457384,-0.00137556,0.00043297,0.00808651,0.01678118,-0.00083314,-0.0
 0001767,0.00018720,-0.00007023,-0.00034662,-0.00030223,-0.00000262,0.0
 0018060,0.00024398,-0.00002926,0.00010591,0.00100891,-0.00002628,-0.03
 032515,-0.01184721,-0.00119928,-0.00041903,-0.00082447,0.00003681,0.00
 006958,-0.00003521,0.00001275,0.00003387,-0.00001684,0.00000321,-0.000
 22284,-0.00008043,-0.00001555,0.00233009,-0.00588074,0.00063576,0.0007
 8045,0.00042644,-0.00014116,-0.00055068,0.00054013,-0.00009668,0.00052
 110,-0.00041314,0.00009611,-0.00011433,-0.00001123,-0.00001087,0.00022
 763,0.00038127,0.00008440,0.00005612,0.00013359,0.00000693,-0.00005554
 ,0.00009597,-0.00001629,0.00011789,0.00014251,-0.00006341,-0.00004925,
 0.00006327,0.00000457,-0.00004828,0.00007724,0.00001006,-0.00002066,0.
 00006585,0.00001026,-0.00004979,-0.00003209,0.00000080,-0.00003770,0.0
 0001496,0.00002232,-0.00004215,0.00000406,-0.00003062,-0.00007690,0.00
 001361,-0.00000896,-0.00518387,-0.00006313,-0.00087743,0.00097371,-0.0
 0599396,0.00071559,-0.15515800,-0.17052685,-0.00066809,-0.00067057,0.0
 0066190,0.00009155,0.00004708,0.00014859,-0.00001136,-0.00004729,0.000
 00522,0.00000379,-0.00003862,0.00002041,-0.00000046,0.00000744,0.00000
 194,-0.00000037,0.00002244,-0.00002641,0.00000192,-0.00000698,0.000016
 79,-0.00000157,0.00000377,-0.00000402,0.00000588,0.00000306,-0.0000048
 9,-0.00000500,0.00000215,-0.00000378,0.00000028,-0.00000043,0.00000293
 ,-0.00000323,-0.00000057,-0.00000044,0.00000002,-0.00000079,0.00000018
 ,-0.00000020,-0.00000014,0.00000326,0.00000265,-0.00000073,-0.00000031
 ,-0.00000001,-0.00000067,0.00000019,0.00000023,-0.00000035,-0.00000112
 ,0.00000020,0.00000227,-0.00000071,-0.00000078,0.00000014,-0.00000116,
 0.00000045,0.00000229,-0.00000061,0.00000058,0.00000012,-0.00000117,-0
 .00000023,0.00000156,-0.00000026,-0.00000010,-0.00000032,0.00000009,-0
 .00000002,0.17503380,0.17664211,0.00000870,0.00000811,-0.00001739,0.00
 000817,-0.00001059,0.00002519,-0.00000077,-0.00000729,-0.00000758,0.00
 000697,0.00000114,-0.00000253,-0.00000161,0.00000707,-0.00000008,-0.00
 000208,-0.00000669,-0.00000725,-0.00002809,0.00004473,0.00025076,-0.00
 000062,0.00000069,0.00000351,0.00000055,0.00000078,0.00000046,0.000000
 40,0.00000046,0.00000277,-0.00023677,0.00040104,0.00278594,-0.00038354
 ,-0.00122929,-0.00552695,0.00007165,-0.00005342,-0.00114459,-0.0000026
 3,-0.00003682,0.00003339,0.00001030,-0.00000933,-0.00025423,-0.0000187
 9,0.00004399,0.00098005,0.00314448,0.00039569,-0.00280690,-0.00018859,
 0.00003570,-0.00038638,0.00000598,0.00000740,0.00008555,0.00000155,0.0
 0000415,0.00003172,0.00004411,0.00001535,-0.00016796,0.00034206,0.0016
 7121,0.00020862,0.00005622,-0.00026700,-0.00251187,0.00005937,-0.00018
 277,-0.00025207,-0.00007981,0.00013886,0.00022377,0.00004025,-0.000099
 59,-0.00002975,-0.00023651,-0.00022002,0.00112010,-0.00001195,-0.00004
 523,-0.00004872,0.00002244,-0.00005114,-0.00013072,-0.00004766,-0.0000
 4242,0.00003762,0.00001243,-0.00002200,-0.00000397,0.00001225,-0.00001
 560,-0.00000600,0.00000244,-0.00000949,-0.00001090,-0.00000928,-0.0000
 0463,-0.00005426,-0.00001097,0.00000403,0.00000105,0.00001498,-0.00000
 208,0.00002387,0.00001846,-0.00000610,0.00000033,0.00042727,-0.0016099
 2,-0.00500847,0.00007600,0.00129114,0.00322196,-0.00920735,-0.00208597
 ,-0.01479664,-0.00000213,0.00005431,0.00228519,0.00000493,-0.00001399,
 -0.00004371,-0.00000059,0.00000152,0.00001869,-0.00000167,0.00000154,0
 .00000237,0.00000080,0.00000009,0.00000010,0.00000165,-0.00000112,-0.0
 0000239,-0.00000048,0.00000057,0.00000077,0.00000052,0.00000006,0.0000
 0130,-0.00000009,-0.00000056,0.00000068,0.00000015,0.,0.00000022,0.000
 00004,0.00000008,-0.00000026,0.00000009,0.00000012,-0.00000007,-0.0000
 0042,-0.00000028,-0.00000071,-0.00000023,-0.00000003,0.00000008,-0.000
 00007,0.00000007,-0.00000007,0.00000028,0.00000007,-0.00000094,-0.0000
 0003,-0.00000006,0.00000047,0.00000050,0.00000001,-0.00000054,-0.00000
 004,-0.00000004,0.00000020,-0.00000017,-0.00000014,-0.00000030,0.00000
 006,0.00000020,0.00000012,0.00000008,-0.00000004,-0.00000020,0.,0.0000
 0009,-0.00000013,0.00607680,0.00190340,0.02187763\\0.00000056,-0.00000
 100,0.00001340,0.00000073,-0.00000065,0.00001992,0.00000168,-0.0000002
 4,0.00003515,0.00000189,0.00000062,0.00004294,0.00000051,-0.00000046,0
 .00003632,0.00000093,-0.00000067,0.00002153,0.00000013,-0.00000213,-0.
 00000300,0.00000097,0.00000117,0.00004064,0.00000184,0.00000156,0.0000
 5478,0.00000167,0.00000046,0.00004264,-0.00000042,-0.00000179,-0.00001
 662,-0.00000045,-0.00000226,-0.00002988,-0.00000192,-0.00000329,-0.000
 04333,-0.00000130,-0.00000426,-0.00004299,-0.00000141,-0.00000459,-0.0
 0003010,-0.00000147,-0.00000259,-0.00001654,-0.00000017,0.00000090,-0.
 00001152,-0.00000203,-0.00000368,-0.00005315,-0.00000205,-0.00000575,-
 0.00005292,-0.00000135,-0.00000524,-0.00003054,-0.00000005,-0.00000100
 ,0.00001031,-0.00000012,0.00000483,-0.00001113,-0.00000008,0.00000202,
 -0.00000339,0.00000013,0.00000250,0.00001132,0.00000229,0.00000470,0.0
 0001956,-0.00000022,0.00000683,0.00001176,0.00000072,0.00000589,-0.000
 00320,0.00000057,0.00000153,0.00001749,0.00000115,0.00000845,0.0000178
 9,0.00000116,0.00000550,0.00003498,0.00000118,-0.00000430,0.00003988,0
 .00000211,0.00001461,0.00003942,0.00000177,0.00000530,0.00003995,-0.00
 000006,0.00000784,-0.00001160,0.00000031,0.00001687,-0.00001874,-0.000
 00078,-0.00000194,-0.00001729,0.00000041,0.00001003,-0.00000384,-0.000
 00033,0.00000314,-0.00002502,-0.00000051,0.,-0.00000540,-0.00000173,-0
 .00000045,-0.00002637,0.00000048,0.00000037,0.00000418,-0.00000074,-0.
 00000220,-0.00000088,0.00000003,-0.00000303,-0.00000847,0.00000019,-0.
 00000181,0.00001372,0.00000053,-0.00000146,0.00002128,0.00000052,-0.00
 000291,-0.00000002,-0.00000050,-0.00000289,-0.00000532,0.00000024,0.00
 001130,-0.00000294,-0.00000150,-0.00001669,-0.00000060,-0.00000074,-0.
 00000433,-0.00001758,0.00000054,0.00001052,-0.00001002,0.00000091,0.00
 001214,0.00000856,0.00000097,0.00001999,-0.00000715,-0.00000082,-0.000
 01678,-0.00000824,-0.00000047,-0.00001526,0.00001126,-0.00000149,-0.00
 002616,-0.00000286,-0.00000094,-0.00000260,-0.00000390,0.00000074,0.00
 002056,-0.00000697,-0.00000015,0.00001023,-0.00002161,-0.00000140,-0.0
 0002568,-0.00000292,-0.00000172,-0.00001791,-0.00001878,-0.00000023,-0
 .00000284,-0.00000973,0.00000023,-0.00000110,0.00000707,-0.00000093,0.
 00000006,-0.00003142\\\@


 GOD GAVE US TWO ENDS... ONE TO SIT ON...    
 AND THE OTHER TO THINK WITH...              
 YOUR SUCCESS DEPENDS UPON WHICH END YOU     
 USE THE MOST...                             
                                             
 IT'S A CASE OF HEADS YOU WIN TAILS YOU LOSE.
          SOURCE UNKNOWN(IT'S JUST AS WELL.) 
 Job cpu time:       0 days 17 hours 18 minutes 15.6 seconds.
 Elapsed time:       0 days  1 hours  5 minutes 14.0 seconds.
 File lengths (MBytes):  RWF=   5668 Int=      0 D2E=      0 Chk=     76 Scr=      8
 Normal termination of Gaussian 16 at Fri Dec 14 12:59:36 2018.
