 Entering Gaussian System, Link 0=g16
 Initial command:
 /gpfs/apps/hpc/Apps/Restricted/Gaussian/Rev_A.03/g16/l1.exe "/gpfs/scratch60/fas/hammes_schiffer/jg2487/c45n01/Gau-236597.inp" -scrdir="/gpfs/scratch60/fas/hammes_schiffer/jg2487/c45n01/"
 Entering Link 1 = /gpfs/apps/hpc/Apps/Restricted/Gaussian/Rev_A.03/g16/l1.exe PID=    236598.
  
 Copyright (c) 1988,1990,1992,1993,1995,1998,2003,2009,2016,
            Gaussian, Inc.  All Rights Reserved.
  
 This is part of the Gaussian(R) 16 program.  It is based on
 the Gaussian(R) 09 system (copyright 2009, Gaussian, Inc.),
 the Gaussian(R) 03 system (copyright 2003, Gaussian, Inc.),
 the Gaussian(R) 98 system (copyright 1998, Gaussian, Inc.),
 the Gaussian(R) 94 system (copyright 1995, Gaussian, Inc.),
 the Gaussian 92(TM) system (copyright 1992, Gaussian, Inc.),
 the Gaussian 90(TM) system (copyright 1990, Gaussian, Inc.),
 the Gaussian 88(TM) system (copyright 1988, Gaussian, Inc.),
 the Gaussian 86(TM) system (copyright 1986, Carnegie Mellon
 University), and the Gaussian 82(TM) system (copyright 1983,
 Carnegie Mellon University). Gaussian is a federally registered
 trademark of Gaussian, Inc.
  
 This software contains proprietary and confidential information,
 including trade secrets, belonging to Gaussian, Inc.
  
 This software is provided under written license and may be
 used, copied, transmitted, or stored only in accord with that
 written license.
  
 The following legend is applicable only to US Government
 contracts under FAR:
  
                    RESTRICTED RIGHTS LEGEND
  
 Use, reproduction and disclosure by the US Government is
 subject to restrictions as set forth in subparagraphs (a)
 and (c) of the Commercial Computer Software - Restricted
 Rights clause in FAR 52.227-19.
  
 Gaussian, Inc.
 340 Quinnipiac St., Bldg. 40, Wallingford CT 06492
  
  
 ---------------------------------------------------------------
 Warning -- This program may not be used in any manner that
 competes with the business of Gaussian, Inc. or will provide
 assistance to any competitor of Gaussian, Inc.  The licensee
 of this program is prohibited from giving any competitor of
 Gaussian, Inc. access to this program.  By using this program,
 the user acknowledges that Gaussian, Inc. is engaged in the
 business of creating and licensing software in the field of
 computational chemistry and represents and warrants to the
 licensee that it is not a competitor of Gaussian, Inc. and that
 it will not use this program in any manner prohibited above.
 ---------------------------------------------------------------
  

 Cite this work as:
 Gaussian 16, Revision A.03,
 M. J. Frisch, G. W. Trucks, H. B. Schlegel, G. E. Scuseria, 
 M. A. Robb, J. R. Cheeseman, G. Scalmani, V. Barone, 
 G. A. Petersson, H. Nakatsuji, X. Li, M. Caricato, A. V. Marenich, 
 J. Bloino, B. G. Janesko, R. Gomperts, B. Mennucci, H. P. Hratchian, 
 J. V. Ortiz, A. F. Izmaylov, J. L. Sonnenberg, D. Williams-Young, 
 F. Ding, F. Lipparini, F. Egidi, J. Goings, B. Peng, A. Petrone, 
 T. Henderson, D. Ranasinghe, V. G. Zakrzewski, J. Gao, N. Rega, 
 G. Zheng, W. Liang, M. Hada, M. Ehara, K. Toyota, R. Fukuda, 
 J. Hasegawa, M. Ishida, T. Nakajima, Y. Honda, O. Kitao, H. Nakai, 
 T. Vreven, K. Throssell, J. A. Montgomery, Jr., J. E. Peralta, 
 F. Ogliaro, M. J. Bearpark, J. J. Heyd, E. N. Brothers, K. N. Kudin, 
 V. N. Staroverov, T. A. Keith, R. Kobayashi, J. Normand, 
 K. Raghavachari, A. P. Rendell, J. C. Burant, S. S. Iyengar, 
 J. Tomasi, M. Cossi, J. M. Millam, M. Klene, C. Adamo, R. Cammi, 
 J. W. Ochterski, R. L. Martin, K. Morokuma, O. Farkas, 
 J. B. Foresman, and D. J. Fox, Gaussian, Inc., Wallingford CT, 2016.
 
 ******************************************
 Gaussian 16:  ES64L-G16RevA.03 25-Dec-2016
                21-Dec-2018 
 ******************************************
 %chk=cyclohexyl-diBIP-E1PT.chk
 %mem=10GB
 %nprocshared=16
 Will use up to   16 processors via shared memory.
 ----------------------------------------------------------------------
 #p opt=tight freq=internalmodes b3lyp/6-31g(d,p) scrf=(cpcm,solvent=di
 chloromethane,read) nosymm empiricaldispersion=gd3bj int=grid=ultrafin
 e
 ----------------------------------------------------------------------
 1/7=10,18=20,19=15,26=6,38=1,40=2/1,3;
 2/9=110,12=2,15=1,17=6,18=5,40=1/2;
 3/5=1,6=6,7=101,11=2,25=1,30=1,70=2103,71=1,72=9,74=-5,75=-5,124=41/1,2,3;
 4//1;
 5/5=2,38=5,53=9/2;
 6/7=2,8=2,9=2,10=2,28=1/1;
 7/30=1/1,2,3,16;
 1/7=10,18=20,19=15,26=6/3(2);
 2/9=110,15=1/2;
 99//99;
 2/9=110,15=1/2;
 3/5=1,6=6,7=101,11=2,25=1,30=1,70=2105,71=1,72=9,74=-5,75=-5,124=41/1,2,3;
 4/5=5,16=3,69=1/1;
 5/5=2,38=5,53=9/2;
 7/30=1/1,2,3,16;
 1/7=10,18=20,19=15,26=6/3(-5);
 2/9=110,15=1/2;
 6/7=2,8=2,9=2,10=2,19=2,28=1/1;
 99/9=1/99;
 Leave Link    1 at Fri Dec 21 14:01:05 2018, MaxMem=  1342177280 cpu:               8.4 elap:               0.6
 (Enter /gpfs/apps/hpc/Apps/Restricted/Gaussian/Rev_A.03/g16/l101.exe)
 ----------------------------------------------------------------------
 cyclohexylimine diBIP oxidized, first proton transferred, optimization
 ----------------------------------------------------------------------
 Symbolic Z-matrix:
 Charge =  1 Multiplicity = 2
 C                     1.54444   1.09585  -0.05167 
 C                     0.30682   1.77391  -0.12915 
 C                     0.28334   3.16349  -0.30952 
 C                     1.50406   3.82501  -0.41471 
 C                     2.72706   3.13394  -0.33548 
 C                     2.7832    1.74807  -0.15365 
 C                    -0.13617  -0.32791   0.12972 
 H                    -0.65692   3.69835  -0.36925 
 H                     1.51749   4.89937  -0.55549 
 H                     3.65712   3.68529  -0.41996 
 C                    -2.27814  -1.53463   0.22 
 C                    -3.07001  -2.69185   0.29646 
 C                    -2.49497  -3.95531   0.44027 
 C                    -1.10424  -3.99836   0.49855 
 C                    -0.3098   -2.84071   0.40629 
 C                    -0.87606  -1.57153   0.26125 
 C                    -4.41225  -0.90916   0.08519 
 H                    -3.09873  -4.85063   0.50306 
 H                    -0.61283  -4.95613   0.61514 
 H                     0.7676   -2.94078   0.4516 
 N                    -0.72611   0.85906  -0.00889 
 C                    -6.90903  -0.7722   -0.154 
 C                    -5.606    -0.10352  -0.02528 
 C                    -5.52073   1.27242  -0.00023 
 C                    -6.67355   2.08103  -0.10126 
 C                    -7.92745   1.44985  -0.24485 
 C                    -8.09856   0.07857  -0.27378 
 H                    -4.55627   1.7517    0.11275 
 H                    -8.79957   2.07872  -0.32845 
 C                    -6.52479   3.59451  -0.01687 
 C                    -9.47599  -0.55974  -0.41991 
 O                    -6.98142  -2.02703  -0.15908 
 N                    -3.13804  -0.46494   0.09595 
 N                    -4.37957  -2.25166   0.20432 
 H                    -2.77043   0.48376   0.01055 
 N                     1.23123  -0.23004   0.11424 
 H                     1.94462  -0.94767   0.18205 
 C                     4.04756   1.02434  -0.06858 
 H                     4.94984   1.63852  -0.15841 
 N                     4.08758  -0.24638   0.09777 
 C                     5.41547  -0.87841   0.16865 
 C                     6.21713  -0.69821  -1.13158 
 C                     6.22955  -0.39176   1.3795 
 H                     5.23596  -1.9517    0.30075 
 C                     7.57061  -1.41149  -1.04925 
 H                     6.37888   0.37316  -1.30123 
 H                     5.63053  -1.07211  -1.97597 
 C                     7.58275  -1.10671   1.45829 
 H                     6.39241   0.68863   1.2854 
 H                     5.65276  -0.5513    2.29529 
 C                     8.38013  -0.93313   0.16111 
 H                     8.13081  -1.24902  -1.97494 
 H                     7.40425  -2.49291  -0.96572 
 H                     8.15251  -0.73004   2.3131 
 H                     7.4147   -2.1764    1.63709 
 H                     9.32823  -1.47616   0.22248 
 H                     8.62819   0.12791   0.0303 
 H                    -5.25285  -2.7765    0.17769 
 C                    -7.85875   4.32532  -0.21688 
 H                    -7.69262   5.40234  -0.14734 
 H                    -8.2903    4.11255  -1.1982 
 H                    -8.58906   4.05097   0.54836 
 C                    -5.52928   4.07394  -1.09498 
 H                    -4.54272   3.62244  -0.96884 
 H                    -5.89408   3.83551  -2.09674 
 H                    -5.41299   5.15793  -1.01899 
 C                    -5.96703   3.94513   1.38165 
 H                    -6.653     3.61914   2.16697 
 H                    -4.99704   3.47441   1.55719 
 H                    -5.83956   5.02755   1.46299 
 C                    -9.51527  -1.39839  -1.71722 
 H                    -8.77227  -2.19452  -1.69354 
 H                    -10.50682  -1.84501  -1.82842 
 H                    -9.3257   -0.76757  -2.58945 
 C                    -10.58815   0.4969   -0.49589 
 H                    -10.61386   1.12114   0.40078 
 H                    -10.47805   1.14837  -1.36666 
 H                    -11.55096  -0.01179  -0.58025 
 C                    -9.76853  -1.46358   0.80081 
 H                    -10.76514  -1.899     0.69015 
 H                    -9.03964  -2.2674    0.88395 
 H                    -9.75584  -0.87719   1.72319 
 
 ITRead=  0  0  0  0  0  0  0  0  0  0  0  0  0  0  0  0  0  0  0  0
 ITRead=  0  0  0  0  0  0  0  0  0  0  0  0  0  0  0  0  0  0  0  0
 ITRead=  0  0  0  0  0  0  0  0  0  0  0  0  0  0  0  0  0  0  0  0
 ITRead=  0  0  0  0  0  0  0  0  0  0  0  0  0  0  0  0  0  0  0  0
 ITRead=  0  0
 MicOpt= -1 -1 -1 -1 -1 -1 -1 -1 -1 -1 -1 -1 -1 -1 -1 -1 -1 -1 -1 -1
 MicOpt= -1 -1 -1 -1 -1 -1 -1 -1 -1 -1 -1 -1 -1 -1 -1 -1 -1 -1 -1 -1
 MicOpt= -1 -1 -1 -1 -1 -1 -1 -1 -1 -1 -1 -1 -1 -1 -1 -1 -1 -1 -1 -1
 MicOpt= -1 -1 -1 -1 -1 -1 -1 -1 -1 -1 -1 -1 -1 -1 -1 -1 -1 -1 -1 -1
 MicOpt= -1 -1
 NAtoms=     82 NQM=       82 NQMF=       0 NMMI=      0 NMMIF=      0
                NMic=       0 NMicF=      0.
                    Isotopes and Nuclear Properties:
 (Nuclear quadrupole moments (NQMom) in fm**2, nuclear magnetic moments (NMagM)
  in nuclear magnetons)

  Atom         1           2           3           4           5           6           7           8           9          10
 IAtWgt=          12          12          12          12          12          12          12           1           1           1
 AtmWgt=  12.0000000  12.0000000  12.0000000  12.0000000  12.0000000  12.0000000  12.0000000   1.0078250   1.0078250   1.0078250
 NucSpn=           0           0           0           0           0           0           0           1           1           1
 AtZEff=  -0.0000000  -0.0000000  -0.0000000  -0.0000000  -0.0000000  -0.0000000  -0.0000000  -0.0000000  -0.0000000  -0.0000000
 NQMom=    0.0000000   0.0000000   0.0000000   0.0000000   0.0000000   0.0000000   0.0000000   0.0000000   0.0000000   0.0000000
 NMagM=    0.0000000   0.0000000   0.0000000   0.0000000   0.0000000   0.0000000   0.0000000   2.7928460   2.7928460   2.7928460
 AtZNuc=   6.0000000   6.0000000   6.0000000   6.0000000   6.0000000   6.0000000   6.0000000   1.0000000   1.0000000   1.0000000

  Atom        11          12          13          14          15          16          17          18          19          20
 IAtWgt=          12          12          12          12          12          12          12           1           1           1
 AtmWgt=  12.0000000  12.0000000  12.0000000  12.0000000  12.0000000  12.0000000  12.0000000   1.0078250   1.0078250   1.0078250
 NucSpn=           0           0           0           0           0           0           0           1           1           1
 AtZEff=  -0.0000000  -0.0000000  -0.0000000  -0.0000000  -0.0000000  -0.0000000  -0.0000000  -0.0000000  -0.0000000  -0.0000000
 NQMom=    0.0000000   0.0000000   0.0000000   0.0000000   0.0000000   0.0000000   0.0000000   0.0000000   0.0000000   0.0000000
 NMagM=    0.0000000   0.0000000   0.0000000   0.0000000   0.0000000   0.0000000   0.0000000   2.7928460   2.7928460   2.7928460
 AtZNuc=   6.0000000   6.0000000   6.0000000   6.0000000   6.0000000   6.0000000   6.0000000   1.0000000   1.0000000   1.0000000

  Atom        21          22          23          24          25          26          27          28          29          30
 IAtWgt=          14          12          12          12          12          12          12           1           1          12
 AtmWgt=  14.0030740  12.0000000  12.0000000  12.0000000  12.0000000  12.0000000  12.0000000   1.0078250   1.0078250  12.0000000
 NucSpn=           2           0           0           0           0           0           0           1           1           0
 AtZEff=  -0.0000000  -0.0000000  -0.0000000  -0.0000000  -0.0000000  -0.0000000  -0.0000000  -0.0000000  -0.0000000  -0.0000000
 NQMom=    2.0440000   0.0000000   0.0000000   0.0000000   0.0000000   0.0000000   0.0000000   0.0000000   0.0000000   0.0000000
 NMagM=    0.4037610   0.0000000   0.0000000   0.0000000   0.0000000   0.0000000   0.0000000   2.7928460   2.7928460   0.0000000
 AtZNuc=   7.0000000   6.0000000   6.0000000   6.0000000   6.0000000   6.0000000   6.0000000   1.0000000   1.0000000   6.0000000

  Atom        31          32          33          34          35          36          37          38          39          40
 IAtWgt=          12          16          14          14           1          14           1          12           1          14
 AtmWgt=  12.0000000  15.9949146  14.0030740  14.0030740   1.0078250  14.0030740   1.0078250  12.0000000   1.0078250  14.0030740
 NucSpn=           0           0           2           2           1           2           1           0           1           2
 AtZEff=  -0.0000000  -0.0000000  -0.0000000  -0.0000000  -0.0000000  -0.0000000  -0.0000000  -0.0000000  -0.0000000  -0.0000000
 NQMom=    0.0000000   0.0000000   2.0440000   2.0440000   0.0000000   2.0440000   0.0000000   0.0000000   0.0000000   2.0440000
 NMagM=    0.0000000   0.0000000   0.4037610   0.4037610   2.7928460   0.4037610   2.7928460   0.0000000   2.7928460   0.4037610
 AtZNuc=   6.0000000   8.0000000   7.0000000   7.0000000   1.0000000   7.0000000   1.0000000   6.0000000   1.0000000   7.0000000

  Atom        41          42          43          44          45          46          47          48          49          50
 IAtWgt=          12          12          12           1          12           1           1          12           1           1
 AtmWgt=  12.0000000  12.0000000  12.0000000   1.0078250  12.0000000   1.0078250   1.0078250  12.0000000   1.0078250   1.0078250
 NucSpn=           0           0           0           1           0           1           1           0           1           1
 AtZEff=  -0.0000000  -0.0000000  -0.0000000  -0.0000000  -0.0000000  -0.0000000  -0.0000000  -0.0000000  -0.0000000  -0.0000000
 NQMom=    0.0000000   0.0000000   0.0000000   0.0000000   0.0000000   0.0000000   0.0000000   0.0000000   0.0000000   0.0000000
 NMagM=    0.0000000   0.0000000   0.0000000   2.7928460   0.0000000   2.7928460   2.7928460   0.0000000   2.7928460   2.7928460
 AtZNuc=   6.0000000   6.0000000   6.0000000   1.0000000   6.0000000   1.0000000   1.0000000   6.0000000   1.0000000   1.0000000

  Atom        51          52          53          54          55          56          57          58          59          60
 IAtWgt=          12           1           1           1           1           1           1           1          12           1
 AtmWgt=  12.0000000   1.0078250   1.0078250   1.0078250   1.0078250   1.0078250   1.0078250   1.0078250  12.0000000   1.0078250
 NucSpn=           0           1           1           1           1           1           1           1           0           1
 AtZEff=  -0.0000000  -0.0000000  -0.0000000  -0.0000000  -0.0000000  -0.0000000  -0.0000000  -0.0000000  -0.0000000  -0.0000000
 NQMom=    0.0000000   0.0000000   0.0000000   0.0000000   0.0000000   0.0000000   0.0000000   0.0000000   0.0000000   0.0000000
 NMagM=    0.0000000   2.7928460   2.7928460   2.7928460   2.7928460   2.7928460   2.7928460   2.7928460   0.0000000   2.7928460
 AtZNuc=   6.0000000   1.0000000   1.0000000   1.0000000   1.0000000   1.0000000   1.0000000   1.0000000   6.0000000   1.0000000

  Atom        61          62          63          64          65          66          67          68          69          70
 IAtWgt=           1           1          12           1           1           1          12           1           1           1
 AtmWgt=   1.0078250   1.0078250  12.0000000   1.0078250   1.0078250   1.0078250  12.0000000   1.0078250   1.0078250   1.0078250
 NucSpn=           1           1           0           1           1           1           0           1           1           1
 AtZEff=  -0.0000000  -0.0000000  -0.0000000  -0.0000000  -0.0000000  -0.0000000  -0.0000000  -0.0000000  -0.0000000  -0.0000000
 NQMom=    0.0000000   0.0000000   0.0000000   0.0000000   0.0000000   0.0000000   0.0000000   0.0000000   0.0000000   0.0000000
 NMagM=    2.7928460   2.7928460   0.0000000   2.7928460   2.7928460   2.7928460   0.0000000   2.7928460   2.7928460   2.7928460
 AtZNuc=   1.0000000   1.0000000   6.0000000   1.0000000   1.0000000   1.0000000   6.0000000   1.0000000   1.0000000   1.0000000

  Atom        71          72          73          74          75          76          77          78          79          80
 IAtWgt=          12           1           1           1          12           1           1           1          12           1
 AtmWgt=  12.0000000   1.0078250   1.0078250   1.0078250  12.0000000   1.0078250   1.0078250   1.0078250  12.0000000   1.0078250
 NucSpn=           0           1           1           1           0           1           1           1           0           1
 AtZEff=  -0.0000000  -0.0000000  -0.0000000  -0.0000000  -0.0000000  -0.0000000  -0.0000000  -0.0000000  -0.0000000  -0.0000000
 NQMom=    0.0000000   0.0000000   0.0000000   0.0000000   0.0000000   0.0000000   0.0000000   0.0000000   0.0000000   0.0000000
 NMagM=    0.0000000   2.7928460   2.7928460   2.7928460   0.0000000   2.7928460   2.7928460   2.7928460   0.0000000   2.7928460
 AtZNuc=   6.0000000   1.0000000   1.0000000   1.0000000   6.0000000   1.0000000   1.0000000   1.0000000   6.0000000   1.0000000

  Atom        81          82
 IAtWgt=           1           1
 AtmWgt=   1.0078250   1.0078250
 NucSpn=           1           1
 AtZEff=  -0.0000000  -0.0000000
 NQMom=    0.0000000   0.0000000
 NMagM=    2.7928460   2.7928460
 AtZNuc=   1.0000000   1.0000000
 Leave Link  101 at Fri Dec 21 14:01:05 2018, MaxMem=  1342177280 cpu:               4.3 elap:               0.3
 (Enter /gpfs/apps/hpc/Apps/Restricted/Gaussian/Rev_A.03/g16/l103.exe)

 GradGradGradGradGradGradGradGradGradGradGradGradGradGradGradGradGradGrad
 Berny optimization.
 Initialization pass.
                           ----------------------------
                           !    Initial Parameters    !
                           ! (Angstroms and Degrees)  !
 --------------------------                            --------------------------
 ! Name  Definition              Value          Derivative Info.                !
 --------------------------------------------------------------------------------
 ! R1    R(1,2)                  1.4133         estimate D2E/DX2                !
 ! R2    R(1,6)                  1.4037         estimate D2E/DX2                !
 ! R3    R(1,36)                 1.3724         estimate D2E/DX2                !
 ! R4    R(2,3)                  1.4014         estimate D2E/DX2                !
 ! R5    R(2,21)                 1.385          estimate D2E/DX2                !
 ! R6    R(3,4)                  1.3924         estimate D2E/DX2                !
 ! R7    R(3,8)                  1.0834         estimate D2E/DX2                !
 ! R8    R(4,5)                  1.407          estimate D2E/DX2                !
 ! R9    R(4,9)                  1.0836         estimate D2E/DX2                !
 ! R10   R(5,6)                  1.3989         estimate D2E/DX2                !
 ! R11   R(5,10)                 1.0845         estimate D2E/DX2                !
 ! R12   R(6,38)                 1.4593         estimate D2E/DX2                !
 ! R13   R(7,16)                 1.453          estimate D2E/DX2                !
 ! R14   R(7,21)                 1.3327         estimate D2E/DX2                !
 ! R15   R(7,36)                 1.371          estimate D2E/DX2                !
 ! R16   R(11,12)                1.4043         estimate D2E/DX2                !
 ! R17   R(11,16)                1.4032         estimate D2E/DX2                !
 ! R18   R(11,33)                1.3781         estimate D2E/DX2                !
 ! R19   R(12,13)                1.3956         estimate D2E/DX2                !
 ! R20   R(12,34)                1.3846         estimate D2E/DX2                !
 ! R21   R(13,14)                1.3926         estimate D2E/DX2                !
 ! R22   R(13,18)                1.0817         estimate D2E/DX2                !
 ! R23   R(14,15)                1.4071         estimate D2E/DX2                !
 ! R24   R(14,19)                1.0828         estimate D2E/DX2                !
 ! R25   R(15,16)                1.3973         estimate D2E/DX2                !
 ! R26   R(15,20)                1.083          estimate D2E/DX2                !
 ! R27   R(17,23)                1.4444         estimate D2E/DX2                !
 ! R28   R(17,33)                1.3495         estimate D2E/DX2                !
 ! R29   R(17,34)                1.3482         estimate D2E/DX2                !
 ! R30   R(22,23)                1.4702         estimate D2E/DX2                !
 ! R31   R(22,27)                1.4674         estimate D2E/DX2                !
 ! R32   R(22,32)                1.2569         estimate D2E/DX2                !
 ! R33   R(23,24)                1.3788         estimate D2E/DX2                !
 ! R34   R(24,25)                1.4118         estimate D2E/DX2                !
 ! R35   R(24,28)                1.0829         estimate D2E/DX2                !
 ! R36   R(25,26)                1.4111         estimate D2E/DX2                !
 ! R37   R(25,30)                1.5231         estimate D2E/DX2                !
 ! R38   R(26,27)                1.3822         estimate D2E/DX2                !
 ! R39   R(26,29)                1.0785         estimate D2E/DX2                !
 ! R40   R(27,31)                1.5252         estimate D2E/DX2                !
 ! R41   R(30,59)                1.5341         estimate D2E/DX2                !
 ! R42   R(30,63)                1.5438         estimate D2E/DX2                !
 ! R43   R(30,67)                1.5459         estimate D2E/DX2                !
 ! R44   R(31,71)                1.5453         estimate D2E/DX2                !
 ! R45   R(31,75)                1.536          estimate D2E/DX2                !
 ! R46   R(31,79)                1.5468         estimate D2E/DX2                !
 ! R47   R(33,35)                1.021          estimate D2E/DX2                !
 ! R48   R(34,58)                1.0192         estimate D2E/DX2                !
 ! R49   R(36,37)                1.0142         estimate D2E/DX2                !
 ! R50   R(38,39)                1.0952         estimate D2E/DX2                !
 ! R51   R(38,40)                1.2822         estimate D2E/DX2                !
 ! R52   R(40,41)                1.4723         estimate D2E/DX2                !
 ! R53   R(41,42)                1.5381         estimate D2E/DX2                !
 ! R54   R(41,43)                1.5381         estimate D2E/DX2                !
 ! R55   R(41,44)                1.0962         estimate D2E/DX2                !
 ! R56   R(42,45)                1.5321         estimate D2E/DX2                !
 ! R57   R(42,46)                1.0967         estimate D2E/DX2                !
 ! R58   R(42,47)                1.094          estimate D2E/DX2                !
 ! R59   R(43,48)                1.5325         estimate D2E/DX2                !
 ! R60   R(43,49)                1.0966         estimate D2E/DX2                !
 ! R61   R(43,50)                1.094          estimate D2E/DX2                !
 ! R62   R(45,51)                1.5327         estimate D2E/DX2                !
 ! R63   R(45,52)                1.0941         estimate D2E/DX2                !
 ! R64   R(45,53)                1.0973         estimate D2E/DX2                !
 ! R65   R(48,51)                1.5325         estimate D2E/DX2                !
 ! R66   R(48,54)                1.0942         estimate D2E/DX2                !
 ! R67   R(48,55)                1.0975         estimate D2E/DX2                !
 ! R68   R(51,56)                1.0943         estimate D2E/DX2                !
 ! R69   R(51,57)                1.0975         estimate D2E/DX2                !
 ! R70   R(59,60)                1.092          estimate D2E/DX2                !
 ! R71   R(59,61)                1.0929         estimate D2E/DX2                !
 ! R72   R(59,62)                1.0928         estimate D2E/DX2                !
 ! R73   R(63,64)                1.0923         estimate D2E/DX2                !
 ! R74   R(63,65)                1.0925         estimate D2E/DX2                !
 ! R75   R(63,66)                1.0928         estimate D2E/DX2                !
 ! R76   R(67,68)                1.0925         estimate D2E/DX2                !
 ! R77   R(67,69)                1.0924         estimate D2E/DX2                !
 ! R78   R(67,70)                1.0929         estimate D2E/DX2                !
 ! R79   R(71,72)                1.0892         estimate D2E/DX2                !
 ! R80   R(71,73)                1.0932         estimate D2E/DX2                !
 ! R81   R(71,74)                1.093          estimate D2E/DX2                !
 ! R82   R(75,76)                1.0929         estimate D2E/DX2                !
 ! R83   R(75,77)                1.0931         estimate D2E/DX2                !
 ! R84   R(75,78)                1.0922         estimate D2E/DX2                !
 ! R85   R(79,80)                1.0932         estimate D2E/DX2                !
 ! R86   R(79,81)                1.0883         estimate D2E/DX2                !
 ! R87   R(79,82)                1.0931         estimate D2E/DX2                !
 ! A1    A(2,1,6)              123.0856         estimate D2E/DX2                !
 ! A2    A(2,1,36)             105.6801         estimate D2E/DX2                !
 ! A3    A(6,1,36)             131.2296         estimate D2E/DX2                !
 ! A4    A(1,2,3)              119.8302         estimate D2E/DX2                !
 ! A5    A(1,2,21)             109.3542         estimate D2E/DX2                !
 ! A6    A(3,2,21)             130.8146         estimate D2E/DX2                !
 ! A7    A(2,3,4)              117.7817         estimate D2E/DX2                !
 ! A8    A(2,3,8)              120.7403         estimate D2E/DX2                !
 ! A9    A(4,3,8)              121.4773         estimate D2E/DX2                !
 ! A10   A(3,4,5)              121.6313         estimate D2E/DX2                !
 ! A11   A(3,4,9)              119.4524         estimate D2E/DX2                !
 ! A12   A(5,4,9)              118.9154         estimate D2E/DX2                !
 ! A13   A(4,5,6)              121.9249         estimate D2E/DX2                !
 ! A14   A(4,5,10)             119.4299         estimate D2E/DX2                !
 ! A15   A(6,5,10)             118.645          estimate D2E/DX2                !
 ! A16   A(1,6,5)              115.7448         estimate D2E/DX2                !
 ! A17   A(1,6,38)             122.0009         estimate D2E/DX2                !
 ! A18   A(5,6,38)             122.2537         estimate D2E/DX2                !
 ! A19   A(16,7,21)            123.113          estimate D2E/DX2                !
 ! A20   A(16,7,36)            124.7492         estimate D2E/DX2                !
 ! A21   A(21,7,36)            112.1323         estimate D2E/DX2                !
 ! A22   A(12,11,16)           122.6959         estimate D2E/DX2                !
 ! A23   A(12,11,33)           107.0189         estimate D2E/DX2                !
 ! A24   A(16,11,33)           130.2834         estimate D2E/DX2                !
 ! A25   A(11,12,13)           121.2852         estimate D2E/DX2                !
 ! A26   A(11,12,34)           105.5289         estimate D2E/DX2                !
 ! A27   A(13,12,34)           133.1856         estimate D2E/DX2                !
 ! A28   A(12,13,14)           116.3452         estimate D2E/DX2                !
 ! A29   A(12,13,18)           121.6906         estimate D2E/DX2                !
 ! A30   A(14,13,18)           121.9642         estimate D2E/DX2                !
 ! A31   A(13,14,15)           122.3893         estimate D2E/DX2                !
 ! A32   A(13,14,19)           119.0178         estimate D2E/DX2                !
 ! A33   A(15,14,19)           118.5925         estimate D2E/DX2                !
 ! A34   A(14,15,16)           121.6882         estimate D2E/DX2                !
 ! A35   A(14,15,20)           118.877          estimate D2E/DX2                !
 ! A36   A(16,15,20)           119.4346         estimate D2E/DX2                !
 ! A37   A(7,16,11)            118.9229         estimate D2E/DX2                !
 ! A38   A(7,16,15)            125.4809         estimate D2E/DX2                !
 ! A39   A(11,16,15)           115.5864         estimate D2E/DX2                !
 ! A40   A(23,17,33)           126.6827         estimate D2E/DX2                !
 ! A41   A(23,17,34)           125.6063         estimate D2E/DX2                !
 ! A42   A(33,17,34)           107.7101         estimate D2E/DX2                !
 ! A43   A(2,21,7)             105.4974         estimate D2E/DX2                !
 ! A44   A(23,22,27)           117.511          estimate D2E/DX2                !
 ! A45   A(23,22,32)           120.3613         estimate D2E/DX2                !
 ! A46   A(27,22,32)           122.1277         estimate D2E/DX2                !
 ! A47   A(17,23,22)           119.045          estimate D2E/DX2                !
 ! A48   A(17,23,24)           120.2717         estimate D2E/DX2                !
 ! A49   A(22,23,24)           120.6816         estimate D2E/DX2                !
 ! A50   A(23,24,25)           121.3171         estimate D2E/DX2                !
 ! A51   A(23,24,28)           119.9108         estimate D2E/DX2                !
 ! A52   A(25,24,28)           118.7665         estimate D2E/DX2                !
 ! A53   A(24,25,26)           118.4698         estimate D2E/DX2                !
 ! A54   A(24,25,30)           119.0406         estimate D2E/DX2                !
 ! A55   A(26,25,30)           122.4715         estimate D2E/DX2                !
 ! A56   A(25,26,27)           123.7714         estimate D2E/DX2                !
 ! A57   A(25,26,29)           117.7517         estimate D2E/DX2                !
 ! A58   A(27,26,29)           118.475          estimate D2E/DX2                !
 ! A59   A(22,27,26)           118.2384         estimate D2E/DX2                !
 ! A60   A(22,27,31)           119.8219         estimate D2E/DX2                !
 ! A61   A(26,27,31)           121.9392         estimate D2E/DX2                !
 ! A62   A(25,30,59)           112.4088         estimate D2E/DX2                !
 ! A63   A(25,30,63)           109.4441         estimate D2E/DX2                !
 ! A64   A(25,30,67)           108.1028         estimate D2E/DX2                !
 ! A65   A(59,30,63)           108.7677         estimate D2E/DX2                !
 ! A66   A(59,30,67)           108.8819         estimate D2E/DX2                !
 ! A67   A(63,30,67)           109.1884         estimate D2E/DX2                !
 ! A68   A(27,31,71)           109.3014         estimate D2E/DX2                !
 ! A69   A(27,31,75)           111.7636         estimate D2E/DX2                !
 ! A70   A(27,31,79)           109.8612         estimate D2E/DX2                !
 ! A71   A(71,31,75)           108.2651         estimate D2E/DX2                !
 ! A72   A(71,31,79)           109.9138         estimate D2E/DX2                !
 ! A73   A(75,31,79)           107.7024         estimate D2E/DX2                !
 ! A74   A(11,33,17)           109.5357         estimate D2E/DX2                !
 ! A75   A(11,33,35)           120.2726         estimate D2E/DX2                !
 ! A76   A(17,33,35)           130.1784         estimate D2E/DX2                !
 ! A77   A(12,34,17)           110.2049         estimate D2E/DX2                !
 ! A78   A(12,34,58)           130.4212         estimate D2E/DX2                !
 ! A79   A(17,34,58)           119.321          estimate D2E/DX2                !
 ! A80   A(1,36,7)             107.3346         estimate D2E/DX2                !
 ! A81   A(1,36,37)            122.0831         estimate D2E/DX2                !
 ! A82   A(7,36,37)            130.5663         estimate D2E/DX2                !
 ! A83   A(6,38,39)            115.5244         estimate D2E/DX2                !
 ! A84   A(6,38,40)            121.7429         estimate D2E/DX2                !
 ! A85   A(39,38,40)           122.7326         estimate D2E/DX2                !
 ! A86   A(38,40,41)           117.3762         estimate D2E/DX2                !
 ! A87   A(40,41,42)           112.2765         estimate D2E/DX2                !
 ! A88   A(40,41,43)           112.2986         estimate D2E/DX2                !
 ! A89   A(40,41,44)           106.1651         estimate D2E/DX2                !
 ! A90   A(42,41,43)           110.6444         estimate D2E/DX2                !
 ! A91   A(42,41,44)           107.5742         estimate D2E/DX2                !
 ! A92   A(43,41,44)           107.5537         estimate D2E/DX2                !
 ! A93   A(41,42,45)           111.1285         estimate D2E/DX2                !
 ! A94   A(41,42,46)           108.7893         estimate D2E/DX2                !
 ! A95   A(41,42,47)           109.4485         estimate D2E/DX2                !
 ! A96   A(45,42,46)           109.4394         estimate D2E/DX2                !
 ! A97   A(45,42,47)           110.8565         estimate D2E/DX2                !
 ! A98   A(46,42,47)           107.0708         estimate D2E/DX2                !
 ! A99   A(41,43,48)           111.114          estimate D2E/DX2                !
 ! A100  A(41,43,49)           108.8298         estimate D2E/DX2                !
 ! A101  A(41,43,50)           109.5003         estimate D2E/DX2                !
 ! A102  A(48,43,49)           109.4448         estimate D2E/DX2                !
 ! A103  A(48,43,50)           110.762          estimate D2E/DX2                !
 ! A104  A(49,43,50)           107.0855         estimate D2E/DX2                !
 ! A105  A(42,45,51)           111.3286         estimate D2E/DX2                !
 ! A106  A(42,45,52)           109.7375         estimate D2E/DX2                !
 ! A107  A(42,45,53)           109.2056         estimate D2E/DX2                !
 ! A108  A(51,45,52)           110.5706         estimate D2E/DX2                !
 ! A109  A(51,45,53)           109.119          estimate D2E/DX2                !
 ! A110  A(52,45,53)           106.7604         estimate D2E/DX2                !
 ! A111  A(43,48,51)           111.2896         estimate D2E/DX2                !
 ! A112  A(43,48,54)           109.8383         estimate D2E/DX2                !
 ! A113  A(43,48,55)           109.1406         estimate D2E/DX2                !
 ! A114  A(51,48,54)           110.5694         estimate D2E/DX2                !
 ! A115  A(51,48,55)           109.1456         estimate D2E/DX2                !
 ! A116  A(54,48,55)           106.7373         estimate D2E/DX2                !
 ! A117  A(45,51,48)           110.9942         estimate D2E/DX2                !
 ! A118  A(45,51,56)           110.3046         estimate D2E/DX2                !
 ! A119  A(45,51,57)           109.0861         estimate D2E/DX2                !
 ! A120  A(48,51,56)           110.3109         estimate D2E/DX2                !
 ! A121  A(48,51,57)           109.1473         estimate D2E/DX2                !
 ! A122  A(56,51,57)           106.8943         estimate D2E/DX2                !
 ! A123  A(30,59,60)           109.2238         estimate D2E/DX2                !
 ! A124  A(30,59,61)           111.5712         estimate D2E/DX2                !
 ! A125  A(30,59,62)           111.7285         estimate D2E/DX2                !
 ! A126  A(60,59,61)           108.0151         estimate D2E/DX2                !
 ! A127  A(60,59,62)           107.7395         estimate D2E/DX2                !
 ! A128  A(61,59,62)           108.4206         estimate D2E/DX2                !
 ! A129  A(30,63,64)           111.9268         estimate D2E/DX2                !
 ! A130  A(30,63,65)           110.9325         estimate D2E/DX2                !
 ! A131  A(30,63,66)           109.1537         estimate D2E/DX2                !
 ! A132  A(64,63,65)           108.4991         estimate D2E/DX2                !
 ! A133  A(64,63,66)           107.8104         estimate D2E/DX2                !
 ! A134  A(65,63,66)           108.4076         estimate D2E/DX2                !
 ! A135  A(30,67,68)           110.8596         estimate D2E/DX2                !
 ! A136  A(30,67,69)           111.5935         estimate D2E/DX2                !
 ! A137  A(30,67,70)           109.5134         estimate D2E/DX2                !
 ! A138  A(68,67,69)           108.2673         estimate D2E/DX2                !
 ! A139  A(68,67,70)           108.3759         estimate D2E/DX2                !
 ! A140  A(69,67,70)           108.1343         estimate D2E/DX2                !
 ! A141  A(31,71,72)           111.1668         estimate D2E/DX2                !
 ! A142  A(31,71,73)           109.2806         estimate D2E/DX2                !
 ! A143  A(31,71,74)           110.6294         estimate D2E/DX2                !
 ! A144  A(72,71,73)           108.8029         estimate D2E/DX2                !
 ! A145  A(72,71,74)           108.7162         estimate D2E/DX2                !
 ! A146  A(73,71,74)           108.1758         estimate D2E/DX2                !
 ! A147  A(31,75,76)           111.6781         estimate D2E/DX2                !
 ! A148  A(31,75,77)           112.1164         estimate D2E/DX2                !
 ! A149  A(31,75,78)           108.7676         estimate D2E/DX2                !
 ! A150  A(76,75,77)           108.3936         estimate D2E/DX2                !
 ! A151  A(76,75,78)           107.9794         estimate D2E/DX2                !
 ! A152  A(77,75,78)           107.7492         estimate D2E/DX2                !
 ! A153  A(31,79,80)           108.9821         estimate D2E/DX2                !
 ! A154  A(31,79,81)           111.421          estimate D2E/DX2                !
 ! A155  A(31,79,82)           110.5045         estimate D2E/DX2                !
 ! A156  A(80,79,81)           108.913          estimate D2E/DX2                !
 ! A157  A(80,79,82)           108.0393         estimate D2E/DX2                !
 ! A158  A(81,79,82)           108.9052         estimate D2E/DX2                !
 ! D1    D(6,1,2,3)             -0.3188         estimate D2E/DX2                !
 ! D2    D(6,1,2,21)           179.3559         estimate D2E/DX2                !
 ! D3    D(36,1,2,3)          -179.6098         estimate D2E/DX2                !
 ! D4    D(36,1,2,21)            0.065          estimate D2E/DX2                !
 ! D5    D(2,1,6,5)              0.2026         estimate D2E/DX2                !
 ! D6    D(2,1,6,38)           179.921          estimate D2E/DX2                !
 ! D7    D(36,1,6,5)           179.2948         estimate D2E/DX2                !
 ! D8    D(36,1,6,38)           -0.9867         estimate D2E/DX2                !
 ! D9    D(2,1,36,7)             0.1668         estimate D2E/DX2                !
 ! D10   D(2,1,36,37)          178.8527         estimate D2E/DX2                !
 ! D11   D(6,1,36,7)          -179.0433         estimate D2E/DX2                !
 ! D12   D(6,1,36,37)           -0.3573         estimate D2E/DX2                !
 ! D13   D(1,2,3,4)              0.4039         estimate D2E/DX2                !
 ! D14   D(1,2,3,8)           -179.8959         estimate D2E/DX2                !
 ! D15   D(21,2,3,4)          -179.1906         estimate D2E/DX2                !
 ! D16   D(21,2,3,8)             0.5096         estimate D2E/DX2                !
 ! D17   D(1,2,21,7)            -0.2746         estimate D2E/DX2                !
 ! D18   D(3,2,21,7)           179.3526         estimate D2E/DX2                !
 ! D19   D(2,3,4,5)             -0.4051         estimate D2E/DX2                !
 ! D20   D(2,3,4,9)            179.9501         estimate D2E/DX2                !
 ! D21   D(8,3,4,5)            179.897          estimate D2E/DX2                !
 ! D22   D(8,3,4,9)              0.2522         estimate D2E/DX2                !
 ! D23   D(3,4,5,6)              0.3099         estimate D2E/DX2                !
 ! D24   D(3,4,5,10)          -179.8726         estimate D2E/DX2                !
 ! D25   D(9,4,5,6)            179.9565         estimate D2E/DX2                !
 ! D26   D(9,4,5,10)            -0.226          estimate D2E/DX2                !
 ! D27   D(4,5,6,1)             -0.1936         estimate D2E/DX2                !
 ! D28   D(4,5,6,38)          -179.9112         estimate D2E/DX2                !
 ! D29   D(10,5,6,1)           179.9875         estimate D2E/DX2                !
 ! D30   D(10,5,6,38)            0.2699         estimate D2E/DX2                !
 ! D31   D(1,6,38,39)         -179.8051         estimate D2E/DX2                !
 ! D32   D(1,6,38,40)            0.3241         estimate D2E/DX2                !
 ! D33   D(5,6,38,39)           -0.105          estimate D2E/DX2                !
 ! D34   D(5,6,38,40)         -179.9757         estimate D2E/DX2                !
 ! D35   D(21,7,16,11)           1.0659         estimate D2E/DX2                !
 ! D36   D(21,7,16,15)         179.8737         estimate D2E/DX2                !
 ! D37   D(36,7,16,11)        -178.0075         estimate D2E/DX2                !
 ! D38   D(36,7,16,15)           0.8003         estimate D2E/DX2                !
 ! D39   D(16,7,21,2)         -178.787          estimate D2E/DX2                !
 ! D40   D(36,7,21,2)            0.3911         estimate D2E/DX2                !
 ! D41   D(16,7,36,1)          178.8021         estimate D2E/DX2                !
 ! D42   D(16,7,36,37)           0.2678         estimate D2E/DX2                !
 ! D43   D(21,7,36,1)           -0.36           estimate D2E/DX2                !
 ! D44   D(21,7,36,37)        -178.8944         estimate D2E/DX2                !
 ! D45   D(16,11,12,13)          1.0138         estimate D2E/DX2                !
 ! D46   D(16,11,12,34)       -179.1762         estimate D2E/DX2                !
 ! D47   D(33,11,12,13)       -179.4231         estimate D2E/DX2                !
 ! D48   D(33,11,12,34)          0.3868         estimate D2E/DX2                !
 ! D49   D(12,11,16,7)         177.9198         estimate D2E/DX2                !
 ! D50   D(12,11,16,15)         -1.0038         estimate D2E/DX2                !
 ! D51   D(33,11,16,7)          -1.5325         estimate D2E/DX2                !
 ! D52   D(33,11,16,15)        179.5439         estimate D2E/DX2                !
 ! D53   D(12,11,33,17)         -0.34           estimate D2E/DX2                !
 ! D54   D(12,11,33,35)       -179.1408         estimate D2E/DX2                !
 ! D55   D(16,11,33,17)        179.178          estimate D2E/DX2                !
 ! D56   D(16,11,33,35)          0.3772         estimate D2E/DX2                !
 ! D57   D(11,12,13,14)         -0.1862         estimate D2E/DX2                !
 ! D58   D(11,12,13,18)        179.7973         estimate D2E/DX2                !
 ! D59   D(34,12,13,14)       -179.9351         estimate D2E/DX2                !
 ! D60   D(34,12,13,18)          0.0484         estimate D2E/DX2                !
 ! D61   D(11,12,34,17)         -0.3069         estimate D2E/DX2                !
 ! D62   D(11,12,34,58)        176.9734         estimate D2E/DX2                !
 ! D63   D(13,12,34,17)        179.4704         estimate D2E/DX2                !
 ! D64   D(13,12,34,58)         -3.2493         estimate D2E/DX2                !
 ! D65   D(12,13,14,15)         -0.573          estimate D2E/DX2                !
 ! D66   D(12,13,14,19)        179.6741         estimate D2E/DX2                !
 ! D67   D(18,13,14,15)        179.4435         estimate D2E/DX2                !
 ! D68   D(18,13,14,19)         -0.3093         estimate D2E/DX2                !
 ! D69   D(13,14,15,16)          0.5568         estimate D2E/DX2                !
 ! D70   D(13,14,15,20)       -179.5841         estimate D2E/DX2                !
 ! D71   D(19,14,15,16)       -179.6893         estimate D2E/DX2                !
 ! D72   D(19,14,15,20)          0.1698         estimate D2E/DX2                !
 ! D73   D(14,15,16,7)        -178.6057         estimate D2E/DX2                !
 ! D74   D(14,15,16,11)          0.2373         estimate D2E/DX2                !
 ! D75   D(20,15,16,7)           1.536          estimate D2E/DX2                !
 ! D76   D(20,15,16,11)       -179.621          estimate D2E/DX2                !
 ! D77   D(33,17,23,22)        173.9806         estimate D2E/DX2                !
 ! D78   D(33,17,23,24)         -6.4793         estimate D2E/DX2                !
 ! D79   D(34,17,23,22)         -6.4164         estimate D2E/DX2                !
 ! D80   D(34,17,23,24)        173.1238         estimate D2E/DX2                !
 ! D81   D(23,17,33,11)        179.812          estimate D2E/DX2                !
 ! D82   D(23,17,33,35)         -1.5436         estimate D2E/DX2                !
 ! D83   D(34,17,33,11)          0.1508         estimate D2E/DX2                !
 ! D84   D(34,17,33,35)        178.7953         estimate D2E/DX2                !
 ! D85   D(23,17,34,12)       -179.5623         estimate D2E/DX2                !
 ! D86   D(23,17,34,58)          2.8122         estimate D2E/DX2                !
 ! D87   D(33,17,34,12)          0.1035         estimate D2E/DX2                !
 ! D88   D(33,17,34,58)       -177.522          estimate D2E/DX2                !
 ! D89   D(27,22,23,17)       -179.5635         estimate D2E/DX2                !
 ! D90   D(27,22,23,24)          0.8982         estimate D2E/DX2                !
 ! D91   D(32,22,23,17)          0.4462         estimate D2E/DX2                !
 ! D92   D(32,22,23,24)       -179.092          estimate D2E/DX2                !
 ! D93   D(23,22,27,26)         -0.6561         estimate D2E/DX2                !
 ! D94   D(23,22,27,31)        179.5715         estimate D2E/DX2                !
 ! D95   D(32,22,27,26)        179.3339         estimate D2E/DX2                !
 ! D96   D(32,22,27,31)         -0.4385         estimate D2E/DX2                !
 ! D97   D(17,23,24,25)       -179.7504         estimate D2E/DX2                !
 ! D98   D(17,23,24,28)         -0.6202         estimate D2E/DX2                !
 ! D99   D(22,23,24,25)         -0.2178         estimate D2E/DX2                !
 ! D100  D(22,23,24,28)        178.9124         estimate D2E/DX2                !
 ! D101  D(23,24,25,26)         -0.6997         estimate D2E/DX2                !
 ! D102  D(23,24,25,30)        177.7917         estimate D2E/DX2                !
 ! D103  D(28,24,25,26)       -179.8396         estimate D2E/DX2                !
 ! D104  D(28,24,25,30)         -1.3482         estimate D2E/DX2                !
 ! D105  D(24,25,26,27)          0.959          estimate D2E/DX2                !
 ! D106  D(24,25,26,29)       -179.5491         estimate D2E/DX2                !
 ! D107  D(30,25,26,27)       -177.4776         estimate D2E/DX2                !
 ! D108  D(30,25,26,29)          2.0143         estimate D2E/DX2                !
 ! D109  D(24,25,30,59)        177.03           estimate D2E/DX2                !
 ! D110  D(24,25,30,63)         56.0574         estimate D2E/DX2                !
 ! D111  D(24,25,30,67)        -62.7659         estimate D2E/DX2                !
 ! D112  D(26,25,30,59)         -4.542          estimate D2E/DX2                !
 ! D113  D(26,25,30,63)       -125.5145         estimate D2E/DX2                !
 ! D114  D(26,25,30,67)        115.6621         estimate D2E/DX2                !
 ! D115  D(25,26,27,22)         -0.2604         estimate D2E/DX2                !
 ! D116  D(25,26,27,31)        179.5069         estimate D2E/DX2                !
 ! D117  D(29,26,27,22)       -179.7489         estimate D2E/DX2                !
 ! D118  D(29,26,27,31)          0.0184         estimate D2E/DX2                !
 ! D119  D(22,27,31,71)        -61.5635         estimate D2E/DX2                !
 ! D120  D(22,27,31,75)        178.6092         estimate D2E/DX2                !
 ! D121  D(22,27,31,79)         59.1153         estimate D2E/DX2                !
 ! D122  D(26,27,31,71)        118.6727         estimate D2E/DX2                !
 ! D123  D(26,27,31,75)         -1.1545         estimate D2E/DX2                !
 ! D124  D(26,27,31,79)       -120.6485         estimate D2E/DX2                !
 ! D125  D(25,30,59,60)       -179.9546         estimate D2E/DX2                !
 ! D126  D(25,30,59,61)        -60.6103         estimate D2E/DX2                !
 ! D127  D(25,30,59,62)         60.9458         estimate D2E/DX2                !
 ! D128  D(63,30,59,60)        -58.5946         estimate D2E/DX2                !
 ! D129  D(63,30,59,61)         60.7497         estimate D2E/DX2                !
 ! D130  D(63,30,59,62)       -177.6942         estimate D2E/DX2                !
 ! D131  D(67,30,59,60)         60.293          estimate D2E/DX2                !
 ! D132  D(67,30,59,61)        179.6373         estimate D2E/DX2                !
 ! D133  D(67,30,59,62)        -58.8066         estimate D2E/DX2                !
 ! D134  D(25,30,63,64)        -59.7679         estimate D2E/DX2                !
 ! D135  D(25,30,63,65)         61.5762         estimate D2E/DX2                !
 ! D136  D(25,30,63,66)       -179.0333         estimate D2E/DX2                !
 ! D137  D(59,30,63,64)        177.0757         estimate D2E/DX2                !
 ! D138  D(59,30,63,65)        -61.5802         estimate D2E/DX2                !
 ! D139  D(59,30,63,66)         57.8103         estimate D2E/DX2                !
 ! D140  D(67,30,63,64)         58.3804         estimate D2E/DX2                !
 ! D141  D(67,30,63,65)        179.7245         estimate D2E/DX2                !
 ! D142  D(67,30,63,66)        -60.885          estimate D2E/DX2                !
 ! D143  D(25,30,67,68)        -61.1449         estimate D2E/DX2                !
 ! D144  D(25,30,67,69)         59.6239         estimate D2E/DX2                !
 ! D145  D(25,30,67,70)        179.3199         estimate D2E/DX2                !
 ! D146  D(59,30,67,68)         61.2454         estimate D2E/DX2                !
 ! D147  D(59,30,67,69)       -177.9858         estimate D2E/DX2                !
 ! D148  D(59,30,67,70)        -58.2898         estimate D2E/DX2                !
 ! D149  D(63,30,67,68)        179.8694         estimate D2E/DX2                !
 ! D150  D(63,30,67,69)        -59.3618         estimate D2E/DX2                !
 ! D151  D(63,30,67,70)         60.3342         estimate D2E/DX2                !
 ! D152  D(27,31,71,72)         60.6345         estimate D2E/DX2                !
 ! D153  D(27,31,71,73)       -179.2582         estimate D2E/DX2                !
 ! D154  D(27,31,71,74)        -60.2586         estimate D2E/DX2                !
 ! D155  D(75,31,71,72)       -177.4078         estimate D2E/DX2                !
 ! D156  D(75,31,71,73)        -57.3006         estimate D2E/DX2                !
 ! D157  D(75,31,71,74)         61.699          estimate D2E/DX2                !
 ! D158  D(79,31,71,72)        -60.0121         estimate D2E/DX2                !
 ! D159  D(79,31,71,73)         60.0952         estimate D2E/DX2                !
 ! D160  D(79,31,71,74)        179.0947         estimate D2E/DX2                !
 ! D161  D(27,31,75,76)        -59.8563         estimate D2E/DX2                !
 ! D162  D(27,31,75,77)         62.0188         estimate D2E/DX2                !
 ! D163  D(27,31,75,78)       -178.9273         estimate D2E/DX2                !
 ! D164  D(71,31,75,76)        179.7092         estimate D2E/DX2                !
 ! D165  D(71,31,75,77)        -58.4157         estimate D2E/DX2                !
 ! D166  D(71,31,75,78)         60.6382         estimate D2E/DX2                !
 ! D167  D(79,31,75,76)         60.9028         estimate D2E/DX2                !
 ! D168  D(79,31,75,77)       -177.222          estimate D2E/DX2                !
 ! D169  D(79,31,75,78)        -58.1681         estimate D2E/DX2                !
 ! D170  D(27,31,79,80)        178.9926         estimate D2E/DX2                !
 ! D171  D(27,31,79,81)        -60.7983         estimate D2E/DX2                !
 ! D172  D(27,31,79,82)         60.4203         estimate D2E/DX2                !
 ! D173  D(71,31,79,80)        -60.6991         estimate D2E/DX2                !
 ! D174  D(71,31,79,81)         59.51           estimate D2E/DX2                !
 ! D175  D(71,31,79,82)       -179.2714         estimate D2E/DX2                !
 ! D176  D(75,31,79,80)         57.0465         estimate D2E/DX2                !
 ! D177  D(75,31,79,81)        177.2555         estimate D2E/DX2                !
 ! D178  D(75,31,79,82)        -61.5259         estimate D2E/DX2                !
 ! D179  D(6,38,40,41)         179.9277         estimate D2E/DX2                !
 ! D180  D(39,38,40,41)          0.0664         estimate D2E/DX2                !
 ! D181  D(38,40,41,42)        -62.154          estimate D2E/DX2                !
 ! D182  D(38,40,41,43)         63.2822         estimate D2E/DX2                !
 ! D183  D(38,40,41,44)       -179.4423         estimate D2E/DX2                !
 ! D184  D(40,41,42,45)       -177.7868         estimate D2E/DX2                !
 ! D185  D(40,41,42,46)         61.6589         estimate D2E/DX2                !
 ! D186  D(40,41,42,47)        -55.0189         estimate D2E/DX2                !
 ! D187  D(43,41,42,45)         55.8776         estimate D2E/DX2                !
 ! D188  D(43,41,42,46)        -64.6767         estimate D2E/DX2                !
 ! D189  D(43,41,42,47)        178.6455         estimate D2E/DX2                !
 ! D190  D(44,41,42,45)        -61.342          estimate D2E/DX2                !
 ! D191  D(44,41,42,46)        178.1038         estimate D2E/DX2                !
 ! D192  D(44,41,42,47)         61.4259         estimate D2E/DX2                !
 ! D193  D(40,41,43,48)        177.7524         estimate D2E/DX2                !
 ! D194  D(40,41,43,49)        -61.6695         estimate D2E/DX2                !
 ! D195  D(40,41,43,50)         55.078          estimate D2E/DX2                !
 ! D196  D(42,41,43,48)        -55.9243         estimate D2E/DX2                !
 ! D197  D(42,41,43,49)         64.6538         estimate D2E/DX2                !
 ! D198  D(42,41,43,50)       -178.5987         estimate D2E/DX2                !
 ! D199  D(44,41,43,48)         61.3078         estimate D2E/DX2                !
 ! D200  D(44,41,43,49)       -178.114          estimate D2E/DX2                !
 ! D201  D(44,41,43,50)        -61.3666         estimate D2E/DX2                !
 ! D202  D(41,42,45,51)        -55.9237         estimate D2E/DX2                !
 ! D203  D(41,42,45,52)       -178.6639         estimate D2E/DX2                !
 ! D204  D(41,42,45,53)         64.6303         estimate D2E/DX2                !
 ! D205  D(46,42,45,51)         64.2459         estimate D2E/DX2                !
 ! D206  D(46,42,45,52)        -58.4943         estimate D2E/DX2                !
 ! D207  D(46,42,45,53)       -175.2001         estimate D2E/DX2                !
 ! D208  D(47,42,45,51)       -177.8761         estimate D2E/DX2                !
 ! D209  D(47,42,45,52)         59.3837         estimate D2E/DX2                !
 ! D210  D(47,42,45,53)        -57.3221         estimate D2E/DX2                !
 ! D211  D(41,43,48,51)         56.0109         estimate D2E/DX2                !
 ! D212  D(41,43,48,54)        178.7933         estimate D2E/DX2                !
 ! D213  D(41,43,48,55)        -64.5088         estimate D2E/DX2                !
 ! D214  D(49,43,48,51)        -64.2034         estimate D2E/DX2                !
 ! D215  D(49,43,48,54)         58.579          estimate D2E/DX2                !
 ! D216  D(49,43,48,55)        175.2768         estimate D2E/DX2                !
 ! D217  D(50,43,48,51)        177.954          estimate D2E/DX2                !
 ! D218  D(50,43,48,54)        -59.2637         estimate D2E/DX2                !
 ! D219  D(50,43,48,55)         57.4342         estimate D2E/DX2                !
 ! D220  D(42,45,51,48)         55.568          estimate D2E/DX2                !
 ! D221  D(42,45,51,56)        178.1439         estimate D2E/DX2                !
 ! D222  D(42,45,51,57)        -64.7326         estimate D2E/DX2                !
 ! D223  D(52,45,51,48)        177.8283         estimate D2E/DX2                !
 ! D224  D(52,45,51,56)        -59.5958         estimate D2E/DX2                !
 ! D225  D(52,45,51,57)         57.5277         estimate D2E/DX2                !
 ! D226  D(53,45,51,48)        -65.037          estimate D2E/DX2                !
 ! D227  D(53,45,51,56)         57.5389         estimate D2E/DX2                !
 ! D228  D(53,45,51,57)        174.6624         estimate D2E/DX2                !
 ! D229  D(43,48,51,45)        -55.601          estimate D2E/DX2                !
 ! D230  D(43,48,51,56)       -178.1732         estimate D2E/DX2                !
 ! D231  D(43,48,51,57)         64.6633         estimate D2E/DX2                !
 ! D232  D(54,48,51,45)       -177.9622         estimate D2E/DX2                !
 ! D233  D(54,48,51,56)         59.4655         estimate D2E/DX2                !
 ! D234  D(54,48,51,57)        -57.698          estimate D2E/DX2                !
 ! D235  D(55,48,51,45)         64.9158         estimate D2E/DX2                !
 ! D236  D(55,48,51,56)        -57.6565         estimate D2E/DX2                !
 ! D237  D(55,48,51,57)       -174.8199         estimate D2E/DX2                !
 --------------------------------------------------------------------------------
 Trust Radius=3.00D-01 FncErr=5.00D-06 GrdErr=5.00D-06 EigMax=2.50D+02 EigMin=1.00D-04
 Number of steps in this run=    492 maximum allowed number of steps=    492.
 GradGradGradGradGradGradGradGradGradGradGradGradGradGradGradGradGradGrad

 Leave Link  103 at Fri Dec 21 14:01:05 2018, MaxMem=  1342177280 cpu:               0.6 elap:               0.1
 (Enter /gpfs/apps/hpc/Apps/Restricted/Gaussian/Rev_A.03/g16/l202.exe)
 Symmetry turned off by external request.
 Stoichiometry    C35H41N5O(1+,2)
 Framework group  C1[X(C35H41N5O)]
 Deg. of freedom   240
 Full point group                 C1      NOp   1
                          Input orientation:                          
 ---------------------------------------------------------------------
 Center     Atomic      Atomic             Coordinates (Angstroms)
 Number     Number       Type             X           Y           Z
 ---------------------------------------------------------------------
      1          6           0        1.544444    1.095848   -0.051665
      2          6           0        0.306818    1.773909   -0.129153
      3          6           0        0.283341    3.163491   -0.309520
      4          6           0        1.504058    3.825007   -0.414714
      5          6           0        2.727063    3.133936   -0.335477
      6          6           0        2.783196    1.748067   -0.153649
      7          6           0       -0.136172   -0.327905    0.129720
      8          1           0       -0.656922    3.698350   -0.369246
      9          1           0        1.517485    4.899365   -0.555490
     10          1           0        3.657122    3.685289   -0.419961
     11          6           0       -2.278139   -1.534629    0.220001
     12          6           0       -3.070012   -2.691845    0.296456
     13          6           0       -2.494973   -3.955313    0.440265
     14          6           0       -1.104240   -3.998364    0.498552
     15          6           0       -0.309799   -2.840712    0.406288
     16          6           0       -0.876061   -1.571531    0.261253
     17          6           0       -4.412252   -0.909159    0.085186
     18          1           0       -3.098734   -4.850629    0.503063
     19          1           0       -0.612829   -4.956133    0.615141
     20          1           0        0.767604   -2.940784    0.451601
     21          7           0       -0.726106    0.859064   -0.008890
     22          6           0       -6.909029   -0.772199   -0.154003
     23          6           0       -5.606002   -0.103524   -0.025275
     24          6           0       -5.520727    1.272420   -0.000232
     25          6           0       -6.673547    2.081028   -0.101259
     26          6           0       -7.927450    1.449850   -0.244850
     27          6           0       -8.098564    0.078571   -0.273781
     28          1           0       -4.556271    1.751700    0.112747
     29          1           0       -8.799574    2.078725   -0.328449
     30          6           0       -6.524791    3.594508   -0.016874
     31          6           0       -9.475988   -0.559735   -0.419910
     32          8           0       -6.981423   -2.027034   -0.159084
     33          7           0       -3.138042   -0.464939    0.095951
     34          7           0       -4.379568   -2.251662    0.204315
     35          1           0       -2.770430    0.483759    0.010548
     36          7           0        1.231225   -0.230038    0.114239
     37          1           0        1.944620   -0.947666    0.182051
     38          6           0        4.047556    1.024336   -0.068581
     39          1           0        4.949837    1.638520   -0.158411
     40          7           0        4.087581   -0.246382    0.097765
     41          6           0        5.415473   -0.878413    0.168648
     42          6           0        6.217129   -0.698209   -1.131580
     43          6           0        6.229553   -0.391763    1.379498
     44          1           0        5.235956   -1.951702    0.300747
     45          6           0        7.570612   -1.411486   -1.049254
     46          1           0        6.378877    0.373159   -1.301227
     47          1           0        5.630530   -1.072105   -1.975971
     48          6           0        7.582746   -1.106709    1.458285
     49          1           0        6.392408    0.688626    1.285396
     50          1           0        5.652759   -0.551300    2.295287
     51          6           0        8.380126   -0.933134    0.161113
     52          1           0        8.130810   -1.249016   -1.974941
     53          1           0        7.404253   -2.492910   -0.965717
     54          1           0        8.152511   -0.730039    2.313102
     55          1           0        7.414700   -2.176397    1.637091
     56          1           0        9.328228   -1.476161    0.222484
     57          1           0        8.628185    0.127906    0.030297
     58          1           0       -5.252851   -2.776503    0.177687
     59          6           0       -7.858748    4.325319   -0.216881
     60          1           0       -7.692620    5.402336   -0.147339
     61          1           0       -8.290298    4.112548   -1.198198
     62          1           0       -8.589063    4.050968    0.548364
     63          6           0       -5.529280    4.073943   -1.094980
     64          1           0       -4.542725    3.622441   -0.968839
     65          1           0       -5.894081    3.835512   -2.096744
     66          1           0       -5.412991    5.157927   -1.018992
     67          6           0       -5.967030    3.945125    1.381647
     68          1           0       -6.652995    3.619136    2.166971
     69          1           0       -4.997045    3.474413    1.557188
     70          1           0       -5.839563    5.027547    1.462989
     71          6           0       -9.515274   -1.398385   -1.717217
     72          1           0       -8.772271   -2.194523   -1.693536
     73          1           0      -10.506821   -1.845005   -1.828421
     74          1           0       -9.325704   -0.767566   -2.589450
     75          6           0      -10.588152    0.496896   -0.495892
     76          1           0      -10.613857    1.121144    0.400776
     77          1           0      -10.478054    1.148368   -1.366656
     78          1           0      -11.550965   -0.011790   -0.580254
     79          6           0       -9.768528   -1.463580    0.800807
     80          1           0      -10.765138   -1.899004    0.690154
     81          1           0       -9.039638   -2.267402    0.883948
     82          1           0       -9.755842   -0.877188    1.723194
 ---------------------------------------------------------------------
 Rotational constants (GHZ):           0.1791792           0.0307665           0.0269107
 Leave Link  202 at Fri Dec 21 14:01:05 2018, MaxMem=  1342177280 cpu:               0.2 elap:               0.0
 (Enter /gpfs/apps/hpc/Apps/Restricted/Gaussian/Rev_A.03/g16/l301.exe)
 Standard basis: 6-31G(d,p) (6D, 7F)
 Ernie: Thresh=  0.10000D-02 Tol=  0.10000D-05 Strict=F.
   820 basis functions,  1435 primitive gaussians,   820 cartesian basis functions
   147 alpha electrons      146 beta electrons
       nuclear repulsion energy      4418.5472309528 Hartrees.
 IExCor=  402 DFT=T Ex+Corr=B3LYP ExCW=0 ScaHFX=  0.200000
 ScaDFX=  0.800000  0.720000  1.000000  0.810000 ScalE2=  1.000000  1.000000
 IRadAn=      5 IRanWt=     -1 IRanGd=            0 ICorTp=0 IEmpDi=141
 NAtoms=   82 NActive=   82 NUniq=   82 SFac= 1.00D+00 NAtFMM=   60 NAOKFM=T Big=T
 Integral buffers will be    131072 words long.
 Raffenetti 2 integral format.
 Two-electron integral symmetry is turned off.
 R6Disp:  Grimme-D3(BJ) Dispersion energy=       -0.1859881382 Hartrees.
 Nuclear repulsion after empirical dispersion term =     4418.3612428146 Hartrees.
 Using the following non-standard input for PCM:
 radii=bondi
 dis
 rep
 cav
 --- end of non-standard input.
 ------------------------------------------------------------------------------
 Polarizable Continuum Model (PCM)
 =================================
 Model                : C-PCM.
 Atomic radii         : Bondi.
 Polarization charges : Total charges.
 Charge compensation  : None.
 Solution method      : On-the-fly selection.
 Cavity type          : Scaled VdW (van der Waals Surface) (Alpha=1.100).
 Cavity algorithm     : GePol (No added spheres)
                        Default sphere list used, NSphG=   82.
                        Lebedev-Laikov grids with approx.  5.0 points / Ang**2.
                        Smoothing algorithm: York/Karplus (Gamma=1.0000).
                        Polarization charges: spherical gaussians, with
                                              point-specific exponents (IZeta= 3).
                        Self-potential: point-specific (ISelfS= 7).
                        Self-field    : sphere-specific E.n sum rule (ISelfD= 2).
 1st derivatives      : Analytical E(r).r(x)/FMM algorithm (CHGder, D1EAlg=3).
                        Cavity 1st derivative terms included.
 Solvent              : Dichloromethane, Eps=   8.930000 Eps(inf)=   2.028346
 ------------------------------------------------------------------------------
 GePol: Number of generator spheres                  =      82
 GePol: Total number of spheres                      =      82
 GePol: Number of exposed spheres                    =      82 (100.00%)
 GePol: Number of points                             =    5278
 GePol: Average weight of points                     =       0.12
 GePol: Minimum weight of points                     =   0.51D-10
 GePol: Maximum weight of points                     =    0.21770
 GePol: Number of points with low weight             =     357
 GePol: Fraction of low-weight points (<1% of avg)   =       6.76%
 GePol: Cavity surface area                          =    623.987 Ang**2
 GePol: Cavity volume                                =    610.626 Ang**3
 PCM non-electrostatic energy =         0.0286985616 Hartrees.
 Nuclear repulsion after PCM non-electrostatic terms =     4418.3899413762 Hartrees.
 Leave Link  301 at Fri Dec 21 14:01:06 2018, MaxMem=  1342177280 cpu:               3.8 elap:               0.3
 (Enter /gpfs/apps/hpc/Apps/Restricted/Gaussian/Rev_A.03/g16/l302.exe)
 NPDir=0 NMtPBC=     1 NCelOv=     1 NCel=       1 NClECP=     1 NCelD=      1
         NCelK=      1 NCelE2=     1 NClLst=     1 CellRange=     0.0.
 One-electron integrals computed using PRISM.
 NBasis=   820 RedAO= T EigKep=  2.72D-04  NBF=   820
 NBsUse=   820 1.00D-06 EigRej= -1.00D+00 NBFU=   820
 Precomputing XC quadrature grid using
 IXCGrd= 4 IRadAn=           5 IRanWt=          -1 IRanGd=           0 AccXCQ= 0.00D+00.
 Generated NRdTot=       0 NPtTot=           0 NUsed=           0 NTot=          32
 NSgBfM=   750   750   750   750   750 MxSgAt=    82 MxSgA2=    82.
 Leave Link  302 at Fri Dec 21 14:01:07 2018, MaxMem=  1342177280 cpu:              25.7 elap:               1.7
 (Enter /gpfs/apps/hpc/Apps/Restricted/Gaussian/Rev_A.03/g16/l303.exe)
 DipDrv:  MaxL=1.
 Leave Link  303 at Fri Dec 21 14:01:08 2018, MaxMem=  1342177280 cpu:               1.6 elap:               0.1
 (Enter /gpfs/apps/hpc/Apps/Restricted/Gaussian/Rev_A.03/g16/l401.exe)
 ExpMin= 1.61D-01 ExpMax= 5.48D+03 ExpMxC= 8.25D+02 IAcc=3 IRadAn=         5 AccDes= 0.00D+00
 Harris functional with IExCor=  402 and IRadAn=       5 diagonalized for initial guess.
 HarFok:  IExCor=  402 AccDes= 0.00D+00 IRadAn=         5 IDoV= 1 UseB2=F ITyADJ=14
 ICtDFT=  3500011 ScaDFX=  1.000000  1.000000  1.000000  1.000000
 FoFCou: FMM=F IPFlag=           0 FMFlag=      100000 FMFlg1=        2001
         NFxFlg=           0 DoJE=T BraDBF=F KetDBF=T FulRan=T
         wScrn=  0.000000 ICntrl=       500 IOpCl=  0 I1Cent=   200000004 NGrid=           0
         NMat0=    1 NMatS0=      1 NMatT0=    0 NMatD0=    1 NMtDS0=    0 NMtDT0=    0
 Symmetry not used in FoFCou.
 Harris En= -1707.47588368615    
 JPrj=0 DoOrth=F DoCkMO=F.
 Initial guess <Sx>= 0.0000 <Sy>= 0.0000 <Sz>= 0.5000 <S**2>= 0.7500 S= 0.5000
 Leave Link  401 at Fri Dec 21 14:01:13 2018, MaxMem=  1342177280 cpu:              77.9 elap:               4.9
 (Enter /gpfs/apps/hpc/Apps/Restricted/Gaussian/Rev_A.03/g16/l502.exe)
 Two-electron integral symmetry not used.
 UHF open shell SCF:
 Using DIIS extrapolation, IDIIS=  1040.
 NGot=  1342177280 LenX=  1340812546 LenY=  1340139326
 Requested convergence on RMS density matrix=1.00D-08 within 128 cycles.
 Requested convergence on MAX density matrix=1.00D-06.
 Requested convergence on             energy=1.00D-06.
 No special actions if energy rises.
 Fock matrices will be formed incrementally for  20 cycles.

 Cycle   1  Pass 1  IDiag  1:
 FoFJK:  IHMeth= 1 ICntrl=       0 DoSepK=F KAlg= 0 I1Cent=           0 FoldK=F
 IRaf= 630000000 NMat=       1 IRICut=       1 DoRegI=T DoRafI=F ISym2E= 0 IDoP0=0 IntGTp=1.
 FoFCou: FMM=T IPFlag=           0 FMFlag=      100000 FMFlg1=        2001
         NFxFlg=           0 DoJE=F BraDBF=F KetDBF=F FulRan=T
         wScrn=  0.000000 ICntrl=         0 IOpCl=  1 I1Cent=           0 NGrid=           0
         NMat0=    1 NMatS0=      1 NMatT0=    0 NMatD0=    1 NMtDS0=    0 NMtDT0=    0
 Symmetry not used in FoFCou.
 FMM levels:  10  Number of levels for PrismC:   9
 Inv3:  Mode=1 IEnd=    83571852.
 Iteration    1 A*A^-1 deviation from unit magnitude is 1.51D-14 for   1923.
 Iteration    1 A*A^-1 deviation from orthogonality  is 4.85D-15 for   5277   2246.
 Iteration    1 A^-1*A deviation from unit magnitude is 1.51D-14 for   1923.
 Iteration    1 A^-1*A deviation from orthogonality  is 2.53D-15 for   5131   2146.
 E= -1706.57309207085    
 DIIS: error= 2.81D-02 at cycle   1 NSaved=   1.
 NSaved= 1 IEnMin= 1 EnMin= -1706.57309207085     IErMin= 1 ErrMin= 2.81D-02
 ErrMax= 2.81D-02  0.00D+00 EMaxC= 1.00D-01 BMatC= 3.71D+00 BMatP= 3.71D+00
 IDIUse=3 WtCom= 7.19D-01 WtEn= 2.81D-01
 Coeff-Com:  0.100D+01
 Coeff-En:   0.100D+01
 Coeff:      0.100D+01
 Gap=     0.148 Goal=   None    Shift=    0.000
 Gap=     0.057 Goal=   None    Shift=    0.000
 GapD=    0.057 DampG=0.500 DampE=0.500 DampFc=0.2500 IDamp=-1.
 Damping current iteration by 2.50D-01
 RMSDP=2.91D-03 MaxDP=1.80D-01              OVMax= 2.98D-01

 Cycle   2  Pass 1  IDiag  1:
 RMSU=  7.06D-04    CP:  9.84D-01
 E= -1706.92528032580     Delta-E=       -0.352188254952 Rises=F Damp=T
 DIIS: error= 1.47D-02 at cycle   2 NSaved=   2.
 NSaved= 2 IEnMin= 2 EnMin= -1706.92528032580     IErMin= 2 ErrMin= 1.47D-02
 ErrMax= 1.47D-02  0.00D+00 EMaxC= 1.00D-01 BMatC= 9.81D-01 BMatP= 3.71D+00
 IDIUse=3 WtCom= 8.53D-01 WtEn= 1.47D-01
 Coeff-Com: -0.829D+00 0.183D+01
 Coeff-En:   0.000D+00 0.100D+01
 Coeff:     -0.707D+00 0.171D+01
 Gap=     0.169 Goal=   None    Shift=    0.000
 Gap=     0.080 Goal=   None    Shift=    0.000
 RMSDP=1.12D-03 MaxDP=7.40D-02 DE=-3.52D-01 OVMax= 1.98D-01

 Cycle   3  Pass 1  IDiag  1:
 RMSU=  7.95D-04    CP:  9.51D-01  1.99D+00
 E= -1707.51184574840     Delta-E=       -0.586565422603 Rises=F Damp=F
 DIIS: error= 7.85D-03 at cycle   3 NSaved=   3.
 NSaved= 3 IEnMin= 3 EnMin= -1707.51184574840     IErMin= 3 ErrMin= 7.85D-03
 ErrMax= 7.85D-03  0.00D+00 EMaxC= 1.00D-01 BMatC= 1.70D-01 BMatP= 9.81D-01
 IDIUse=3 WtCom= 9.22D-01 WtEn= 7.85D-02
 Coeff-Com: -0.369D+00 0.793D+00 0.576D+00
 Coeff-En:   0.000D+00 0.000D+00 0.100D+01
 Coeff:     -0.340D+00 0.731D+00 0.609D+00
 Gap=     0.138 Goal=   None    Shift=    0.000
 Gap=     0.064 Goal=   None    Shift=    0.000
 RMSDP=4.18D-04 MaxDP=7.21D-02 DE=-5.87D-01 OVMax= 8.42D-02

 Cycle   4  Pass 1  IDiag  1:
 RMSU=  3.37D-04    CP:  9.55D-01  2.04D+00  6.96D-01
 E= -1707.53710681754     Delta-E=       -0.025261069144 Rises=F Damp=F
 DIIS: error= 7.21D-03 at cycle   4 NSaved=   4.
 NSaved= 4 IEnMin= 4 EnMin= -1707.53710681754     IErMin= 4 ErrMin= 7.21D-03
 ErrMax= 7.21D-03  0.00D+00 EMaxC= 1.00D-01 BMatC= 7.58D-02 BMatP= 1.70D-01
 IDIUse=3 WtCom= 9.28D-01 WtEn= 7.21D-02
 Coeff-Com: -0.669D-01 0.154D+00 0.395D+00 0.518D+00
 Coeff-En:   0.000D+00 0.000D+00 0.300D+00 0.700D+00
 Coeff:     -0.621D-01 0.143D+00 0.388D+00 0.531D+00
 Gap=     0.142 Goal=   None    Shift=    0.000
 Gap=     0.064 Goal=   None    Shift=    0.000
 RMSDP=2.01D-04 MaxDP=3.66D-02 DE=-2.53D-02 OVMax= 3.38D-02

 Cycle   5  Pass 1  IDiag  1:
 RMSU=  1.11D-04    CP:  9.54D-01  2.00D+00  7.91D-01  5.66D-01
 E= -1707.55196448167     Delta-E=       -0.014857664129 Rises=F Damp=F
 DIIS: error= 1.84D-03 at cycle   5 NSaved=   5.
 NSaved= 5 IEnMin= 5 EnMin= -1707.55196448167     IErMin= 5 ErrMin= 1.84D-03
 ErrMax= 1.84D-03  0.00D+00 EMaxC= 1.00D-01 BMatC= 5.63D-03 BMatP= 7.58D-02
 IDIUse=3 WtCom= 9.82D-01 WtEn= 1.84D-02
 Coeff-Com: -0.239D-02 0.110D-01 0.170D+00 0.302D+00 0.519D+00
 Coeff-En:   0.000D+00 0.000D+00 0.000D+00 0.000D+00 0.100D+01
 Coeff:     -0.234D-02 0.108D-01 0.167D+00 0.297D+00 0.528D+00
 Gap=     0.140 Goal=   None    Shift=    0.000
 Gap=     0.066 Goal=   None    Shift=    0.000
 RMSDP=6.17D-05 MaxDP=1.29D-02 DE=-1.49D-02 OVMax= 1.87D-02

 Cycle   6  Pass 1  IDiag  1:
 RMSU=  3.93D-05    CP:  9.54D-01  2.00D+00  8.03D-01  6.25D-01  6.23D-01
 E= -1707.55319603173     Delta-E=       -0.001231550054 Rises=F Damp=F
 DIIS: error= 5.10D-04 at cycle   6 NSaved=   6.
 NSaved= 6 IEnMin= 6 EnMin= -1707.55319603173     IErMin= 6 ErrMin= 5.10D-04
 ErrMax= 5.10D-04  0.00D+00 EMaxC= 1.00D-01 BMatC= 6.47D-04 BMatP= 5.63D-03
 IDIUse=3 WtCom= 9.95D-01 WtEn= 5.10D-03
 Coeff-Com:  0.502D-02-0.825D-02 0.534D-01 0.106D+00 0.299D+00 0.545D+00
 Coeff-En:   0.000D+00 0.000D+00 0.000D+00 0.000D+00 0.000D+00 0.100D+01
 Coeff:      0.499D-02-0.821D-02 0.531D-01 0.106D+00 0.298D+00 0.547D+00
 Gap=     0.141 Goal=   None    Shift=    0.000
 Gap=     0.067 Goal=   None    Shift=    0.000
 RMSDP=2.10D-05 MaxDP=3.43D-03 DE=-1.23D-03 OVMax= 7.88D-03

 Cycle   7  Pass 1  IDiag  1:
 RMSU=  1.72D-05    CP:  9.54D-01  2.00D+00  8.04D-01  6.25D-01  7.18D-01
                    CP:  8.64D-01
 E= -1707.55338239426     Delta-E=       -0.000186362532 Rises=F Damp=F
 DIIS: error= 1.90D-04 at cycle   7 NSaved=   7.
 NSaved= 7 IEnMin= 7 EnMin= -1707.55338239426     IErMin= 7 ErrMin= 1.90D-04
 ErrMax= 1.90D-04  0.00D+00 EMaxC= 1.00D-01 BMatC= 7.66D-05 BMatP= 6.47D-04
 IDIUse=3 WtCom= 9.98D-01 WtEn= 1.90D-03
 Coeff-Com:  0.237D-02-0.509D-02-0.111D-01-0.212D-01 0.239D-01 0.222D+00
 Coeff-Com:  0.789D+00
 Coeff-En:   0.000D+00 0.000D+00 0.000D+00 0.000D+00 0.000D+00 0.000D+00
 Coeff-En:   0.100D+01
 Coeff:      0.236D-02-0.508D-02-0.110D-01-0.211D-01 0.239D-01 0.222D+00
 Coeff:      0.789D+00
 Gap=     0.141 Goal=   None    Shift=    0.000
 Gap=     0.067 Goal=   None    Shift=    0.000
 RMSDP=1.20D-05 MaxDP=2.54D-03 DE=-1.86D-04 OVMax= 5.69D-03

 Cycle   8  Pass 1  IDiag  1:
 RMSU=  8.14D-06    CP:  9.54D-01  2.00D+00  8.06D-01  6.29D-01  7.56D-01
                    CP:  1.05D+00  1.04D+00
 E= -1707.55343470765     Delta-E=       -0.000052313391 Rises=F Damp=F
 DIIS: error= 1.06D-04 at cycle   8 NSaved=   8.
 NSaved= 8 IEnMin= 8 EnMin= -1707.55343470765     IErMin= 8 ErrMin= 1.06D-04
 ErrMax= 1.06D-04  0.00D+00 EMaxC= 1.00D-01 BMatC= 2.83D-05 BMatP= 7.66D-05
 IDIUse=3 WtCom= 9.99D-01 WtEn= 1.06D-03
 Coeff-Com: -0.419D-03 0.406D-03-0.207D-01-0.455D-01-0.793D-01-0.932D-01
 Coeff-Com:  0.373D+00 0.865D+00
 Coeff-En:   0.000D+00 0.000D+00 0.000D+00 0.000D+00 0.000D+00 0.000D+00
 Coeff-En:   0.000D+00 0.100D+01
 Coeff:     -0.418D-03 0.405D-03-0.206D-01-0.454D-01-0.792D-01-0.931D-01
 Coeff:      0.373D+00 0.866D+00
 Gap=     0.141 Goal=   None    Shift=    0.000
 Gap=     0.068 Goal=   None    Shift=    0.000
 RMSDP=9.43D-06 MaxDP=1.66D-03 DE=-5.23D-05 OVMax= 4.38D-03

 Cycle   9  Pass 1  IDiag  1:
 RMSU=  4.85D-06    CP:  9.54D-01  2.00D+00  8.07D-01  6.30D-01  7.86D-01
                    CP:  1.16D+00  1.38D+00  1.17D+00
 E= -1707.55345468834     Delta-E=       -0.000019980692 Rises=F Damp=F
 DIIS: error= 6.88D-05 at cycle   9 NSaved=   9.
 NSaved= 9 IEnMin= 9 EnMin= -1707.55345468834     IErMin= 9 ErrMin= 6.88D-05
 ErrMax= 6.88D-05  0.00D+00 EMaxC= 1.00D-01 BMatC= 1.09D-05 BMatP= 2.83D-05
 IDIUse=1 WtCom= 1.00D+00 WtEn= 0.00D+00
 Coeff-Com: -0.668D-03 0.129D-02-0.101D-01-0.243D-01-0.555D-01-0.128D+00
 Coeff-Com:  0.340D-01 0.551D+00 0.633D+00
 Coeff:     -0.668D-03 0.129D-02-0.101D-01-0.243D-01-0.555D-01-0.128D+00
 Coeff:      0.340D-01 0.551D+00 0.633D+00
 Gap=     0.141 Goal=   None    Shift=    0.000
 Gap=     0.068 Goal=   None    Shift=    0.000
 RMSDP=4.43D-06 MaxDP=8.39D-04 DE=-2.00D-05 OVMax= 1.73D-03

 Cycle  10  Pass 1  IDiag  1:
 RMSU=  2.21D-06    CP:  9.54D-01  2.00D+00  8.08D-01  6.29D-01  7.99D-01
[...]
 014,-0.00000245,0.00000840,-0.00000104,-0.00000198,-0.00000463,0.00000
 076,-0.00001405,-0.00000562,-0.00000126,-0.00000060,-0.00000022,-0.000
 00002,0.00000019,0.00000063,-0.00000008,0.00000056,0.00000043,-0.00000
 010,0.00003306,-0.00002420,-0.00000878,0.00002504,0.00001128,-0.000020
 19,-0.00001288,0.00002830,-0.00000209,0.00004162,0.00001139,0.00000068
 ,0.00000331,-0.00004352,0.00000468,-0.00003719,0.00000535,-0.00000022,
 -0.00015915,0.00008361,0.00003070,-0.00000194,-0.00000294,-0.00000005,
 0.00000291,-0.00000148,0.00000078,0.00000270,-0.00000069,0.00000075,0.
 00000757,0.00000284,0.00000051,-0.00110968,-0.00222022,0.00081194,0.00
 026662,0.00013633,-0.00033588,0.00002540,0.00004352,0.00007647,0.00007
 476,-0.00001168,-0.00000572,-0.00006991,-0.00003401,-0.00008216,0.0004
 5125,0.00030323,-0.00040348,0.00000660,0.00001657,0.00004900,0.0000111
 9,0.00003162,0.00000287,0.00003366,-0.00001165,0.00002470,0.00433003,-
 0.00645463,0.00069506,-0.00455618,0.00095849,0.00183025,0.00006225,0.0
 0003447,0.00000312,0.00003453,-0.00002905,0.00002686,-0.00002175,-0.00
 001965,0.00000068,0.00000753,0.00000012,0.00000008,-0.00000381,0.00000
 090,-0.00000019,-0.00000473,0.00000296,-0.00000035,0.00000105,0.000000
 23,-0.00000005,0.00000282,-0.00000332,0.00000042,-0.00000119,0.0000021
 1,-0.00000024,0.00000039,-0.00000056,0.00000078,0.00000041,-0.00000075
 ,-0.00000070,0.00000028,-0.00000043,0.00000004,-0.00000012,0.00000038,
 -0.00000042,-0.00000007,-0.00000001,-0.00000001,-0.00000007,0.00000005
 ,0.00000005,-0.00000014,0.00000049,0.00000029,-0.00000006,0.,0.0000000
 2,-0.00000009,0.00000003,-0.00000001,-0.00000010,-0.00000016,0.,0.0000
 0034,-0.00000009,-0.00000011,0.,-0.00000013,0.00000008,0.00000038,-0.0
 0000005,0.00000017,0.,-0.00000015,-0.00000005,0.00000031,-0.00000009,0
 .00000002,-0.00000004,0.00000004,0.,-0.00011298,0.00005973,-0.00002957
 ,0.00001276,0.00000890,0.00000382,-0.00000280,0.00000835,-0.00000060,-
 0.00000142,-0.00000136,0.00000101,-0.00000087,-0.00000156,-0.00000262,
 -0.00001979,0.00001252,0.00002239,0.00000010,-0.00000392,0.00000024,-0
 .00000038,-0.00000076,-0.00000288,0.00000788,0.00000714,-0.00000821,-0
 .00000820,0.00003168,-0.00002648,-0.00000204,-0.00000200,0.00000306,-0
 .00000325,-0.00000344,-0.00000370,0.00000288,0.00000835,0.00001537,0.0
 0002394,0.00013006,-0.00041293,0.00007673,-0.00004436,-0.00003241,-0.0
 0003640,0.00004303,-0.00000001,-0.00001160,-0.00009405,-0.00007863,0.0
 0026711,-0.00057226,0.00057626,-0.00015039,0.00002670,0.00011118,0.000
 51428,-0.00017186,0.00031423,0.00040541,-0.00000293,0.00012165,-0.1753
 5598,0.14161040,-0.01558770,-0.01683862,0.02094022,-0.00131205,0.19000
 615,0.00000514,0.00000290,-0.00000030,0.00000148,0.00000046,0.00000003
 ,-0.00000111,-0.00000597,0.00000071,0.00000767,0.00000050,-0.00000021,
 -0.00000178,0.00000700,-0.00000090,-0.00000181,-0.00000376,0.00000048,
 -0.00001136,-0.00000642,0.00000033,-0.00000053,-0.00000033,0.00000014,
 0.00000026,0.00000072,-0.00000004,0.00000053,0.00000036,-0.00000003,0.
 00002384,0.00000645,0.00000063,-0.00001132,0.00003939,0.00000487,-0.00
 000074,0.00001533,-0.00000169,0.00002144,0.00000349,-0.00000016,0.0000
 0569,-0.00001998,0.00000164,-0.00001631,0.00000232,-0.00000075,-0.0001
 1769,-0.00000614,-0.00001672,0.00000102,-0.00000065,0.00000016,0.00000
 260,-0.00000111,0.00000022,0.00000224,-0.00000059,0.00000007,0.0000075
 4,0.00000389,-0.00000098,-0.00090376,-0.00207716,0.00015498,-0.0000663
 9,0.00010250,0.00039602,-0.00006409,0.00024463,-0.00002719,0.00036723,
 -0.00007292,0.00004507,-0.00023259,-0.00032576,-0.00011959,0.00103119,
 0.00042443,-0.00044826,0.00001309,0.00003559,-0.00005852,0.00005762,0.
 00010698,0.00002935,0.00003245,-0.00000187,0.00004287,0.01195920,-0.01
 420685,0.00057812,0.00253213,0.00025767,-0.00174878,0.00006562,0.00001
 885,-0.00000120,0.00015550,-0.00002556,0.00002007,-0.00001799,-0.00001
 419,0.00000291,0.00000740,0.00000201,-0.00000022,-0.00000342,0.0000006
 0,0.00000025,-0.00000385,0.00000196,-0.00000020,0.00000095,0.00000026,
 0.,0.00000258,-0.00000220,0.00000008,-0.00000111,0.00000150,-0.0000001
 2,0.00000028,-0.00000055,0.00000070,0.00000023,-0.00000060,-0.00000041
 ,0.00000023,-0.00000020,0.,-0.00000016,0.00000026,-0.00000032,0.,0.000
 00009,-0.00000002,-0.00000005,0.00000001,0.00000004,-0.00000016,0.0000
 0025,0.00000026,-0.00000004,0.00000008,0.,0.,0.,-0.00000015,-0.0000000
 8,-0.00000018,0.00000008,0.00000035,-0.00000007,-0.00000017,0.,-0.0000
 0001,0.00000007,0.00000030,-0.00000005,0.00000012,0.00000002,0.,-0.000
 00006,0.00000026,-0.00000009,-0.00000002,-0.00000002,0.00000012,-0.000
 00003,-0.00019381,0.00011432,-0.00005476,0.00001795,0.00001019,0.00000
 074,-0.00000727,0.00000560,-0.00000145,-0.00000295,0.00000164,-0.00000
 654,-0.00000319,0.00000166,0.00000406,-0.00001820,0.00002233,0.0000200
 1,-0.00000968,-0.00000438,0.00000237,0.00000056,-0.00000124,-0.0000049
 7,0.00000479,0.00000822,-0.00000982,-0.00001205,0.00003827,-0.00003137
 ,-0.00000137,-0.00000315,0.00000432,-0.00000574,-0.00000521,-0.0000063
 4,0.00000388,0.00000839,0.00001697,-0.00006468,0.00061543,-0.00110639,
 -0.00011377,0.00023948,0.00001088,-0.00004758,0.00003678,0.00008759,-0
 .00021866,-0.00000636,-0.00006026,-0.00197690,-0.00167406,0.00374281,-
 0.00025187,0.00026894,-0.00005241,0.00110750,-0.00073589,0.00030094,0.
 00013805,0.00023221,-0.00006750,0.13767425,-0.20052189,0.01428871,-0.0
 0974664,0.01230313,-0.00090613,-0.15186686,0.21609434,-0.00000290,-0.0
 0000207,0.00000040,-0.00000140,-0.00000047,0.00000029,0.00000059,0.000
 00328,-0.00000058,-0.00000423,-0.00000035,0.,0.00000101,-0.00000385,0.
 00000041,0.00000107,0.00000204,-0.00000035,0.00000594,0.00000442,0.000
 00075,0.00000030,0.00000011,0.00000012,-0.00000014,-0.00000034,0.00000
 010,-0.00000026,-0.00000019,0.00000009,-0.00001637,-0.00000647,0.00000
 780,0.00001260,-0.00003015,0.00000891,-0.00000152,-0.00000750,-0.00000
 022,-0.00001076,-0.00000039,-0.00000061,-0.00000335,0.00001042,-0.0000
 0165,0.00000829,-0.00000264,0.00000062,0.00011493,0.00001432,0.0000094
 8,-0.00000004,0.00000127,0.00000211,-0.00000167,0.00000074,0.00000002,
 -0.00000135,0.00000031,-0.00000015,-0.00000393,-0.00000255,-0.00000085
 ,0.00026501,0.00206838,-0.00032953,0.00000810,-0.00025259,-0.00000206,
 -0.00000576,-0.00013738,-0.00001642,-0.00026232,0.00001061,-0.00003090
 ,0.00019587,0.00032707,0.00014882,-0.00054027,-0.00113108,0.00056715,-
 0.00000296,-0.00003130,-0.00000030,-0.00005539,-0.00009829,-0.00003048
 ,-0.00001392,0.00000028,-0.00003106,-0.01816103,0.01832756,-0.00255300
 ,0.00028866,-0.00143596,-0.00006482,-0.00004802,-0.00001876,-0.0000055
 8,-0.00011509,0.00002727,-0.00003594,0.00001020,0.00000953,0.00000099,
 -0.00000387,-0.00000098,-0.00000019,0.00000175,-0.00000029,0.00000043,
 0.00000193,-0.00000110,0.00000017,-0.00000048,-0.00000010,0.00000008,-
 0.00000124,0.00000119,-0.00000041,0.00000051,-0.00000076,0.00000021,-0
 .00000013,0.00000030,-0.00000025,-0.00000018,0.00000030,0.00000035,-0.
 00000012,0.00000012,0.00000001,0.00000008,-0.00000011,0.00000016,0.000
 00002,-0.00000003,0.,-0.00000002,-0.00000003,-0.00000010,0.00000005,-0
 .00000015,-0.00000014,0.00000001,-0.00000003,0.,0.00000006,0.,-0.00000
 005,0.00000004,0.00000008,0.00000003,-0.00000012,0.00000004,0.00000001
 ,0.,0.,-0.00000001,-0.00000019,0.,-0.00000010,0.,0.00000003,0.00000004
 ,-0.00000011,0.00000004,-0.00000002,0.,-0.00000005,0.,0.00016214,-0.00
 008889,0.00006240,-0.00000801,-0.00000608,-0.00000332,0.00000431,-0.00
 000257,0.00000124,0.00000052,-0.00000225,0.00000497,0.00000159,-0.0000
 0100,-0.00000255,0.00000908,-0.00000528,-0.00000935,0.00000431,0.00000
 255,-0.00000091,-0.00000044,0.00000051,0.00000230,-0.00000204,-0.00000
 384,0.00000367,0.00000603,-0.00002446,0.00001421,0.00000106,-0.0000002
 1,-0.00000113,0.00000380,0.00000258,0.00000553,-0.00000104,-0.00000473
 ,-0.00001006,-0.00065736,0.00034977,0.00176666,0.00020391,-0.00073582,
 -0.00054528,-0.00000833,-0.00004060,-0.00006680,0.00014063,-0.00005170
 ,0.00024302,0.00173566,0.00293015,-0.00433167,0.00004763,0.00018574,0.
 00024437,-0.00109127,0.00159295,-0.00002835,0.00029057,-0.00026113,-0.
 00005962,-0.01248120,0.01151958,-0.04907264,-0.00258459,0.00329057,-0.
 00117401,0.01319808,-0.01699002,0.05189701,0.00000084,0.00000015,0.000
 00007,-0.00000043,-0.00000024,0.00000011,-0.00000043,-0.00000122,0.000
 00004,0.00000175,-0.00000001,-0.00000010,-0.00000044,0.00000161,-0.000
 00024,-0.00000013,-0.00000099,0.00000015,-0.00000317,0.00000076,0.0000
 0005,-0.00000010,-0.00000024,0.00000019,0.00000002,0.00000017,0.000000
 03,0.00000018,0.00000008,0.00000002,-0.00000122,-0.00000573,-0.0000002
 2,0.00000566,-0.00000716,-0.00000116,-0.00000257,0.00000384,-0.0000008
 5,0.00000534,0.00000225,-0.00000025,-0.00000033,-0.00000584,0.00000041
 ,-0.00000584,0.00000009,0.00000046,-0.00000344,0.00000665,0.00000460,-
 0.00000035,0.00000019,0.00000055,0.00000006,-0.00000011,0.00000027,0.0
 0000027,0.00000002,0.00000017,0.00000178,-0.00000028,-0.00000075,0.000
 17149,0.00031720,0.00006861,0.00000719,0.00000974,-0.00005376,0.000044
 32,-0.00007160,0.00002418,-0.00013032,0.00000176,-0.00001495,0.0001743
 9,0.00001484,-0.00012996,0.00032550,0.00067211,0.00062826,-0.00000007,
 -0.00000629,0.00000033,0.00002359,0.00000465,0.00000129,-0.00000064,-0
 .00000594,0.00000100,-0.00182931,0.00382707,0.00599009,-0.00070406,-0.
 00024835,0.00004479,-0.00000521,0.00000272,-0.00000072,-0.00003193,0.0
 0000744,-0.00000447,-0.00000285,-0.00000162,0.00000159,0.00000195,0.00
 000001,-0.00000032,-0.00000095,0.00000022,0.00000030,-0.00000137,0.000
 00058,0.,0.00000029,0.00000012,0.00000005,0.00000092,-0.00000069,-0.00
 000017,-0.00000044,0.00000051,0.00000003,0.00000007,-0.00000017,0.0000
 0026,0.00000005,-0.00000021,-0.00000009,0.00000007,-0.00000006,0.,-0.0
 0000005,0.00000010,-0.00000012,0.,0.00000003,0.,-0.00000003,0.,0.,-0.0
 0000009,0.00000009,0.00000006,-0.00000002,0.00000002,0.,0.00000001,0.0
 0000001,-0.00000010,-0.00000004,-0.00000008,0.00000004,0.00000013,-0.0
 0000003,-0.00000008,0.,-0.00000002,0.00000004,0.00000011,-0.00000001,0
 .00000006,0.,0.,-0.00000002,0.00000013,-0.00000005,-0.00000002,-0.0000
 0001,0.00000006,-0.00000001,0.00003434,-0.00001460,0.00001388,0.000000
 51,0.00000052,-0.00000082,0.00000029,0.00000103,0.00000018,0.00000032,
 -0.00000068,-0.00000042,0.00000146,-0.00000118,0.00000116,0.00000094,-
 0.00000326,-0.00000115,0.00000016,0.00000066,-0.00000048,0.00000010,-0
 .00000001,-0.00000062,0.,0.00000038,0.00000097,-0.00000065,-0.00000326
 ,0.00000376,-0.00000293,-0.00002381,0.00000106,-0.00000143,-0.00000029
 ,0.00000119,0.00000058,0.00000105,-0.00000185,0.00002247,-0.00106274,0
 .00078805,0.00002500,-0.00020991,-0.00020809,0.00023544,0.00019996,0.0
 0019317,0.00050411,0.00022283,0.00044123,-0.00000131,0.00000154,-0.000
 66271,0.00029407,-0.00021566,-0.00013385,-0.00013419,-0.00004176,0.000
 06233,0.00002833,-0.00007933,-0.00003234,-0.04876159,-0.00171282,-0.00
 360234,0.00103397,-0.01576458,-0.02527713,0.00178202,0.01074454,0.0193
 6705,0.04689769,0.00000252,0.00000331,-0.00000061,0.00000263,0.0000015
 8,-0.00000038,-0.00000075,-0.00000370,0.00000070,0.00000478,0.00000038
 ,0.00000005,-0.00000125,0.00000419,-0.00000042,-0.00000127,-0.00000218
 ,0.00000028,-0.00000585,-0.00000331,-0.00000012,-0.00000034,0.,-0.0000
 0022,0.00000011,0.00000030,-0.00000014,0.00000023,0.00000019,-0.000000
 10,0.00002298,-0.00002999,0.00000492,0.00003083,0.00000639,0.00000373,
 -0.00001023,0.00001654,-0.00000181,0.00002627,0.00000917,0.00000026,0.
 00000096,-0.00002751,0.00000252,-0.00002336,0.00000420,-0.00000081,-0.
 00004572,0.00000687,-0.00000583,-0.00000066,-0.00000125,-0.00000080,0.
 00000126,-0.00000083,-0.00000020,0.00000145,-0.00000035,-0.00000023,0.
 00000268,0.00000143,0.00000108,0.00017716,-0.00024895,0.00010742,-0.00
 006140,0.00004633,0.00005894,0.00004021,0.00000595,0.00000693,-0.00016
 081,-0.00005965,0.00004112,0.00024718,-0.00005807,-0.00027290,0.000413
 85,0.00108067,0.00035058,0.00000883,0.00000536,-0.00000792,-0.00000509
 ,-0.00000564,-0.00002199,0.00002926,-0.00000116,-0.00002762,0.00051022
 ,0.00962264,0.01652620,0.00060242,0.00021468,-0.00028709,0.00000303,0.
 00002165,-0.00000145,0.00001504,-0.00000377,0.00000132,-0.00001030,-0.
 00000870,-0.00000122,0.00000265,0.00000010,0.00000054,-0.00000174,0.00
 000019,-0.00000045,-0.00000187,0.00000120,-0.00000017,0.00000046,0.000
 00008,-0.00000008,0.00000114,-0.00000126,0.00000044,-0.00000044,0.0000
 0071,-0.00000022,0.00000014,-0.00000026,0.00000022,0.00000021,-0.00000
 029,-0.00000040,0.00000012,-0.00000013,0.,-0.00000004,0.00000010,-0.00
 000017,-0.00000003,0.00000002,0.,0.00000002,0.00000004,0.00000011,-0.0
 0000004,0.00000015,0.00000011,0.,0.00000003,0.,-0.00000010,-0.00000001
 ,0.00000012,-0.00000005,-0.00000007,-0.00000006,0.00000008,-0.00000004
 ,0.00000004,0.00000001,-0.00000001,0.,0.00000020,0.,0.00000013,0.,-0.0
 0000005,-0.00000004,0.00000010,-0.00000003,0.00000003,0.,0.00000003,0.
 00000001,-0.00004191,0.00002282,-0.00001378,0.00000835,0.00000715,0.00
 000211,-0.00000047,0.00000570,-0.00000008,-0.00000048,-0.00000144,0.00
 000223,-0.00000059,-0.00000217,-0.00000072,-0.00001315,0.00001948,0.00
 001863,-0.00000009,-0.00000241,0.00000026,-0.00000051,-0.00000077,-0.0
 0000151,0.00000636,0.00000482,-0.00000805,-0.00000694,0.00000350,-0.00
 001546,-0.00000399,-0.00001972,0.00000132,0.00000083,-0.00000154,-0.00
 000026,0.00000167,0.00000356,0.00000636,-0.00066268,-0.00200182,0.0030
 6670,-0.00011558,-0.00001682,0.00002074,0.00013641,-0.00008677,-0.0000
 0334,0.00002359,0.00073948,0.00107179,-0.00036147,0.00116627,0.0003925
 0,-0.00033558,0.00012042,0.00030376,-0.00014810,0.00022028,-0.00015582
 ,0.00009488,-0.00005033,-0.00001155,-0.00172962,-0.12950550,-0.1233658
 2,0.00082415,-0.00681841,-0.00941494,-0.00293596,-0.01155613,-0.019299
 56,0.00344323,0.13715305,0.00000252,0.00000289,-0.00000064,0.00000221,
 0.00000129,-0.00000052,-0.00000038,-0.00000356,0.00000086,0.00000413,0
 .00000046,0.00000016,-0.00000106,0.00000369,-0.00000031,-0.00000157,-0
 .00000189,0.00000031,-0.00000532,-0.00000428,-0.00000058,-0.00000034,0
 .00000005,-0.00000043,0.00000018,0.00000031,-0.00000022,0.00000018,0.0
 0000014,-0.00000015,0.00002127,-0.00001464,-0.00000041,0.00001795,0.00
 000154,-0.00000536,-0.00000765,0.00001406,-0.00000073,0.00002055,0.000
 00587,0.00000062,0.00000163,-0.00002135,0.00000252,-0.00001861,0.00000
 215,-0.00000009,-0.00004616,0.00005076,-0.00001341,-0.00000065,-0.0000
 0130,-0.00000089,0.00000106,-0.00000063,0.,0.00000126,-0.00000052,-0.0
 0000016,0.00000216,0.00000272,0.00000179,0.00010051,-0.00019478,0.0006
 2790,0.00006613,-0.00006004,-0.00001138,0.00001923,-0.00001394,0.00000
 588,-0.00014410,0.00003095,-0.00012170,0.00031613,0.00032773,-0.000233
 51,-0.00161331,-0.00134487,-0.00002751,0.00000852,0.00000532,0.0000102
 4,-0.00000633,0.00000587,0.00003413,0.00002468,-0.00001741,0.00004266,
 0.00003620,-0.01307520,-0.02016478,0.00031327,0.00013500,0.00003985,0.
 00002586,0.00001050,0.00000440,0.00001214,-0.00001050,0.00001862,-0.00
 000994,-0.00001011,-0.00000284,0.00000193,0.00000050,0.00000056,-0.000
 00147,-0.00000002,-0.00000068,-0.00000118,0.00000060,-0.00000016,0.000
 00037,0.00000006,-0.00000014,0.00000088,-0.00000055,0.00000057,-0.0000
 0031,0.00000034,-0.00000024,0.00000005,-0.00000020,0.00000003,0.000000
 14,-0.00000023,-0.00000033,0.00000007,-0.00000002,0.,-0.00000006,0.000
 00002,-0.00000008,-0.00000002,0.00000004,0.,0.00000006,0.00000004,0.00
 000016,-0.00000003,0.00000010,0.00000005,0.00000002,0.00000007,-0.0000
 0002,-0.00000010,-0.00000004,0.00000016,-0.00000005,-0.00000008,-0.000
 00009,0.00000003,-0.00000003,0.00000005,0.00000001,0.00000004,-0.00000
 001,0.00000017,0.00000002,0.00000014,-0.00000002,-0.00000002,-0.000000
 04,0.00000007,-0.00000003,0.00000005,0.,0.00000006,0.00000001,-0.00004
 479,0.00002314,-0.00002016,0.00001373,0.00000615,-0.00000237,-0.000002
 58,0.00000507,0.00000056,-0.00000083,-0.00000349,0.00000278,-0.0000030
 3,-0.00000165,0.00000125,-0.00000946,0.00000746,0.00000905,-0.00000125
 ,-0.00000208,0.00000020,-0.00000007,-0.00000127,0.00000011,0.00000391,
 0.00000534,-0.00000426,-0.00000260,0.00002810,-0.00002621,0.00001227,0
 .00001101,-0.00000347,-0.00000114,-0.00000268,-0.00000027,0.00000405,0
 .00000310,0.00001430,0.00147528,0.00467121,-0.00355134,0.00003067,0.00
 000052,0.00022860,-0.00008807,0.00013851,0.00040259,0.00000673,-0.0009
 2956,-0.00160956,0.00051798,-0.00149466,0.00087730,-0.00040749,0.00100
 964,0.00019997,0.00013966,0.00016744,0.00030933,-0.00005214,0.00007701
 ,-0.00002750,-0.00366497,-0.12131368,-0.23265087,0.00001092,-0.0011270
 3,-0.00210897,0.00043230,0.00196530,0.00341653,0.00248804,0.13093012,0
 .25433812\\-0.00000010,-0.00000073,0.00000128,0.00000020,-0.00000041,0
 .00000446,0.00000057,-0.00000003,0.00000955,0.00000069,0.00000072,0.00
 001147,0.00000090,0.00000046,0.00000822,0.00000040,-0.00000072,0.00000
 327,-0.00000010,-0.00000136,-0.00000314,0.00000049,0.00000115,0.000011
 85,0.00000101,0.00000101,0.00001539,0.00000032,-0.00000028,0.00001008,
 -0.00000060,-0.00000054,-0.00000666,-0.00000068,-0.00000160,-0.0000105
 4,-0.00000013,-0.00000148,-0.00001572,-0.00000156,-0.00000154,-0.00001
 629,-0.00000115,-0.00000222,-0.00001242,-0.00000017,-0.00000168,-0.000
 00748,-0.00000008,-0.00000019,-0.00000341,-0.00000114,-0.00000169,-0.0
 0001859,-0.00000092,-0.00000295,-0.00002008,-0.00000032,-0.00000240,-0
 .00001320,0.00000047,0.00000027,0.00000130,-0.00000080,0.00000212,-0.0
 0000202,-0.00000031,0.00000107,0.00000002,0.00000026,0.00000034,0.0000
 0476,0.00000081,0.00000204,0.00000861,-0.00000047,0.00000211,0.0000066
 1,0.00000048,0.00000226,0.00000154,0.00000034,0.00000023,0.00000638,0.
 00000062,0.00000267,0.00000935,0.00000027,0.00000073,0.00001408,-0.000
 00066,0.00000317,0.00000025,-0.00000066,0.00000180,-0.00000655,0.00000
 017,0.00000072,-0.00000243,-0.00000016,0.00000032,-0.00000876,-0.00000
 017,-0.00000058,0.00000089,-0.00000010,-0.00000093,-0.00000339,-0.0000
 0010,-0.00000201,-0.00000634,0.00000085,-0.00000088,-0.00000010,-0.000
 00010,-0.00000145,0.00000196,-0.00000025,-0.00000248,-0.00000455,-0.00
 000026,-0.00000208,-0.00000781,-0.00000043,0.00000137,-0.00000677,0.00
 000071,-0.00000728,-0.00000587,-0.00000052,-0.00000311,-0.00001143,-0.
 00000122,0.00000170,-0.00001024,-0.00000042,0.00000297,-0.00000343,-0.
 00000132,0.00000526,-0.00000863,0.00000042,-0.00000768,-0.00000903,0.0
 0000053,-0.00000706,-0.00000222,0.00000081,-0.00001042,-0.00000665,-0.
 00000044,-0.00000279,-0.00000938,-0.00000104,0.00000464,-0.00001026,-0
 .00000106,0.00000119,-0.00001438,0.00000054,-0.00001122,-0.00000833,0.
 00000002,-0.00000858,-0.00001320,-0.00000018,-0.00000382,-0.00001139,-
 0.00000011,-0.00000331,-0.00000519,-0.00000099,-0.00000020,-0.00000999
 ,0.00000118,0.00000173,0.00001700,0.00000121,0.00000231,0.00002121,0.0
 0000042,0.00000589,0.00001654,0.00000107,-0.00000047,0.00001673,0.0000
 0059,0.00000465,0.00001511,0.00000039,0.00000420,0.00001327,0.00000002
 ,0.00000867,0.00001468,0.00000082,0.00000464,0.00001929,0.00000192,-0.
 00000409,0.00001509,0.00000170,-0.00000693,0.00001410,0.00000129,-0.00
 000494,0.00001290,0.00000179,-0.00000472,0.00001901,-0.00000150,0.0000
 0852,-0.00000311,-0.00000109,0.00000761,-0.00000640,-0.00000127,0.0000
 0876,-0.00000441,-0.00000129,0.00001135,-0.00000112,0.00000005,0.00000
 382,0.00000385,0.00000035,0.00000064,0.00000663,-0.00000047,0.00000698
 ,0.00000683,-0.00000022,0.00000447,0.00000281,-0.00000010,-0.00000132,
 -0.00000307,-0.00000028,-0.00000042,-0.00000460,-0.00000034,-0.0000013
 9,-0.00000654,0.00000055,-0.00000456,-0.00000127\\\@


 ROSE IS A RED
 TY COBB IS BLUE
 'CAUSE PETE JUST HIT
 NO. 4592.
 Job cpu time:       0 days 21 hours 25 minutes 21.2 seconds.
 Elapsed time:       0 days  1 hours 20 minutes 40.4 seconds.
 File lengths (MBytes):  RWF=  10696 Int=      0 D2E=      0 Chk=    104 Scr=      8
 Normal termination of Gaussian 16 at Fri Dec 21 15:27:47 2018.
