 Entering Gaussian System, Link 0=g16
 Initial command:
 /gpfs/apps/hpc/Apps/Restricted/Gaussian/Rev_A.03/g16/l1.exe "/gpfs/scratch60/fas/hammes_schiffer/jg2487/c24n11/Gau-17444.inp" -scrdir="/gpfs/scratch60/fas/hammes_schiffer/jg2487/c24n11/"
 Entering Link 1 = /gpfs/apps/hpc/Apps/Restricted/Gaussian/Rev_A.03/g16/l1.exe PID=     17445.
  
 Copyright (c) 1988,1990,1992,1993,1995,1998,2003,2009,2016,
            Gaussian, Inc.  All Rights Reserved.
  
 This is part of the Gaussian(R) 16 program.  It is based on
 the Gaussian(R) 09 system (copyright 2009, Gaussian, Inc.),
 the Gaussian(R) 03 system (copyright 2003, Gaussian, Inc.),
 the Gaussian(R) 98 system (copyright 1998, Gaussian, Inc.),
 the Gaussian(R) 94 system (copyright 1995, Gaussian, Inc.),
 the Gaussian 92(TM) system (copyright 1992, Gaussian, Inc.),
 the Gaussian 90(TM) system (copyright 1990, Gaussian, Inc.),
 the Gaussian 88(TM) system (copyright 1988, Gaussian, Inc.),
 the Gaussian 86(TM) system (copyright 1986, Carnegie Mellon
 University), and the Gaussian 82(TM) system (copyright 1983,
 Carnegie Mellon University). Gaussian is a federally registered
 trademark of Gaussian, Inc.
  
 This software contains proprietary and confidential information,
 including trade secrets, belonging to Gaussian, Inc.
  
 This software is provided under written license and may be
 used, copied, transmitted, or stored only in accord with that
 written license.
  
 The following legend is applicable only to US Government
 contracts under FAR:
  
                    RESTRICTED RIGHTS LEGEND
  
 Use, reproduction and disclosure by the US Government is
 subject to restrictions as set forth in subparagraphs (a)
 and (c) of the Commercial Computer Software - Restricted
 Rights clause in FAR 52.227-19.
  
 Gaussian, Inc.
 340 Quinnipiac St., Bldg. 40, Wallingford CT 06492
  
  
 ---------------------------------------------------------------
 Warning -- This program may not be used in any manner that
 competes with the business of Gaussian, Inc. or will provide
 assistance to any competitor of Gaussian, Inc.  The licensee
 of this program is prohibited from giving any competitor of
 Gaussian, Inc. access to this program.  By using this program,
 the user acknowledges that Gaussian, Inc. is engaged in the
 business of creating and licensing software in the field of
 computational chemistry and represents and warrants to the
 licensee that it is not a competitor of Gaussian, Inc. and that
 it will not use this program in any manner prohibited above.
 ---------------------------------------------------------------
  

 Cite this work as:
 Gaussian 16, Revision A.03,
 M. J. Frisch, G. W. Trucks, H. B. Schlegel, G. E. Scuseria, 
 M. A. Robb, J. R. Cheeseman, G. Scalmani, V. Barone, 
 G. A. Petersson, H. Nakatsuji, X. Li, M. Caricato, A. V. Marenich, 
 J. Bloino, B. G. Janesko, R. Gomperts, B. Mennucci, H. P. Hratchian, 
 J. V. Ortiz, A. F. Izmaylov, J. L. Sonnenberg, D. Williams-Young, 
 F. Ding, F. Lipparini, F. Egidi, J. Goings, B. Peng, A. Petrone, 
 T. Henderson, D. Ranasinghe, V. G. Zakrzewski, J. Gao, N. Rega, 
 G. Zheng, W. Liang, M. Hada, M. Ehara, K. Toyota, R. Fukuda, 
 J. Hasegawa, M. Ishida, T. Nakajima, Y. Honda, O. Kitao, H. Nakai, 
 T. Vreven, K. Throssell, J. A. Montgomery, Jr., J. E. Peralta, 
 F. Ogliaro, M. J. Bearpark, J. J. Heyd, E. N. Brothers, K. N. Kudin, 
 V. N. Staroverov, T. A. Keith, R. Kobayashi, J. Normand, 
 K. Raghavachari, A. P. Rendell, J. C. Burant, S. S. Iyengar, 
 J. Tomasi, M. Cossi, J. M. Millam, M. Klene, C. Adamo, R. Cammi, 
 J. W. Ochterski, R. L. Martin, K. Morokuma, O. Farkas, 
 J. B. Foresman, and D. J. Fox, Gaussian, Inc., Wallingford CT, 2016.
 
 ******************************************
 Gaussian 16:  ES64L-G16RevA.03 25-Dec-2016
                14-Dec-2018 
 ******************************************
 %chk=cyclohexyl-monoBIP-E0PT.chk
 %mem=10GB
 %nprocshared=16
 Will use up to   16 processors via shared memory.
 ----------------------------------------------------------------------
 #p opt=tight freq=internalmodes b3lyp/6-31g(d,p) scrf=(cpcm,solvent=di
 chloromethane,read) nosymm empiricaldispersion=gd3bj int=grid=ultrafin
 e
 ----------------------------------------------------------------------
 1/7=10,18=20,19=15,26=6,38=1,40=2/1,3;
 2/9=110,12=2,15=1,17=6,18=5,40=1/2;
 3/5=1,6=6,7=101,11=2,25=1,30=1,70=2103,71=1,72=9,74=-5,75=-5,124=41/1,2,3;
 4//1;
 5/5=2,38=5,53=9/2;
 6/7=2,8=2,9=2,10=2,28=1/1;
 7/30=1/1,2,3,16;
 1/7=10,18=20,19=15,26=6/3(2);
 2/9=110,15=1/2;
 99//99;
 2/9=110,15=1/2;
 3/5=1,6=6,7=101,11=2,25=1,30=1,70=2105,71=1,72=9,74=-5,75=-5,124=41/1,2,3;
 4/5=5,16=3,69=1/1;
 5/5=2,38=5,53=9/2;
 7/30=1/1,2,3,16;
 1/7=10,18=20,19=15,26=6/3(-5);
 2/9=110,15=1/2;
 6/7=2,8=2,9=2,10=2,19=2,28=1/1;
 99/9=1/99;
 Leave Link    1 at Fri Dec 14 13:12:52 2018, MaxMem=  1342177280 cpu:               8.9 elap:               0.6
 (Enter /gpfs/apps/hpc/Apps/Restricted/Gaussian/Rev_A.03/g16/l101.exe)
 -------------------------------------------------------
 cyclohexylimine monoBIP oxidized but no PT optimization
 -------------------------------------------------------
 Symbolic Z-matrix:
 Charge =  1 Multiplicity = 2
 C                    -0.44168   2.68213   0.27144 
 C                    -1.85688   2.81852   0.23401 
 C                    -2.43904   4.09643   0.1496 
 C                    -1.57884   5.18173   0.11243 
 C                    -0.17103   5.02851   0.15383 
 C                     0.4378    3.77801   0.23388 
 C                    -1.39396   0.69425   0.34877 
 H                    -3.51392   4.21818   0.11548 
 H                    -1.988     6.18262   0.05038 
 H                     0.45485   5.91296   0.1237 
 N                    -2.41332   1.56874   0.28461 
 C                    -2.98247  -1.20106   0.41132 
 C                    -1.60766  -0.72318   0.40429 
 C                    -0.57336  -1.65491   0.43853 
 C                    -0.84467  -3.02324   0.48627 
 C                    -2.20174  -3.46947   0.50851 
 C                    -3.26603  -2.60586   0.4733 
 H                     0.45599  -1.31915   0.42435 
 H                    -2.38836  -4.53673   0.5535 
 C                     0.25633  -4.03101   0.51182 
 H                     1.23663  -3.55879   0.46167 
 H                     0.1993   -4.63212   1.42542 
 H                     0.1528   -4.72929  -0.3248 
 C                    -4.69333  -3.05752   0.48674 
 H                    -5.23537  -2.61177   1.32494 
 H                    -5.2071   -2.74566  -0.42688 
 H                    -4.74828  -4.14269   0.56819 
 O                    -3.99139  -0.37831   0.35816 
 H                    -3.62275   0.59408   0.31648 
 N                    -0.18849   1.34265   0.34398 
 H                     0.76679   0.99324   0.38612 
 C                     1.88738   3.59215   0.2762 
 H                     2.49128   4.50358   0.22818 
 N                     2.3923    2.41854   0.36677 
 C                     3.85605   2.29105   0.41073 
 C                     4.50993   2.71524  -0.91486 
 C                     4.48673   3.05208   1.58863 
 H                     4.06023   1.22445   0.5563 
 C                     6.02465   2.48526  -0.86815 
 H                     4.30064   3.77851  -1.08262 
 H                     4.0569    2.1607   -1.74206 
 C                     6.00021   2.81558   1.6389 
 H                     4.29364   4.1244    1.46585 
 H                     4.00798   2.74329   2.52244 
 C                     6.66519   3.21677   0.31681 
 H                     6.4824    2.80465  -1.80916 
 H                     6.21736   1.40913  -0.77343 
 H                     6.43539   3.37467   2.47283 
 H                     6.19311   1.75323   1.83387 
 H                     7.73957   3.01285   0.35385 
 H                     6.55122   4.29876   0.17392 
 
 ITRead=  0  0  0  0  0  0  0  0  0  0  0  0  0  0  0  0  0  0  0  0
 ITRead=  0  0  0  0  0  0  0  0  0  0  0  0  0  0  0  0  0  0  0  0
 ITRead=  0  0  0  0  0  0  0  0  0  0  0
 MicOpt= -1 -1 -1 -1 -1 -1 -1 -1 -1 -1 -1 -1 -1 -1 -1 -1 -1 -1 -1 -1
 MicOpt= -1 -1 -1 -1 -1 -1 -1 -1 -1 -1 -1 -1 -1 -1 -1 -1 -1 -1 -1 -1
 MicOpt= -1 -1 -1 -1 -1 -1 -1 -1 -1 -1 -1
 NAtoms=     51 NQM=       51 NQMF=       0 NMMI=      0 NMMIF=      0
                NMic=       0 NMicF=      0.
                    Isotopes and Nuclear Properties:
 (Nuclear quadrupole moments (NQMom) in fm**2, nuclear magnetic moments (NMagM)
  in nuclear magnetons)

  Atom         1           2           3           4           5           6           7           8           9          10
 IAtWgt=          12          12          12          12          12          12          12           1           1           1
 AtmWgt=  12.0000000  12.0000000  12.0000000  12.0000000  12.0000000  12.0000000  12.0000000   1.0078250   1.0078250   1.0078250
 NucSpn=           0           0           0           0           0           0           0           1           1           1
 AtZEff=  -0.0000000  -0.0000000  -0.0000000  -0.0000000  -0.0000000  -0.0000000  -0.0000000  -0.0000000  -0.0000000  -0.0000000
 NQMom=    0.0000000   0.0000000   0.0000000   0.0000000   0.0000000   0.0000000   0.0000000   0.0000000   0.0000000   0.0000000
 NMagM=    0.0000000   0.0000000   0.0000000   0.0000000   0.0000000   0.0000000   0.0000000   2.7928460   2.7928460   2.7928460
 AtZNuc=   6.0000000   6.0000000   6.0000000   6.0000000   6.0000000   6.0000000   6.0000000   1.0000000   1.0000000   1.0000000

  Atom        11          12          13          14          15          16          17          18          19          20
 IAtWgt=          14          12          12          12          12          12          12           1           1          12
 AtmWgt=  14.0030740  12.0000000  12.0000000  12.0000000  12.0000000  12.0000000  12.0000000   1.0078250   1.0078250  12.0000000
 NucSpn=           2           0           0           0           0           0           0           1           1           0
 AtZEff=  -0.0000000  -0.0000000  -0.0000000  -0.0000000  -0.0000000  -0.0000000  -0.0000000  -0.0000000  -0.0000000  -0.0000000
 NQMom=    2.0440000   0.0000000   0.0000000   0.0000000   0.0000000   0.0000000   0.0000000   0.0000000   0.0000000   0.0000000
 NMagM=    0.4037610   0.0000000   0.0000000   0.0000000   0.0000000   0.0000000   0.0000000   2.7928460   2.7928460   0.0000000
 AtZNuc=   7.0000000   6.0000000   6.0000000   6.0000000   6.0000000   6.0000000   6.0000000   1.0000000   1.0000000   6.0000000

  Atom        21          22          23          24          25          26          27          28          29          30
 IAtWgt=           1           1           1          12           1           1           1          16           1          14
 AtmWgt=   1.0078250   1.0078250   1.0078250  12.0000000   1.0078250   1.0078250   1.0078250  15.9949146   1.0078250  14.0030740
 NucSpn=           1           1           1           0           1           1           1           0           1           2
 AtZEff=  -0.0000000  -0.0000000  -0.0000000  -0.0000000  -0.0000000  -0.0000000  -0.0000000  -0.0000000  -0.0000000  -0.0000000
 NQMom=    0.0000000   0.0000000   0.0000000   0.0000000   0.0000000   0.0000000   0.0000000   0.0000000   0.0000000   2.0440000
 NMagM=    2.7928460   2.7928460   2.7928460   0.0000000   2.7928460   2.7928460   2.7928460   0.0000000   2.7928460   0.4037610
 AtZNuc=   1.0000000   1.0000000   1.0000000   6.0000000   1.0000000   1.0000000   1.0000000   8.0000000   1.0000000   7.0000000

  Atom        31          32          33          34          35          36          37          38          39          40
 IAtWgt=           1          12           1          14          12          12          12           1          12           1
 AtmWgt=   1.0078250  12.0000000   1.0078250  14.0030740  12.0000000  12.0000000  12.0000000   1.0078250  12.0000000   1.0078250
 NucSpn=           1           0           1           2           0           0           0           1           0           1
 AtZEff=  -0.0000000  -0.0000000  -0.0000000  -0.0000000  -0.0000000  -0.0000000  -0.0000000  -0.0000000  -0.0000000  -0.0000000
 NQMom=    0.0000000   0.0000000   0.0000000   2.0440000   0.0000000   0.0000000   0.0000000   0.0000000   0.0000000   0.0000000
 NMagM=    2.7928460   0.0000000   2.7928460   0.4037610   0.0000000   0.0000000   0.0000000   2.7928460   0.0000000   2.7928460
 AtZNuc=   1.0000000   6.0000000   1.0000000   7.0000000   6.0000000   6.0000000   6.0000000   1.0000000   6.0000000   1.0000000

  Atom        41          42          43          44          45          46          47          48          49          50
 IAtWgt=           1          12           1           1          12           1           1           1           1           1
 AtmWgt=   1.0078250  12.0000000   1.0078250   1.0078250  12.0000000   1.0078250   1.0078250   1.0078250   1.0078250   1.0078250
 NucSpn=           1           0           1           1           0           1           1           1           1           1
 AtZEff=  -0.0000000  -0.0000000  -0.0000000  -0.0000000  -0.0000000  -0.0000000  -0.0000000  -0.0000000  -0.0000000  -0.0000000
 NQMom=    0.0000000   0.0000000   0.0000000   0.0000000   0.0000000   0.0000000   0.0000000   0.0000000   0.0000000   0.0000000
 NMagM=    2.7928460   0.0000000   2.7928460   2.7928460   0.0000000   2.7928460   2.7928460   2.7928460   2.7928460   2.7928460
 AtZNuc=   1.0000000   6.0000000   1.0000000   1.0000000   6.0000000   1.0000000   1.0000000   1.0000000   1.0000000   1.0000000

  Atom        51
 IAtWgt=           1
 AtmWgt=   1.0078250
 NucSpn=           1
 AtZEff=  -0.0000000
 NQMom=    0.0000000
 NMagM=    2.7928460
 AtZNuc=   1.0000000
 Leave Link  101 at Fri Dec 14 13:12:52 2018, MaxMem=  1342177280 cpu:               5.2 elap:               0.4
 (Enter /gpfs/apps/hpc/Apps/Restricted/Gaussian/Rev_A.03/g16/l103.exe)

 GradGradGradGradGradGradGradGradGradGradGradGradGradGradGradGradGradGrad
 Berny optimization.
 Initialization pass.
                           ----------------------------
                           !    Initial Parameters    !
                           ! (Angstroms and Degrees)  !
 --------------------------                            --------------------------
 ! Name  Definition              Value          Derivative Info.                !
 --------------------------------------------------------------------------------
 ! R1    R(1,2)                  1.4222         estimate D2E/DX2                !
 ! R2    R(1,6)                  1.4057         estimate D2E/DX2                !
 ! R3    R(1,30)                 1.3651         estimate D2E/DX2                !
 ! R4    R(2,3)                  1.4068         estimate D2E/DX2                !
 ! R5    R(2,11)                 1.369          estimate D2E/DX2                !
 ! R6    R(3,4)                  1.3854         estimate D2E/DX2                !
 ! R7    R(3,8)                  1.0823         estimate D2E/DX2                !
 ! R8    R(4,5)                  1.4167         estimate D2E/DX2                !
 ! R9    R(4,9)                  1.0831         estimate D2E/DX2                !
 ! R10   R(5,6)                  1.3931         estimate D2E/DX2                !
 ! R11   R(5,10)                 1.0839         estimate D2E/DX2                !
 ! R12   R(6,32)                 1.4621         estimate D2E/DX2                !
 ! R13   R(7,11)                 1.3446         estimate D2E/DX2                !
 ! R14   R(7,13)                 1.4345         estimate D2E/DX2                !
 ! R15   R(7,30)                 1.3688         estimate D2E/DX2                !
 ! R16   R(12,13)                1.4555         estimate D2E/DX2                !
 ! R17   R(12,17)                1.4345         estimate D2E/DX2                !
 ! R18   R(12,28)                1.303          estimate D2E/DX2                !
 ! R19   R(13,14)                1.3925         estimate D2E/DX2                !
 ! R20   R(14,15)                1.3958         estimate D2E/DX2                !
 ! R21   R(14,18)                1.0828         estimate D2E/DX2                !
 ! R22   R(15,16)                1.4287         estimate D2E/DX2                !
 ! R23   R(15,20)                1.4928         estimate D2E/DX2                !
 ! R24   R(16,17)                1.371          estimate D2E/DX2                !
 ! R25   R(16,19)                1.0844         estimate D2E/DX2                !
 ! R26   R(17,24)                1.4971         estimate D2E/DX2                !
 ! R27   R(20,21)                1.0893         estimate D2E/DX2                !
 ! R28   R(20,22)                1.0951         estimate D2E/DX2                !
 ! R29   R(20,23)                1.0946         estimate D2E/DX2                !
 ! R30   R(24,25)                1.0932         estimate D2E/DX2                !
 ! R31   R(24,26)                1.0936         estimate D2E/DX2                !
 ! R32   R(24,27)                1.0896         estimate D2E/DX2                !
 ! R33   R(28,29)                1.0408         estimate D2E/DX2                !
 ! R34   R(30,31)                1.018          estimate D2E/DX2                !
 ! R35   R(32,33)                1.0944         estimate D2E/DX2                !
 ! R36   R(32,34)                1.2808         estimate D2E/DX2                !
 ! R37   R(34,35)                1.4699         estimate D2E/DX2                !
 ! R38   R(35,36)                1.5378         estimate D2E/DX2                !
 ! R39   R(35,37)                1.5376         estimate D2E/DX2                !
 ! R40   R(35,38)                1.0957         estimate D2E/DX2                !
 ! R41   R(36,39)                1.5328         estimate D2E/DX2                !
 ! R42   R(36,40)                1.0966         estimate D2E/DX2                !
 ! R43   R(36,41)                1.0941         estimate D2E/DX2                !
 ! R44   R(37,42)                1.5327         estimate D2E/DX2                !
 ! R45   R(37,43)                1.0965         estimate D2E/DX2                !
 ! R46   R(37,44)                1.0939         estimate D2E/DX2                !
 ! R47   R(39,45)                1.5328         estimate D2E/DX2                !
 ! R48   R(39,46)                1.0941         estimate D2E/DX2                !
 ! R49   R(39,47)                1.0973         estimate D2E/DX2                !
 ! R50   R(42,45)                1.5333         estimate D2E/DX2                !
 ! R51   R(42,48)                1.0943         estimate D2E/DX2                !
 ! R52   R(42,49)                1.0972         estimate D2E/DX2                !
 ! R53   R(45,50)                1.0942         estimate D2E/DX2                !
 ! R54   R(45,51)                1.0973         estimate D2E/DX2                !
 ! A1    A(2,1,6)              123.1689         estimate D2E/DX2                !
 ! A2    A(2,1,30)             106.2633         estimate D2E/DX2                !
 ! A3    A(6,1,30)             130.5678         estimate D2E/DX2                !
 ! A4    A(1,2,3)              120.0305         estimate D2E/DX2                !
 ! A5    A(1,2,11)             108.4163         estimate D2E/DX2                !
 ! A6    A(3,2,11)             131.5519         estimate D2E/DX2                !
 ! A7    A(2,3,4)              117.1479         estimate D2E/DX2                !
 ! A8    A(2,3,8)              121.0019         estimate D2E/DX2                !
 ! A9    A(4,3,8)              121.8502         estimate D2E/DX2                !
 ! A10   A(3,4,5)              122.1076         estimate D2E/DX2                !
 ! A11   A(3,4,9)              119.4018         estimate D2E/DX2                !
 ! A12   A(5,4,9)              118.4905         estimate D2E/DX2                !
 ! A13   A(4,5,6)              122.2102         estimate D2E/DX2                !
 ! A14   A(4,5,10)             118.9947         estimate D2E/DX2                !
 ! A15   A(6,5,10)             118.795          estimate D2E/DX2                !
 ! A16   A(1,6,5)              115.3343         estimate D2E/DX2                !
 ! A17   A(1,6,32)             121.3629         estimate D2E/DX2                !
 ! A18   A(5,6,32)             123.3028         estimate D2E/DX2                !
 ! A19   A(11,7,13)            122.1089         estimate D2E/DX2                !
 ! A20   A(11,7,30)            111.0642         estimate D2E/DX2                !
 ! A21   A(13,7,30)            126.8258         estimate D2E/DX2                !
 ! A22   A(2,11,7)             106.7            estimate D2E/DX2                !
 ! A23   A(13,12,17)           120.5612         estimate D2E/DX2                !
 ! A24   A(13,12,28)           121.5933         estimate D2E/DX2                !
 ! A25   A(17,12,28)           117.8451         estimate D2E/DX2                !
 ! A26   A(7,13,12)            117.7303         estimate D2E/DX2                !
 ! A27   A(7,13,14)            123.4653         estimate D2E/DX2                !
 ! A28   A(12,13,14)           118.8015         estimate D2E/DX2                !
 ! A29   A(13,14,15)           120.8241         estimate D2E/DX2                !
 ! A30   A(13,14,18)           119.8865         estimate D2E/DX2                !
 ! A31   A(15,14,18)           119.2889         estimate D2E/DX2                !
 ! A32   A(14,15,16)           119.4292         estimate D2E/DX2                !
 ! A33   A(14,15,20)           121.2673         estimate D2E/DX2                !
 ! A34   A(16,15,20)           119.3034         estimate D2E/DX2                !
 ! A35   A(15,16,17)           122.6968         estimate D2E/DX2                !
 ! A36   A(15,16,19)           118.1321         estimate D2E/DX2                !
 ! A37   A(17,16,19)           119.1711         estimate D2E/DX2                !
 ! A38   A(12,17,16)           117.6793         estimate D2E/DX2                !
 ! A39   A(12,17,24)           118.9663         estimate D2E/DX2                !
 ! A40   A(16,17,24)           123.3529         estimate D2E/DX2                !
 ! A41   A(15,20,21)           111.7345         estimate D2E/DX2                !
 ! A42   A(15,20,22)           110.2694         estimate D2E/DX2                !
 ! A43   A(15,20,23)           110.353          estimate D2E/DX2                !
 ! A44   A(21,20,22)           108.8592         estimate D2E/DX2                !
 ! A45   A(21,20,23)           109.0545         estimate D2E/DX2                !
 ! A46   A(22,20,23)           106.4118         estimate D2E/DX2                !
 ! A47   A(17,24,25)           110.8901         estimate D2E/DX2                !
 ! A48   A(17,24,26)           110.7543         estimate D2E/DX2                !
 ! A49   A(17,24,27)           110.4388         estimate D2E/DX2                !
 ! A50   A(25,24,26)           106.9383         estimate D2E/DX2                !
 ! A51   A(25,24,27)           108.8914         estimate D2E/DX2                !
 ! A52   A(26,24,27)           108.8304         estimate D2E/DX2                !
 ! A53   A(12,28,29)           108.5017         estimate D2E/DX2                !
 ! A54   A(1,30,7)             107.556          estimate D2E/DX2                !
 ! A55   A(1,30,31)            120.8641         estimate D2E/DX2                !
 ! A56   A(7,30,31)            131.5795         estimate D2E/DX2                !
 ! A57   A(6,32,33)            116.1011         estimate D2E/DX2                !
 ! A58   A(6,32,34)            120.6222         estimate D2E/DX2                !
 ! A59   A(33,32,34)           123.2765         estimate D2E/DX2                !
 ! A60   A(32,34,35)           118.3029         estimate D2E/DX2                !
 ! A61   A(34,35,36)           111.9452         estimate D2E/DX2                !
 ! A62   A(34,35,37)           112.856          estimate D2E/DX2                !
 ! A63   A(34,35,38)           105.9007         estimate D2E/DX2                !
 ! A64   A(36,35,37)           110.4513         estimate D2E/DX2                !
 ! A65   A(36,35,38)           107.6865         estimate D2E/DX2                !
 ! A66   A(37,35,38)           107.6733         estimate D2E/DX2                !
 ! A67   A(35,36,39)           110.6432         estimate D2E/DX2                !
 ! A68   A(35,36,40)           108.5536         estimate D2E/DX2                !
 ! A69   A(35,36,41)           109.6255         estimate D2E/DX2                !
 ! A70   A(39,36,40)           109.8005         estimate D2E/DX2                !
 ! A71   A(39,36,41)           110.8658         estimate D2E/DX2                !
 ! A72   A(40,36,41)           107.2636         estimate D2E/DX2                !
 ! A73   A(35,37,42)           110.7189         estimate D2E/DX2                !
 ! A74   A(35,37,43)           109.0279         estimate D2E/DX2                !
 ! A75   A(35,37,44)           109.5556         estimate D2E/DX2                !
 ! A76   A(42,37,43)           109.1762         estimate D2E/DX2                !
 ! A77   A(42,37,44)           111.1383         estimate D2E/DX2                !
 ! A78   A(43,37,44)           107.1331         estimate D2E/DX2                !
 ! A79   A(36,39,45)           111.4023         estimate D2E/DX2                !
 ! A80   A(36,39,46)           110.0867         estimate D2E/DX2                !
 ! A81   A(36,39,47)           108.8635         estimate D2E/DX2                !
 ! A82   A(45,39,46)           110.5332         estimate D2E/DX2                !
 ! A83   A(45,39,47)           109.1405         estimate D2E/DX2                !
 ! A84   A(46,39,47)           106.6807         estimate D2E/DX2                !
 ! A85   A(37,42,45)           111.0755         estimate D2E/DX2                !
 ! A86   A(37,42,48)           109.8084         estimate D2E/DX2                !
 ! A87   A(37,42,49)           109.1987         estimate D2E/DX2                !
 ! A88   A(45,42,48)           110.5455         estimate D2E/DX2                !
 ! A89   A(45,42,49)           109.2877         estimate D2E/DX2                !
 ! A90   A(48,42,49)           106.82           estimate D2E/DX2                !
 ! A91   A(39,45,42)           111.1291         estimate D2E/DX2                !
 ! A92   A(39,45,50)           110.3376         estimate D2E/DX2                !
 ! A93   A(39,45,51)           109.0559         estimate D2E/DX2                !
 ! A94   A(42,45,50)           110.3582         estimate D2E/DX2                !
 ! A95   A(42,45,51)           108.9795         estimate D2E/DX2                !
 ! A96   A(50,45,51)           106.8667         estimate D2E/DX2                !
 ! D1    D(6,1,2,3)              0.2849         estimate D2E/DX2                !
 ! D2    D(6,1,2,11)           179.9193         estimate D2E/DX2                !
 ! D3    D(30,1,2,3)          -179.6316         estimate D2E/DX2                !
 ! D4    D(30,1,2,11)            0.0028         estimate D2E/DX2                !
 ! D5    D(2,1,6,5)             -0.1153         estimate D2E/DX2                !
 ! D6    D(2,1,6,32)           179.9268         estimate D2E/DX2                !
 ! D7    D(30,1,6,5)           179.7791         estimate D2E/DX2                !
 ! D8    D(30,1,6,32)           -0.1787         estimate D2E/DX2                !
 ! D9    D(2,1,30,7)             0.0698         estimate D2E/DX2                !
 ! D10   D(2,1,30,31)         -179.7385         estimate D2E/DX2                !
 ! D11   D(6,1,30,7)          -179.8381         estimate D2E/DX2                !
 ! D12   D(6,1,30,31)            0.3535         estimate D2E/DX2                !
 ! D13   D(1,2,3,4)             -0.2814         estimate D2E/DX2                !
 ! D14   D(1,2,3,8)            179.713          estimate D2E/DX2                !
 ! D15   D(11,2,3,4)          -179.8178         estimate D2E/DX2                !
 ! D16   D(11,2,3,8)             0.1765         estimate D2E/DX2                !
 ! D17   D(1,2,11,7)            -0.0753         estimate D2E/DX2                !
 ! D18   D(3,2,11,7)           179.5017         estimate D2E/DX2                !
 ! D19   D(2,3,4,5)              0.1343         estimate D2E/DX2                !
 ! D20   D(2,3,4,9)           -179.8265         estimate D2E/DX2                !
 ! D21   D(8,3,4,5)           -179.8601         estimate D2E/DX2                !
 ! D22   D(8,3,4,9)              0.1792         estimate D2E/DX2                !
 ! D23   D(3,4,5,6)              0.0294         estimate D2E/DX2                !
 ! D24   D(3,4,5,10)          -179.8838         estimate D2E/DX2                !
 ! D25   D(9,4,5,6)            179.9905         estimate D2E/DX2                !
 ! D26   D(9,4,5,10)             0.0773         estimate D2E/DX2                !
 ! D27   D(4,5,6,1)             -0.0406         estimate D2E/DX2                !
 ! D28   D(4,5,6,32)           179.9163         estimate D2E/DX2                !
 ! D29   D(10,5,6,1)           179.8727         estimate D2E/DX2                !
 ! D30   D(10,5,6,32)           -0.1704         estimate D2E/DX2                !
 ! D31   D(1,6,32,33)          179.1904         estimate D2E/DX2                !
 ! D32   D(1,6,32,34)           -0.9249         estimate D2E/DX2                !
 ! D33   D(5,6,32,33)           -0.764          estimate D2E/DX2                !
 ! D34   D(5,6,32,34)          179.1207         estimate D2E/DX2                !
 ! D35   D(13,7,11,2)         -179.5106         estimate D2E/DX2                !
 ! D36   D(30,7,11,2)            0.1224         estimate D2E/DX2                !
 ! D37   D(11,7,13,12)          -0.9847         estimate D2E/DX2                !
 ! D38   D(11,7,13,14)         178.3852         estimate D2E/DX2                !
 ! D39   D(30,7,13,12)         179.4432         estimate D2E/DX2                !
 ! D40   D(30,7,13,14)          -1.1869         estimate D2E/DX2                !
 ! D41   D(11,7,30,1)           -0.1222         estimate D2E/DX2                !
 ! D42   D(11,7,30,31)         179.6578         estimate D2E/DX2                !
 ! D43   D(13,7,30,1)          179.4894         estimate D2E/DX2                !
 ! D44   D(13,7,30,31)          -0.7306         estimate D2E/DX2                !
 ! D45   D(17,12,13,7)        -179.6475         estimate D2E/DX2                !
 ! D46   D(17,12,13,14)          0.9523         estimate D2E/DX2                !
 ! D47   D(28,12,13,7)           0.5553         estimate D2E/DX2                !
 ! D48   D(28,12,13,14)       -178.8449         estimate D2E/DX2                !
 ! D49   D(13,12,17,16)         -0.7783         estimate D2E/DX2                !
 ! D50   D(13,12,17,24)        179.6414         estimate D2E/DX2                !
 ! D51   D(28,12,17,16)        179.0263         estimate D2E/DX2                !
 ! D52   D(28,12,17,24)         -0.554          estimate D2E/DX2                !
 ! D53   D(13,12,28,29)         -0.1247         estimate D2E/DX2                !
 ! D54   D(17,12,28,29)       -179.9272         estimate D2E/DX2                !
 ! D55   D(7,13,14,15)        -179.7143         estimate D2E/DX2                !
 ! D56   D(7,13,14,18)           0.0509         estimate D2E/DX2                !
 ! D57   D(12,13,14,15)         -0.3508         estimate D2E/DX2                !
 ! D58   D(12,13,14,18)        179.4145         estimate D2E/DX2                !
 ! D59   D(13,14,15,16)         -0.3905         estimate D2E/DX2                !
 ! D60   D(13,14,15,20)        179.4856         estimate D2E/DX2                !
 ! D61   D(18,14,15,16)        179.8429         estimate D2E/DX2                !
 ! D62   D(18,14,15,20)         -0.281          estimate D2E/DX2                !
 ! D63   D(14,15,16,17)          0.5748         estimate D2E/DX2                !
 ! D64   D(14,15,16,19)       -179.5271         estimate D2E/DX2                !
 ! D65   D(20,15,16,17)       -179.3038         estimate D2E/DX2                !
 ! D66   D(20,15,16,19)          0.5943         estimate D2E/DX2                !
 ! D67   D(14,15,20,21)         -1.536          estimate D2E/DX2                !
 ! D68   D(14,15,20,22)        119.6739         estimate D2E/DX2                !
 ! D69   D(14,15,20,23)       -123.0522         estimate D2E/DX2                !
 ! D70   D(16,15,20,21)        178.3402         estimate D2E/DX2                !
 ! D71   D(16,15,20,22)        -60.4498         estimate D2E/DX2                !
 ! D72   D(16,15,20,23)         56.8241         estimate D2E/DX2                !
 ! D73   D(15,16,17,12)          0.0194         estimate D2E/DX2                !
 ! D74   D(15,16,17,24)        179.5798         estimate D2E/DX2                !
 ! D75   D(19,16,17,12)       -179.8777         estimate D2E/DX2                !
 ! D76   D(19,16,17,24)         -0.3173         estimate D2E/DX2                !
 ! D77   D(12,17,24,25)        -57.3604         estimate D2E/DX2                !
 ! D78   D(12,17,24,26)         61.2018         estimate D2E/DX2                !
 ! D79   D(12,17,24,27)       -178.1624         estimate D2E/DX2                !
 ! D80   D(16,17,24,25)        123.0845         estimate D2E/DX2                !
 ! D81   D(16,17,24,26)       -118.3532         estimate D2E/DX2                !
 ! D82   D(16,17,24,27)          2.2825         estimate D2E/DX2                !
 ! D83   D(6,32,34,35)        -179.7638         estimate D2E/DX2                !
 ! D84   D(33,32,34,35)          0.1124         estimate D2E/DX2                !
 ! D85   D(32,34,35,36)        -66.6799         estimate D2E/DX2                !
 ! D86   D(32,34,35,37)         58.6749         estimate D2E/DX2                !
 ! D87   D(32,34,35,38)        176.2325         estimate D2E/DX2                !
 ! D88   D(34,35,36,39)       -176.3355         estimate D2E/DX2                !
 ! D89   D(34,35,36,40)         63.1153         estimate D2E/DX2                !
 ! D90   D(34,35,36,41)        -53.7585         estimate D2E/DX2                !
 ! D91   D(37,35,36,39)         56.9961         estimate D2E/DX2                !
 ! D92   D(37,35,36,40)        -63.5531         estimate D2E/DX2                !
 ! D93   D(37,35,36,41)        179.5731         estimate D2E/DX2                !
 ! D94   D(38,35,36,39)        -60.3266         estimate D2E/DX2                !
 ! D95   D(38,35,36,40)        179.1241         estimate D2E/DX2                !
 ! D96   D(38,35,36,41)         62.2503         estimate D2E/DX2                !
 ! D97   D(34,35,37,42)        176.4796         estimate D2E/DX2                !
 ! D98   D(34,35,37,43)        -63.3925         estimate D2E/DX2                !
 ! D99   D(34,35,37,44)         53.5565         estimate D2E/DX2                !
 ! D100  D(36,35,37,42)        -57.3609         estimate D2E/DX2                !
 ! D101  D(36,35,37,43)         62.767          estimate D2E/DX2                !
 ! D102  D(36,35,37,44)        179.716          estimate D2E/DX2                !
 ! D103  D(38,35,37,42)         59.97           estimate D2E/DX2                !
 ! D104  D(38,35,37,43)       -179.9021         estimate D2E/DX2                !
 ! D105  D(38,35,37,44)        -62.9531         estimate D2E/DX2                !
 ! D106  D(35,36,39,45)        -56.1179         estimate D2E/DX2                !
 ! D107  D(35,36,39,46)       -179.1053         estimate D2E/DX2                !
 ! D108  D(35,36,39,47)         64.2847         estimate D2E/DX2                !
 ! D109  D(40,36,39,45)         63.6855         estimate D2E/DX2                !
 ! D110  D(40,36,39,46)        -59.3019         estimate D2E/DX2                !
 ! D111  D(40,36,39,47)       -175.9119         estimate D2E/DX2                !
 ! D112  D(41,36,39,45)       -177.9688         estimate D2E/DX2                !
 ! D113  D(41,36,39,46)         59.0438         estimate D2E/DX2                !
 ! D114  D(41,36,39,47)        -57.5662         estimate D2E/DX2                !
 ! D115  D(35,37,42,45)         56.6069         estimate D2E/DX2                !
 ! D116  D(35,37,42,48)        179.1934         estimate D2E/DX2                !
 ! D117  D(35,37,42,49)        -63.9924         estimate D2E/DX2                !
 ! D118  D(43,37,42,45)        -63.4323         estimate D2E/DX2                !
 ! D119  D(43,37,42,48)         59.1542         estimate D2E/DX2                !
 ! D120  D(43,37,42,49)        175.9684         estimate D2E/DX2                !
 ! D121  D(44,37,42,45)        178.6073         estimate D2E/DX2                !
 ! D122  D(44,37,42,48)        -58.8062         estimate D2E/DX2                !
 ! D123  D(44,37,42,49)         58.008          estimate D2E/DX2                !
 ! D124  D(36,39,45,42)         55.2847         estimate D2E/DX2                !
 ! D125  D(36,39,45,50)        178.0363         estimate D2E/DX2                !
 ! D126  D(36,39,45,51)        -64.8725         estimate D2E/DX2                !
 ! D127  D(46,39,45,42)        178.0163         estimate D2E/DX2                !
 ! D128  D(46,39,45,50)        -59.2321         estimate D2E/DX2                !
 ! D129  D(46,39,45,51)         57.8591         estimate D2E/DX2                !
 ! D130  D(47,39,45,42)        -64.9547         estimate D2E/DX2                !
 ! D131  D(47,39,45,50)         57.797          estimate D2E/DX2                !
 ! D132  D(47,39,45,51)        174.8881         estimate D2E/DX2                !
 ! D133  D(37,42,45,39)        -55.4192         estimate D2E/DX2                !
 ! D134  D(37,42,45,50)       -178.159          estimate D2E/DX2                !
 ! D135  D(37,42,45,51)         64.7833         estimate D2E/DX2                !
 ! D136  D(48,42,45,39)       -177.5783         estimate D2E/DX2                !
 ! D137  D(48,42,45,50)         59.6818         estimate D2E/DX2                !
 ! D138  D(48,42,45,51)        -57.3759         estimate D2E/DX2                !
 ! D139  D(49,42,45,39)         65.1275         estimate D2E/DX2                !
 ! D140  D(49,42,45,50)        -57.6123         estimate D2E/DX2                !
 ! D141  D(49,42,45,51)       -174.67           estimate D2E/DX2                !
 --------------------------------------------------------------------------------
 Trust Radius=3.00D-01 FncErr=5.00D-06 GrdErr=5.00D-06 EigMax=2.50D+02 EigMin=1.00D-04
 Number of steps in this run=    301 maximum allowed number of steps=    306.
 GradGradGradGradGradGradGradGradGradGradGradGradGradGradGradGradGradGrad

 Leave Link  103 at Fri Dec 14 13:12:53 2018, MaxMem=  1342177280 cpu:               0.4 elap:               0.1
 (Enter /gpfs/apps/hpc/Apps/Restricted/Gaussian/Rev_A.03/g16/l202.exe)
 Symmetry turned off by external request.
 Stoichiometry    C22H25N3O(1+,2)
 Framework group  C1[X(C22H25N3O)]
 Deg. of freedom   147
 Full point group                 C1      NOp   1
                          Input orientation:                          
 ---------------------------------------------------------------------
 Center     Atomic      Atomic             Coordinates (Angstroms)
 Number     Number       Type             X           Y           Z
 ---------------------------------------------------------------------
      1          6           0       -0.441684    2.682131    0.271440
      2          6           0       -1.856882    2.818524    0.234007
      3          6           0       -2.439043    4.096430    0.149597
      4          6           0       -1.578839    5.181726    0.112432
      5          6           0       -0.171034    5.028510    0.153834
      6          6           0        0.437802    3.778009    0.233878
      7          6           0       -1.393958    0.694254    0.348774
      8          1           0       -3.513919    4.218184    0.115484
      9          1           0       -1.987998    6.182621    0.050375
     10          1           0        0.454845    5.912958    0.123697
     11          7           0       -2.413318    1.568739    0.284606
     12          6           0       -2.982466   -1.201063    0.411316
     13          6           0       -1.607661   -0.723184    0.404288
     14          6           0       -0.573360   -1.654913    0.438534
     15          6           0       -0.844671   -3.023238    0.486268
     16          6           0       -2.201742   -3.469469    0.508507
     17          6           0       -3.266029   -2.605856    0.473296
     18          1           0        0.455991   -1.319147    0.424348
     19          1           0       -2.388360   -4.536726    0.553504
     20          6           0        0.256329   -4.031009    0.511822
     21          1           0        1.236630   -3.558788    0.461665
     22          1           0        0.199303   -4.632116    1.425416
     23          1           0        0.152801   -4.729287   -0.324803
     24          6           0       -4.693332   -3.057520    0.486739
     25          1           0       -5.235371   -2.611765    1.324936
     26          1           0       -5.207102   -2.745662   -0.426883
     27          1           0       -4.748279   -4.142692    0.568187
     28          8           0       -3.991394   -0.378310    0.358162
     29          1           0       -3.622753    0.594081    0.316476
     30          7           0       -0.188486    1.342648    0.343975
     31          1           0        0.766786    0.993244    0.386120
     32          6           0        1.887382    3.592148    0.276195
     33          1           0        2.491276    4.503579    0.228177
     34          7           0        2.392298    2.418535    0.366772
     35          6           0        3.856046    2.291049    0.410734
     36          6           0        4.509928    2.715240   -0.914861
     37          6           0        4.486728    3.052077    1.588625
     38          1           0        4.060234    1.224453    0.556297
     39          6           0        6.024647    2.485263   -0.868151
     40          1           0        4.300642    3.778511   -1.082617
     41          1           0        4.056903    2.160701   -1.742063
     42          6           0        6.000209    2.815580    1.638901
     43          1           0        4.293640    4.124402    1.465849
     44          1           0        4.007982    2.743287    2.522439
     45          6           0        6.665187    3.216766    0.316811
     46          1           0        6.482397    2.804647   -1.809162
     47          1           0        6.217359    1.409132   -0.773431
     48          1           0        6.435389    3.374670    2.472828
     49          1           0        6.193107    1.753230    1.833871
     50          1           0        7.739569    3.012852    0.353849
     51          1           0        6.551219    4.298757    0.173916
 ---------------------------------------------------------------------
 Rotational constants (GHZ):           0.2900674           0.1043964           0.0792915
 Leave Link  202 at Fri Dec 14 13:12:53 2018, MaxMem=  1342177280 cpu:               0.7 elap:               0.1
 (Enter /gpfs/apps/hpc/Apps/Restricted/Gaussian/Rev_A.03/g16/l301.exe)
 Standard basis: 6-31G(d,p) (6D, 7F)
 Ernie: Thresh=  0.10000D-02 Tol=  0.10000D-05 Strict=F.
   515 basis functions,   903 primitive gaussians,   515 cartesian basis functions
    93 alpha electrons       92 beta electrons
       nuclear repulsion energy      2190.2015311176 Hartrees.
 IExCor=  402 DFT=T Ex+Corr=B3LYP ExCW=0 ScaHFX=  0.200000
 ScaDFX=  0.800000  0.720000  1.000000  0.810000 ScalE2=  1.000000  1.000000
 IRadAn=      5 IRanWt=     -1 IRanGd=            0 ICorTp=0 IEmpDi=141
 NAtoms=   51 NActive=   51 NUniq=   51 SFac= 1.00D+00 NAtFMM=   60 NAOKFM=F Big=F
 Integral buffers will be    131072 words long.
 Raffenetti 2 integral format.
 Two-electron integral symmetry is turned off.
 R6Disp:  Grimme-D3(BJ) Dispersion energy=       -0.1083724587 Hartrees.
 Nuclear repulsion after empirical dispersion term =     2190.0931586588 Hartrees.
 Using the following non-standard input for PCM:
 radii=bondi
 dis
 rep
 cav
 --- end of non-standard input.
 ------------------------------------------------------------------------------
 Polarizable Continuum Model (PCM)
 =================================
 Model                : C-PCM.
 Atomic radii         : Bondi.
 Polarization charges : Total charges.
 Charge compensation  : None.
 Solution method      : On-the-fly selection.
 Cavity type          : Scaled VdW (van der Waals Surface) (Alpha=1.100).
 Cavity algorithm     : GePol (No added spheres)
                        Default sphere list used, NSphG=   51.
                        Lebedev-Laikov grids with approx.  5.0 points / Ang**2.
                        Smoothing algorithm: York/Karplus (Gamma=1.0000).
                        Polarization charges: spherical gaussians, with
                                              point-specific exponents (IZeta= 3).
                        Self-potential: point-specific (ISelfS= 7).
                        Self-field    : sphere-specific E.n sum rule (ISelfD= 2).
 1st derivatives      : Analytical E(r).r(x)/FMM algorithm (CHGder, D1EAlg=3).
                        Cavity 1st derivative terms included.
 Solvent              : Dichloromethane, Eps=   8.930000 Eps(inf)=   2.028346
 ------------------------------------------------------------------------------
 GePol: Number of generator spheres                  =      51
 GePol: Total number of spheres                      =      51
 GePol: Number of exposed spheres                    =      51 (100.00%)
 GePol: Number of points                             =    3448
 GePol: Average weight of points                     =       0.12
 GePol: Minimum weight of points                     =   0.40D-11
 GePol: Maximum weight of points                     =    0.21770
 GePol: Number of points with low weight             =     226
 GePol: Fraction of low-weight points (<1% of avg)   =       6.55%
 GePol: Cavity surface area                          =    409.165 Ang**2
 GePol: Cavity volume                                =    387.323 Ang**3
 PCM non-electrostatic energy =         0.0148483994 Hartrees.
 Nuclear repulsion after PCM non-electrostatic terms =     2190.1080070582 Hartrees.
 Leave Link  301 at Fri Dec 14 13:12:53 2018, MaxMem=  1342177280 cpu:               3.8 elap:               0.3
 (Enter /gpfs/apps/hpc/Apps/Restricted/Gaussian/Rev_A.03/g16/l302.exe)
 NPDir=0 NMtPBC=     1 NCelOv=     1 NCel=       1 NClECP=     1 NCelD=      1
         NCelK=      1 NCelE2=     1 NClLst=     1 CellRange=     0.0.
 One-electron integrals computed using PRISM.
 NBasis=   515 RedAO= T EigKep=  3.01D-04  NBF=   515
 NBsUse=   515 1.00D-06 EigRej= -1.00D+00 NBFU=   515
 Precomputing XC quadrature grid using
 IXCGrd= 4 IRadAn=           5 IRanWt=          -1 IRanGd=           0 AccXCQ= 0.00D+00.
 Generated NRdTot=       0 NPtTot=           0 NUsed=           0 NTot=          32
 NSgBfM=   506   506   506   506   506 MxSgAt=    51 MxSgA2=    51.
 Leave Link  302 at Fri Dec 14 13:12:54 2018, MaxMem=  1342177280 cpu:              16.3 elap:               1.1
 (Enter /gpfs/apps/hpc/Apps/Restricted/Gaussian/Rev_A.03/g16/l303.exe)
 DipDrv:  MaxL=1.
 Leave Link  303 at Fri Dec 14 13:12:54 2018, MaxMem=  1342177280 cpu:               1.3 elap:               0.1
 (Enter /gpfs/apps/hpc/Apps/Restricted/Gaussian/Rev_A.03/g16/l401.exe)
 ExpMin= 1.61D-01 ExpMax= 5.48D+03 ExpMxC= 8.25D+02 IAcc=3 IRadAn=         5 AccDes= 0.00D+00
 Harris functional with IExCor=  402 and IRadAn=       5 diagonalized for initial guess.
 HarFok:  IExCor=  402 AccDes= 0.00D+00 IRadAn=         5 IDoV= 1 UseB2=F ITyADJ=14
 ICtDFT=  3500011 ScaDFX=  1.000000  1.000000  1.000000  1.000000
 FoFCou: FMM=F IPFlag=           0 FMFlag=      100000 FMFlg1=           0
         NFxFlg=           0 DoJE=T BraDBF=F KetDBF=T FulRan=T
         wScrn=  0.000000 ICntrl=       500 IOpCl=  0 I1Cent=   200000004 NGrid=           0
         NMat0=    1 NMatS0=      1 NMatT0=    0 NMatD0=    1 NMtDS0=    0 NMtDT0=    0
 Symmetry not used in FoFCou.
 Harris En= -1092.79516434906    
 JPrj=0 DoOrth=F DoCkMO=F.
 Initial guess <Sx>= 0.0000 <Sy>= 0.0000 <Sz>= 0.5000 <S**2>= 0.7500 S= 0.5000
 Leave Link  401 at Fri Dec 14 13:12:59 2018, MaxMem=  1342177280 cpu:              71.2 elap:               4.6
 (Enter /gpfs/apps/hpc/Apps/Restricted/Gaussian/Rev_A.03/g16/l502.exe)
 Two-electron integral symmetry not used.
 UHF open shell SCF:
 Using DIIS extrapolation, IDIIS=  1040.
 NGot=  1342177280 LenX=  1341634262 LenY=  1341368522
 Requested convergence on RMS density matrix=1.00D-08 within 128 cycles.
 Requested convergence on MAX density matrix=1.00D-06.
 Requested convergence on             energy=1.00D-06.
 No special actions if energy rises.
 Fock matrices will be formed incrementally for  20 cycles.

 Cycle   1  Pass 1  IDiag  1:
 FoFJK:  IHMeth= 1 ICntrl=       0 DoSepK=F KAlg= 0 I1Cent=           0 FoldK=F
 IRaf= 600000000 NMat=       1 IRICut=       1 DoRegI=T DoRafI=F ISym2E= 0 IDoP0=0 IntGTp=1.
 FoFCou: FMM=F IPFlag=           0 FMFlag=      100000 FMFlg1=           0
         NFxFlg=           0 DoJE=F BraDBF=F KetDBF=F FulRan=T
         wScrn=  0.000000 ICntrl=         0 IOpCl=  1 I1Cent=           0 NGrid=           0
         NMat0=    1 NMatS0=      1 NMatT0=    0 NMatD0=    1 NMtDS0=    0 NMtDT0=    0
 Symmetry not used in FoFCou.
 Inv3:  Mode=1 IEnd=    35666112.
 Iteration    1 A*A^-1 deviation from unit magnitude is 1.08D-14 for   1956.
 Iteration    1 A*A^-1 deviation from orthogonality  is 3.23D-15 for   1954   1343.
 Iteration    1 A^-1*A deviation from unit magnitude is 1.08D-14 for   1956.
 Iteration    1 A^-1*A deviation from orthogonality  is 2.30D-15 for   3270   2547.
 E= -1092.32761491800    
 DIIS: error= 2.48D-02 at cycle   1 NSaved=   1.
 NSaved= 1 IEnMin= 1 EnMin= -1092.32761491800     IErMin= 1 ErrMin= 2.48D-02
 ErrMax= 2.48D-02  0.00D+00 EMaxC= 1.00D-01 BMatC= 2.12D+00 BMatP= 2.12D+00
 IDIUse=3 WtCom= 7.52D-01 WtEn= 2.48D-01
 Coeff-Com:  0.100D+01
 Coeff-En:   0.100D+01
 Coeff:      0.100D+01
 Gap=     0.173 Goal=   None    Shift=    0.000
 Gap=     0.046 Goal=   None    Shift=    0.000
 GapD=    0.046 DampG=0.250 DampE=0.500 DampFc=0.2500 IDamp=-1.
 Damping current iteration by 2.50D-01
 RMSDP=3.37D-03 MaxDP=1.37D-01              OVMax= 2.53D-01

 Cycle   2  Pass 1  IDiag  1:
 RMSU=  8.17D-04    CP:  9.85D-01
 E= -1092.52573640098     Delta-E=       -0.198121482983 Rises=F Damp=T
 DIIS: error= 1.38D-02 at cycle   2 NSaved=   2.
 NSaved= 2 IEnMin= 2 EnMin= -1092.52573640098     IErMin= 2 ErrMin= 1.38D-02
 ErrMax= 1.38D-02  0.00D+00 EMaxC= 1.00D-01 BMatC= 5.82D-01 BMatP= 2.12D+00
 IDIUse=3 WtCom= 8.62D-01 WtEn= 1.38D-01
 Coeff-Com: -0.869D+00 0.187D+01
 Coeff-En:   0.000D+00 0.100D+01
 Coeff:     -0.749D+00 0.175D+01
 Gap=     0.214 Goal=   None    Shift=    0.000
 Gap=     0.087 Goal=   None    Shift=    0.000
 RMSDP=1.34D-03 MaxDP=7.09D-02 DE=-1.98D-01 OVMax= 2.17D-01

 Cycle   3  Pass 1  IDiag  1:
 RMSU=  9.19D-04    CP:  9.54D-01  2.07D+00
 E= -1092.86108074208     Delta-E=       -0.335344341098 Rises=F Damp=F
 DIIS: error= 5.39D-03 at cycle   3 NSaved=   3.
 NSaved= 3 IEnMin= 3 EnMin= -1092.86108074208     IErMin= 3 ErrMin= 5.39D-03
 ErrMax= 5.39D-03  0.00D+00 EMaxC= 1.00D-01 BMatC= 7.63D-02 BMatP= 5.82D-01
 IDIUse=3 WtCom= 9.46D-01 WtEn= 5.39D-02
 Coeff-Com: -0.360D+00 0.744D+00 0.616D+00
 Coeff-En:   0.000D+00 0.000D+00 0.100D+01
 Coeff:     -0.341D+00 0.704D+00 0.636D+00
 Gap=     0.156 Goal=   None    Shift=    0.000
 Gap=     0.058 Goal=   None    Shift=    0.000
 RMSDP=4.51D-04 MaxDP=3.32D-02 DE=-3.35D-01 OVMax= 9.76D-02

 Cycle   4  Pass 1  IDiag  1:
 RMSU=  3.59D-04    CP:  9.57D-01  2.12D+00  7.10D-01
 E= -1092.87474858889     Delta-E=       -0.013667846810 Rises=F Damp=F
 DIIS: error= 3.31D-03 at cycle   4 NSaved=   4.
 NSaved= 4 IEnMin= 4 EnMin= -1092.87474858889     IErMin= 4 ErrMin= 3.31D-03
 ErrMax= 3.31D-03  0.00D+00 EMaxC= 1.00D-01 BMatC= 2.80D-02 BMatP= 7.63D-02
 IDIUse=3 WtCom= 9.67D-01 WtEn= 3.31D-02
 Coeff-Com: -0.700D-01 0.147D+00 0.379D+00 0.544D+00
 Coeff-En:   0.000D+00 0.000D+00 0.267D+00 0.733D+00
 Coeff:     -0.677D-01 0.142D+00 0.375D+00 0.550D+00
 Gap=     0.157 Goal=   None    Shift=    0.000
 Gap=     0.059 Goal=   None    Shift=    0.000
 RMSDP=1.86D-04 MaxDP=1.27D-02 DE=-1.37D-02 OVMax= 2.69D-02

 Cycle   5  Pass 1  IDiag  1:
 RMSU=  1.04D-04    CP:  9.56D-01  2.09D+00  7.93D-01  6.34D-01
 E= -1092.88135287085     Delta-E=       -0.006604281953 Rises=F Damp=F
 DIIS: error= 7.09D-04 at cycle   5 NSaved=   5.
 NSaved= 5 IEnMin= 5 EnMin= -1092.88135287085     IErMin= 5 ErrMin= 7.09D-04
 ErrMax= 7.09D-04  0.00D+00 EMaxC= 1.00D-01 BMatC= 1.83D-03 BMatP= 2.80D-02
 IDIUse=3 WtCom= 9.93D-01 WtEn= 7.09D-03
 Coeff-Com: -0.392D-02 0.962D-02 0.146D+00 0.286D+00 0.562D+00
 Coeff-En:   0.000D+00 0.000D+00 0.000D+00 0.000D+00 0.100D+01
 Coeff:     -0.389D-02 0.955D-02 0.145D+00 0.284D+00 0.565D+00
 Gap=     0.156 Goal=   None    Shift=    0.000
 Gap=     0.060 Goal=   None    Shift=    0.000
 RMSDP=5.58D-05 MaxDP=4.67D-03 DE=-6.60D-03 OVMax= 1.61D-02

 Cycle   6  Pass 1  IDiag  1:
 RMSU=  3.98D-05    CP:  9.56D-01  2.09D+00  8.02D-01  6.73D-01  6.61D-01
 E= -1092.88178558648     Delta-E=       -0.000432715634 Rises=F Damp=F
 DIIS: error= 2.11D-04 at cycle   6 NSaved=   6.
 NSaved= 6 IEnMin= 6 EnMin= -1092.88178558648     IErMin= 6 ErrMin= 2.11D-04
 ErrMax= 2.11D-04  0.00D+00 EMaxC= 1.00D-01 BMatC= 1.64D-04 BMatP= 1.83D-03
 IDIUse=3 WtCom= 9.98D-01 WtEn= 2.11D-03
 Coeff-Com:  0.275D-02-0.478D-02 0.468D-01 0.984D-01 0.289D+00 0.568D+00
 Coeff-En:   0.000D+00 0.000D+00 0.000D+00 0.000D+00 0.000D+00 0.100D+01
 Coeff:      0.275D-02-0.477D-02 0.467D-01 0.982D-01 0.289D+00 0.568D+00
 Gap=     0.156 Goal=   None    Shift=    0.000
 Gap=     0.060 Goal=   None    Shift=    0.000
 RMSDP=1.93D-05 MaxDP=1.88D-03 DE=-4.33D-04 OVMax= 5.66D-03

 Cycle   7  Pass 1  IDiag  1:
 RMSU=  1.67D-05    CP:  9.56D-01  2.09D+00  8.02D-01  6.83D-01  7.46D-01
                    CP:  9.81D-01
 E= -1092.88183544256     Delta-E=       -0.000049856078 Rises=F Damp=F
 DIIS: error= 1.71D-04 at cycle   7 NSaved=   7.
 NSaved= 7 IEnMin= 7 EnMin= -1092.88183544256     IErMin= 7 ErrMin= 1.71D-04
 ErrMax= 1.71D-04  0.00D+00 EMaxC= 1.00D-01 BMatC= 3.89D-05 BMatP= 1.64D-04
 IDIUse=3 WtCom= 9.98D-01 WtEn= 1.71D-03
 Coeff-Com:  0.250D-02-0.480D-02-0.280D-02-0.688D-02 0.517D-01 0.317D+00
 Coeff-Com:  0.644D+00
 Coeff-En:   0.000D+00 0.000D+00 0.000D+00 0.000D+00 0.000D+00 0.000D+00
 Coeff-En:   0.100D+01
 Coeff:      0.250D-02-0.479D-02-0.279D-02-0.687D-02 0.516D-01 0.316D+00
 Coeff:      0.644D+00
 Gap=     0.157 Goal=   None    Shift=    0.000
 Gap=     0.060 Goal=   None    Shift=    0.000
 RMSDP=1.38D-05 MaxDP=1.09D-03 DE=-4.99D-05 OVMax= 7.13D-03

 Cycle   8  Pass 1  IDiag  1:
 RMSU=  9.03D-06    CP:  9.56D-01  2.09D+00  8.03D-01  6.89D-01  7.82D-01
                    CP:  1.21D+00  1.01D+00
 E= -1092.88185885811     Delta-E=       -0.000023415556 Rises=F Damp=F
 DIIS: error= 9.84D-05 at cycle   8 NSaved=   8.
 NSaved= 8 IEnMin= 8 EnMin= -1092.88185885811     IErMin= 8 ErrMin= 9.84D-05
 ErrMax= 9.84D-05  0.00D+00 EMaxC= 1.00D-01 BMatC= 1.08D-05 BMatP= 3.89D-05
 IDIUse=1 WtCom= 1.00D+00 WtEn= 0.00D+00
 Coeff-Com:  0.329D-03-0.493D-03-0.182D-01-0.445D-01-0.864D-01-0.105D+00
 Coeff-Com:  0.282D+00 0.972D+00
 Coeff:      0.329D-03-0.493D-03-0.182D-01-0.445D-01-0.864D-01-0.105D+00
 Coeff:      0.282D+00 0.972D+00
 Gap=     0.157 Goal=   None    Shift=    0.000
 Gap=     0.060 Goal=   None    Shift=    0.000
 RMSDP=1.41D-05 MaxDP=1.26D-03 DE=-2.34D-05 OVMax= 8.09D-03

 Cycle   9  Pass 1  IDiag  1:
 RMSU=  4.48D-06    CP:  9.56D-01  2.09D+00  8.04D-01  6.97D-01  8.23D-01
                    CP:  1.44D+00  1.47D+00  1.43D+00
 E= -1092.88187208336     Delta-E=       -0.000013225242 Rises=F Damp=F
 DIIS: error= 5.33D-05 at cycle   9 NSaved=   9.
 NSaved= 9 IEnMin= 9 EnMin= -1092.88187208336     IErMin= 9 ErrMin= 5.33D-05
 ErrMax= 5.33D-05  0.00D+00 EMaxC= 1.00D-01 BMatC= 4.20D-06 BMatP= 1.08D-05
 IDIUse=1 WtCom= 1.00D+00 WtEn= 0.00D+00
 Coeff-Com: -0.205D-03 0.604D-03-0.996D-02-0.259D-01-0.640D-01-0.151D+00
 Coeff-Com: -0.276D-02 0.590D+00 0.663D+00
 Coeff:     -0.205D-03 0.604D-03-0.996D-02-0.259D-01-0.640D-01-0.151D+00
 Coeff:     -0.276D-02 0.590D+00 0.663D+00
 Gap=     0.157 Goal=   None    Shift=    0.000
 Gap=     0.060 Goal=   None    Shift=    0.000
 RMSDP=6.91D-06 MaxDP=6.97D-04 DE=-1.32D-05 OVMax= 3.88D-03

 Cycle  10  Pass 1  IDiag  1:
 RMSU=  2.50D-06    CP:  9.56D-01  2.09D+00  8.04D-01  7.00D-01  8.41D-01
                    CP:  1.55D+00  1.66D+00  1.75D+00  1.01D+00
 E= -1092.88187571397     Delta-E=       -0.000003630617 Rises=F Damp=F
 DIIS: error= 3.21D-05 at cycle  10 NSaved=  10.
 NSaved=10 IEnMin=10 EnMin= -1092.88187571397     IErMin=10 ErrMin= 3.21D-05
 ErrMax= 3.21D-05  0.00D+00 EMaxC= 1.00D-01 BMatC= 8.13D-07 BMatP= 4.20D-06
 IDIUse=1 WtCom= 1.00D+00 WtEn= 0.00D+00
 Coeff-Com: -0.957D-04 0.283D-03 0.193D-02 0.303D-02 0.299D-02-0.263D-01
 Coeff-Com: -0.859D-01-0.547D-01 0.281D+00 0.878D+00
 Coeff:     -0.957D-04 0.283D-03 0.193D-02 0.303D-02 0.299D-02-0.263D-01
 Coeff:     -0.859D-01-0.547D-01 0.281D+00 0.878D+00
 Gap=     0.157 Goal=   None    Shift=    0.000
 Gap=     0.060 Goal=   None    Shift=    0.000
 RMSDP=3.90D-06 MaxDP=3.88D-04 DE=-3.63D-06 OVMax= 2.13D-03

 Cycle  11  Pass 1  IDiag  1:
 RMSU=  1.31D-06    CP:  9.56D-01  2.09D+00  8.04D-01  7.01D-01  8.49D-01
                    CP:  1.60D+00  1.75D+00  1.94D+00  1.32D+00  1.28D+00
 E= -1092.88187676390     Delta-E=       -0.000001049930 Rises=F Damp=F
 DIIS: error= 1.95D-05 at cycle  11 NSaved=  11.
 NSaved=11 IEnMin=11 EnMin= -1092.88187676390     IErMin=11 ErrMin= 1.95D-05
 ErrMax= 1.95D-05  0.00D+00 EMaxC= 1.00D-01 BMatC= 2.95D-07 BMatP= 8.13D-07
 IDIUse=1 WtCom= 1.00D+00 WtEn= 0.00D+00
 Coeff-Com: -0.112D-05-0.366D-06 0.395D-02 0.903D-02 0.209D-01 0.299D-01
 Coeff-Com: -0.483D-01-0.209D+00-0.359D-01 0.459D+00 0.771D+00
 Coeff:     -0.112D-05-0.366D-06 0.395D-02 0.903D-02 0.209D-01 0.299D-01
 Coeff:     -0.483D-01-0.209D+00-0.359D-01 0.459D+00 0.771D+00
 Gap=     0.157 Goal=   None    Shift=    0.000
 Gap=     0.060 Goal=   None    Shift=    0.000
 RMSDP=2.17D-06 MaxDP=2.56D-04 DE=-1.05D-06 OVMax= 1.07D-03

 Cycle  12  Pass 1  IDiag  1:
 RMSU=  6.52D-07    CP:  9.56D-01  2.09D+00  8.04D-01  7.02D-01  8.53D-01
                    CP:  1.62D+00  1.81D+00  2.04D+00  1.50D+00  1.65D+00
                    CP:  1.12D+00
 E= -1092.88187707693     Delta-E=       -0.000000313029 Rises=F Damp=F
 DIIS: error= 8.07D-06 at cycle  12 NSaved=  12.
 NSaved=12 IEnMin=12 EnMin= -1092.88187707693     IErMin=12 ErrMin= 8.07D-06
 ErrMax= 8.07D-06  0.00D+00 EMaxC= 1.00D-01 BMatC= 5.88D-08 BMatP= 2.95D-07
 IDIUse=1 WtCom= 1.00D+00 WtEn= 0.00D+00
 Coeff-Com:  0.285D-04-0.101D-03 0.796D-03 0.214D-02 0.710D-02 0.208D-01
 Coeff-Com:  0.114D-01-0.573D-01-0.953D-01-0.133D+00 0.311D+00 0.932D+00
 Coeff:      0.285D-04-0.101D-03 0.796D-03 0.214D-02 0.710D-02 0.208D-01
 Coeff:      0.114D-01-0.573D-01-0.953D-01-0.133D+00 0.311D+00 0.932D+00
 Gap=     0.157 Goal=   None    Shift=    0.000
 Gap=     0.060 Goal=   None    Shift=    0.000
 RMSDP=1.07D-06 MaxDP=1.56D-04 DE=-3.13D-07 OVMax= 4.78D-04

 Cycle  13  Pass 1  IDiag  1:
 RMSU=  3.06D-07    CP:  9.56D-01  2.09D+00  8.04D-01  7.03D-01  8.54D-01
                    CP:  1.63D+00  1.82D+00  2.08D+00  1.59D+00  1.85D+00
                    CP:  1.46D+00  1.11D+00
 E= -1092.88187714773     Delta-E=       -0.000000070797 Rises=F Damp=F
 DIIS: error= 5.17D-06 at cycle  13 NSaved=  13.
 NSaved=13 IEnMin=13 EnMin= -1092.88187714773     IErMin=13 ErrMin= 5.17D-06
 ErrMax= 5.17D-06  0.00D+00 EMaxC= 1.00D-01 BMatC= 1.24D-08 BMatP= 5.88D-08
 IDIUse=1 WtCom= 1.00D+00 WtEn= 0.00D+00
 Coeff-Com:  0.123D-04-0.447D-04-0.136D-03-0.198D-03 0.552D-03 0.576D-02
 Coeff-Com:  0.104D-01 0.142D-03-0.370D-01-0.130D+00 0.302D-01 0.403D+00
 Coeff-Com:  0.717D+00
 Coeff:      0.123D-04-0.447D-04-0.136D-03-0.198D-03 0.552D-03 0.576D-02
 Coeff:      0.104D-01 0.142D-03-0.370D-01-0.130D+00 0.302D-01 0.403D+00
 Coeff:      0.717D+00
 Gap=     0.157 Goal=   None    Shift=    0.000
 Gap=     0.060 Goal=   None    Shift=    0.000
 RMSDP=3.74D-07 MaxDP=4.55D-05 DE=-7.08D-08 OVMax= 1.45D-04

 Cycle  14  Pass 1  IDiag  1:
 RMSU=  1.51D-07    CP:  9.56D-01  2.09D+00  8.04D-01  7.03D-01  8.55D-01
                    CP:  1.64D+00  1.83D+00  2.10D+00  1.61D+00  1.91D+00
                    CP:  1.56D+00  1.31D+00  1.04D+00
 E= -1092.88187715676     Delta-E=       -0.000000009031 Rises=F Damp=F
 DIIS: error= 2.25D-06 at cycle  14 NSaved=  14.
 NSaved=14 IEnMin=14 EnMin= -1092.88187715676     IErMin=14 ErrMin= 2.25D-06
 ErrMax= 2.25D-06  0.00D+00 EMaxC= 1.00D-01 BMatC= 4.18D-09 BMatP= 1.24D-08
 IDIUse=1 WtCom= 1.00D+00 WtEn= 0.00D+00
 Coeff-Com: -0.418D-05 0.945D-05-0.327D-03-0.820D-03-0.190D-02-0.257D-02
 Coeff-Com:  0.297D-02 0.176D-01 0.811D-02-0.382D-01-0.649D-01-0.203D-01
 Coeff-Com:  0.420D+00 0.680D+00
 Coeff:     -0.418D-05 0.945D-05-0.327D-03-0.820D-03-0.190D-02-0.257D-02
 Coeff:      0.297D-02 0.176D-01 0.811D-02-0.382D-01-0.649D-01-0.203D-01
 Coeff:      0.420D+00 0.680D+00
 Gap=     0.157 Goal=   None    Shift=    0.000
 Gap=     0.060 Goal=   None    Shift=    0.000
 RMSDP=1.40D-07 MaxDP=2.11D-05 DE=-9.03D-09 OVMax= 5.68D-05

 Cycle  15  Pass 1  IDiag  1:
 RMSU=  7.00D-08    CP:  9.56D-01  2.09D+00  8.04D-01  7.03D-01  8.55D-01
                    CP:  1.64D+00  1.83D+00  2.10D+00  1.62D+00  1.92D+00
                    CP:  1.59D+00  1.38D+00  1.30D+00  8.79D-01
 E= -1092.88187715917     Delta-E=       -0.000000002412 Rises=F Damp=F
 DIIS: error= 1.01D-06 at cycle  15 NSaved=  15.
 NSaved=15 IEnMin=15 EnMin= -1092.88187715917     IErMin=15 ErrMin= 1.01D-06
 ErrMax= 1.01D-06  0.00D+00 EMaxC= 1.00D-01 BMatC= 7.64D-10 BMatP= 4.18D-09
 IDIUse=1 WtCom= 1.00D+00 WtEn= 0.00D+00
 Coeff-Com:  0.975D-07 0.684D-05-0.101D-03-0.294D-03-0.888D-03-0.207D-02
 Coeff-Com: -0.976D-03 0.645D-02 0.111D-01 0.103D-01-0.322D-01-0.876D-01
 Coeff-Com:  0.485D-03 0.290D+00 0.806D+00
 Coeff:      0.975D-07 0.684D-05-0.101D-03-0.294D-03-0.888D-03-0.207D-02
 Coeff:     -0.976D-03 0.645D-02 0.111D-01 0.103D-01-0.322D-01-0.876D-01
 Coeff:      0.485D-03 0.290D+00 0.806D+00
 Gap=     0.157 Goal=   None    Shift=    0.000
 Gap=     0.060 Goal=   None    Shift=    0.000
 RMSDP=8.14D-08 MaxDP=7.04D-06 DE=-2.41D-09 OVMax= 3.05D-05

 Cycle  16  Pass 1  IDiag  1:
 RMSU=  3.53D-08    CP:  9.56D-01  2.09D+00  8.04D-01  7.03D-01  8.55D-01
                    CP:  1.64D+00  1.83D+00  2.10D+00  1.62D+00  1.93D+00
                    CP:  1.61D+00  1.41D+00  1.40D+00  1.14D+00  1.11D+00
 E= -1092.88187715969     Delta-E=       -0.000000000524 Rises=F Damp=F
 DIIS: error= 5.21D-07 at cycle  16 NSaved=  16.
 NSaved=16 IEnMin=16 EnMin= -1092.88187715969     IErMin=16 ErrMin= 5.21D-07
 ErrMax= 5.21D-07  0.00D+00 EMaxC= 1.00D-01 BMatC= 2.45D-10 BMatP= 7.64D-10
 IDIUse=1 WtCom= 1.00D+00 WtEn= 0.00D+00
 Coeff-Com:  0.333D-05-0.180D-05 0.602D-04 0.118D-03 0.151D-03-0.237D-03
 Coeff-Com: -0.156D-02-0.263D-02 0.393D-02 0.190D-01 0.259D-02-0.444D-01
 Coeff-Com: -0.151D+00-0.463D-01 0.477D+00 0.743D+00
 Coeff:      0.333D-05-0.180D-05 0.602D-04 0.118D-03 0.151D-03-0.237D-03
 Coeff:     -0.156D-02-0.263D-02 0.393D-02 0.190D-01 0.259D-02-0.444D-01
 Coeff:     -0.151D+00-0.463D-01 0.477D+00 0.743D+00
 Gap=     0.157 Goal=   None    Shift=    0.000
 Gap=     0.060 Goal=   None    Shift=    0.000
 RMSDP=4.81D-08 MaxDP=5.00D-06 DE=-5.24D-10 OVMax= 1.58D-05

 Cycle  17  Pass 1  IDiag  1:
 RMSU=  1.54D-08    CP:  9.56D-01  2.09D+00  8.04D-01  7.03D-01  8.55D-01
                    CP:  1.64D+00  1.83D+00  2.10D+00  1.62D+00  1.93D+00
                    CP:  1.62D+00  1.43D+00  1.47D+00  1.25D+00  1.43D+00
                    CP:  9.47D-01
 E= -1092.88187715989     Delta-E=       -0.000000000195 Rises=F Damp=F
 DIIS: error= 1.40D-07 at cycle  17 NSaved=  17.
 NSaved=17 IEnMin=17 EnMin= -1092.88187715989     IErMin=17 ErrMin= 1.40D-07
 ErrMax= 1.40D-07  0.00D+00 EMaxC= 1.00D-01 BMatC= 1.76D-11 BMatP= 2.45D-10
 IDIUse=1 WtCom= 1.00D+00 WtEn= 0.00D+00
 Coeff-Com:  0.119D-05-0.188D-05 0.269D-04 0.636D-04 0.146D-03 0.220D-03
 Coeff-Com: -0.270D-03-0.145D-02-0.373D-03 0.309D-02 0.420D-02 0.155D-02
 Coeff-Com: -0.377D-01-0.449D-01 0.118D-01 0.177D+00 0.887D+00
 Coeff:      0.119D-05-0.188D-05 0.269D-04 0.636D-04 0.146D-03 0.220D-03
 Coeff:     -0.270D-03-0.145D-02-0.373D-03 0.309D-02 0.420D-02 0.155D-02
 Coeff:     -0.377D-01-0.449D-01 0.118D-01 0.177D+00 0.887D+00
 Gap=     0.157 Goal=   None    Shift=    0.000
 Gap=     0.060 Goal=   None    Shift=    0.000
 RMSDP=1.55D-08 MaxDP=1.30D-06 DE=-1.95D-10 OVMax= 5.41D-06

 Cycle  18  Pass 1  IDiag  1:
 RMSU=  7.00D-09    CP:  9.56D-01  2.09D+00  8.04D-01  7.03D-01  8.55D-01
                    CP:  1.64D+00  1.83D+00  2.10D+00  1.62D+00  1.93D+00
                    CP:  1.62D+00  1.43D+00  1.49D+00  1.28D+00  1.51D+00
                    CP:  1.12D+00  1.20D+00
 E= -1092.88187715989     Delta-E=       -0.000000000004 Rises=F Damp=F
 DIIS: error= 8.27D-08 at cycle  18 NSaved=  18.
 NSaved=18 IEnMin=18 EnMin= -1092.88187715989     IErMin=18 ErrMin= 8.27D-08
 ErrMax= 8.27D-08  0.00D+00 EMaxC= 1.00D-01 BMatC= 9.70D-12 BMatP= 1.76D-11
 IDIUse=1 WtCom= 1.00D+00 WtEn= 0.00D+00
 Coeff-Com: -0.222D-07-0.636D-06 0.278D-05 0.108D-04 0.527D-04 0.187D-03
 Coeff-Com:  0.188D-03-0.243D-03-0.110D-02-0.240D-02 0.180D-02 0.109D-01
 Coeff-Com:  0.104D-01-0.171D-01-0.101D+00-0.703D-01 0.502D+00 0.666D+00
 Coeff:     -0.222D-07-0.636D-06 0.278D-05 0.108D-04 0.527D-04 0.187D-03
 Coeff:      0.188D-03-0.243D-03-0.110D-02-0.240D-02 0.180D-02 0.109D-01
 Coeff:      0.104D-01-0.171D-01-0.101D+00-0.703D-01 0.502D+00 0.666D+00
 Gap=     0.157 Goal=   None    Shift=    0.000
 Gap=     0.060 Goal=   None    Shift=    0.000
 RMSDP=7.63D-09 MaxDP=8.13D-07 DE=-4.09D-12 OVMax= 2.68D-06

 Error on total polarization charges =  0.03867
 SCF Done:  E(UB3LYP) =  -1092.88187716     A.U. after   18 cycles
            NFock= 18  Conv=0.76D-08     -V/T= 2.0096
 <Sx>= 0.0000 <Sy>= 0.0000 <Sz>= 0.5000 <S**2>= 0.7626 S= 0.5063
 <L.S>= 0.000000000000E+00
 KE= 1.082444857164D+03 PE=-6.891799285928D+03 EE= 2.526364544546D+03
 Annihilation of the first spin contaminant:
 S**2 before annihilation     0.7626,   after     0.7501
 Leave Link  502 at Fri Dec 14 13:16:32 2018, MaxMem=  1342177280 cpu:            3334.8 elap:             212.7
 (Enter /gpfs/apps/hpc/Apps/Restricted/Gaussian/Rev_A.03/g16/l601.exe)
 Copying SCF densities to generalized density rwf, IOpCl= 1 IROHF=0.

 **********************************************************************

            Population analysis using the SCF density.

 **********************************************************************

 Alpha  occ. eigenvalues --  -19.23319 -14.42179 -14.37908 -14.34665 -10.32624
 Alpha  occ. eigenvalues --  -10.30813 -10.26713 -10.26524 -10.25688 -10.25651
 Alpha  occ. eigenvalues --  -10.24998 -10.24454 -10.23407 -10.23280 -10.22903
 Alpha  occ. eigenvalues --  -10.22528 -10.22247 -10.21874 -10.21807 -10.20403
 Alpha  occ. eigenvalues --  -10.20119 -10.18527 -10.18467 -10.18195 -10.18189
 Alpha  occ. eigenvalues --  -10.17961  -1.12750  -1.06317  -0.94371  -0.92378
 Alpha  occ. eigenvalues --   -0.90972  -0.88157  -0.83473  -0.82903  -0.81969
 Alpha  occ. eigenvalues --   -0.78808  -0.76666  -0.74520  -0.73875  -0.72308
 Alpha  occ. eigenvalues --   -0.71551  -0.69377  -0.67075  -0.65562  -0.64157
 Alpha  occ. eigenvalues --   -0.62058  -0.61375  -0.61249  -0.59596  -0.58055
 Alpha  occ. eigenvalues --   -0.56455  -0.54874  -0.53514  -0.52633  -0.51524
 Alpha  occ. eigenvalues --   -0.50023  -0.49890  -0.48373  -0.47908  -0.47676
 Alpha  occ. eigenvalues --   -0.47087  -0.46223  -0.45083  -0.44788  -0.44658
 Alpha  occ. eigenvalues --   -0.44525  -0.44278  -0.42853  -0.42546  -0.42008
 Alpha  occ. eigenvalues --   -0.40932  -0.40857  -0.40545  -0.39660  -0.39315
 Alpha  occ. eigenvalues --   -0.38875  -0.38773  -0.38260  -0.37660  -0.36768
 Alpha  occ. eigenvalues --   -0.35889  -0.35192  -0.34664  -0.33026  -0.32811
 Alpha  occ. eigenvalues --   -0.32465  -0.32335  -0.31041  -0.29867  -0.26967
 Alpha  occ. eigenvalues --   -0.26674  -0.25379  -0.24848
 Alpha virt. eigenvalues --   -0.09195  -0.05864  -0.04227  -0.01297   0.01285
 Alpha virt. eigenvalues --    0.03905   0.07083   0.08657   0.09176   0.09781
 Alpha virt. eigenvalues --    0.10134   0.10651   0.11429   0.11956   0.12196
 Alpha virt. eigenvalues --    0.12774   0.12977   0.13272   0.14566   0.15100
 Alpha virt. eigenvalues --    0.15162   0.15874   0.16480   0.16769   0.16908
 Alpha virt. eigenvalues --    0.17294   0.17426   0.17769   0.17905   0.18245
 Alpha virt. eigenvalues --    0.18289   0.18449   0.18902   0.19207   0.20025
 Alpha virt. eigenvalues --    0.21254   0.21984   0.22893   0.23541   0.23897
 Alpha virt. eigenvalues --    0.23979   0.24480   0.24611   0.25133   0.27313
 Alpha virt. eigenvalues --    0.27816   0.28883   0.29131   0.30475   0.30901
 Alpha virt. eigenvalues --    0.31293   0.32873   0.33778   0.35829   0.37839
 Alpha virt. eigenvalues --    0.38541   0.40994   0.41515   0.42442   0.45047
 Alpha virt. eigenvalues --    0.46304   0.47383   0.48105   0.49051   0.49941
 Alpha virt. eigenvalues --    0.50108   0.50359   0.51091   0.51320   0.51487
 Alpha virt. eigenvalues --    0.51900   0.51939   0.52813   0.53142   0.53751
 Alpha virt. eigenvalues --    0.53892   0.54021   0.54746   0.54860   0.55910
 Alpha virt. eigenvalues --    0.56059   0.56650   0.56795   0.57563   0.58562
 Alpha virt. eigenvalues --    0.58690   0.59290   0.59703   0.60434   0.61431
 Alpha virt. eigenvalues --    0.61664   0.61900   0.62494   0.62979   0.63727
 Alpha virt. eigenvalues --    0.63853   0.65466   0.65737   0.66235   0.67506
 Alpha virt. eigenvalues --    0.68291   0.69764   0.70613   0.71287   0.71295
 Alpha virt. eigenvalues --    0.73033   0.73142   0.74264   0.74976   0.75251
 Alpha virt. eigenvalues --    0.75904   0.76205   0.77666   0.77929   0.79164
 Alpha virt. eigenvalues --    0.79715   0.80009   0.80513   0.80854   0.81614
 Alpha virt. eigenvalues --    0.82797   0.83074   0.83719   0.83865   0.84916
 Alpha virt. eigenvalues --    0.85002   0.85718   0.86185   0.86481   0.87035
 Alpha virt. eigenvalues --    0.87151   0.88257   0.88971   0.89058   0.89975
 Alpha virt. eigenvalues --    0.90294   0.90926   0.91093   0.91352   0.91785
 Alpha virt. eigenvalues --    0.92064   0.92928   0.94028   0.94558   0.94923
 Alpha virt. eigenvalues --    0.95670   0.96242   0.96328   0.97122   0.98744
 Alpha virt. eigenvalues --    1.00115   1.01901   1.05027   1.05392   1.06396
 Alpha virt. eigenvalues --    1.08141   1.08303   1.10206   1.10869   1.12958
 Alpha virt. eigenvalues --    1.14373   1.14779   1.16468   1.17020   1.17490
 Alpha virt. eigenvalues --    1.18484   1.20094   1.21765   1.23066   1.23646
 Alpha virt. eigenvalues --    1.24362   1.25388   1.25460   1.26064   1.26173
 Alpha virt. eigenvalues --    1.27243   1.27544   1.27767   1.31684   1.33024
 Alpha virt. eigenvalues --    1.34195   1.35320   1.35398   1.36404   1.36732
 Alpha virt. eigenvalues --    1.37050   1.38017   1.38811   1.39001   1.40201
 Alpha virt. eigenvalues --    1.40712   1.41530   1.43881   1.45777   1.48264
 Alpha virt. eigenvalues --    1.50707   1.51050   1.51718   1.52003   1.56481
 Alpha virt. eigenvalues --    1.57174   1.58016   1.59353   1.60673   1.60825
 Alpha virt. eigenvalues --    1.63433   1.66598   1.66881   1.67844   1.68502
 Alpha virt. eigenvalues --    1.69772   1.70236   1.71112   1.72018   1.72553
 Alpha virt. eigenvalues --    1.73177   1.73616   1.75428   1.76149   1.76784
 Alpha virt. eigenvalues --    1.78695   1.79848   1.80549   1.81383   1.81687
 Alpha virt. eigenvalues --    1.82035   1.83479   1.83710   1.84745   1.85188
 Alpha virt. eigenvalues --    1.85365   1.87340   1.88087   1.88936   1.89158
 Alpha virt. eigenvalues --    1.89569   1.89740   1.90840   1.92658   1.93303
 Alpha virt. eigenvalues --    1.93333   1.93673   1.95313   1.95875   1.96254
 Alpha virt. eigenvalues --    1.97195   1.97511   1.98895   1.99464   2.01737
 Alpha virt. eigenvalues --    2.02498   2.03135   2.03370   2.03667   2.06228
 Alpha virt. eigenvalues --    2.07164   2.07870   2.08676   2.10246   2.11649
 Alpha virt. eigenvalues --    2.11928   2.12046   2.12419   2.13064   2.14441
 Alpha virt. eigenvalues --    2.14836   2.15397   2.15718   2.16253   2.17563
 Alpha virt. eigenvalues --    2.18233   2.18361   2.19216   2.20560   2.20939
 Alpha virt. eigenvalues --    2.21949   2.22216   2.24184   2.25098   2.25587
 Alpha virt. eigenvalues --    2.25960   2.26618   2.28352   2.29107   2.29323
 Alpha virt. eigenvalues --    2.29517   2.32454   2.32843   2.33917   2.34183
 Alpha virt. eigenvalues --    2.35247   2.36113   2.36942   2.37378   2.37769
 Alpha virt. eigenvalues --    2.38384   2.38434   2.39506   2.40746   2.41051
 Alpha virt. eigenvalues --    2.42808   2.43717   2.46497   2.47034   2.47340
 Alpha virt. eigenvalues --    2.48170   2.48686   2.49956   2.50559   2.51431
 Alpha virt. eigenvalues --    2.52426   2.52513   2.53311   2.54355   2.54844
 Alpha virt. eigenvalues --    2.55179   2.56127   2.58017   2.58196   2.58706
 Alpha virt. eigenvalues --    2.59649   2.60766   2.62465   2.63217   2.63823
 Alpha virt. eigenvalues --    2.64312   2.64455   2.65978   2.66451   2.67720
 Alpha virt. eigenvalues --    2.68552   2.70650   2.71948   2.72130   2.72801
 Alpha virt. eigenvalues --    2.73329   2.73891   2.75537   2.75793   2.76861
 Alpha virt. eigenvalues --    2.78954   2.80845   2.81273   2.81991   2.82399
 Alpha virt. eigenvalues --    2.83939   2.84147   2.85666   2.86170   2.87040
 Alpha virt. eigenvalues --    2.87197   2.88378   2.88611   2.90616   2.90918
 Alpha virt. eigenvalues --    2.92488   2.94327   2.94413   2.95262   2.98454
 Alpha virt. eigenvalues --    3.00711   3.01784   3.03925   3.08262   3.10857
 Alpha virt. eigenvalues --    3.12766   3.15012   3.16587   3.18203   3.19162
 Alpha virt. eigenvalues --    3.20773   3.21635   3.25279   3.30023   3.30551
 Alpha virt. eigenvalues --    3.31469   3.32094   3.33226   3.37070   3.38013
 Alpha virt. eigenvalues --    3.39774   3.40815   3.41549   3.41926   3.44349
 Alpha virt. eigenvalues --    3.46037   3.46872   3.47066   3.50932   3.52149
 Alpha virt. eigenvalues --    3.52621   3.55461   3.60232   3.62337   3.69243
 Alpha virt. eigenvalues --    3.78841   4.00534   4.06017   4.07341   4.08803
 Alpha virt. eigenvalues --    4.09853   4.12217   4.13378   4.24698   4.27266
 Alpha virt. eigenvalues --    4.28259   4.33858   4.36079   4.38175   4.42970
 Alpha virt. eigenvalues --    4.44512   4.46012   4.49358   4.53502   4.57851
 Alpha virt. eigenvalues --    4.60116   4.65716   4.73482   4.74844   4.78740
 Alpha virt. eigenvalues --    4.83862   4.88720
  Beta  occ. eigenvalues --  -19.22841 -14.42145 -14.37791 -14.34682 -10.32332
  Beta  occ. eigenvalues --  -10.30851 -10.26472 -10.26420 -10.25599 -10.25301
  Beta  occ. eigenvalues --  -10.24990 -10.24365 -10.23517 -10.23289 -10.22937
  Beta  occ. eigenvalues --  -10.22435 -10.22236 -10.21874 -10.21780 -10.20412
  Beta  occ. eigenvalues --  -10.20123 -10.18528 -10.18467 -10.18195 -10.18189
  Beta  occ. eigenvalues --  -10.17961  -1.11805  -1.06147  -0.94358  -0.92215
  Beta  occ. eigenvalues --   -0.90388  -0.87964  -0.83288  -0.82847  -0.81258
  Beta  occ. eigenvalues --   -0.78761  -0.76361  -0.74521  -0.73850  -0.72230
  Beta  occ. eigenvalues --   -0.71169  -0.69151  -0.66980  -0.65421  -0.64069
  Beta  occ. eigenvalues --   -0.61828  -0.61375  -0.60876  -0.59510  -0.57874
  Beta  occ. eigenvalues --   -0.56434  -0.54737  -0.53445  -0.52417  -0.51443
  Beta  occ. eigenvalues --   -0.49839  -0.49092  -0.48215  -0.47854  -0.46996
  Beta  occ. eigenvalues --   -0.46227  -0.46086  -0.45043  -0.44703  -0.44382
  Beta  occ. eigenvalues --   -0.44279  -0.43567  -0.42843  -0.41939  -0.41868
  Beta  occ. eigenvalues --   -0.40919  -0.40696  -0.40419  -0.39547  -0.39262
  Beta  occ. eigenvalues --   -0.38672  -0.38275  -0.38223  -0.37494  -0.35778
  Beta  occ. eigenvalues --   -0.35222  -0.35181  -0.34661  -0.32776  -0.32561
  Beta  occ. eigenvalues --   -0.32464  -0.32335  -0.30320  -0.29667  -0.26687
  Beta  occ. eigenvalues --   -0.25405  -0.25208
  Beta virt. eigenvalues --   -0.19231  -0.08458  -0.05153  -0.02222  -0.00599
  Beta virt. eigenvalues --    0.01862   0.04354   0.07093   0.08658   0.09206
  Beta virt. eigenvalues --    0.09814   0.10230   0.10702   0.12063   0.12217
  Beta virt. eigenvalues --    0.12493   0.12941   0.13000   0.13349   0.14636
  Beta virt. eigenvalues --    0.15170   0.15498   0.15883   0.16523   0.16857
  Beta virt. eigenvalues --    0.17095   0.17306   0.17426   0.17889   0.18032
  Beta virt. eigenvalues --    0.18249   0.18466   0.18863   0.18974   0.19259
  Beta virt. eigenvalues --    0.20118   0.21404   0.22242   0.22938   0.23658
  Beta virt. eigenvalues --    0.23980   0.24219   0.24610   0.24707   0.25262
  Beta virt. eigenvalues --    0.27420   0.27820   0.28953   0.29180   0.30561
  Beta virt. eigenvalues --    0.31080   0.31364   0.33054   0.34074   0.36048
  Beta virt. eigenvalues --    0.37928   0.38657   0.41060   0.41665   0.42645
  Beta virt. eigenvalues --    0.45298   0.46793   0.47503   0.48319   0.49261
  Beta virt. eigenvalues --    0.50035   0.50214   0.50475   0.51132   0.51400
  Beta virt. eigenvalues --    0.51965   0.52019   0.52093   0.53113   0.53168
  Beta virt. eigenvalues --    0.53781   0.53932   0.54040   0.54884   0.55296
  Beta virt. eigenvalues --    0.56020   0.56098   0.56733   0.56903   0.57623
  Beta virt. eigenvalues --    0.58647   0.59113   0.59373   0.59839   0.60754
  Beta virt. eigenvalues --    0.61530   0.61782   0.62227   0.62633   0.63061
  Beta virt. eigenvalues --    0.63837   0.63967   0.65670   0.65788   0.66332
  Beta virt. eigenvalues --    0.67643   0.68321   0.69871   0.71067   0.71317
  Beta virt. eigenvalues --    0.71522   0.73044   0.73796   0.74416   0.75165
  Beta virt. eigenvalues --    0.75372   0.76252   0.76323   0.77737   0.78130
  Beta virt. eigenvalues --    0.79199   0.79919   0.80053   0.80666   0.80874
  Beta virt. eigenvalues --    0.81654   0.82809   0.83295   0.83875   0.84035
  Beta virt. eigenvalues --    0.84981   0.85220   0.85824   0.86238   0.86510
  Beta virt. eigenvalues --    0.87108   0.87166   0.88298   0.88982   0.89109
  Beta virt. eigenvalues --    0.90065   0.90397   0.90944   0.91106   0.91431
  Beta virt. eigenvalues --    0.91905   0.92087   0.93000   0.94062   0.94649
  Beta virt. eigenvalues --    0.94957   0.95822   0.96337   0.97240   0.97609
  Beta virt. eigenvalues --    0.98854   1.00251   1.01962   1.05102   1.05573
  Beta virt. eigenvalues --    1.06611   1.08299   1.08503   1.10260   1.10954
  Beta virt. eigenvalues --    1.13059   1.14438   1.14787   1.16534   1.17176
  Beta virt. eigenvalues --    1.17771   1.19368   1.20162   1.21842   1.23211
  Beta virt. eigenvalues --    1.23941   1.24509   1.25580   1.25862   1.26095
  Beta virt. eigenvalues --    1.26302   1.27584   1.27825   1.27946   1.31738
  Beta virt. eigenvalues --    1.33246   1.34809   1.35509   1.35655   1.36733
  Beta virt. eigenvalues --    1.37095   1.37157   1.38222   1.38993   1.39170
  Beta virt. eigenvalues --    1.40299   1.40761   1.41677   1.44026   1.45954
  Beta virt. eigenvalues --    1.48387   1.50712   1.51140   1.51896   1.52144
[...]
 .00022743,-0.00001393,0.00359134,0.00249699,0.00555129,0.00009801,0.00
 038891,0.00029753,-0.00081848,0.00023070,0.00125817,-0.00001829,-0.000
 02358,0.00000480,0.00001139,-0.00000216,-0.00004358,-0.05469103,-0.121
 11725,-0.10385409,-0.00068963,0.00119698,0.00052091,-0.00049128,-0.000
 02812,-0.00010970,0.00441008,0.00453800,0.00874545,-0.00001247,0.00034
 591,0.00033119,0.00005483,0.00032284,0.00025287,0.05938453,0.12637327,
 0.00000727,0.00001384,0.00000003,-0.00001705,-0.00001039,0.00000034,-0
 .00001105,0.00002045,-0.00000107,-0.00003213,-0.00001422,0.00000390,0.
 00001340,-0.00004286,0.00000936,-0.00002134,0.00003517,-0.00003789,0.0
 0001972,-0.00001796,0.00000072,-0.00000055,-0.00000045,-0.00000053,-0.
 00000410,0.00000198,-0.00000132,0.00000295,-0.00000073,-0.00000229,-0.
 00002377,0.00002134,-0.00000112,0.00001264,-0.00001768,0.00000046,-0.0
 0001775,0.00002389,-0.00000103,0.00001210,-0.00003969,0.00000203,0.000
 00733,0.00002955,-0.00000121,0.00000094,0.00000294,0.00000002,0.000005
 66,0.00001444,-0.00000051,0.00000031,0.00000135,-0.00000080,-0.0000004
 6,-0.00000116,-0.00000010,0.00000028,-0.00000593,0.00000086,0.00000022
 ,0.00000006,-0.00000055,0.00000153,-0.00000029,0.00000017,0.00000190,0
 .00000029,-0.00000033,-0.00000195,0.00000143,-0.00000038,-0.00000096,-
 0.00000058,0.00000017,-0.00000086,-0.00000073,0.00000004,-0.00000064,-
 0.00000091,0.00000003,-0.00001757,0.00001155,0.,0.00000393,-0.00000020
 ,-0.00000065,-0.00002719,-0.00001451,0.00000274,0.00003659,0.00002629,
 -0.00000628,0.00008422,-0.00020951,0.00000178,0.00002572,-0.00000390,0
 .00003295,-0.00011058,0.00001842,-0.00004127,0.00041143,0.00063305,0.0
 0148859,0.00063300,-0.00004829,0.00039804,-0.00007068,0.00031815,-0.00
 040982,0.00002816,-0.00014458,-0.00009016,0.00418648,0.00343973,-0.003
 71383,-0.00009913,0.00006479,-0.00000344,-0.00019814,-0.00004416,0.000
 00463,-0.07848370,-0.10264349,-0.19779169,-0.00008405,0.00049712,0.000
 36674,-0.00039111,0.00010489,0.00017670,-0.01166544,-0.01528477,-0.021
 19039,-0.00092343,-0.00088142,-0.00172467,0.00010443,-0.00012670,0.000
 20770,0.08407608,0.11141764,0.21519456,-0.00002268,0.00001604,0.000007
 13,-0.00001933,-0.00002463,0.00000398,-0.00000679,0.00001654,-0.000001
 72,-0.00002505,-0.00001216,0.00000572,0.00002946,-0.00001953,-0.000004
 00,0.00000323,-0.00012288,-0.00005435,0.00000367,-0.00002969,0.0000024
 8,-0.00000032,-0.00000036,-0.00000055,-0.00000182,0.00000072,0.0000002
 5,0.00000407,-0.00000346,-0.00000074,-0.00002037,0.00002009,-0.0000018
 8,0.00000790,-0.00001551,0.00000053,-0.00001940,0.00003296,-0.00000160
 ,0.00001106,-0.00004888,0.00000208,0.00000732,0.00003523,-0.00000127,0
 .00000312,0.00000279,-0.00000007,0.00000415,0.00001500,-0.00000039,-0.
 00000039,0.00000170,-0.00000076,-0.00000047,-0.00000102,0.,-0.00000158
 ,-0.00000865,0.00000120,0.00000018,-0.00000066,-0.00000078,0.00000222,
 -0.00000024,-0.00000041,0.00000260,0.00000024,0.00000016,-0.00000163,0
 .00000103,-0.00000026,-0.00000060,-0.00000048,-0.00000004,-0.00000066,
 -0.00000052,0.00000018,-0.00000060,-0.00000066,0.00000006,-0.00001313,
 0.00001014,-0.00000042,0.00000096,-0.00000151,-0.00000003,-0.00001565,
 0.00000096,-0.00000097,0.00002279,0.00002233,-0.00000559,0.00006840,0.
 00010403,-0.00006892,0.00006535,-0.00018455,0.00010814,0.00009580,-0.0
 0034455,0.00026376,0.00124615,0.00169857,0.00077599,-0.00013237,-0.000
 08541,0.00004280,-0.00791628,0.03329600,-0.00590134,-0.00026234,-0.000
 95269,-0.00013703,0.00015332,0.00015482,-0.00085295,-0.00003087,-0.000
 07565,0.00007015,0.00007498,0.00000913,-0.00009063,-0.05490795,0.04167
 729,-0.00822342,-0.00665953,0.00107318,-0.00082279,0.00148299,-0.00055
 762,0.00018646,0.00179508,-0.01586923,0.00335002,-0.00014605,0.0000333
 7,-0.00012031,0.00008546,0.00030942,-0.00002628,0.00206446,-0.01241149
 ,0.00276478,0.06266743,-0.00000680,-0.00001040,-0.00000179,0.00002955,
 0.00002144,-0.00000076,0.00001572,-0.00002885,0.00000183,0.00004085,0.
 00002347,-0.00000113,-0.00002552,0.00003264,0.00000175,-0.00001585,0.0
 0000679,-0.00000702,-0.00001060,0.00004552,-0.00000008,-0.00000008,0.0
 0000079,0.00000020,0.00000255,-0.00000139,-0.00000017,-0.00000358,0.00
 000373,0.00000055,0.00002190,-0.00003494,0.00000078,-0.00001296,0.0000
 2344,-0.00000064,0.00002900,-0.00004921,0.00000226,-0.00001943,0.00007
 506,-0.00000399,-0.00001020,-0.00005586,0.00000202,-0.00000527,-0.0000
 0436,-0.00000004,-0.00000657,-0.00002294,0.00000068,-0.00000066,-0.000
 00257,0.00000070,0.00000095,0.00000166,0.00000009,0.00000143,0.0000134
 4,-0.00000203,-0.00000404,-0.00000154,0.00000043,-0.00000338,0.0000003
 5,0.00000026,-0.00000407,-0.00000051,-0.00000002,0.00000250,-0.0000017
 5,0.00000047,0.00000103,0.00000070,0.00000006,0.00000103,0.00000082,-0
 .00000030,0.00000095,0.00000115,-0.00000005,0.00001984,-0.00001642,0.0
 0000042,-0.00000088,0.00000293,0.00000013,0.00001444,0.00000960,-0.000
 00213,-0.00002753,-0.00002931,0.00000122,-0.00019415,0.00000655,0.0000
 6323,0.00001488,0.00005345,0.00000097,0.00022769,0.00027793,-0.0001068
 0,-0.00087128,0.00020669,-0.00043355,-0.00006209,0.00017237,0.00002093
 ,0.00157311,-0.00554698,0.00059031,0.00002624,0.00005812,0.00050916,0.
 00008606,0.00059177,-0.00082725,-0.00007535,-0.00011668,-0.00010101,0.
 00007310,-0.00003134,0.00007209,0.04220068,-0.28807345,0.04101505,0.00
 134513,0.00096998,-0.00013028,0.00028815,0.00081858,-0.00039231,0.0007
 9078,-0.00934645,0.00173048,-0.00008347,0.00027882,0.00011032,0.000234
 01,0.00044855,0.00045506,0.00270127,-0.01593653,0.00262480,-0.04677206
 ,0.31395187,0.00000001,-0.00000550,0.00000089,0.00000529,0.00000052,0.
 00000241,0.00000572,-0.00000514,0.00000010,0.00000754,0.00000533,0.000
 00060,-0.00000058,0.00001220,0.00000221,0.00000782,-0.00001467,-0.0000
 2898,-0.00000660,0.00000588,0.00000070,0.00000021,0.00000020,-0.000000
 14,0.00000146,-0.00000095,-0.00000005,-0.00000114,0.00000024,-0.000000
 85,0.00000691,-0.00000565,0.,-0.00000467,0.00000600,-0.00000006,0.0000
 0519,-0.00000563,0.00000042,-0.00000370,0.00001049,-0.00000041,-0.0000
 0215,-0.00000741,0.00000050,0.00000028,-0.00000090,-0.00000003,-0.0000
 0194,-0.00000444,0.00000019,-0.00000019,-0.00000027,0.00000115,0.00000
 014,0.00000039,0.00000007,-0.00000048,0.00000116,-0.00000005,-0.000000
 10,0.00000011,0.00000067,-0.00000011,0.00000031,-0.00000003,-0.0000004
 3,-0.00000005,0.00000016,0.00000071,-0.00000051,0.00000013,0.00000037,
 0.00000022,-0.00000006,0.00000032,0.00000028,0.,0.00000021,0.00000030,
 0.00000001,0.00000640,-0.00000407,0.,-0.00000172,-0.00000003,0.0000002
 5,0.00000641,0.00000632,-0.00000104,-0.00000967,-0.00000518,0.00000039
 ,-0.00004824,-0.00009395,-0.00000057,0.00003251,0.00000715,0.00003733,
 -0.00001705,-0.00003328,-0.00004283,-0.00010406,0.00083635,0.00012210,
 0.00005942,-0.00014047,-0.00014037,-0.00012848,0.00037031,-0.00083822,
 -0.00010920,0.00000730,0.00020613,-0.00026785,0.00107105,0.00168904,0.
 00005854,-0.00009057,0.00004599,-0.00007829,-0.00000672,-0.00001366,-0
 .00811550,0.03994696,-0.05712592,0.00016283,0.00015934,0.00103014,-0.0
 0037494,-0.00056812,0.00059708,-0.00449255,0.02891047,-0.00640007,0.00
 020124,-0.00028018,0.00024726,0.00002733,-0.00057666,-0.00010008,0.004
 80685,-0.02353888,0.00466592,0.00610766,-0.04713790,0.05975851,0.00001
 156,0.00001424,-0.00000030,-0.00003919,-0.00002212,-0.00000004,-0.0000
 2446,0.00003816,-0.00000253,-0.00005583,-0.00003167,0.00000050,0.00002
 426,-0.00006207,0.00000432,-0.00001197,0.00005475,-0.00000493,0.000030
 50,-0.00005060,0.00000275,-0.00000053,-0.00000120,0.00000011,-0.000006
 09,0.00000346,-0.00000038,0.00000534,-0.00000324,0.,-0.00003942,0.0000
 4616,-0.00000271,0.00002456,-0.00003596,0.00000159,-0.00003847,0.00005
 654,-0.00000249,0.00002699,-0.00009220,0.00000345,0.00001451,0.0000691
 8,-0.00000240,0.00000364,0.00000639,-0.00000023,0.00001168,0.00003155,
 -0.00000095,0.00000032,0.00000306,-0.00000011,-0.00000123,-0.00000250,
 0.00000012,-0.00000003,-0.00001533,0.00000161,0.00000077,0.00000055,-0
 .00000023,0.00000404,0.00000006,0.00000008,0.00000404,0.00000018,-0.00
 000067,-0.00000416,0.00000308,-0.00000075,-0.00000172,-0.00000128,0.00
 000018,-0.00000194,-0.00000137,0.00000015,-0.00000136,-0.00000194,0.00
 000020,-0.00003489,0.00002442,-0.00000116,0.00000606,-0.00000172,0.000
 00008,-0.00003412,-0.00001407,-0.00000012,0.00005186,0.00003597,-0.000
 00100,0.00008921,-0.00009684,0.00000632,0.00002111,-0.00002257,0.00000
 220,-0.00009204,0.00008127,-0.00001193,0.00070269,0.00037182,-0.000013
 89,0.00076953,-0.00219836,-0.00268469,0.00064804,-0.00147525,0.0032820
 5,-0.00003791,-0.00007659,0.00000527,-0.01246596,0.00304714,0.00010015
 ,0.00014357,0.00009647,0.00005910,-0.00107651,0.00010956,0.00007380,-0
 .01222856,0.00288154,-0.00088415,0.00016844,0.00007302,-0.00007097,-0.
 00111596,0.00008417,-0.00013214,-0.29962905,0.05118040,-0.00880785,0.0
 0029161,0.00029994,-0.00025724,0.00049815,-0.00028370,0.00030799,0.000
 38768,0.00007502,0.00021027,0.00071580,-0.00042118,-0.00026134,0.32491
 703,0.00000060,0.00000806,-0.00000030,-0.00000897,-0.00000356,-0.00000
 007,-0.00000823,0.00001028,-0.00000071,-0.00001482,-0.00000783,0.00000
 087,0.00000185,-0.00002106,0.00000177,-0.00000040,0.00002389,-0.000010
 69,0.00000717,-0.00001167,0.00000076,-0.00000007,-0.00000026,-0.000000
 07,-0.00000233,0.00000115,-0.00000019,0.00000103,0.00000050,-0.0000002
 9,-0.00000993,0.00001041,-0.00000061,0.00000486,-0.00000816,0.00000028
 ,-0.00000888,0.00001398,-0.00000063,0.00000581,-0.00002232,0.00000096,
 0.00000306,0.00001661,-0.00000061,0.00000130,0.00000122,-0.00000003,0.
 00000218,0.00000717,-0.00000023,-0.00000002,0.00000087,-0.00000018,-0.
 00000030,-0.00000052,0.,-0.00000042,-0.00000407,0.00000047,0.00000013,
 0.00000011,-0.00000016,0.00000096,-0.00000006,-0.00000012,0.00000105,0
 .00000009,-0.00000002,-0.00000084,0.00000054,-0.00000015,-0.00000035,-
 0.00000028,0.,-0.00000037,-0.00000030,0.00000007,-0.00000033,-0.000000
 35,0.00000003,-0.00000720,0.00000520,-0.00000015,0.00000132,-0.0000002
 0,-0.00000010,-0.00001077,-0.00000819,0.00000027,0.00001434,0.00001128
 ,-0.00000135,0.00002468,-0.00004624,0.00001802,-0.00000605,-0.00000830
 ,0.00000344,-0.00001848,0.00006821,0.00003422,0.00044641,0.00002494,-0
 .00010791,-0.00069525,-0.00122040,-0.00265292,-0.00042127,0.00013632,0
 .00147500,-0.00001793,-0.00006012,0.00002329,-0.01723223,0.00251790,-0
 .00052531,-0.00029471,0.00027494,-0.00004444,-0.00090783,0.00027257,-0
 .00016360,-0.01029596,0.00085447,-0.00014482,-0.00035206,0.00027695,-0
 .00004979,-0.00038909,0.00032458,0.00006573,0.05281091,-0.05908126,0.0
 0213588,0.00069486,0.00038093,0.00044121,0.00026340,0.00067657,0.00090
 015,0.00029266,0.00014600,-0.00021096,-0.00008926,0.00055794,-0.000694
 49,-0.05504757,0.05935739,-0.00000053,-0.00000029,-0.00000026,0.000000
 90,0.00000163,0.00000042,0.00000008,-0.00000076,-0.00000016,0.00000120
 ,0.00000011,0.00000504,-0.00000032,0.00000150,0.00000417,0.00000245,-0
 .00000169,-0.00006167,-0.00000016,0.00000089,0.00000091,0.00000005,-0.
 00000005,-0.00000068,0.00000023,-0.00000005,-0.00000048,-0.00000016,0.
 ,-0.00000181,0.00000151,-0.00000109,0.00000019,-0.00000019,0.00000061,
 -0.00000042,0.00000099,-0.00000172,-0.00000002,-0.00000038,0.00000244,
 0.00000062,-0.00000032,-0.00000173,-0.00000014,-0.00000021,-0.00000010
 ,0.00000007,-0.00000010,-0.00000064,-0.00000004,0.00000003,-0.00000015
 ,-0.00000120,0.00000002,0.00000003,-0.00000011,0.00000019,0.00000051,0
 .00000023,-0.00000011,0.,-0.00000040,-0.00000026,-0.00000024,0.0000000
 8,0.,0.00000022,-0.00000002,0.00000005,-0.00000002,0.,-0.00000007,0.00
 000003,0.00000002,0.00000010,0.,0.,0.00000003,0.00000001,-0.00000003,0
 .00000042,-0.00000029,0.00000050,0.,-0.00000002,-0.00000072,0.00000336
 ,0.00000128,0.00000094,-0.00000320,-0.00000368,-0.00000638,-0.00001319
 ,0.00001140,0.00009618,-0.00000330,0.00000838,0.00001178,0.00003622,0.
 00004367,0.00034454,-0.00005712,-0.00013082,-0.00087048,-0.00103774,-0
 .00364433,-0.00422379,0.00135232,0.00244009,-0.00552865,0.00000154,0.0
 0002564,0.00012429,-0.02614405,0.00637556,-0.00093897,0.00033386,0.000
 03797,-0.00000136,-0.00191837,-0.00006546,0.00000647,0.02991223,-0.006
 81207,0.00165072,-0.00026680,-0.00009780,-0.00000148,0.00208030,-0.000
 02072,0.00002153,-0.00922514,0.00217066,-0.04665231,0.00064090,0.00076
 185,0.00082025,0.00070132,0.00015907,0.00102019,-0.00070022,-0.0005060
 0,0.00107905,-0.00084930,0.00002642,0.00116744,0.00933084,-0.00134759,
 0.05257699,-0.00000191,-0.00000135,0.00000012,0.00000722,0.00000618,-0
 .00000010,0.00000234,-0.00000620,0.00000039,0.00000938,0.00000547,-0.0
 0000014,-0.00000690,0.00000695,-0.00000046,0.00000216,0.00000739,-0.00
 000032,-0.00000430,0.00000980,-0.00000052,0.00000012,0.00000027,0.,0.0
 0000046,-0.00000033,0.00000005,-0.00000165,0.00000082,-0.00000004,0.00
 000601,-0.00000854,0.00000048,-0.00000416,0.00000616,-0.00000027,0.000
 00709,-0.00001057,0.00000047,-0.00000471,0.00001682,-0.00000064,-0.000
 00266,-0.00001249,0.00000044,-0.00000065,-0.00000116,0.00000004,-0.000
 00208,-0.00000566,0.00000017,0.00000001,-0.00000039,0.00000011,0.00000
 020,0.00000045,-0.00000002,0.00000015,0.00000280,-0.00000030,-0.000000
 27,-0.00000006,0.00000004,-0.00000078,0.,0.00000002,-0.00000077,-0.000
 00002,0.00000009,0.00000075,-0.00000054,0.00000013,0.00000029,0.000000
 22,-0.00000003,0.00000033,0.00000023,-0.00000003,0.00000023,0.00000034
 ,-0.00000004,0.00000602,-0.00000441,0.00000021,-0.00000070,0.00000065,
 -0.00000002,0.00000364,-0.00000101,0.00000008,-0.00000608,-0.00000380,
 0.00000017,-0.00002260,-0.00001593,-0.00000043,0.00000402,-0.00001672,
 0.00001431,0.00000575,0.00001310,-0.00000118,-0.00007153,-0.00000388,-
 0.00000148,0.00091860,-0.00093043,0.00043147,0.00093383,-0.00099394,-0
 .00015167,0.00000320,0.00016948,-0.00002077,0.00066221,-0.01404070,0.0
 0146601,-0.00028027,-0.00022391,0.00001942,0.00015967,0.00016761,0.000
 00846,0.00068472,-0.01428768,0.00222230,-0.00026926,0.00019931,-0.0000
 0405,0.00016718,0.00016177,-0.00005103,-0.05539112,0.02915658,-0.00348
 213,0.00015693,0.00029614,0.00039532,-0.00029228,-0.00168357,-0.002098
 57,0.00041599,0.00051845,-0.00044772,-0.00041212,-0.00110581,0.0025196
 1,-0.00263160,0.03126334,-0.00417991,0.05524987,-0.00000670,0.00000534
 ,-0.00000019,-0.00000059,0.00000549,-0.00000032,-0.00000807,0.00000246
 ,-0.00000028,-0.00000379,-0.00000282,0.00000028,-0.00000816,-0.0000207
 3,0.00000081,-0.00000068,0.00003688,-0.00000581,0.00001152,0.00000627,
 -0.00000003,-0.00000054,-0.00000010,0.00000002,-0.00000338,0.00000201,
 -0.00000014,0.00000235,0.00000303,0.,-0.00001166,-0.00000022,-0.000000
 36,0.00000549,-0.00000552,0.00000036,-0.00000063,-0.00000327,0.0000001
 6,0.00000128,0.00000198,-0.00000012,0.00000238,-0.00000185,0.00000010,
 -0.00000198,0.00000047,-0.00000003,0.00000201,0.00000193,-0.00000005,0
 .00000056,-0.00000015,0.00000014,0.00000016,-0.00000020,0.00000004,0.0
 0000127,0.00000208,-0.00000022,-0.00000069,-0.00000032,0.00000011,-0.0
 0000023,0.00000002,0.00000031,-0.00000031,-0.00000010,-0.00000027,-0.0
 0000052,0.00000042,-0.00000009,-0.00000031,-0.00000024,0.00000020,-0.0
 0000035,-0.00000027,-0.00000015,-0.00000011,-0.00000022,0.00000003,-0.
 00000654,0.00000269,-0.00000019,0.00000394,0.00000184,0.,-0.00002045,-
 0.00001164,-0.00000017,0.00002292,0.00001129,0.00000029,-0.00000253,-0
 .00012286,0.00001071,0.00002360,0.00004162,-0.00001835,-0.00015065,0.0
 0003720,0.00001454,0.00003398,0.00026415,-0.00006497,0.00083050,0.0004
 6595,0.00071040,0.00053446,0.00033154,-0.00058522,0.00013917,-0.000022
 12,-0.00000311,0.00189532,-0.01666839,0.00115835,-0.00120719,-0.000333
 45,0.00011966,-0.00008251,0.00034128,-0.00014873,0.00114084,-0.0090286
 8,0.00180512,-0.00079995,-0.00031526,-0.00008169,-0.00014736,0.0002929
 1,0.00004264,0.02776986,-0.29366423,0.03239605,-0.00006376,0.00000671,
 -0.00006606,-0.00170313,-0.00066545,-0.00304677,0.00008940,0.00054656,
 0.00044293,-0.00089822,0.00065532,0.00186273,0.00127122,-0.00547594,0.
 00056734,-0.02865124,0.32327660,0.00000043,-0.00000060,0.00000056,0.00
 000032,-0.00000010,0.00000004,0.00000089,-0.00000054,0.,0.00000079,0.0
 0000033,0.00000138,0.00000078,0.00000311,0.00000047,0.00000106,-0.0000
 0486,-0.00001608,-0.00000164,-0.00000068,0.00000004,0.00000007,0.,-0.0
 0000016,0.00000047,-0.00000023,0.00000007,-0.00000020,-0.00000012,0.00
 000061,0.00000184,-0.00000038,0.00000009,-0.00000063,0.00000072,-0.000
 00025,0.00000033,-0.00000013,0.00000002,-0.00000023,0.00000054,0.00000
 044,-0.00000028,-0.00000043,-0.00000014,0.00000013,-0.00000005,0.00000
 008,-0.00000025,-0.00000036,-0.00000003,0.,-0.00000008,-0.00000076,0.,
 0.00000003,-0.00000011,0.,0.00000005,0.00000027,0.00000003,-0.00000001
 ,-0.00000058,-0.00000027,-0.00000027,0.00000002,0.00000022,0.00000024,
 0.00000005,0.00000007,-0.00000004,0.00000002,-0.00000002,0.00000005,-0
 .00000002,0.00000009,0.00000001,0.00000003,0.00000002,0.00000003,-0.00
 000004,0.00000080,-0.00000028,0.00000022,-0.00000047,-0.00000026,-0.00
 000022,0.00000342,0.00000165,0.00000017,-0.00000359,-0.00000234,-0.000
 00121,-0.00000194,0.00001897,0.00002297,-0.00000641,-0.00000312,0.0000
 0394,0.00002671,0.00001211,0.00012432,-0.00000923,-0.00007540,-0.00027
 186,0.00118941,0.00004563,0.00095771,-0.00140782,0.00011154,0.00109688
 ,-0.00001703,-0.00000622,-0.00006257,0.00268308,-0.02793900,0.00196122
 ,-0.00004500,0.00059575,0.00017860,0.00026072,0.00025589,-0.00008814,-
 0.00303600,0.03033380,-0.00589943,0.00029515,-0.00062798,0.00033463,-0
 .00022678,-0.00035150,-0.00003583,-0.00339898,0.03246528,-0.05229422,0
 .00076985,0.00087992,0.00117719,-0.00304275,-0.00310336,-0.00368402,-0
 .00062643,-0.00026993,0.00138378,0.00347527,0.00191660,-0.00488434,-0.
 00024794,0.00085606,-0.00064102,0.00336196,-0.03511000,0.06063523\\-0.
 00000282,-0.00000291,0.00000262,-0.00000453,-0.00000661,0.00000451,-0.
 00000727,-0.00000638,0.00000592,-0.00000938,-0.00000622,0.00000556,-0.
 00000974,-0.00000150,0.00000369,-0.00000605,-0.00000193,0.00000243,0.0
 0000025,-0.00000520,0.00000239,-0.00000725,-0.00000987,0.00000737,-0.0
 0001209,-0.00000594,0.00000678,-0.00001120,-0.00000079,0.00000359,-0.0
 0000060,-0.00000763,0.00000448,0.00000459,-0.00000772,0.00000314,0.000
 00356,-0.00000580,0.00000201,0.00000647,-0.00000372,0.00000015,0.00000
 964,-0.00000380,-0.00000050,0.00000940,-0.00000699,0.00000103,0.000009
 27,-0.00001019,0.00000276,0.00000560,-0.00000092,-0.00000098,0.0000129
 6,-0.00000725,0.00000046,0.00001158,-0.00000180,-0.00000213,0.00001074
 ,0.00000085,-0.00000338,0.00001416,-0.00000207,-0.00000292,0.00001221,
 -0.00000121,-0.00000279,0.00000966,-0.00001295,0.00000432,0.00000931,-
 0.00001431,0.00000538,0.00000749,-0.00001321,0.00000490,0.00001206,-0.
 00001267,0.00000360,0.00000390,-0.00001143,0.00000517,0.00000103,-0.00
 001035,0.00000524,-0.00000107,-0.00000164,0.00000148,0.00000055,-0.000
 00048,0.00000013,-0.00000612,0.00000202,0.00000026,-0.00000775,0.00000
 378,0.00000022,-0.00000272,0.00000353,-0.00000101,-0.00000305,0.000006
 86,-0.00000244,-0.00000487,0.00000914,-0.00000318,-0.00000286,0.000006
 87,-0.00000354,-0.00000009,0.00000705,-0.00000384,-0.00000483,0.000012
 45,-0.00000532,-0.00000801,0.00000868,-0.00000248,-0.00000514,0.000008
 33,-0.00000345,-0.00000238,0.00001152,-0.00000525,-0.00000550,0.000007
 17,-0.00000220,-0.00000120,0.00000571,-0.00000279,-0.00000515,0.000013
 54,-0.00000571,-0.00000655,0.00001407,-0.00000587,-0.00000209,0.000012
 44,-0.00000628,-0.00000265,0.00001101,-0.00000553,0.00000030,0.0000106
 0,-0.00000596,-0.00000428,0.00001538,-0.00000716,-0.00000753,0.0000124
 8,-0.00000489\\\@


 KNOWLEDGE IS EXPERIMENT'S DAUGHTER.
 -- LEONARDO DA VINCI, IN "PENSIERI" CA. 1492
 Job cpu time:       0 days  9 hours 14 minutes 46.5 seconds.
 Elapsed time:       0 days  0 hours 34 minutes 47.7 seconds.
 File lengths (MBytes):  RWF=   2888 Int=      0 D2E=      0 Chk=     52 Scr=      8
 Normal termination of Gaussian 16 at Fri Dec 14 13:51:46 2018.
