 Entering Gaussian System, Link 0=g16
 Initial command:
 /gpfs/apps/hpc/Apps/Restricted/Gaussian/Rev_A.03/g16/l1.exe "/gpfs/scratch60/fas/hammes_schiffer/jg2487/c14n08/Gau-28284.inp" -scrdir="/gpfs/scratch60/fas/hammes_schiffer/jg2487/c14n08/"
 Entering Link 1 = /gpfs/apps/hpc/Apps/Restricted/Gaussian/Rev_A.03/g16/l1.exe PID=     28285.
  
 Copyright (c) 1988,1990,1992,1993,1995,1998,2003,2009,2016,
            Gaussian, Inc.  All Rights Reserved.
  
 This is part of the Gaussian(R) 16 program.  It is based on
 the Gaussian(R) 09 system (copyright 2009, Gaussian, Inc.),
 the Gaussian(R) 03 system (copyright 2003, Gaussian, Inc.),
 the Gaussian(R) 98 system (copyright 1998, Gaussian, Inc.),
 the Gaussian(R) 94 system (copyright 1995, Gaussian, Inc.),
 the Gaussian 92(TM) system (copyright 1992, Gaussian, Inc.),
 the Gaussian 90(TM) system (copyright 1990, Gaussian, Inc.),
 the Gaussian 88(TM) system (copyright 1988, Gaussian, Inc.),
 the Gaussian 86(TM) system (copyright 1986, Carnegie Mellon
 University), and the Gaussian 82(TM) system (copyright 1983,
 Carnegie Mellon University). Gaussian is a federally registered
 trademark of Gaussian, Inc.
  
 This software contains proprietary and confidential information,
 including trade secrets, belonging to Gaussian, Inc.
  
 This software is provided under written license and may be
 used, copied, transmitted, or stored only in accord with that
 written license.
  
 The following legend is applicable only to US Government
 contracts under FAR:
  
                    RESTRICTED RIGHTS LEGEND
  
 Use, reproduction and disclosure by the US Government is
 subject to restrictions as set forth in subparagraphs (a)
 and (c) of the Commercial Computer Software - Restricted
 Rights clause in FAR 52.227-19.
  
 Gaussian, Inc.
 340 Quinnipiac St., Bldg. 40, Wallingford CT 06492
  
  
 ---------------------------------------------------------------
 Warning -- This program may not be used in any manner that
 competes with the business of Gaussian, Inc. or will provide
 assistance to any competitor of Gaussian, Inc.  The licensee
 of this program is prohibited from giving any competitor of
 Gaussian, Inc. access to this program.  By using this program,
 the user acknowledges that Gaussian, Inc. is engaged in the
 business of creating and licensing software in the field of
 computational chemistry and represents and warrants to the
 licensee that it is not a competitor of Gaussian, Inc. and that
 it will not use this program in any manner prohibited above.
 ---------------------------------------------------------------
  

 Cite this work as:
 Gaussian 16, Revision A.03,
 M. J. Frisch, G. W. Trucks, H. B. Schlegel, G. E. Scuseria, 
 M. A. Robb, J. R. Cheeseman, G. Scalmani, V. Barone, 
 G. A. Petersson, H. Nakatsuji, X. Li, M. Caricato, A. V. Marenich, 
 J. Bloino, B. G. Janesko, R. Gomperts, B. Mennucci, H. P. Hratchian, 
 J. V. Ortiz, A. F. Izmaylov, J. L. Sonnenberg, D. Williams-Young, 
 F. Ding, F. Lipparini, F. Egidi, J. Goings, B. Peng, A. Petrone, 
 T. Henderson, D. Ranasinghe, V. G. Zakrzewski, J. Gao, N. Rega, 
 G. Zheng, W. Liang, M. Hada, M. Ehara, K. Toyota, R. Fukuda, 
 J. Hasegawa, M. Ishida, T. Nakajima, Y. Honda, O. Kitao, H. Nakai, 
 T. Vreven, K. Throssell, J. A. Montgomery, Jr., J. E. Peralta, 
 F. Ogliaro, M. J. Bearpark, J. J. Heyd, E. N. Brothers, K. N. Kudin, 
 V. N. Staroverov, T. A. Keith, R. Kobayashi, J. Normand, 
 K. Raghavachari, A. P. Rendell, J. C. Burant, S. S. Iyengar, 
 J. Tomasi, M. Cossi, J. M. Millam, M. Klene, C. Adamo, R. Cammi, 
 J. W. Ochterski, R. L. Martin, K. Morokuma, O. Farkas, 
 J. B. Foresman, and D. J. Fox, Gaussian, Inc., Wallingford CT, 2016.
 
 ******************************************
 Gaussian 16:  ES64L-G16RevA.03 25-Dec-2016
                20-Dec-2018 
 ******************************************
 %chk=cyclohexyl-monoBIP-E0PT.chk
 %mem=10GB
 %nprocshared=16
 Will use up to   16 processors via shared memory.
 ----------------------------------------------------------------------
 #p opt=tight freq=internalmodes b3lyp/6-31g(d,p) scrf=(cpcm,solvent=di
 chloromethane,read) nosymm empiricaldispersion=gd3bj int=grid=ultrafin
 e
 ----------------------------------------------------------------------
 1/7=10,18=20,19=15,26=6,38=1,40=2/1,3;
 2/9=110,12=2,15=1,17=6,18=5,40=1/2;
 3/5=1,6=6,7=101,11=2,25=1,30=1,70=2103,71=1,72=9,74=-5,75=-5,124=41/1,2,3;
 4//1;
 5/5=2,38=5,53=9/2;
 6/7=2,8=2,9=2,10=2,28=1/1;
 7/30=1/1,2,3,16;
 1/7=10,18=20,19=15,26=6/3(2);
 2/9=110,15=1/2;
 99//99;
 2/9=110,15=1/2;
 3/5=1,6=6,7=101,11=2,25=1,30=1,70=2105,71=1,72=9,74=-5,75=-5,124=41/1,2,3;
 4/5=5,16=3,69=1/1;
 5/5=2,38=5,53=9/2;
 7/30=1/1,2,3,16;
 1/7=10,18=20,19=15,26=6/3(-5);
 2/9=110,15=1/2;
 6/7=2,8=2,9=2,10=2,19=2,28=1/1;
 99/9=1/99;
 Leave Link    1 at Thu Dec 20 17:39:45 2018, MaxMem=  1342177280 cpu:               7.6 elap:               0.5
 (Enter /gpfs/apps/hpc/Apps/Restricted/Gaussian/Rev_A.03/g16/l101.exe)
 -------------------------------------------------------
 cyclohexylimine monoBIP oxidized but no PT optimization
 -------------------------------------------------------
 Symbolic Z-matrix:
 Charge =  1 Multiplicity = 2
 C                    -0.44168   2.68213   0.27144 
 C                    -1.85688   2.81852   0.23401 
 C                    -2.43904   4.09643   0.1496 
 C                    -1.57884   5.18173   0.11243 
 C                    -0.17103   5.02851   0.15383 
 C                     0.4378    3.77801   0.23388 
 C                    -1.39396   0.69425   0.34877 
 H                    -3.51392   4.21818   0.11548 
 H                    -1.988     6.18262   0.05038 
 H                     0.45485   5.91296   0.1237 
 N                    -2.41332   1.56874   0.28461 
 C                    -2.98247  -1.20106   0.41132 
 C                    -1.60766  -0.72318   0.40429 
 C                    -0.57336  -1.65491   0.43853 
 C                    -0.84467  -3.02324   0.48627 
 C                    -2.20174  -3.46947   0.50851 
 C                    -3.26603  -2.60586   0.4733 
 H                     0.45599  -1.31915   0.42435 
 H                    -2.38836  -4.53673   0.5535 
 C                     0.25633  -4.03101   0.51182 
 C                    -4.69333  -3.05752   0.48674 
 O                    -3.99139  -0.37831   0.35816 
 H                    -3.62275   0.59408   0.31648 
 N                    -0.18849   1.34265   0.34398 
 H                     0.76679   0.99324   0.38612 
 C                     1.88738   3.59215   0.2762 
 H                     2.49128   4.50358   0.22818 
 N                     2.3923    2.41854   0.36677 
 C                     3.85605   2.29105   0.41073 
 C                     4.50993   2.71524  -0.91486 
 C                     4.48673   3.05208   1.58863 
 H                     4.06023   1.22445   0.5563 
 C                     6.02465   2.48526  -0.86815 
 H                     4.30064   3.77851  -1.08262 
 H                     4.0569    2.1607   -1.74206 
 C                     6.00021   2.81558   1.6389 
 H                     4.29364   4.1244    1.46585 
 H                     4.00798   2.74329   2.52244 
 C                     6.66519   3.21677   0.31681 
 H                     6.4824    2.80465  -1.80916 
 H                     6.21736   1.40913  -0.77343 
 H                     6.43539   3.37467   2.47283 
 H                     6.19311   1.75323   1.83387 
 H                     7.73957   3.01285   0.35385 
 H                     6.55122   4.29876   0.17392 
 C                    -5.45691  -2.42958   1.66752 
 H                    -5.9749   -1.55522   1.33273 
 H                    -6.16199  -3.13632   2.05258 
 H                    -4.76437  -2.1609    2.43765 
 C                    -4.77099  -4.59125   0.60185 
 H                    -5.79643  -4.89665   0.61248 
 H                    -4.27465  -5.03728  -0.23456 
 H                    -4.29586  -4.90545   1.50763 
 C                    -5.41683  -2.61836  -0.79984 
 H                    -5.85853  -1.65542  -0.64968 
 H                    -4.71354  -2.56659  -1.60458 
 H                    -6.18111  -3.32793  -1.03918 
 C                     0.17614  -4.87633   1.79658 
 H                    -0.53582  -5.66361   1.66167 
 H                     1.13719  -5.29682   2.00743 
 H                    -0.12868  -4.25589   2.6133 
 C                     1.64228  -3.36338   0.44091 
 H                     1.71264  -2.78184  -0.4545 
 H                     1.77559  -2.72715   1.29081 
 H                     2.40156  -4.11729   0.43715 
 C                     0.11068  -5.01338  -0.66518 
 H                     1.01736  -5.56993  -0.77952 
 H                    -0.69847  -5.68587  -0.47043 
 H                    -0.08805  -4.46689  -1.56338 
 
 ITRead=  0  0  0  0  0  0  0  0  0  0  0  0  0  0  0  0  0  0  0  0
 ITRead=  0  0  0  0  0  0  0  0  0  0  0  0  0  0  0  0  0  0  0  0
 ITRead=  0  0  0  0  0  0  0  0  0  0  0  0  0  0  0  0  0  0  0  0
 ITRead=  0  0  0  0  0  0  0  0  0
 MicOpt= -1 -1 -1 -1 -1 -1 -1 -1 -1 -1 -1 -1 -1 -1 -1 -1 -1 -1 -1 -1
 MicOpt= -1 -1 -1 -1 -1 -1 -1 -1 -1 -1 -1 -1 -1 -1 -1 -1 -1 -1 -1 -1
 MicOpt= -1 -1 -1 -1 -1 -1 -1 -1 -1 -1 -1 -1 -1 -1 -1 -1 -1 -1 -1 -1
 MicOpt= -1 -1 -1 -1 -1 -1 -1 -1 -1
 NAtoms=     69 NQM=       69 NQMF=       0 NMMI=      0 NMMIF=      0
                NMic=       0 NMicF=      0.
                    Isotopes and Nuclear Properties:
 (Nuclear quadrupole moments (NQMom) in fm**2, nuclear magnetic moments (NMagM)
  in nuclear magnetons)

  Atom         1           2           3           4           5           6           7           8           9          10
 IAtWgt=          12          12          12          12          12          12          12           1           1           1
 AtmWgt=  12.0000000  12.0000000  12.0000000  12.0000000  12.0000000  12.0000000  12.0000000   1.0078250   1.0078250   1.0078250
 NucSpn=           0           0           0           0           0           0           0           1           1           1
 AtZEff=  -0.0000000  -0.0000000  -0.0000000  -0.0000000  -0.0000000  -0.0000000  -0.0000000  -0.0000000  -0.0000000  -0.0000000
 NQMom=    0.0000000   0.0000000   0.0000000   0.0000000   0.0000000   0.0000000   0.0000000   0.0000000   0.0000000   0.0000000
 NMagM=    0.0000000   0.0000000   0.0000000   0.0000000   0.0000000   0.0000000   0.0000000   2.7928460   2.7928460   2.7928460
 AtZNuc=   6.0000000   6.0000000   6.0000000   6.0000000   6.0000000   6.0000000   6.0000000   1.0000000   1.0000000   1.0000000

  Atom        11          12          13          14          15          16          17          18          19          20
 IAtWgt=          14          12          12          12          12          12          12           1           1          12
 AtmWgt=  14.0030740  12.0000000  12.0000000  12.0000000  12.0000000  12.0000000  12.0000000   1.0078250   1.0078250  12.0000000
 NucSpn=           2           0           0           0           0           0           0           1           1           0
 AtZEff=  -0.0000000  -0.0000000  -0.0000000  -0.0000000  -0.0000000  -0.0000000  -0.0000000  -0.0000000  -0.0000000  -0.0000000
 NQMom=    2.0440000   0.0000000   0.0000000   0.0000000   0.0000000   0.0000000   0.0000000   0.0000000   0.0000000   0.0000000
 NMagM=    0.4037610   0.0000000   0.0000000   0.0000000   0.0000000   0.0000000   0.0000000   2.7928460   2.7928460   0.0000000
 AtZNuc=   7.0000000   6.0000000   6.0000000   6.0000000   6.0000000   6.0000000   6.0000000   1.0000000   1.0000000   6.0000000

  Atom        21          22          23          24          25          26          27          28          29          30
 IAtWgt=          12          16           1          14           1          12           1          14          12          12
 AtmWgt=  12.0000000  15.9949146   1.0078250  14.0030740   1.0078250  12.0000000   1.0078250  14.0030740  12.0000000  12.0000000
 NucSpn=           0           0           1           2           1           0           1           2           0           0
 AtZEff=  -0.0000000  -0.0000000  -0.0000000  -0.0000000  -0.0000000  -0.0000000  -0.0000000  -0.0000000  -0.0000000  -0.0000000
 NQMom=    0.0000000   0.0000000   0.0000000   2.0440000   0.0000000   0.0000000   0.0000000   2.0440000   0.0000000   0.0000000
 NMagM=    0.0000000   0.0000000   2.7928460   0.4037610   2.7928460   0.0000000   2.7928460   0.4037610   0.0000000   0.0000000
 AtZNuc=   6.0000000   8.0000000   1.0000000   7.0000000   1.0000000   6.0000000   1.0000000   7.0000000   6.0000000   6.0000000

  Atom        31          32          33          34          35          36          37          38          39          40
 IAtWgt=          12           1          12           1           1          12           1           1          12           1
 AtmWgt=  12.0000000   1.0078250  12.0000000   1.0078250   1.0078250  12.0000000   1.0078250   1.0078250  12.0000000   1.0078250
 NucSpn=           0           1           0           1           1           0           1           1           0           1
 AtZEff=  -0.0000000  -0.0000000  -0.0000000  -0.0000000  -0.0000000  -0.0000000  -0.0000000  -0.0000000  -0.0000000  -0.0000000
 NQMom=    0.0000000   0.0000000   0.0000000   0.0000000   0.0000000   0.0000000   0.0000000   0.0000000   0.0000000   0.0000000
 NMagM=    0.0000000   2.7928460   0.0000000   2.7928460   2.7928460   0.0000000   2.7928460   2.7928460   0.0000000   2.7928460
 AtZNuc=   6.0000000   1.0000000   6.0000000   1.0000000   1.0000000   6.0000000   1.0000000   1.0000000   6.0000000   1.0000000

  Atom        41          42          43          44          45          46          47          48          49          50
 IAtWgt=           1           1           1           1           1          12           1           1           1          12
 AtmWgt=   1.0078250   1.0078250   1.0078250   1.0078250   1.0078250  12.0000000   1.0078250   1.0078250   1.0078250  12.0000000
 NucSpn=           1           1           1           1           1           0           1           1           1           0
 AtZEff=  -0.0000000  -0.0000000  -0.0000000  -0.0000000  -0.0000000  -0.0000000  -0.0000000  -0.0000000  -0.0000000  -0.0000000
 NQMom=    0.0000000   0.0000000   0.0000000   0.0000000   0.0000000   0.0000000   0.0000000   0.0000000   0.0000000   0.0000000
 NMagM=    2.7928460   2.7928460   2.7928460   2.7928460   2.7928460   0.0000000   2.7928460   2.7928460   2.7928460   0.0000000
 AtZNuc=   1.0000000   1.0000000   1.0000000   1.0000000   1.0000000   6.0000000   1.0000000   1.0000000   1.0000000   6.0000000

  Atom        51          52          53          54          55          56          57          58          59          60
 IAtWgt=           1           1           1          12           1           1           1          12           1           1
 AtmWgt=   1.0078250   1.0078250   1.0078250  12.0000000   1.0078250   1.0078250   1.0078250  12.0000000   1.0078250   1.0078250
 NucSpn=           1           1           1           0           1           1           1           0           1           1
 AtZEff=  -0.0000000  -0.0000000  -0.0000000  -0.0000000  -0.0000000  -0.0000000  -0.0000000  -0.0000000  -0.0000000  -0.0000000
 NQMom=    0.0000000   0.0000000   0.0000000   0.0000000   0.0000000   0.0000000   0.0000000   0.0000000   0.0000000   0.0000000
 NMagM=    2.7928460   2.7928460   2.7928460   0.0000000   2.7928460   2.7928460   2.7928460   0.0000000   2.7928460   2.7928460
 AtZNuc=   1.0000000   1.0000000   1.0000000   6.0000000   1.0000000   1.0000000   1.0000000   6.0000000   1.0000000   1.0000000

  Atom        61          62          63          64          65          66          67          68          69
 IAtWgt=           1          12           1           1           1          12           1           1           1
 AtmWgt=   1.0078250  12.0000000   1.0078250   1.0078250   1.0078250  12.0000000   1.0078250   1.0078250   1.0078250
 NucSpn=           1           0           1           1           1           0           1           1           1
 AtZEff=  -0.0000000  -0.0000000  -0.0000000  -0.0000000  -0.0000000  -0.0000000  -0.0000000  -0.0000000  -0.0000000
 NQMom=    0.0000000   0.0000000   0.0000000   0.0000000   0.0000000   0.0000000   0.0000000   0.0000000   0.0000000
 NMagM=    2.7928460   0.0000000   2.7928460   2.7928460   2.7928460   0.0000000   2.7928460   2.7928460   2.7928460
 AtZNuc=   1.0000000   6.0000000   1.0000000   1.0000000   1.0000000   6.0000000   1.0000000   1.0000000   1.0000000
 Leave Link  101 at Thu Dec 20 17:39:46 2018, MaxMem=  1342177280 cpu:               4.2 elap:               0.3
 (Enter /gpfs/apps/hpc/Apps/Restricted/Gaussian/Rev_A.03/g16/l103.exe)

 GradGradGradGradGradGradGradGradGradGradGradGradGradGradGradGradGradGrad
 Berny optimization.
 Initialization pass.
                           ----------------------------
                           !    Initial Parameters    !
                           ! (Angstroms and Degrees)  !
 --------------------------                            --------------------------
 ! Name  Definition              Value          Derivative Info.                !
 --------------------------------------------------------------------------------
 ! R1    R(1,2)                  1.4222         estimate D2E/DX2                !
 ! R2    R(1,6)                  1.4057         estimate D2E/DX2                !
 ! R3    R(1,24)                 1.3651         estimate D2E/DX2                !
 ! R4    R(2,3)                  1.4068         estimate D2E/DX2                !
 ! R5    R(2,11)                 1.369          estimate D2E/DX2                !
 ! R6    R(3,4)                  1.3854         estimate D2E/DX2                !
 ! R7    R(3,8)                  1.0823         estimate D2E/DX2                !
 ! R8    R(4,5)                  1.4167         estimate D2E/DX2                !
 ! R9    R(4,9)                  1.0831         estimate D2E/DX2                !
 ! R10   R(5,6)                  1.3931         estimate D2E/DX2                !
 ! R11   R(5,10)                 1.0839         estimate D2E/DX2                !
 ! R12   R(6,26)                 1.4621         estimate D2E/DX2                !
 ! R13   R(7,11)                 1.3446         estimate D2E/DX2                !
 ! R14   R(7,13)                 1.4345         estimate D2E/DX2                !
 ! R15   R(7,24)                 1.3688         estimate D2E/DX2                !
 ! R16   R(12,13)                1.4555         estimate D2E/DX2                !
 ! R17   R(12,17)                1.4345         estimate D2E/DX2                !
 ! R18   R(12,22)                1.303          estimate D2E/DX2                !
 ! R19   R(13,14)                1.3925         estimate D2E/DX2                !
 ! R20   R(14,15)                1.3958         estimate D2E/DX2                !
 ! R21   R(14,18)                1.0828         estimate D2E/DX2                !
 ! R22   R(15,16)                1.4287         estimate D2E/DX2                !
 ! R23   R(15,20)                1.4928         estimate D2E/DX2                !
 ! R24   R(16,17)                1.371          estimate D2E/DX2                !
 ! R25   R(16,19)                1.0844         estimate D2E/DX2                !
 ! R26   R(17,21)                1.4971         estimate D2E/DX2                !
 ! R27   R(20,58)                1.54           estimate D2E/DX2                !
 ! R28   R(20,62)                1.54           estimate D2E/DX2                !
 ! R29   R(20,66)                1.54           estimate D2E/DX2                !
 ! R30   R(21,46)                1.54           estimate D2E/DX2                !
 ! R31   R(21,50)                1.54           estimate D2E/DX2                !
 ! R32   R(21,54)                1.54           estimate D2E/DX2                !
 ! R33   R(22,23)                1.0408         estimate D2E/DX2                !
 ! R34   R(24,25)                1.018          estimate D2E/DX2                !
 ! R35   R(26,27)                1.0944         estimate D2E/DX2                !
 ! R36   R(26,28)                1.2808         estimate D2E/DX2                !
 ! R37   R(28,29)                1.4699         estimate D2E/DX2                !
 ! R38   R(29,30)                1.5378         estimate D2E/DX2                !
 ! R39   R(29,31)                1.5376         estimate D2E/DX2                !
 ! R40   R(29,32)                1.0957         estimate D2E/DX2                !
 ! R41   R(30,33)                1.5328         estimate D2E/DX2                !
 ! R42   R(30,34)                1.0966         estimate D2E/DX2                !
 ! R43   R(30,35)                1.0941         estimate D2E/DX2                !
 ! R44   R(31,36)                1.5327         estimate D2E/DX2                !
 ! R45   R(31,37)                1.0965         estimate D2E/DX2                !
 ! R46   R(31,38)                1.0939         estimate D2E/DX2                !
 ! R47   R(33,39)                1.5328         estimate D2E/DX2                !
 ! R48   R(33,40)                1.0941         estimate D2E/DX2                !
 ! R49   R(33,41)                1.0973         estimate D2E/DX2                !
 ! R50   R(36,39)                1.5333         estimate D2E/DX2                !
 ! R51   R(36,42)                1.0943         estimate D2E/DX2                !
 ! R52   R(36,43)                1.0972         estimate D2E/DX2                !
 ! R53   R(39,44)                1.0942         estimate D2E/DX2                !
 ! R54   R(39,45)                1.0973         estimate D2E/DX2                !
 ! R55   R(46,47)                1.07           estimate D2E/DX2                !
 ! R56   R(46,48)                1.07           estimate D2E/DX2                !
 ! R57   R(46,49)                1.07           estimate D2E/DX2                !
 ! R58   R(50,51)                1.07           estimate D2E/DX2                !
 ! R59   R(50,52)                1.07           estimate D2E/DX2                !
 ! R60   R(50,53)                1.07           estimate D2E/DX2                !
 ! R61   R(54,55)                1.07           estimate D2E/DX2                !
 ! R62   R(54,56)                1.07           estimate D2E/DX2                !
 ! R63   R(54,57)                1.07           estimate D2E/DX2                !
 ! R64   R(58,59)                1.07           estimate D2E/DX2                !
 ! R65   R(58,60)                1.07           estimate D2E/DX2                !
 ! R66   R(58,61)                1.07           estimate D2E/DX2                !
 ! R67   R(62,63)                1.07           estimate D2E/DX2                !
 ! R68   R(62,64)                1.07           estimate D2E/DX2                !
 ! R69   R(62,65)                1.07           estimate D2E/DX2                !
 ! R70   R(66,67)                1.07           estimate D2E/DX2                !
 ! R71   R(66,68)                1.07           estimate D2E/DX2                !
 ! R72   R(66,69)                1.07           estimate D2E/DX2                !
 ! A1    A(2,1,6)              123.1689         estimate D2E/DX2                !
 ! A2    A(2,1,24)             106.2633         estimate D2E/DX2                !
 ! A3    A(6,1,24)             130.5678         estimate D2E/DX2                !
 ! A4    A(1,2,3)              120.0305         estimate D2E/DX2                !
 ! A5    A(1,2,11)             108.4163         estimate D2E/DX2                !
 ! A6    A(3,2,11)             131.5519         estimate D2E/DX2                !
 ! A7    A(2,3,4)              117.1479         estimate D2E/DX2                !
 ! A8    A(2,3,8)              121.0019         estimate D2E/DX2                !
 ! A9    A(4,3,8)              121.8502         estimate D2E/DX2                !
 ! A10   A(3,4,5)              122.1076         estimate D2E/DX2                !
 ! A11   A(3,4,9)              119.4018         estimate D2E/DX2                !
 ! A12   A(5,4,9)              118.4905         estimate D2E/DX2                !
 ! A13   A(4,5,6)              122.2102         estimate D2E/DX2                !
 ! A14   A(4,5,10)             118.9947         estimate D2E/DX2                !
 ! A15   A(6,5,10)             118.795          estimate D2E/DX2                !
 ! A16   A(1,6,5)              115.3343         estimate D2E/DX2                !
 ! A17   A(1,6,26)             121.3629         estimate D2E/DX2                !
 ! A18   A(5,6,26)             123.3028         estimate D2E/DX2                !
 ! A19   A(11,7,13)            122.1089         estimate D2E/DX2                !
 ! A20   A(11,7,24)            111.0642         estimate D2E/DX2                !
 ! A21   A(13,7,24)            126.8258         estimate D2E/DX2                !
 ! A22   A(2,11,7)             106.7            estimate D2E/DX2                !
 ! A23   A(13,12,17)           120.5612         estimate D2E/DX2                !
 ! A24   A(13,12,22)           121.5933         estimate D2E/DX2                !
 ! A25   A(17,12,22)           117.8451         estimate D2E/DX2                !
 ! A26   A(7,13,12)            117.7303         estimate D2E/DX2                !
 ! A27   A(7,13,14)            123.4653         estimate D2E/DX2                !
 ! A28   A(12,13,14)           118.8015         estimate D2E/DX2                !
 ! A29   A(13,14,15)           120.8241         estimate D2E/DX2                !
 ! A30   A(13,14,18)           119.8865         estimate D2E/DX2                !
 ! A31   A(15,14,18)           119.2889         estimate D2E/DX2                !
 ! A32   A(14,15,16)           119.4292         estimate D2E/DX2                !
 ! A33   A(14,15,20)           121.2673         estimate D2E/DX2                !
 ! A34   A(16,15,20)           119.3034         estimate D2E/DX2                !
 ! A35   A(15,16,17)           122.6968         estimate D2E/DX2                !
 ! A36   A(15,16,19)           118.1321         estimate D2E/DX2                !
 ! A37   A(17,16,19)           119.1711         estimate D2E/DX2                !
 ! A38   A(12,17,16)           117.6793         estimate D2E/DX2                !
 ! A39   A(12,17,21)           118.9663         estimate D2E/DX2                !
 ! A40   A(16,17,21)           123.3529         estimate D2E/DX2                !
 ! A41   A(15,20,58)           110.2694         estimate D2E/DX2                !
 ! A42   A(15,20,62)           111.7345         estimate D2E/DX2                !
 ! A43   A(15,20,66)           110.353          estimate D2E/DX2                !
 ! A44   A(58,20,62)           108.8592         estimate D2E/DX2                !
 ! A45   A(58,20,66)           106.4118         estimate D2E/DX2                !
 ! A46   A(62,20,66)           109.0545         estimate D2E/DX2                !
 ! A47   A(17,21,46)           110.8901         estimate D2E/DX2                !
 ! A48   A(17,21,50)           110.4388         estimate D2E/DX2                !
 ! A49   A(17,21,54)           110.7543         estimate D2E/DX2                !
 ! A50   A(46,21,50)           108.8914         estimate D2E/DX2                !
 ! A51   A(46,21,54)           106.9383         estimate D2E/DX2                !
 ! A52   A(50,21,54)           108.8304         estimate D2E/DX2                !
 ! A53   A(12,22,23)           108.5017         estimate D2E/DX2                !
 ! A54   A(1,24,7)             107.556          estimate D2E/DX2                !
 ! A55   A(1,24,25)            120.8641         estimate D2E/DX2                !
 ! A56   A(7,24,25)            131.5795         estimate D2E/DX2                !
 ! A57   A(6,26,27)            116.1011         estimate D2E/DX2                !
 ! A58   A(6,26,28)            120.6222         estimate D2E/DX2                !
 ! A59   A(27,26,28)           123.2765         estimate D2E/DX2                !
 ! A60   A(26,28,29)           118.3029         estimate D2E/DX2                !
 ! A61   A(28,29,30)           111.9452         estimate D2E/DX2                !
 ! A62   A(28,29,31)           112.856          estimate D2E/DX2                !
 ! A63   A(28,29,32)           105.9007         estimate D2E/DX2                !
 ! A64   A(30,29,31)           110.4513         estimate D2E/DX2                !
 ! A65   A(30,29,32)           107.6865         estimate D2E/DX2                !
 ! A66   A(31,29,32)           107.6733         estimate D2E/DX2                !
 ! A67   A(29,30,33)           110.6432         estimate D2E/DX2                !
 ! A68   A(29,30,34)           108.5536         estimate D2E/DX2                !
 ! A69   A(29,30,35)           109.6255         estimate D2E/DX2                !
 ! A70   A(33,30,34)           109.8005         estimate D2E/DX2                !
 ! A71   A(33,30,35)           110.8658         estimate D2E/DX2                !
 ! A72   A(34,30,35)           107.2636         estimate D2E/DX2                !
 ! A73   A(29,31,36)           110.7189         estimate D2E/DX2                !
 ! A74   A(29,31,37)           109.0279         estimate D2E/DX2                !
 ! A75   A(29,31,38)           109.5556         estimate D2E/DX2                !
 ! A76   A(36,31,37)           109.1762         estimate D2E/DX2                !
 ! A77   A(36,31,38)           111.1383         estimate D2E/DX2                !
 ! A78   A(37,31,38)           107.1331         estimate D2E/DX2                !
 ! A79   A(30,33,39)           111.4023         estimate D2E/DX2                !
 ! A80   A(30,33,40)           110.0867         estimate D2E/DX2                !
 ! A81   A(30,33,41)           108.8635         estimate D2E/DX2                !
 ! A82   A(39,33,40)           110.5332         estimate D2E/DX2                !
 ! A83   A(39,33,41)           109.1405         estimate D2E/DX2                !
 ! A84   A(40,33,41)           106.6807         estimate D2E/DX2                !
 ! A85   A(31,36,39)           111.0755         estimate D2E/DX2                !
 ! A86   A(31,36,42)           109.8084         estimate D2E/DX2                !
 ! A87   A(31,36,43)           109.1987         estimate D2E/DX2                !
 ! A88   A(39,36,42)           110.5455         estimate D2E/DX2                !
 ! A89   A(39,36,43)           109.2877         estimate D2E/DX2                !
 ! A90   A(42,36,43)           106.82           estimate D2E/DX2                !
 ! A91   A(33,39,36)           111.1291         estimate D2E/DX2                !
 ! A92   A(33,39,44)           110.3376         estimate D2E/DX2                !
 ! A93   A(33,39,45)           109.0559         estimate D2E/DX2                !
 ! A94   A(36,39,44)           110.3582         estimate D2E/DX2                !
 ! A95   A(36,39,45)           108.9795         estimate D2E/DX2                !
 ! A96   A(44,39,45)           106.8667         estimate D2E/DX2                !
 ! A97   A(21,46,47)           109.4712         estimate D2E/DX2                !
 ! A98   A(21,46,48)           109.4712         estimate D2E/DX2                !
 ! A99   A(21,46,49)           109.4712         estimate D2E/DX2                !
 ! A100  A(47,46,48)           109.4713         estimate D2E/DX2                !
 ! A101  A(47,46,49)           109.4712         estimate D2E/DX2                !
 ! A102  A(48,46,49)           109.4712         estimate D2E/DX2                !
 ! A103  A(21,50,51)           109.4712         estimate D2E/DX2                !
 ! A104  A(21,50,52)           109.4712         estimate D2E/DX2                !
 ! A105  A(21,50,53)           109.4712         estimate D2E/DX2                !
 ! A106  A(51,50,52)           109.4713         estimate D2E/DX2                !
 ! A107  A(51,50,53)           109.4712         estimate D2E/DX2                !
 ! A108  A(52,50,53)           109.4712         estimate D2E/DX2                !
 ! A109  A(21,54,55)           109.4712         estimate D2E/DX2                !
 ! A110  A(21,54,56)           109.4712         estimate D2E/DX2                !
 ! A111  A(21,54,57)           109.4712         estimate D2E/DX2                !
 ! A112  A(55,54,56)           109.4713         estimate D2E/DX2                !
 ! A113  A(55,54,57)           109.4712         estimate D2E/DX2                !
 ! A114  A(56,54,57)           109.4712         estimate D2E/DX2                !
 ! A115  A(20,58,59)           109.4712         estimate D2E/DX2                !
 ! A116  A(20,58,60)           109.4712         estimate D2E/DX2                !
 ! A117  A(20,58,61)           109.4712         estimate D2E/DX2                !
 ! A118  A(59,58,60)           109.4713         estimate D2E/DX2                !
 ! A119  A(59,58,61)           109.4712         estimate D2E/DX2                !
 ! A120  A(60,58,61)           109.4712         estimate D2E/DX2                !
 ! A121  A(20,62,63)           109.4712         estimate D2E/DX2                !
 ! A122  A(20,62,64)           109.4712         estimate D2E/DX2                !
 ! A123  A(20,62,65)           109.4712         estimate D2E/DX2                !
 ! A124  A(63,62,64)           109.4713         estimate D2E/DX2                !
 ! A125  A(63,62,65)           109.4712         estimate D2E/DX2                !
 ! A126  A(64,62,65)           109.4712         estimate D2E/DX2                !
 ! A127  A(20,66,67)           109.4712         estimate D2E/DX2                !
 ! A128  A(20,66,68)           109.4712         estimate D2E/DX2                !
 ! A129  A(20,66,69)           109.4712         estimate D2E/DX2                !
 ! A130  A(67,66,68)           109.4713         estimate D2E/DX2                !
 ! A131  A(67,66,69)           109.4712         estimate D2E/DX2                !
 ! A132  A(68,66,69)           109.4712         estimate D2E/DX2                !
 ! D1    D(6,1,2,3)              0.2849         estimate D2E/DX2                !
 ! D2    D(6,1,2,11)           179.9193         estimate D2E/DX2                !
 ! D3    D(24,1,2,3)          -179.6316         estimate D2E/DX2                !
 ! D4    D(24,1,2,11)            0.0028         estimate D2E/DX2                !
 ! D5    D(2,1,6,5)             -0.1153         estimate D2E/DX2                !
 ! D6    D(2,1,6,26)           179.9268         estimate D2E/DX2                !
 ! D7    D(24,1,6,5)           179.7791         estimate D2E/DX2                !
 ! D8    D(24,1,6,26)           -0.1787         estimate D2E/DX2                !
 ! D9    D(2,1,24,7)             0.0698         estimate D2E/DX2                !
 ! D10   D(2,1,24,25)         -179.7385         estimate D2E/DX2                !
 ! D11   D(6,1,24,7)          -179.8381         estimate D2E/DX2                !
 ! D12   D(6,1,24,25)            0.3535         estimate D2E/DX2                !
 ! D13   D(1,2,3,4)             -0.2814         estimate D2E/DX2                !
 ! D14   D(1,2,3,8)            179.713          estimate D2E/DX2                !
 ! D15   D(11,2,3,4)          -179.8178         estimate D2E/DX2                !
 ! D16   D(11,2,3,8)             0.1765         estimate D2E/DX2                !
 ! D17   D(1,2,11,7)            -0.0753         estimate D2E/DX2                !
 ! D18   D(3,2,11,7)           179.5017         estimate D2E/DX2                !
 ! D19   D(2,3,4,5)              0.1343         estimate D2E/DX2                !
 ! D20   D(2,3,4,9)           -179.8265         estimate D2E/DX2                !
 ! D21   D(8,3,4,5)           -179.8601         estimate D2E/DX2                !
 ! D22   D(8,3,4,9)              0.1792         estimate D2E/DX2                !
 ! D23   D(3,4,5,6)              0.0294         estimate D2E/DX2                !
 ! D24   D(3,4,5,10)          -179.8838         estimate D2E/DX2                !
 ! D25   D(9,4,5,6)            179.9905         estimate D2E/DX2                !
 ! D26   D(9,4,5,10)             0.0773         estimate D2E/DX2                !
 ! D27   D(4,5,6,1)             -0.0406         estimate D2E/DX2                !
 ! D28   D(4,5,6,26)           179.9163         estimate D2E/DX2                !
 ! D29   D(10,5,6,1)           179.8727         estimate D2E/DX2                !
 ! D30   D(10,5,6,26)           -0.1704         estimate D2E/DX2                !
 ! D31   D(1,6,26,27)          179.1904         estimate D2E/DX2                !
 ! D32   D(1,6,26,28)           -0.9249         estimate D2E/DX2                !
 ! D33   D(5,6,26,27)           -0.764          estimate D2E/DX2                !
 ! D34   D(5,6,26,28)          179.1207         estimate D2E/DX2                !
 ! D35   D(13,7,11,2)         -179.5106         estimate D2E/DX2                !
 ! D36   D(24,7,11,2)            0.1224         estimate D2E/DX2                !
 ! D37   D(11,7,13,12)          -0.9847         estimate D2E/DX2                !
 ! D38   D(11,7,13,14)         178.3852         estimate D2E/DX2                !
 ! D39   D(24,7,13,12)         179.4432         estimate D2E/DX2                !
 ! D40   D(24,7,13,14)          -1.1869         estimate D2E/DX2                !
 ! D41   D(11,7,24,1)           -0.1222         estimate D2E/DX2                !
 ! D42   D(11,7,24,25)         179.6578         estimate D2E/DX2                !
 ! D43   D(13,7,24,1)          179.4894         estimate D2E/DX2                !
 ! D44   D(13,7,24,25)          -0.7306         estimate D2E/DX2                !
 ! D45   D(17,12,13,7)        -179.6475         estimate D2E/DX2                !
 ! D46   D(17,12,13,14)          0.9523         estimate D2E/DX2                !
 ! D47   D(22,12,13,7)           0.5553         estimate D2E/DX2                !
 ! D48   D(22,12,13,14)       -178.8449         estimate D2E/DX2                !
 ! D49   D(13,12,17,16)         -0.7783         estimate D2E/DX2                !
 ! D50   D(13,12,17,21)        179.6414         estimate D2E/DX2                !
 ! D51   D(22,12,17,16)        179.0263         estimate D2E/DX2                !
 ! D52   D(22,12,17,21)         -0.554          estimate D2E/DX2                !
 ! D53   D(13,12,22,23)         -0.1247         estimate D2E/DX2                !
 ! D54   D(17,12,22,23)       -179.9272         estimate D2E/DX2                !
 ! D55   D(7,13,14,15)        -179.7143         estimate D2E/DX2                !
 ! D56   D(7,13,14,18)           0.0509         estimate D2E/DX2                !
 ! D57   D(12,13,14,15)         -0.3508         estimate D2E/DX2                !
 ! D58   D(12,13,14,18)        179.4145         estimate D2E/DX2                !
 ! D59   D(13,14,15,16)         -0.3905         estimate D2E/DX2                !
 ! D60   D(13,14,15,20)        179.4856         estimate D2E/DX2                !
 ! D61   D(18,14,15,16)        179.8429         estimate D2E/DX2                !
 ! D62   D(18,14,15,20)         -0.281          estimate D2E/DX2                !
 ! D63   D(14,15,16,17)          0.5748         estimate D2E/DX2                !
 ! D64   D(14,15,16,19)       -179.5271         estimate D2E/DX2                !
 ! D65   D(20,15,16,17)       -179.3038         estimate D2E/DX2                !
 ! D66   D(20,15,16,19)          0.5943         estimate D2E/DX2                !
 ! D67   D(14,15,20,58)        119.6739         estimate D2E/DX2                !
 ! D68   D(14,15,20,62)         -1.536          estimate D2E/DX2                !
 ! D69   D(14,15,20,66)       -123.0522         estimate D2E/DX2                !
 ! D70   D(16,15,20,58)        -60.4498         estimate D2E/DX2                !
 ! D71   D(16,15,20,62)        178.3402         estimate D2E/DX2                !
 ! D72   D(16,15,20,66)         56.8241         estimate D2E/DX2                !
 ! D73   D(15,16,17,12)          0.0194         estimate D2E/DX2                !
 ! D74   D(15,16,17,21)        179.5798         estimate D2E/DX2                !
 ! D75   D(19,16,17,12)       -179.8777         estimate D2E/DX2                !
 ! D76   D(19,16,17,21)         -0.3173         estimate D2E/DX2                !
 ! D77   D(12,17,21,46)        -57.3604         estimate D2E/DX2                !
 ! D78   D(12,17,21,50)       -178.1624         estimate D2E/DX2                !
 ! D79   D(12,17,21,54)         61.2018         estimate D2E/DX2                !
 ! D80   D(16,17,21,46)        123.0845         estimate D2E/DX2                !
 ! D81   D(16,17,21,50)          2.2825         estimate D2E/DX2                !
 ! D82   D(16,17,21,54)       -118.3532         estimate D2E/DX2                !
 ! D83   D(15,20,58,59)         82.7465         estimate D2E/DX2                !
 ! D84   D(15,20,58,60)       -157.2534         estimate D2E/DX2                !
 ! D85   D(15,20,58,61)        -37.2535         estimate D2E/DX2                !
 ! D86   D(62,20,58,59)       -154.3453         estimate D2E/DX2                !
 ! D87   D(62,20,58,60)        -34.3453         estimate D2E/DX2                !
 ! D88   D(62,20,58,61)         85.6547         estimate D2E/DX2                !
 ! D89   D(66,20,58,59)        -36.942          estimate D2E/DX2                !
 ! D90   D(66,20,58,60)         83.058          estimate D2E/DX2                !
 ! D91   D(66,20,58,61)       -156.942          estimate D2E/DX2                !
 ! D92   D(15,20,62,63)        -58.6095         estimate D2E/DX2                !
 ! D93   D(15,20,62,64)         61.3905         estimate D2E/DX2                !
 ! D94   D(15,20,62,65)       -178.6095         estimate D2E/DX2                !
 ! D95   D(58,20,62,63)        179.3664         estimate D2E/DX2                !
 ! D96   D(58,20,62,64)        -60.6336         estimate D2E/DX2                !
 ! D97   D(58,20,62,65)         59.3664         estimate D2E/DX2                !
 ! D98   D(66,20,62,63)         63.654          estimate D2E/DX2                !
 ! D99   D(66,20,62,64)       -176.346          estimate D2E/DX2                !
 ! D100  D(66,20,62,65)        -56.346          estimate D2E/DX2                !
 ! D101  D(15,20,66,67)        166.1766         estimate D2E/DX2                !
 ! D102  D(15,20,66,68)        -73.8234         estimate D2E/DX2                !
 ! D103  D(15,20,66,69)         46.1766         estimate D2E/DX2                !
 ! D104  D(58,20,66,67)        -74.1891         estimate D2E/DX2                !
 ! D105  D(58,20,66,68)         45.8109         estimate D2E/DX2                !
 ! D106  D(58,20,66,69)        165.8109         estimate D2E/DX2                !
 ! D107  D(62,20,66,67)         43.0844         estimate D2E/DX2                !
 ! D108  D(62,20,66,68)        163.0844         estimate D2E/DX2                !
 ! D109  D(62,20,66,69)        -76.9156         estimate D2E/DX2                !
 ! D110  D(17,21,46,47)         96.0824         estimate D2E/DX2                !
 ! D111  D(17,21,46,48)       -143.9176         estimate D2E/DX2                !
 ! D112  D(17,21,46,49)        -23.9176         estimate D2E/DX2                !
 ! D113  D(50,21,46,47)       -142.2046         estimate D2E/DX2                !
 ! D114  D(50,21,46,48)        -22.2045         estimate D2E/DX2                !
 ! D115  D(50,21,46,49)         97.7955         estimate D2E/DX2                !
 ! D116  D(54,21,46,47)        -24.7636         estimate D2E/DX2                !
 ! D117  D(54,21,46,48)         95.2364         estimate D2E/DX2                !
 ! D118  D(54,21,46,49)       -144.7636         estimate D2E/DX2                !
 ! D119  D(17,21,50,51)        179.8633         estimate D2E/DX2                !
 ! D120  D(17,21,50,52)        -60.1367         estimate D2E/DX2                !
 ! D121  D(17,21,50,53)         59.8633         estimate D2E/DX2                !
 ! D122  D(46,21,50,51)         57.8762         estimate D2E/DX2                !
 ! D123  D(46,21,50,52)        177.8762         estimate D2E/DX2                !
 ! D124  D(46,21,50,53)        -62.1238         estimate D2E/DX2                !
 ! D125  D(54,21,50,51)        -58.358          estimate D2E/DX2                !
 ! D126  D(54,21,50,52)         61.642          estimate D2E/DX2                !
 ! D127  D(54,21,50,53)       -178.358          estimate D2E/DX2                !
 ! D128  D(17,21,54,55)        -90.3373         estimate D2E/DX2                !
 ! D129  D(17,21,54,56)         29.6627         estimate D2E/DX2                !
 ! D130  D(17,21,54,57)        149.6627         estimate D2E/DX2                !
 ! D131  D(46,21,54,55)         30.595          estimate D2E/DX2                !
 ! D132  D(46,21,54,56)        150.595          estimate D2E/DX2                !
 ! D133  D(46,21,54,57)        -89.405          estimate D2E/DX2                !
 ! D134  D(50,21,54,55)        148.0761         estimate D2E/DX2                !
 ! D135  D(50,21,54,56)        -91.9239         estimate D2E/DX2                !
 ! D136  D(50,21,54,57)         28.0761         estimate D2E/DX2                !
 ! D137  D(6,26,28,29)        -179.7638         estimate D2E/DX2                !
 ! D138  D(27,26,28,29)          0.1124         estimate D2E/DX2                !
 ! D139  D(26,28,29,30)        -66.6799         estimate D2E/DX2                !
 ! D140  D(26,28,29,31)         58.6749         estimate D2E/DX2                !
 ! D141  D(26,28,29,32)        176.2325         estimate D2E/DX2                !
 ! D142  D(28,29,30,33)       -176.3355         estimate D2E/DX2                !
 ! D143  D(28,29,30,34)         63.1153         estimate D2E/DX2                !
 ! D144  D(28,29,30,35)        -53.7585         estimate D2E/DX2                !
 ! D145  D(31,29,30,33)         56.9961         estimate D2E/DX2                !
 ! D146  D(31,29,30,34)        -63.5531         estimate D2E/DX2                !
 ! D147  D(31,29,30,35)        179.5731         estimate D2E/DX2                !
 ! D148  D(32,29,30,33)        -60.3266         estimate D2E/DX2                !
 ! D149  D(32,29,30,34)        179.1241         estimate D2E/DX2                !
 ! D150  D(32,29,30,35)         62.2503         estimate D2E/DX2                !
 ! D151  D(28,29,31,36)        176.4796         estimate D2E/DX2                !
 ! D152  D(28,29,31,37)        -63.3925         estimate D2E/DX2                !
 ! D153  D(28,29,31,38)         53.5565         estimate D2E/DX2                !
 ! D154  D(30,29,31,36)        -57.3609         estimate D2E/DX2                !
 ! D155  D(30,29,31,37)         62.767          estimate D2E/DX2                !
 ! D156  D(30,29,31,38)        179.716          estimate D2E/DX2                !
 ! D157  D(32,29,31,36)         59.97           estimate D2E/DX2                !
 ! D158  D(32,29,31,37)       -179.9021         estimate D2E/DX2                !
 ! D159  D(32,29,31,38)        -62.9531         estimate D2E/DX2                !
 ! D160  D(29,30,33,39)        -56.1179         estimate D2E/DX2                !
 ! D161  D(29,30,33,40)       -179.1053         estimate D2E/DX2                !
 ! D162  D(29,30,33,41)         64.2847         estimate D2E/DX2                !
 ! D163  D(34,30,33,39)         63.6855         estimate D2E/DX2                !
 ! D164  D(34,30,33,40)        -59.3019         estimate D2E/DX2                !
 ! D165  D(34,30,33,41)       -175.9119         estimate D2E/DX2                !
 ! D166  D(35,30,33,39)       -177.9688         estimate D2E/DX2                !
 ! D167  D(35,30,33,40)         59.0438         estimate D2E/DX2                !
 ! D168  D(35,30,33,41)        -57.5662         estimate D2E/DX2                !
 ! D169  D(29,31,36,39)         56.6069         estimate D2E/DX2                !
 ! D170  D(29,31,36,42)        179.1934         estimate D2E/DX2                !
 ! D171  D(29,31,36,43)        -63.9924         estimate D2E/DX2                !
 ! D172  D(37,31,36,39)        -63.4323         estimate D2E/DX2                !
 ! D173  D(37,31,36,42)         59.1542         estimate D2E/DX2                !
 ! D174  D(37,31,36,43)        175.9684         estimate D2E/DX2                !
 ! D175  D(38,31,36,39)        178.6073         estimate D2E/DX2                !
 ! D176  D(38,31,36,42)        -58.8062         estimate D2E/DX2                !
 ! D177  D(38,31,36,43)         58.008          estimate D2E/DX2                !
 ! D178  D(30,33,39,36)         55.2847         estimate D2E/DX2                !
 ! D179  D(30,33,39,44)        178.0363         estimate D2E/DX2                !
 ! D180  D(30,33,39,45)        -64.8725         estimate D2E/DX2                !
 ! D181  D(40,33,39,36)        178.0163         estimate D2E/DX2                !
 ! D182  D(40,33,39,44)        -59.2321         estimate D2E/DX2                !
 ! D183  D(40,33,39,45)         57.8591         estimate D2E/DX2                !
 ! D184  D(41,33,39,36)        -64.9547         estimate D2E/DX2                !
 ! D185  D(41,33,39,44)         57.797          estimate D2E/DX2                !
 ! D186  D(41,33,39,45)        174.8881         estimate D2E/DX2                !
 ! D187  D(31,36,39,33)        -55.4192         estimate D2E/DX2                !
 ! D188  D(31,36,39,44)       -178.159          estimate D2E/DX2                !
 ! D189  D(31,36,39,45)         64.7833         estimate D2E/DX2                !
 ! D190  D(42,36,39,33)       -177.5783         estimate D2E/DX2                !
 ! D191  D(42,36,39,44)         59.6818         estimate D2E/DX2                !
 ! D192  D(42,36,39,45)        -57.3759         estimate D2E/DX2                !
 ! D193  D(43,36,39,33)         65.1275         estimate D2E/DX2                !
 ! D194  D(43,36,39,44)        -57.6123         estimate D2E/DX2                !
 ! D195  D(43,36,39,45)       -174.67           estimate D2E/DX2                !
 --------------------------------------------------------------------------------
 Trust Radius=3.00D-01 FncErr=5.00D-06 GrdErr=5.00D-06 EigMax=2.50D+02 EigMin=1.00D-04
 Number of steps in this run=    409 maximum allowed number of steps=    414.
 GradGradGradGradGradGradGradGradGradGradGradGradGradGradGradGradGradGrad

 Leave Link  103 at Thu Dec 20 17:39:46 2018, MaxMem=  1342177280 cpu:               0.3 elap:               0.0
 (Enter /gpfs/apps/hpc/Apps/Restricted/Gaussian/Rev_A.03/g16/l202.exe)
 Symmetry turned off by external request.
 Stoichiometry    C28H37N3O(1+,2)
 Framework group  C1[X(C28H37N3O)]
 Deg. of freedom   201
 Full point group                 C1      NOp   1
                          Input orientation:                          
 ---------------------------------------------------------------------
 Center     Atomic      Atomic             Coordinates (Angstroms)
 Number     Number       Type             X           Y           Z
 ---------------------------------------------------------------------
      1          6           0       -0.441684    2.682131    0.271440
      2          6           0       -1.856882    2.818524    0.234007
      3          6           0       -2.439043    4.096430    0.149597
      4          6           0       -1.578839    5.181726    0.112432
      5          6           0       -0.171034    5.028510    0.153834
      6          6           0        0.437802    3.778009    0.233878
      7          6           0       -1.393958    0.694254    0.348774
      8          1           0       -3.513919    4.218184    0.115484
      9          1           0       -1.987998    6.182621    0.050375
     10          1           0        0.454845    5.912958    0.123697
     11          7           0       -2.413318    1.568739    0.284606
     12          6           0       -2.982466   -1.201063    0.411316
     13          6           0       -1.607661   -0.723184    0.404288
     14          6           0       -0.573360   -1.654913    0.438534
     15          6           0       -0.844671   -3.023238    0.486268
     16          6           0       -2.201742   -3.469469    0.508507
     17          6           0       -3.266029   -2.605856    0.473296
     18          1           0        0.455991   -1.319147    0.424348
     19          1           0       -2.388360   -4.536726    0.553504
     20          6           0        0.256329   -4.031009    0.511822
     21          6           0       -4.693332   -3.057520    0.486739
     22          8           0       -3.991394   -0.378310    0.358162
     23          1           0       -3.622753    0.594081    0.316476
     24          7           0       -0.188486    1.342648    0.343975
     25          1           0        0.766786    0.993244    0.386120
     26          6           0        1.887382    3.592148    0.276195
     27          1           0        2.491276    4.503579    0.228177
     28          7           0        2.392298    2.418535    0.366772
     29          6           0        3.856046    2.291049    0.410734
     30          6           0        4.509928    2.715240   -0.914861
     31          6           0        4.486728    3.052077    1.588625
     32          1           0        4.060234    1.224453    0.556297
     33          6           0        6.024647    2.485263   -0.868151
     34          1           0        4.300642    3.778511   -1.082617
     35          1           0        4.056903    2.160701   -1.742063
     36          6           0        6.000209    2.815580    1.638901
     37          1           0        4.293640    4.124402    1.465849
     38          1           0        4.007982    2.743287    2.522439
     39          6           0        6.665187    3.216766    0.316811
     40          1           0        6.482397    2.804647   -1.809162
     41          1           0        6.217359    1.409132   -0.773431
     42          1           0        6.435389    3.374670    2.472828
     43          1           0        6.193107    1.753230    1.833871
     44          1           0        7.739569    3.012852    0.353849
     45          1           0        6.551219    4.298757    0.173916
     46          6           0       -5.456910   -2.429579    1.667518
     47          1           0       -5.974900   -1.555219    1.332734
     48          1           0       -6.161992   -3.136322    2.052580
     49          1           0       -4.764373   -2.160900    2.437651
     50          6           0       -4.770991   -4.591247    0.601853
     51          1           0       -5.796425   -4.896652    0.612479
     52          1           0       -4.274648   -5.037282   -0.234565
     53          1           0       -4.295859   -4.905447    1.507628
     54          6           0       -5.416832   -2.618356   -0.799839
     55          1           0       -5.858531   -1.655416   -0.649680
     56          1           0       -4.713544   -2.566590   -1.604579
     57          1           0       -6.181111   -3.327929   -1.039179
     58          6           0        0.176135   -4.876327    1.796581
     59          1           0       -0.535822   -5.663610    1.661666
     60          1           0        1.137192   -5.296817    2.007430
     61          1           0       -0.128684   -4.255886    2.613305
     62          6           0        1.642276   -3.363384    0.440910
     63          1           0        1.712639   -2.781842   -0.454499
     64          1           0        1.775592   -2.727151    1.290813
     65          1           0        2.401559   -4.117290    0.437147
     66          6           0        0.110681   -5.013379   -0.665181
     67          1           0        1.017364   -5.569932   -0.779523
     68          1           0       -0.698470   -5.685872   -0.470431
     69          1           0       -0.088048   -4.466888   -1.563376
 ---------------------------------------------------------------------
 Rotational constants (GHZ):           0.1864485           0.0714542           0.0539550
 Leave Link  202 at Thu Dec 20 17:39:46 2018, MaxMem=  1342177280 cpu:               0.6 elap:               0.1
 (Enter /gpfs/apps/hpc/Apps/Restricted/Gaussian/Rev_A.03/g16/l301.exe)
 Standard basis: 6-31G(d,p) (6D, 7F)
 Ernie: Thresh=  0.10000D-02 Tol=  0.10000D-05 Strict=F.
   665 basis functions,  1155 primitive gaussians,   665 cartesian basis functions
   117 alpha electrons      116 beta electrons
       nuclear repulsion energy      3179.1035271933 Hartrees.
 IExCor=  402 DFT=T Ex+Corr=B3LYP ExCW=0 ScaHFX=  0.200000
 ScaDFX=  0.800000  0.720000  1.000000  0.810000 ScalE2=  1.000000  1.000000
 IRadAn=      5 IRanWt=     -1 IRanGd=            0 ICorTp=0 IEmpDi=141
 NAtoms=   69 NActive=   69 NUniq=   69 SFac= 1.00D+00 NAtFMM=   60 NAOKFM=T Big=T
 Integral buffers will be    131072 words long.
 Raffenetti 2 integral format.
 Two-electron integral symmetry is turned off.
 R6Disp:  Grimme-D3(BJ) Dispersion energy=       -0.1515063235 Hartrees.
 Nuclear repulsion after empirical dispersion term =     3178.9520208698 Hartrees.
 Using the following non-standard input for PCM:
 radii=bondi
 dis
 rep
 cav
 --- end of non-standard input.
 ------------------------------------------------------------------------------
 Polarizable Continuum Model (PCM)
 =================================
 Model                : C-PCM.
 Atomic radii         : Bondi.
 Polarization charges : Total charges.
 Charge compensation  : None.
 Solution method      : On-the-fly selection.
 Cavity type          : Scaled VdW (van der Waals Surface) (Alpha=1.100).
 Cavity algorithm     : GePol (No added spheres)
                        Default sphere list used, NSphG=   69.
                        Lebedev-Laikov grids with approx.  5.0 points / Ang**2.
                        Smoothing algorithm: York/Karplus (Gamma=1.0000).
                        Polarization charges: spherical gaussians, with
                                              point-specific exponents (IZeta= 3).
                        Self-potential: point-specific (ISelfS= 7).
                        Self-field    : sphere-specific E.n sum rule (ISelfD= 2).
 1st derivatives      : Analytical E(r).r(x)/FMM algorithm (CHGder, D1EAlg=3).
                        Cavity 1st derivative terms included.
 Solvent              : Dichloromethane, Eps=   8.930000 Eps(inf)=   2.028346
 ------------------------------------------------------------------------------
 GePol: Number of generator spheres                  =      69
 GePol: Total number of spheres                      =      69
 GePol: Number of exposed spheres                    =      69 (100.00%)
 GePol: Number of points                             =    4275
 GePol: Average weight of points                     =       0.12
 GePol: Minimum weight of points                     =   0.40D-11
 GePol: Maximum weight of points                     =    0.21770
 GePol: Number of points with low weight             =     289
 GePol: Fraction of low-weight points (<1% of avg)   =       6.76%
 GePol: Cavity surface area                          =    510.100 Ang**2
 GePol: Cavity volume                                =    496.269 Ang**3
 PCM non-electrostatic energy =         0.0243635691 Hartrees.
 Nuclear repulsion after PCM non-electrostatic terms =     3178.9763844388 Hartrees.
 Leave Link  301 at Thu Dec 20 17:39:46 2018, MaxMem=  1342177280 cpu:               3.6 elap:               0.2
 (Enter /gpfs/apps/hpc/Apps/Restricted/Gaussian/Rev_A.03/g16/l302.exe)
 NPDir=0 NMtPBC=     1 NCelOv=     1 NCel=       1 NClECP=     1 NCelD=      1
         NCelK=      1 NCelE2=     1 NClLst=     1 CellRange=     0.0.
 One-electron integrals computed using PRISM.
 NBasis=   665 RedAO= T EigKep=  3.00D-04  NBF=   665
 NBsUse=   665 1.00D-06 EigRej= -1.00D+00 NBFU=   665
 Precomputing XC quadrature grid using
 IXCGrd= 4 IRadAn=           5 IRanWt=          -1 IRanGd=           0 AccXCQ= 0.00D+00.
 Generated NRdTot=       0 NPtTot=           0 NUsed=           0 NTot=          32
 NSgBfM=   647   647   647   647   647 MxSgAt=    69 MxSgA2=    69.
 Leave Link  302 at Thu Dec 20 17:39:48 2018, MaxMem=  1342177280 cpu:              21.5 elap:               1.4
 (Enter /gpfs/apps/hpc/Apps/Restricted/Gaussian/Rev_A.03/g16/l303.exe)
 DipDrv:  MaxL=1.
 Leave Link  303 at Thu Dec 20 17:39:48 2018, MaxMem=  1342177280 cpu:               1.5 elap:               0.1
 (Enter /gpfs/apps/hpc/Apps/Restricted/Gaussian/Rev_A.03/g16/l401.exe)
 ExpMin= 1.61D-01 ExpMax= 5.48D+03 ExpMxC= 8.25D+02 IAcc=3 IRadAn=         5 AccDes= 0.00D+00
 Harris functional with IExCor=  402 and IRadAn=       5 diagonalized for initial guess.
 HarFok:  IExCor=  402 AccDes= 0.00D+00 IRadAn=         5 IDoV= 1 UseB2=F ITyADJ=14
 ICtDFT=  3500011 ScaDFX=  1.000000  1.000000  1.000000  1.000000
 FoFCou: FMM=F IPFlag=           0 FMFlag=      100000 FMFlg1=        2001
         NFxFlg=           0 DoJE=T BraDBF=F KetDBF=T FulRan=T
         wScrn=  0.000000 ICntrl=       500 IOpCl=  0 I1Cent=   200000004 NGrid=           0
         NMat0=    1 NMatS0=      1 NMatT0=    0 NMatD0=    1 NMtDS0=    0 NMtDT0=    0
 Symmetry not used in FoFCou.
 Harris En= -1328.78175981922    
 JPrj=0 DoOrth=F DoCkMO=F.
 Initial guess <Sx>= 0.0000 <Sy>= 0.0000 <Sz>= 0.5000 <S**2>= 0.7500 S= 0.5000
 Leave Link  401 at Thu Dec 20 17:39:53 2018, MaxMem=  1342177280 cpu:              76.8 elap:               4.8
 (Enter /gpfs/apps/hpc/Apps/Restricted/Gaussian/Rev_A.03/g16/l502.exe)
 Two-electron integral symmetry not used.
 UHF open shell SCF:
 Using DIIS extrapolation, IDIIS=  1040.
 NGot=  1342177280 LenX=  1341276554 LenY=  1340833664
 Requested convergence on RMS density matrix=1.00D-08 within 128 cycles.
 Requested convergence on MAX density matrix=1.00D-06.
 Requested convergence on             energy=1.00D-06.
 No special actions if energy rises.
 Fock matrices will be formed incrementally for  20 cycles.

 Cycle   1  Pass 1  IDiag  1:
 FoFJK:  IHMeth= 1 ICntrl=       0 DoSepK=F KAlg= 0 I1Cent=           0 FoldK=F
 IRaf= 760000000 NMat=       1 IRICut=       1 DoRegI=T DoRafI=F ISym2E= 0 IDoP0=0 IntGTp=1.
 FoFCou: FMM=T IPFlag=           0 FMFlag=      100000 FMFlg1=        2001
         NFxFlg=           0 DoJE=F BraDBF=F KetDBF=F FulRan=T
         wScrn=  0.000000 ICntrl=         0 IOpCl=  1 I1Cent=           0 NGrid=           0
         NMat0=    1 NMatS0=      1 NMatT0=    0 NMatD0=    1 NMtDS0=    0 NMtDT0=    0
 Symmetry not used in FoFCou.
 FMM levels:  10  Number of levels for PrismC:   9
 Inv3:  Mode=1 IEnd=    54826875.
 Iteration    1 A*A^-1 deviation from unit magnitude is 6.88D-15 for    954.
 Iteration    1 A*A^-1 deviation from orthogonality  is 4.79D-15 for   2540   1026.
 Iteration    1 A^-1*A deviation from unit magnitude is 6.88D-15 for   4252.
 Iteration    1 A^-1*A deviation from orthogonality  is 4.57D-15 for   4274   1946.
 E= -1327.93767982159    
 DIIS: error= 3.33D-02 at cycle   1 NSaved=   1.
 NSaved= 1 IEnMin= 1 EnMin= -1327.93767982159     IErMin= 1 ErrMin= 3.33D-02
 ErrMax= 3.33D-02  0.00D+00 EMaxC= 1.00D-01 BMatC= 3.18D+00 BMatP= 3.18D+00
 IDIUse=3 WtCom= 6.67D-01 WtEn= 3.33D-01
 Coeff-Com:  0.100D+01
 Coeff-En:   0.100D+01
 Coeff:      0.100D+01
 Gap=     0.170 Goal=   None    Shift=    0.000
 Gap=     0.047 Goal=   None    Shift=    0.000
 GapD=    0.047 DampG=0.250 DampE=0.500 DampFc=0.2500 IDamp=-1.
 Damping current iteration by 2.50D-01
 RMSDP=3.21D-03 MaxDP=1.37D-01              OVMax= 3.94D-01

 Cycle   2  Pass 1  IDiag  1:
 RMSU=  7.79D-04    CP:  9.84D-01
 E= -1328.24120937628     Delta-E=       -0.303529554689 Rises=F Damp=T
 DIIS: error= 1.66D-02 at cycle   2 NSaved=   2.
 NSaved= 2 IEnMin= 2 EnMin= -1328.24120937628     IErMin= 2 ErrMin= 1.66D-02
 ErrMax= 1.66D-02  0.00D+00 EMaxC= 1.00D-01 BMatC= 8.37D-01 BMatP= 3.18D+00
 IDIUse=3 WtCom= 8.34D-01 WtEn= 1.66D-01
 Coeff-Com: -0.859D+00 0.186D+01
 Coeff-En:   0.000D+00 0.100D+01
 Coeff:     -0.716D+00 0.172D+01
 Gap=     0.220 Goal=   None    Shift=    0.000
 Gap=     0.081 Goal=   None    Shift=    0.000
 RMSDP=1.18D-03 MaxDP=7.29D-02 DE=-3.04D-01 OVMax= 3.19D-01

 Cycle   3  Pass 1  IDiag  1:
 RMSU=  8.27D-04    CP:  9.53D-01  1.98D+00
 E= -1328.75334796363     Delta-E=       -0.512138587352 Rises=F Damp=F
 DIIS: error= 4.95D-03 at cycle   3 NSaved=   3.
 NSaved= 3 IEnMin= 3 EnMin= -1328.75334796363     IErMin= 3 ErrMin= 4.95D-03
 ErrMax= 4.95D-03  0.00D+00 EMaxC= 1.00D-01 BMatC= 9.56D-02 BMatP= 8.37D-01
 IDIUse=3 WtCom= 9.50D-01 WtEn= 4.95D-02
 Coeff-Com: -0.311D+00 0.691D+00 0.620D+00
 Coeff-En:   0.000D+00 0.000D+00 0.100D+01
 Coeff:     -0.296D+00 0.657D+00 0.639D+00
 Gap=     0.156 Goal=   None    Shift=    0.000
 Gap=     0.056 Goal=   None    Shift=    0.000
 RMSDP=4.12D-04 MaxDP=3.80D-02 DE=-5.12D-01 OVMax= 1.35D-01

 Cycle   4  Pass 1  IDiag  1:
 RMSU=  3.31D-04    CP:  9.56D-01  2.01D+00  7.09D-01
 E= -1328.76925209420     Delta-E=       -0.015904130571 Rises=F Damp=F
 DIIS: error= 3.78D-03 at cycle   4 NSaved=   4.
 NSaved= 4 IEnMin= 4 EnMin= -1328.76925209420     IErMin= 4 ErrMin= 3.78D-03
 ErrMax= 3.78D-03  0.00D+00 EMaxC= 1.00D-01 BMatC= 4.02D-02 BMatP= 9.56D-02
 IDIUse=3 WtCom= 9.62D-01 WtEn= 3.78D-02
 Coeff-Com: -0.425D-01 0.112D+00 0.390D+00 0.540D+00
 Coeff-En:   0.000D+00 0.000D+00 0.293D+00 0.707D+00
 Coeff:     -0.409D-01 0.108D+00 0.387D+00 0.547D+00
 Gap=     0.157 Goal=   None    Shift=    0.000
 Gap=     0.058 Goal=   None    Shift=    0.000
 RMSDP=1.79D-04 MaxDP=1.68D-02 DE=-1.59D-02 OVMax= 3.61D-02

 Cycle   5  Pass 1  IDiag  1:
 RMSU=  1.01D-04    CP:  9.56D-01  1.97D+00  7.98D-01  6.25D-01
 E= -1328.77876309000     Delta-E=       -0.009510995805 Rises=F Damp=F
 DIIS: error= 8.85D-04 at cycle   5 NSaved=   5.
 NSaved= 5 IEnMin= 5 EnMin= -1328.77876309000     IErMin= 5 ErrMin= 8.85D-04
 ErrMax= 8.85D-04  0.00D+00 EMaxC= 1.00D-01 BMatC= 2.67D-03 BMatP= 4.02D-02
 IDIUse=3 WtCom= 9.91D-01 WtEn= 8.85D-03
 Coeff-Com:  0.489D-02-0.122D-02 0.153D+00 0.285D+00 0.558D+00
 Coeff-En:   0.000D+00 0.000D+00 0.000D+00 0.000D+00 0.100D+01
 Coeff:      0.485D-02-0.121D-02 0.152D+00 0.282D+00 0.562D+00
 Gap=     0.156 Goal=   None    Shift=    0.000
 Gap=     0.060 Goal=   None    Shift=    0.000
 RMSDP=5.44D-05 MaxDP=6.28D-03 DE=-9.51D-03 OVMax= 2.15D-02

 Cycle   6  Pass 1  IDiag  1:
 RMSU=  3.81D-05    CP:  9.56D-01  1.97D+00  8.05D-01  6.73D-01  6.57D-01
 E= -1328.77941690033     Delta-E=       -0.000653810330 Rises=F Damp=F
 DIIS: error= 2.91D-04 at cycle   6 NSaved=   6.
 NSaved= 6 IEnMin= 6 EnMin= -1328.77941690033     IErMin= 6 ErrMin= 2.91D-04
 ErrMax= 2.91D-04  0.00D+00 EMaxC= 1.00D-01 BMatC= 2.59D-04 BMatP= 2.67D-03
 IDIUse=3 WtCom= 9.97D-01 WtEn= 2.91D-03
 Coeff-Com:  0.593D-02-0.913D-02 0.472D-01 0.939D-01 0.292D+00 0.570D+00
 Coeff-En:   0.000D+00 0.000D+00 0.000D+00 0.000D+00 0.000D+00 0.100D+01
 Coeff:      0.591D-02-0.910D-02 0.471D-01 0.936D-01 0.291D+00 0.571D+00
 Gap=     0.156 Goal=   None    Shift=    0.000
 Gap=     0.060 Goal=   None    Shift=    0.000
 RMSDP=1.80D-05 MaxDP=1.86D-03 DE=-6.54D-04 OVMax= 6.60D-03

 Cycle   7  Pass 1  IDiag  1:
 RMSU=  1.56D-05    CP:  9.55D-01  1.98D+00  8.06D-01  6.80D-01  7.43D-01
                    CP:  1.00D+00
 E= -1328.77949794031     Delta-E=       -0.000081039974 Rises=F Damp=F
 DIIS: error= 1.98D-04 at cycle   7 NSaved=   7.
 NSaved= 7 IEnMin= 7 EnMin= -1328.77949794031     IErMin= 7 ErrMin= 1.98D-04
 ErrMax= 1.98D-04  0.00D+00 EMaxC= 1.00D-01 BMatC= 5.19D-05 BMatP= 2.59D-04
 IDIUse=3 WtCom= 9.98D-01 WtEn= 1.98D-03
 Coeff-Com:  0.251D-02-0.487D-02-0.265D-02-0.795D-02 0.571D-01 0.292D+00
 Coeff-Com:  0.664D+00
 Coeff-En:   0.000D+00 0.000D+00 0.000D+00 0.000D+00 0.000D+00 0.000D+00
 Coeff-En:   0.100D+01
 Coeff:      0.251D-02-0.486D-02-0.265D-02-0.793D-02 0.570D-01 0.291D+00
 Coeff:      0.665D+00
 Gap=     0.156 Goal=   None    Shift=    0.000
 Gap=     0.061 Goal=   None    Shift=    0.000
 RMSDP=1.32D-05 MaxDP=1.22D-03 DE=-8.10D-05 OVMax= 8.01D-03

 Cycle   8  Pass 1  IDiag  1:
 RMSU=  8.38D-06    CP:  9.55D-01  1.98D+00  8.07D-01  6.88D-01  7.82D-01
                    CP:  1.24D+00  1.04D+00
 E= -1328.77953024640     Delta-E=       -0.000032306089 Rises=F Damp=F
 DIIS: error= 1.25D-04 at cycle   8 NSaved=   8.
 NSaved= 8 IEnMin= 8 EnMin= -1328.77953024640     IErMin= 8 ErrMin= 1.25D-04
 ErrMax= 1.25D-04  0.00D+00 EMaxC= 1.00D-01 BMatC= 1.69D-05 BMatP= 5.19D-05
 IDIUse=3 WtCom= 9.99D-01 WtEn= 1.25D-03
 Coeff-Com: -0.805D-03 0.106D-02-0.174D-01-0.419D-01-0.765D-01-0.970D-01
 Coeff-Com:  0.331D+00 0.901D+00
 Coeff-En:   0.000D+00 0.000D+00 0.000D+00 0.000D+00 0.000D+00 0.000D+00
 Coeff-En:   0.000D+00 0.100D+01
 Coeff:     -0.804D-03 0.106D-02-0.173D-01-0.418D-01-0.764D-01-0.969D-01
 Coeff:      0.331D+00 0.901D+00
 Gap=     0.156 Goal=   None    Shift=    0.000
 Gap=     0.061 Goal=   None    Shift=    0.000
 RMSDP=1.28D-05 MaxDP=1.44D-03 DE=-3.23D-05 OVMax= 9.16D-03

 Cycle   9  Pass 1  IDiag  1:
 RMSU=  4.43D-06    CP:  9.55D-01  1.98D+00  8.07D-01  6.96D-01  8.23D-01
                    CP:  1.45D+00  1.49D+00  1.32D+00
 E= -1328.77954879809     Delta-E=       -0.000018551692 Rises=F Damp=F
 DIIS: error= 5.72D-05 at cycle   9 NSaved=   9.
 NSaved= 9 IEnMin= 9 EnMin= -1328.77954879809     IErMin= 9 ErrMin= 5.72D-05
 ErrMax= 5.72D-05  0.00D+00 EMaxC= 1.00D-01 BMatC= 6.49D-06 BMatP= 1.69D-05
 IDIUse=1 WtCom= 1.00D+00 WtEn= 0.00D+00
 Coeff-Com: -0.811D-03 0.142D-02-0.934D-02-0.236D-01-0.604D-01-0.148D+00
 Coeff-Com: -0.317D-02 0.551D+00 0.692D+00
 Coeff:     -0.811D-03 0.142D-02-0.934D-02-0.236D-01-0.604D-01-0.148D+00
 Coeff:     -0.317D-02 0.551D+00 0.692D+00
 Gap=     0.156 Goal=   None    Shift=    0.000
 Gap=     0.061 Goal=   None    Shift=    0.000
 RMSDP=6.93D-06 MaxDP=8.22D-04 DE=-1.86D-05 OVMax= 4.89D-03

 Cycle  10  Pass 1  IDiag  1:
 RMSU=  2.36D-06    CP:  9.55D-01  1.98D+00  8.07D-01  6.99D-01  8.42D-01
                    CP:  1.56D+00  1.69D+00  1.65D+00  1.05D+00
 E= -1328.77955432841     Delta-E=       -0.000005530324 Rises=F Damp=F
 DIIS: error= 3.95D-05 at cycle  10 NSaved=  10.
 NSaved=10 IEnMin=10 EnMin= -1328.77955432841     IErMin=10 ErrMin= 3.95D-05
 ErrMax= 3.95D-05  0.00D+00 EMaxC= 1.00D-01 BMatC= 1.23D-06 BMatP= 6.49D-06
 IDIUse=1 WtCom= 1.00D+00 WtEn= 0.00D+00
 Coeff-Com:  0.220D-06 0.155D-03 0.817D-03 0.391D-03-0.517D-02-0.389D-01
 Coeff-Com: -0.922D-01 0.248D-01 0.308D+00 0.802D+00
 Coeff:      0.220D-06 0.155D-03 0.817D-03 0.391D-03-0.517D-02-0.389D-01
 Coeff:     -0.922D-01 0.248D-01 0.308D+00 0.802D+00
 Gap=     0.156 Goal=   None    Shift=    0.000
 Gap=     0.061 Goal=   None    Shift=    0.000
 RMSDP=3.43D-06 MaxDP=4.40D-04 DE=-5.53D-06 OVMax= 2.34D-03

 Cycle  11  Pass 1  IDiag  1:
 RMSU=  1.30D-06    CP:  9.55D-01  1.98D+00  8.07D-01  7.01D-01  8.49D-01
                    CP:  1.61D+00  1.78D+00  1.82D+00  1.33D+00  1.21D+00
 E= -1328.77955569277     Delta-E=       -0.000001364358 Rises=F Damp=F
 DIIS: error= 1.89D-05 at cycle  11 NSaved=  11.
 NSaved=11 IEnMin=11 EnMin= -1328.77955569277     IErMin=11 ErrMin= 1.89D-05
 ErrMax= 1.89D-05  0.00D+00 EMaxC= 1.00D-01 BMatC= 4.53D-07 BMatP= 1.23D-06
 IDIUse=1 WtCom= 1.00D+00 WtEn= 0.00D+00
 Coeff-Com:  0.293D-03-0.396D-03 0.395D-02 0.851D-02 0.190D-01 0.311D-01
 Coeff-Com: -0.543D-01-0.175D+00-0.669D-01 0.444D+00 0.790D+00
 Coeff:      0.293D-03-0.396D-03 0.395D-02 0.851D-02 0.190D-01 0.311D-01
 Coeff:     -0.543D-01-0.175D+00-0.669D-01 0.444D+00 0.790D+00
 Gap=     0.156 Goal=   None    Shift=    0.000
 Gap=     0.061 Goal=   None    Shift=    0.000
 RMSDP=2.09D-06 MaxDP=3.60D-04 DE=-1.36D-06 OVMax= 1.37D-03

 Cycle  12  Pass 1  IDiag  1:
 RMSU=  6.36D-07    CP:  9.55D-01  1.98D+00  8.07D-01  7.02D-01  8.52D-01
                    CP:  1.64D+00  1.83D+00  1.92D+00  1.51D+00  1.62D+00
                    CP:  1.08D+00
 E= -1328.77955618022     Delta-E=       -0.000000487444 Rises=F Damp=F
 DIIS: error= 9.74D-06 at cycle  12 NSaved=  12.
 NSaved=12 IEnMin=12 EnMin= -1328.77955618022     IErMin=12 ErrMin= 9.74D-06
 ErrMax= 9.74D-06  0.00D+00 EMaxC= 1.00D-01 BMatC= 9.48D-08 BMatP= 4.53D-07
 IDIUse=1 WtCom= 1.00D+00 WtEn= 0.00D+00
 Coeff-Com:  0.104D-03-0.198D-03 0.864D-03 0.210D-02 0.713D-02 0.208D-01
 Coeff-Com:  0.663D-02-0.547D-01-0.106D+00-0.128D+00 0.286D+00 0.966D+00
 Coeff:      0.104D-03-0.198D-03 0.864D-03 0.210D-02 0.713D-02 0.208D-01
 Coeff:      0.663D-02-0.547D-01-0.106D+00-0.128D+00 0.286D+00 0.966D+00
 Gap=     0.156 Goal=   None    Shift=    0.000
 Gap=     0.061 Goal=   None    Shift=    0.000
 RMSDP=1.15D-06 MaxDP=1.75D-04 DE=-4.87D-07 OVMax= 6.64D-04

 Cycle  13  Pass 1  IDiag  1:
 RMSU=  3.13D-07    CP:  9.55D-01  1.98D+00  8.07D-01  7.02D-01  8.54D-01
                    CP:  1.65D+00  1.85D+00  1.97D+00  1.60D+00  1.83D+00
                    CP:  1.44D+00  1.19D+00
 E= -1328.77955629118     Delta-E=       -0.000000110962 Rises=F Damp=F
 DIIS: error= 4.22D-06 at cycle  13 NSaved=  13.
 NSaved=13 IEnMin=13 EnMin= -1328.77955629118     IErMin=13 ErrMin= 4.22D-06
 ErrMax= 4.22D-06  0.00D+00 EMaxC= 1.00D-01 BMatC= 2.65D-08 BMatP= 9.48D-08
 IDIUse=1 WtCom= 1.00D+00 WtEn= 0.00D+00
 Coeff-Com:  0.549D-05-0.359D-04-0.131D-03-0.240D-03 0.946D-03 0.680D-02
 Coeff-Com:  0.119D-01 0.901D-03-0.457D-01-0.145D+00 0.476D-01 0.509D+00
 Coeff-Com:  0.614D+00
 Coeff:      0.549D-05-0.359D-04-0.131D-03-0.240D-03 0.946D-03 0.680D-02
 Coeff:      0.119D-01 0.901D-03-0.457D-01-0.145D+00 0.476D-01 0.509D+00
 Coeff:      0.614D+00
 Gap=     0.156 Goal=   None    Shift=    0.000
 Gap=     0.061 Goal=   None    Shift=    0.000
 RMSDP=2.89D-07 MaxDP=5.14D-05 DE=-1.11D-07 OVMax= 1.22D-04

 Cycle  14  Pass 1  IDiag  1:
 RMSU=  1.67D-07    CP:  9.55D-01  1.98D+00  8.07D-01  7.02D-01  8.54D-01
                    CP:  1.65D+00  1.85D+00  1.98D+00  1.62D+00  1.88D+00
                    CP:  1.49D+00  1.39D+00  8.80D-01
 E= -1328.77955630494     Delta-E=       -0.000000013759 Rises=F Damp=F
 DIIS: error= 2.72D-06 at cycle  14 NSaved=  14.
 NSaved=14 IEnMin=14 EnMin= -1328.77955630494     IErMin=14 ErrMin= 2.72D-06
 ErrMax= 2.72D-06  0.00D+00 EMaxC= 1.00D-01 BMatC= 8.32D-09 BMatP= 2.65D-08
 IDIUse=1 WtCom= 1.00D+00 WtEn= 0.00D+00
 Coeff-Com: -0.293D-04 0.416D-04-0.348D-03-0.816D-03-0.169D-02-0.235D-02
 Coeff-Com:  0.382D-02 0.177D-01 0.515D-02-0.514D-01-0.531D-01-0.982D-02
 Coeff-Com:  0.374D+00 0.719D+00
 Coeff:     -0.293D-04 0.416D-04-0.348D-03-0.816D-03-0.169D-02-0.235D-02
 Coeff:      0.382D-02 0.177D-01 0.515D-02-0.514D-01-0.531D-01-0.982D-02
 Coeff:      0.374D+00 0.719D+00
 Gap=     0.156 Goal=   None    Shift=    0.000
 Gap=     0.061 Goal=   None    Shift=    0.000
 RMSDP=1.99D-07 MaxDP=2.69D-05 DE=-1.38D-08 OVMax= 1.01D-04

 Cycle  15  Pass 1  IDiag  1:
 RMSU=  7.11D-08    CP:  9.55D-01  1.98D+00  8.07D-01  7.02D-01  8.54D-01
                    CP:  1.65D+00  1.86D+00  1.98D+00  1.64D+00  1.90D+00
                    CP:  1.55D+00  1.48D+00  1.15D+00  9.50D-01
 E= -1328.77955630989     Delta-E=       -0.000000004957 Rises=F Damp=F
 DIIS: error= 8.36D-07 at cycle  15 NSaved=  15.
 NSaved=15 IEnMin=15 EnMin= -1328.77955630989     IErMin=15 ErrMin= 8.36D-07
 ErrMax= 8.36D-07  0.00D+00 EMaxC= 1.00D-01 BMatC= 1.10D-09 BMatP= 8.32D-09
 IDIUse=1 WtCom= 1.00D+00 WtEn= 0.00D+00
 Coeff-Com: -0.114D-04 0.213D-04-0.136D-03-0.352D-03-0.993D-03-0.232D-02
 Coeff-Com: -0.657D-03 0.841D-02 0.114D-01 0.351D-02-0.280D-01-0.103D+00
 Coeff-Com:  0.521D-01 0.300D+00 0.760D+00
 Coeff:     -0.114D-04 0.213D-04-0.136D-03-0.352D-03-0.993D-03-0.232D-02
 Coeff:     -0.657D-03 0.841D-02 0.114D-01 0.351D-02-0.280D-01-0.103D+00
 Coeff:      0.521D-01 0.300D+00 0.760D+00
 Gap=     0.156 Goal=   None    Shift=    0.000
 Gap=     0.061 Goal=   None    Shift=    0.000
 RMSDP=7.41D-08 MaxDP=1.12D-05 DE=-4.96D-09 OVMax= 3.31D-05

 Cycle  16  Pass 1  IDiag  1:
 RMSU=  3.84D-08    CP:  9.55D-01  1.98D+00  8.07D-01  7.02D-01  8.54D-01
                    CP:  1.65D+00  1.86D+00  1.99D+00  1.64D+00  1.91D+00
                    CP:  1.56D+00  1.52D+00  1.25D+00  1.14D+00  1.06D+00
 E= -1328.77955631079     Delta-E=       -0.000000000892 Rises=F Damp=F
 DIIS: error= 4.73D-07 at cycle  16 NSaved=  16.
 NSaved=16 IEnMin=16 EnMin= -1328.77955631079     IErMin=16 ErrMin= 4.73D-07
 ErrMax= 4.73D-07  0.00D+00 EMaxC= 1.00D-01 BMatC= 4.68D-10 BMatP= 1.10D-09
 IDIUse=1 WtCom= 1.00D+00 WtEn= 0.00D+00
 Coeff-Com:  0.827D-05-0.886D-05 0.631D-04 0.119D-03 0.112D-03-0.284D-03
 Coeff-Com: -0.184D-02-0.211D-02 0.424D-02 0.194D-01 0.505D-02-0.542D-01
 Coeff-Com: -0.109D+00-0.102D+00 0.457D+00 0.783D+00
 Coeff:      0.827D-05-0.886D-05 0.631D-04 0.119D-03 0.112D-03-0.284D-03
 Coeff:     -0.184D-02-0.211D-02 0.424D-02 0.194D-01 0.505D-02-0.542D-01
 Coeff:     -0.109D+00-0.102D+00 0.457D+00 0.783D+00
 Gap=     0.156 Goal=   None    Shift=    0.000
 Gap=     0.061 Goal=   None    Shift=    0.000
 RMSDP=5.28D-08 MaxDP=5.59D-06 DE=-8.92D-10 OVMax= 2.80D-05

 Cycle  17  Pass 1  IDiag  1:
 RMSU=  1.61D-08    CP:  9.55D-01  1.98D+00  8.07D-01  7.02D-01  8.55D-01
                    CP:  1.65D+00  1.86D+00  1.99D+00  1.64D+00  1.91D+00
                    CP:  1.57D+00  1.54D+00  1.31D+00  1.25D+00  1.41D+00
                    CP:  1.02D+00
 E= -1328.77955631101     Delta-E=       -0.000000000225 Rises=F Damp=F
 DIIS: error= 1.49D-07 at cycle  17 NSaved=  17.
 NSaved=17 IEnMin=17 EnMin= -1328.77955631101     IErMin=17 ErrMin= 1.49D-07
 ErrMax= 1.49D-07  0.00D+00 EMaxC= 1.00D-01 BMatC= 3.33D-11 BMatP= 4.68D-10
 IDIUse=1 WtCom= 1.00D+00 WtEn= 0.00D+00
 Coeff-Com:  0.457D-05-0.607D-05 0.338D-04 0.697D-04 0.130D-03 0.159D-03
 Coeff-Com: -0.525D-03-0.159D-02 0.109D-03 0.530D-02 0.457D-02-0.505D-02
 Coeff-Com: -0.425D-01-0.666D-01 0.666D-01 0.220D+00 0.819D+00
 Coeff:      0.457D-05-0.607D-05 0.338D-04 0.697D-04 0.130D-03 0.159D-03
 Coeff:     -0.525D-03-0.159D-02 0.109D-03 0.530D-02 0.457D-02-0.505D-02
 Coeff:     -0.425D-01-0.666D-01 0.666D-01 0.220D+00 0.819D+00
 Gap=     0.156 Goal=   None    Shift=    0.000
 Gap=     0.061 Goal=   None    Shift=    0.000
 RMSDP=1.79D-08 MaxDP=1.69D-06 DE=-2.25D-10 OVMax= 9.58D-06

 Cycle  18  Pass 1  IDiag  1:
 RMSU=  7.61D-09    CP:  9.55D-01  1.98D+00  8.07D-01  7.02D-01  8.55D-01
                    CP:  1.65D+00  1.86D+00  1.99D+00  1.64D+00  1.91D+00
                    CP:  1.57D+00  1.55D+00  1.33D+00  1.27D+00  1.49D+00
                    CP:  1.16D+00  1.13D+00
 E= -1328.77955631120     Delta-E=       -0.000000000186 Rises=F Damp=F
 DIIS: error= 1.01D-07 at cycle  18 NSaved=  18.
 NSaved=18 IEnMin=18 EnMin= -1328.77955631120     IErMin=18 ErrMin= 1.01D-07
 ErrMax= 1.01D-07  0.00D+00 EMaxC= 1.00D-01 BMatC= 1.59D-11 BMatP= 3.33D-11
 IDIUse=1 WtCom= 1.00D+00 WtEn= 0.00D+00
 Coeff-Com:  0.111D-05-0.197D-05 0.586D-05 0.116D-04 0.542D-04 0.178D-03
 Coeff-Com:  0.184D-03-0.338D-03-0.989D-03-0.184D-02 0.140D-02 0.112D-01
 Coeff-Com:  0.253D-02-0.110D-01-0.758D-01-0.828D-01 0.465D+00 0.693D+00
 Coeff:      0.111D-05-0.197D-05 0.586D-05 0.116D-04 0.542D-04 0.178D-03
 Coeff:      0.184D-03-0.338D-03-0.989D-03-0.184D-02 0.140D-02 0.112D-01
 Coeff:      0.253D-02-0.110D-01-0.758D-01-0.828D-01 0.465D+00 0.693D+00
 Gap=     0.156 Goal=   None    Shift=    0.000
 Gap=     0.061 Goal=   None    Shift=    0.000
 RMSDP=7.80D-09 MaxDP=1.04D-06 DE=-1.86D-10 OVMax= 4.14D-06

 Cycle  19  Pass 1  IDiag  1:
 RMSU=  3.75D-09    CP:  9.55D-01  1.98D+00  8.07D-01  7.02D-01  8.55D-01
                    CP:  1.65D+00  1.86D+00  1.99D+00  1.64D+00  1.91D+00
                    CP:  1.57D+00  1.55D+00  1.33D+00  1.29D+00  1.54D+00
                    CP:  1.23D+00  1.40D+00  9.33D-01
 E= -1328.77955631127     Delta-E=       -0.000000000073 Rises=F Damp=F
 DIIS: error= 3.75D-08 at cycle  19 NSaved=  19.
 NSaved=19 IEnMin=19 EnMin= -1328.77955631127     IErMin=19 ErrMin= 3.75D-08
 ErrMax= 3.75D-08  0.00D+00 EMaxC= 1.00D-01 BMatC= 3.53D-12 BMatP= 1.59D-11
[...]
 4199,-0.00025718,-0.00031118,0.00006268,0.00012921,0.00089720,0.000249
 54,0.00078633,-0.00006409,-0.00004441,-0.00001566,-0.00011262,0.000373
 11,0.00007482,-0.00078911,-0.00002397,-0.00035826,0.13639599,-0.182985
 35,0.00598486,-0.14894427,0.19837833,0.00054730,-0.00048318,0.00003432
 ,-0.00066088,-0.00058851,0.00002625,-0.00007338,0.00039730,-0.00000833
 ,-0.00057042,-0.00020913,-0.00001083,0.00041806,-0.00026620,0.00003010
 ,0.00007002,0.00014797,-0.00000161,0.00017611,-0.00095999,-0.00000951,
 0.00002625,-0.00000851,0.00000179,0.00000148,-0.00002131,-0.00000303,-
 0.00000793,-0.00001480,0.00000046,-0.00012094,0.00080369,-0.00011669,-
 0.00043068,-0.00004461,-0.00000636,-0.00040360,0.00090937,0.00036826,0
 .00142473,-0.00194529,0.00063807,-0.00235695,-0.00089373,-0.00372632,0
 .00055690,-0.00016791,0.00010472,-0.00028897,0.00031588,-0.00000532,-0
 .00000096,-0.00002655,-0.00015974,-0.00009008,0.00009369,0.00006373,0.
 01929423,-0.02138427,-0.00387041,-0.00000882,-0.00003787,-0.00007487,0
 .00020196,-0.00013763,0.00003607,-0.00011052,-0.00004863,-0.00000191,0
 .00018560,0.00046823,-0.00001188,0.00008425,0.00000473,-0.00000181,0.0
 0014106,-0.00003672,0.00000738,-0.00002612,-0.00000846,-0.00000058,-0.
 00008845,0.00006257,-0.00000838,0.00003278,-0.00004147,0.00000934,-0.0
 0001563,0.00000907,-0.00002273,-0.00001586,0.00001427,0.00001562,-0.00
 001304,0.00000911,-0.00000220,0.00000238,-0.00000755,0.00001170,0.0000
 0145,0.00000111,-0.00000012,0.00000242,0.00000051,0.00000214,0.0000029
 3,-0.00000974,-0.00000829,0.00000190,0.00000165,-0.00000011,0.00000215
 ,-0.00000041,-0.00000184,0.00000063,0.00000304,-0.00000045,-0.00000687
 ,0.00000060,0.00000091,-0.00000151,0.00000245,-0.00000090,-0.00000649,
 0.00000011,-0.00000134,-0.00000162,0.00000262,0.00000033,-0.00000300,-
 0.00000075,0.00000010,0.00000054,0.00000021,-0.00000005,0.00002234,0.0
 0002680,0.00003830,-0.00000733,0.00000271,0.00000276,0.00001292,-0.000
 00376,-0.00001577,-0.00000314,0.00000139,-0.00000344,0.00002664,-0.000
 00697,0.00000409,0.00000675,0.00000906,-0.00000057,-0.00000031,0.00000
 312,-0.00000203,-0.00000227,-0.00000077,0.00000346,-0.00000471,0.00000
 493,-0.00002735,-0.00000743,0.00000213,-0.00000330,-0.00000156,0.00000
 214,0.00000905,0.00000730,0.00000339,0.00000847,0.00082296,-0.00017017
 ,0.00147941,0.00000794,0.00008701,-0.00011299,-0.00026864,0.00046044,-
 0.00044005,-0.00020349,0.00007338,0.00044774,0.00079273,0.00053456,0.0
 0092358,-0.00013155,0.00004283,-0.00000988,0.00021074,0.00036429,0.000
 00132,-0.00054410,-0.00006962,0.00010015,-0.00438691,0.00669910,-0.045
 58974,0.00566507,-0.00235188,0.05025058,0.00014880,-0.00011565,0.00001
 096,-0.00017172,-0.00016989,0.00000797,-0.00001790,0.00010664,-0.00000
 457,-0.00014399,-0.00005264,-0.00000260,0.00010150,-0.00006248,0.00000
 695,0.00001890,0.00003032,0.00000012,0.00003151,-0.00034514,0.00000172
 ,0.00000665,-0.00000243,0.00000045,0.00000057,-0.00000558,-0.00000037,
 -0.00000214,-0.00000327,0.00000003,-0.00003070,0.00025751,-0.00002806,
 -0.00017185,-0.00019193,-0.00015817,-0.00018684,0.00043624,0.00003943,
 0.00027737,-0.00078055,0.00015364,-0.00011014,0.00123812,-0.00032500,-
 0.00101140,0.00127434,0.00113137,0.00016836,0.00018550,-0.00000309,-0.
 00001640,0.00002559,-0.00000987,-0.00160060,0.00158652,0.00151096,-0.0
 0215028,-0.00044051,-0.00000642,-0.00002663,0.00002716,0.00009554,0.00
 005257,0.00005842,0.00000598,-0.00005826,-0.00006158,0.00002170,0.0000
 7249,0.00012882,-0.00000880,0.00001469,0.00000879,0.00000045,0.0000283
 7,-0.00000493,0.00000120,-0.00000624,-0.00000286,0.00000002,-0.0000187
 2,0.00000716,-0.00000178,0.00000589,-0.00000188,0.00000145,-0.00000239
 ,0.00000215,-0.00000429,-0.00000259,0.00000263,0.00000360,-0.00000154,
 -0.00000028,0.00000022,0.00000079,0.00000026,0.00000187,0.00000026,-0.
 00000116,0.00000016,-0.00000003,0.00000043,-0.00000065,0.00000079,-0.0
 0000048,-0.00000182,0.00000034,-0.00000092,-0.00000012,0.00000021,0.00
 000041,-0.00000012,0.00000054,0.00000105,0.00000004,-0.00000180,-0.000
 00022,0.00000070,0.00000044,-0.00000072,-0.00000019,-0.00000180,-0.000
 00056,-0.00000085,0.00000025,-0.00000032,0.00000058,-0.00000121,0.0000
 0005,-0.00000008,0.00000018,-0.00000100,0.00000002,-0.00001729,-0.0000
 1986,-0.00002096,-0.00000367,0.00000393,0.00000220,-0.00000738,0.00000
 680,0.00000757,0.00000170,-0.00000246,-0.00000261,0.00004576,0.0000198
 9,0.00000512,0.00000389,-0.00000655,-0.00000652,-0.00039361,0.00001332
 ,-0.00009878,0.00000111,-0.00000261,-0.00000012,0.00001730,-0.00001009
 ,0.00000860,-0.00000098,0.00000191,-0.00000058,-0.00026341,0.00013160,
 0.00012107,-0.00000123,0.00000103,-0.00000068,0.00025470,0.00009209,0.
 00032034,0.00029743,0.00005462,-0.00028276,-0.00002262,-0.00004305,-0.
 00000778,0.00012333,0.00009073,-0.00010814,0.00111472,-0.00048264,-0.0
 0131903,0.00000118,0.00005263,0.00014982,-0.00018535,-0.00032273,0.000
 06657,0.00033424,0.00005146,0.00011571,-0.26482867,-0.10820673,-0.0041
 6649,-0.01856272,-0.01062397,-0.00003052,0.28884665,-0.00003287,0.0000
 4155,0.00000025,0.00005464,0.00000301,0.00000594,0.00000734,-0.0000223
 4,0.00000005,0.00005351,0.00001886,0.00000075,-0.00004639,0.00003151,-
 0.00000329,-0.00000350,-0.00002141,0.00000014,-0.00001412,-0.00011790,
 -0.00000889,-0.00000255,0.00000025,-0.00000003,0.,0.00000219,0.0000000
 6,0.00000080,0.00000218,-0.00000022,0.00000974,0.00004804,-0.00000536,
 -0.00016276,-0.00039686,-0.00005790,-0.00013467,0.00023822,-0.00004867
 ,0.00023063,-0.00038937,0.00010793,-0.00111903,0.00071995,0.00024616,-
 0.00007533,-0.00131957,-0.00027420,0.00051985,0.00036152,0.00004759,-0
 .00002652,0.00010878,-0.00000249,0.00194077,-0.00042727,-0.00146209,-0
 .01574650,-0.00969607,0.00041381,-0.00003159,0.00007592,0.00004463,0.0
 0000215,0.00025818,-0.00002270,-0.00006875,-0.00011991,0.00002338,0.00
 002990,-0.00001092,-0.00000182,-0.00001930,0.00000496,-0.00000091,-0.0
 0002381,0.00000746,-0.00000129,0.00000351,0.00000074,0.00000005,0.0000
 1474,-0.00001416,0.00000182,-0.00000662,0.00001266,-0.00000220,0.00000
 325,-0.00000150,0.00000383,0.00000330,-0.00000266,-0.00000235,0.000003
 27,-0.00000318,0.00000082,-0.00000026,0.00000247,-0.00000224,-0.000000
 33,-0.00000121,0.00000021,-0.00000076,0.00000027,-0.00000095,-0.000000
 41,0.00000282,0.00000134,-0.00000039,-0.00000127,-0.00000006,-0.000000
 60,0.00000048,0.00000061,0.00000016,-0.00000025,0.00000008,0.00000086,
 -0.00000035,0.00000021,0.00000082,-0.00000122,0.00000010,0.00000080,-0
 .00000039,-0.00000011,0.00000076,-0.00000113,0.00000028,0.00000022,0.0
 0000024,-0.00000004,-0.00000008,-0.00000073,0.00000007,-0.00002407,-0.
 00005615,-0.00007000,-0.00000094,0.00000699,0.00000441,-0.00002467,0.0
 0001269,0.00002568,0.00000633,-0.00000170,0.00000545,-0.00000961,-0.00
 001091,-0.00001088,-0.00002690,-0.00000266,0.00000709,0.00012581,-0.00
 055868,-0.00001371,0.00000532,0.00000571,-0.00001183,-0.00000882,-0.00
 004752,0.00006189,0.00000088,0.00000583,-0.00000234,0.00012361,-0.0000
 7732,-0.00008343,-0.00002392,0.00000490,-0.00002263,0.00031934,0.00040
 912,0.00120044,0.00007039,0.00019773,-0.00029437,0.00006092,0.00005741
 ,-0.00009054,0.00022723,-0.00009964,0.00003921,0.00073992,-0.00191744,
 -0.00363806,0.00035064,0.00015848,-0.00001037,-0.00134300,-0.00021592,
 -0.00027181,-0.00018869,0.00024094,0.00004716,-0.10720544,-0.09934845,
 -0.00208418,0.02058476,0.01140727,0.00046200,0.11613979,0.10799101,-0.
 00003196,0.00002949,0.00000040,0.00004678,0.00000887,0.00000538,0.0000
 0521,-0.00001760,-0.00000087,0.00004051,0.00001344,0.00000066,-0.00003
 448,0.00002083,-0.00000235,-0.00000305,-0.00001289,-0.00000018,-0.0000
 0310,-0.00005161,-0.00002085,-0.00000213,0.00000053,0.00000012,-0.0000
 0010,0.00000163,0.00000023,0.00000069,0.00000142,-0.00000017,0.0000050
 3,0.00001495,0.00000142,-0.00007152,-0.00022047,0.00000569,-0.00013405
 ,0.00012256,-0.00004625,0.00013245,-0.00028182,0.00015665,-0.00027101,
 0.00086132,0.00039739,-0.00031675,-0.00117667,-0.00045930,0.00036616,0
 .00031654,-0.00001871,-0.00002797,0.00008873,-0.00002241,0.00189258,-0
 .00101377,-0.00122563,-0.02380234,-0.01031126,-0.00101096,-0.00000531,
 0.00002286,0.00000578,-0.00001590,0.00018413,-0.00002013,-0.00004402,-
 0.00007909,0.00001367,0.00001126,-0.00001551,0.00000065,-0.00000998,0.
 00000345,-0.00000259,-0.00001389,0.00000413,-0.00000082,0.00000230,0.0
 0000047,-0.00000021,0.00000853,-0.00000766,0.00000247,-0.00000369,0.00
 000710,-0.00000181,0.00000162,-0.00000159,0.00000129,0.00000184,-0.000
 00156,-0.00000161,0.00000206,-0.00000172,0.00000001,-0.00000019,0.0000
 0105,-0.00000097,-0.00000023,-0.00000034,0.00000039,-0.00000003,0.0000
 0017,0.00000018,-0.00000017,0.00000170,0.00000078,-0.00000025,-0.00000
 063,0.00000004,-0.00000042,0.00000034,0.00000072,0.00000008,-0.0000003
 0,-0.00000023,0.00000041,-0.00000030,0.00000019,0.00000029,-0.00000033
 ,-0.00000019,0.00000053,-0.00000017,0.00000015,0.00000047,-0.00000064,
 0.00000006,0.00000015,0.00000012,0.00000009,-0.00000005,-0.00000020,0.
 00000017,-0.00001030,-0.00003457,-0.00003778,0.00000097,0.00000318,0.0
 0000116,-0.00001313,0.00000706,0.00001440,0.00000335,-0.00000112,0.000
 00129,-0.00002943,0.00000898,0.00001637,-0.00001868,-0.00000206,-0.000
 00098,0.00000280,-0.00004683,-0.00038384,0.00000175,0.00000233,-0.0000
 1718,-0.00000891,-0.00002321,0.00004860,0.00000165,0.00000274,-0.00000
 357,-0.00001265,-0.00002675,-0.00001907,-0.00001298,0.00000342,-0.0000
 1550,-0.00086832,-0.00036473,0.00173640,0.00025854,0.00038105,-0.00050
 949,-0.00000534,0.00007082,-0.00010947,0.00023422,-0.00000022,0.000231
 61,0.00036707,-0.00310853,-0.00442919,0.00000433,-0.00016981,0.0002103
 3,-0.00156768,-0.00100817,0.00010176,0.00025960,0.00016476,-0.00006445
 ,-0.00303855,-0.00166511,-0.04852190,-0.00076180,-0.00034936,-0.000803
 34,0.00282195,0.00688653,0.05298177,0.00003207,-0.00002254,0.00000232,
 -0.00003490,-0.00002964,0.,-0.00000376,0.00002026,-0.00000233,-0.00003
 068,-0.00001066,-0.00000052,0.00002270,-0.00001384,0.00000150,0.000002
 62,0.00000727,0.00000004,0.00001263,-0.00006321,0.00000649,0.00000115,
 -0.00000015,0.00000025,0.00000005,-0.00000090,0.00000031,-0.00000039,-
 0.00000085,0.00000005,-0.00000740,0.00005603,-0.00000109,-0.00005613,-
 0.00011054,-0.00001913,-0.00002443,0.00005853,-0.00002405,0.00009737,-
 0.00008858,-0.00016230,0.00006298,-0.00026622,0.00040318,-0.00049979,-
 0.00008883,0.00005348,0.00002098,0.00023005,-0.00013222,0.00001368,-0.
 00000919,0.00000601,0.00026391,-0.00001893,-0.00003968,-0.00161662,0.0
 0208036,-0.00203223,0.00001214,0.00000448,0.00001374,-0.00001516,0.000
 07059,0.00000075,-0.00001982,-0.00002492,0.00000872,0.00001145,0.00002
 785,-0.00000201,0.00000697,-0.00000175,0.00000031,0.00001068,-0.000003
 39,0.00000052,-0.00000142,-0.00000030,-0.00000008,-0.00000661,0.000006
 82,-0.00000036,0.00000371,-0.00000614,0.00000093,-0.00000155,0.0000003
 8,-0.00000230,-0.00000151,0.00000133,0.00000082,-0.00000126,0.00000163
 ,-0.00000069,0.00000029,-0.00000188,0.00000122,0.00000008,0.00000093,0
 .00000008,0.00000041,-0.00000086,0.00000036,0.00000032,-0.00000134,-0.
 00000059,0.00000018,0.00000070,0.00000011,0.00000016,-0.00000019,0.000
 00007,-0.00000020,0.00000009,-0.00000031,-0.00000052,0.00000007,-0.000
 00003,-0.00000053,0.00000058,-0.00000045,-0.00000036,0.00000028,0.0000
 0020,-0.00000034,0.00000047,-0.00000025,-0.00000015,-0.00000017,0.0000
 0007,0.00000006,0.00000056,0.00000012,-0.00000642,-0.00000376,-0.00000
 749,0.00000007,0.00000119,0.00000086,-0.00000329,0.00000119,0.00000351
 ,0.00000041,-0.00000087,-0.00000166,0.00000050,-0.00000058,0.00000225,
 -0.00000480,0.00000009,-0.00000051,0.00000673,-0.00000137,0.00001147,0
 .00000086,0.00000024,-0.00000915,-0.00000653,-0.00000109,0.00001523,-0
 .00000008,0.00000153,-0.00000062,-0.00012355,0.00000345,0.00000481,-0.
 00000205,0.00000004,-0.00000527,0.00030378,-0.00033360,-0.00058554,0.0
 0012207,0.00022485,-0.00021936,0.00009595,-0.00030191,0.00021038,0.000
 52874,-0.00001146,-0.00018042,0.00030209,0.00049226,-0.00085401,-0.000
 06554,-0.00015653,0.00008266,-0.00001714,0.00009068,0.00012076,-0.0000
 0699,0.00003330,-0.00003589,-0.05054133,-0.01763778,0.02399959,0.00363
 414,0.01157288,-0.01985584,-0.00195137,-0.01526274,0.02466520,0.049480
 66,-0.00009423,0.00007381,-0.00000677,0.00010954,0.00009924,-0.0000043
 4,0.00001150,-0.00006617,0.00000215,0.00009389,0.00003399,0.00000171,-
 0.00006773,0.00004231,-0.00000492,-0.00001126,-0.00002175,0.00000026,-
 0.00001752,0.00018220,-0.00000423,-0.00000414,0.00000136,-0.00000022,-
 0.00000034,0.00000351,0.00000040,0.00000128,0.00000227,0.00000002,0.00
 002068,-0.00014941,0.00001627,0.00000266,0.00006187,0.00000399,0.00015
 849,-0.00020689,-0.00000162,-0.00040872,0.00042225,0.00030950,-0.00005
 062,0.00116964,-0.00087037,-0.00004524,-0.00026107,0.00007954,0.000060
 34,-0.00003333,0.00005425,-0.00000154,-0.00000210,0.00000853,0.0000482
 5,0.00003605,-0.00004175,0.00252110,0.00961996,-0.01626447,0.00001305,
 -0.00001286,0.00000687,-0.00000502,-0.00002711,-0.00000547,0.00003070,
 0.00003516,-0.00000326,-0.00003802,-0.00007823,0.00000169,-0.00001232,
 -0.00000283,-0.00000127,-0.00002233,0.00000503,-0.00000109,0.00000422,
 0.00000177,0.00000015,0.00001458,-0.00000868,0.00000058,-0.00000597,0.
 00000552,-0.00000125,0.00000244,-0.00000134,0.00000408,0.00000251,-0.0
 0000221,-0.00000246,0.00000180,-0.00000114,0.00000043,-0.00000072,0.00
 000144,-0.00000191,-0.00000015,-0.00000006,-0.00000018,-0.00000139,-0.
 00000101,-0.00000100,-0.00000067,0.00000136,0.00000140,-0.00000030,-0.
 00000008,0.00000005,-0.00000022,-0.00000007,-0.00000004,-0.00000012,-0
 .00000056,0.00000030,0.00000144,0.00000013,-0.00000055,0.00000018,-0.0
 0000081,0.00000035,0.00000114,-0.00000002,0.00000012,0.00000016,-0.000
 00035,-0.00000001,0.00000073,0.00000010,-0.00000004,-0.00000011,0.0000
 0001,-0.00000013,0.00000056,0.00000466,0.00000014,-0.00000020,0.000000
 16,0.00000046,0.00000047,-0.00000115,-0.00000043,-0.00000006,-0.000000
 31,-0.00000093,0.00000142,-0.00000283,-0.00000196,-0.00000218,0.000000
 93,0.00000013,0.00000393,0.00000029,0.00000548,-0.00000023,0.00000072,
 -0.00000466,0.00000284,0.00000583,-0.00000074,0.00000043,0.00000017,-0
 .00000092,-0.00000048,0.00000475,0.00001171,0.00000142,-0.00000131,0.0
 0000085,-0.00035549,-0.00188611,-0.00315110,0.00009316,-0.00010156,0.0
 0000386,-0.00020019,0.00005788,-0.00007291,-0.00002143,0.00082652,-0.0
 0101647,0.00058718,0.00095004,-0.00018183,0.00012602,0.00001938,0.0000
 6627,0.00024593,0.00010878,0.00007413,-0.00011309,-0.00003175,0.000017
 75,-0.01786349,-0.13093009,0.12501979,-0.00423402,-0.01134963,0.017918
 92,-0.00007023,-0.00755427,0.01075996,0.01948575,0.13895803,0.00010354
 ,-0.00010960,0.00000632,-0.00013298,-0.00011934,-0.00000455,-0.0000152
 3,0.00008170,-0.00000698,-0.00011582,-0.00004422,-0.00000085,0.0000854
 1,-0.00005783,0.00000608,0.00001442,0.00003583,0.00000042,0.00004694,-
 0.00016937,0.00002352,0.00000523,-0.00000169,-0.00000046,0.00000008,-0
 .00000420,0.00000041,-0.00000136,-0.00000301,-0.00000027,-0.00003046,0
 .00014685,0.00001463,-0.00010174,0.00009546,-0.00000064,-0.00003786,0.
 00012389,-0.00006854,0.00023346,-0.00042807,0.00024323,-0.00138121,0.0
 0199583,-0.00006765,0.00015334,0.00003022,0.00000804,-0.00006155,0.000
 01393,-0.00007144,-0.00000928,-0.00001287,0.00001806,-0.00015081,-0.00
 000106,0.00002867,0.00340567,0.01274661,-0.02043495,0.00000725,-0.0000
 2925,0.00000206,0.00004928,-0.00010010,0.00001551,-0.00000062,0.000030
 39,-0.00001077,0.00002750,0.00009708,0.00000158,0.00002023,-0.00000157
 ,-0.00000563,0.00003132,-0.00001000,0.00000113,-0.00000544,-0.00000120
 ,-0.00000099,-0.00001878,0.00001787,0.00000256,0.00000676,-0.00001051,
 0.00000105,-0.00000405,0.00000107,-0.00000669,-0.00000365,0.00000329,0
 .00000209,-0.00000325,0.00000258,-0.00000123,0.00000022,-0.00000225,0.
 00000312,0.00000041,0.00000088,0.00000029,0.00000155,0.00000078,0.0000
 0267,0.00000044,-0.00000173,-0.00000158,0.00000059,0.00000064,0.000000
 29,0.00000012,-0.00000003,0.00000049,0.00000023,0.00000032,-0.00000086
 ,-0.00000150,0.00000011,0.00000043,-0.00000063,0.00000119,-0.00000054,
 -0.00000088,0.00000050,0.00000038,-0.00000036,0.00000031,-0.00000032,-
 0.00000018,-0.00000008,0.00000036,0.00000004,0.00000039,0.00000033,0.0
 0000654,0.00001451,0.00001569,-0.00000202,-0.00000069,0.00000073,0.000
 00668,-0.00000186,-0.00000689,-0.00000144,0.00000077,0.00000079,0.0000
 0472,-0.00000580,-0.00000489,0.00000475,0.00000302,0.00000074,-0.00000
 585,0.00000093,0.00000033,-0.00000327,0.00000005,0.00000739,0.00000501
 ,0.00001015,-0.00002474,-0.00000193,-0.00000086,0.00000102,0.00007028,
 -0.00001575,-0.00005941,0.00000562,-0.00000101,0.00000993,-0.00053162,
 -0.00453521,-0.00400106,0.00010382,-0.00003328,0.00023429,-0.00008105,
 -0.00011124,0.00043236,0.00016532,0.00099814,-0.00148197,0.00093398,0.
 00122796,0.00082776,-0.00057566,-0.00057459,-0.00003398,0.00013448,-0.
 00020550,0.00028754,-0.00007784,-0.00005904,-0.00003046,0.02338225,0.1
 2330708,-0.23054370,-0.00020295,-0.00047686,0.00044382,-0.00001424,-0.
 00113796,0.00181371,-0.02544199,-0.13272280,0.25241219\\-0.00000454,-0
 .00000117,0.00000634,-0.00000514,-0.00000234,0.00000953,-0.00000756,-0
 .00000365,0.00001262,-0.00000883,-0.00000171,0.00001307,-0.00000861,0.
 00000001,0.00001033,-0.00000657,0.00000103,0.00000658,-0.00000212,-0.0
 0000161,0.00000420,-0.00000756,-0.00000465,0.00001485,-0.00001071,-0.0
 0000237,0.00001563,-0.00001006,0.00000126,0.00001070,-0.00000312,-0.00
 000375,0.00000768,0.00000230,-0.00000541,0.00000348,0.00000040,-0.0000
 0228,0.00000239,0.00000195,-0.00000118,-0.00000133,0.00000466,-0.00000
 144,-0.00000360,0.00000539,-0.00000383,-0.00000173,0.00000340,-0.00000
 472,0.00000166,0.00000156,0.00000061,-0.00000270,0.00000671,-0.0000038
 3,-0.00000364,0.00000577,0.00000075,-0.00000700,0.00000489,-0.00000665
 ,0.00000328,0.00000070,-0.00000266,0.00000734,-0.00000314,-0.00000834,
 0.00000826,-0.00000213,-0.00000017,0.00000325,-0.00000184,0.00000121,0
 .00000137,-0.00000557,0.00000250,0.00000362,-0.00000754,0.00000420,0.0
 0000438,-0.00000416,0.00000395,0.00000082,-0.00000402,0.00000545,-0.00
 000269,-0.00000803,0.00000949,-0.00000208,-0.00000240,0.00000489,-0.00
 000121,-0.00000206,0.00000574,-0.00000468,-0.00000549,0.00001133,-0.00
 000577,-0.00000892,0.00000934,-0.00000034,-0.00000737,0.00001027,-0.00
 000296,-0.00000298,0.00000691,-0.00000576,-0.00000505,0.00000445,0.000
 00026,-0.00000045,0.00000221,-0.00000168,-0.00000543,0.00001066,-0.000
 00563,-0.00000869,0.00001397,-0.00000589,-0.00000483,0.00001182,-0.000
 00816,-0.00000162,0.00000598,-0.00000470,-0.00000047,0.00000658,-0.000
 00726,-0.00000498,0.00001153,-0.00000772,-0.00000745,0.00001030,-0.000
 00339,0.00000583,-0.00001187,0.00000572,0.00000415,-0.00001114,0.00000
 782,0.00000678,-0.00001246,0.00000680,0.00000818,-0.00001195,0.0000039
 0,0.00000656,-0.00000782,0.00000059,0.00000809,-0.00000951,0.00000178,
 0.00000668,-0.00000563,-0.00000109,0.00000913,-0.00000898,-0.00000097,
 0.00000145,-0.00000690,0.00000640,0.00000013,-0.00000623,0.00000742,0.
 00000096,-0.00000382,0.00000358,0.00000242,-0.00000785,0.00000632,0.00
 000951,-0.00000240,-0.00000945,0.00001075,-0.00000385,-0.00000812,0.00
 001094,-0.00000132,-0.00001141,0.00001039,-0.00000382,-0.00000799,0.00
 000513,0.00000184,-0.00000889,0.00000245,0.00000412,-0.00000797,0.0000
 0578,0.00000084,-0.00000810,0.00000626,0.00000360,-0.00001170,0.000005
 60,0.00000181,-0.00000903,0.00000612,0.00000352,-0.00001156,0.00000592
 ,0.00000080,-0.00000808,0.00000252,0.00000431,-0.00000770\\\@



 IN THIS SHORT LIFE

 THAT ONLY LASTS AN HOUR

 HOW MUCH, HOW LITTLE, IS WITHIN OUR POWER....


 EMILY DICKINSON BOLTS OF MELODY NO. 521
 Job cpu time:       0 days 17 hours 59 minutes  6.8 seconds.
 Elapsed time:       0 days  1 hours  7 minutes 35.1 seconds.
 File lengths (MBytes):  RWF=   5892 Int=      0 D2E=      0 Chk=     88 Scr=      8
 Normal termination of Gaussian 16 at Thu Dec 20 20:09:25 2018.
