 Entering Gaussian System, Link 0=g16
 Initial command:
 /gpfs/apps/hpc/Apps/Restricted/Gaussian/Rev_A.03/g16/l1.exe "/gpfs/scratch60/fas/hammes_schiffer/jg2487/c27n07/Gau-27211.inp" -scrdir="/gpfs/scratch60/fas/hammes_schiffer/jg2487/c27n07/"
 Entering Link 1 = /gpfs/apps/hpc/Apps/Restricted/Gaussian/Rev_A.03/g16/l1.exe PID=     27212.
  
 Copyright (c) 1988,1990,1992,1993,1995,1998,2003,2009,2016,
            Gaussian, Inc.  All Rights Reserved.
  
 This is part of the Gaussian(R) 16 program.  It is based on
 the Gaussian(R) 09 system (copyright 2009, Gaussian, Inc.),
 the Gaussian(R) 03 system (copyright 2003, Gaussian, Inc.),
 the Gaussian(R) 98 system (copyright 1998, Gaussian, Inc.),
 the Gaussian(R) 94 system (copyright 1995, Gaussian, Inc.),
 the Gaussian 92(TM) system (copyright 1992, Gaussian, Inc.),
 the Gaussian 90(TM) system (copyright 1990, Gaussian, Inc.),
 the Gaussian 88(TM) system (copyright 1988, Gaussian, Inc.),
 the Gaussian 86(TM) system (copyright 1986, Carnegie Mellon
 University), and the Gaussian 82(TM) system (copyright 1983,
 Carnegie Mellon University). Gaussian is a federally registered
 trademark of Gaussian, Inc.
  
 This software contains proprietary and confidential information,
 including trade secrets, belonging to Gaussian, Inc.
  
 This software is provided under written license and may be
 used, copied, transmitted, or stored only in accord with that
 written license.
  
 The following legend is applicable only to US Government
 contracts under FAR:
  
                    RESTRICTED RIGHTS LEGEND
  
 Use, reproduction and disclosure by the US Government is
 subject to restrictions as set forth in subparagraphs (a)
 and (c) of the Commercial Computer Software - Restricted
 Rights clause in FAR 52.227-19.
  
 Gaussian, Inc.
 340 Quinnipiac St., Bldg. 40, Wallingford CT 06492
  
  
 ---------------------------------------------------------------
 Warning -- This program may not be used in any manner that
 competes with the business of Gaussian, Inc. or will provide
 assistance to any competitor of Gaussian, Inc.  The licensee
 of this program is prohibited from giving any competitor of
 Gaussian, Inc. access to this program.  By using this program,
 the user acknowledges that Gaussian, Inc. is engaged in the
 business of creating and licensing software in the field of
 computational chemistry and represents and warrants to the
 licensee that it is not a competitor of Gaussian, Inc. and that
 it will not use this program in any manner prohibited above.
 ---------------------------------------------------------------
  

 Cite this work as:
 Gaussian 16, Revision A.03,
 M. J. Frisch, G. W. Trucks, H. B. Schlegel, G. E. Scuseria, 
 M. A. Robb, J. R. Cheeseman, G. Scalmani, V. Barone, 
 G. A. Petersson, H. Nakatsuji, X. Li, M. Caricato, A. V. Marenich, 
 J. Bloino, B. G. Janesko, R. Gomperts, B. Mennucci, H. P. Hratchian, 
 J. V. Ortiz, A. F. Izmaylov, J. L. Sonnenberg, D. Williams-Young, 
 F. Ding, F. Lipparini, F. Egidi, J. Goings, B. Peng, A. Petrone, 
 T. Henderson, D. Ranasinghe, V. G. Zakrzewski, J. Gao, N. Rega, 
 G. Zheng, W. Liang, M. Hada, M. Ehara, K. Toyota, R. Fukuda, 
 J. Hasegawa, M. Ishida, T. Nakajima, Y. Honda, O. Kitao, H. Nakai, 
 T. Vreven, K. Throssell, J. A. Montgomery, Jr., J. E. Peralta, 
 F. Ogliaro, M. J. Bearpark, J. J. Heyd, E. N. Brothers, K. N. Kudin, 
 V. N. Staroverov, T. A. Keith, R. Kobayashi, J. Normand, 
 K. Raghavachari, A. P. Rendell, J. C. Burant, S. S. Iyengar, 
 J. Tomasi, M. Cossi, J. M. Millam, M. Klene, C. Adamo, R. Cammi, 
 J. W. Ochterski, R. L. Martin, K. Morokuma, O. Farkas, 
 J. B. Foresman, and D. J. Fox, Gaussian, Inc., Wallingford CT, 2016.
 
 ******************************************
 Gaussian 16:  ES64L-G16RevA.03 25-Dec-2016
                21-Dec-2018 
 ******************************************
 %chk=cyclohexyl-monoBIP-E0PT.chk
 %mem=10GB
 %nprocshared=16
 Will use up to   16 processors via shared memory.
 ----------------------------------------------------------------------
 #p opt=tight freq=internalmodes b3lyp/6-31g(d,p) scrf=(cpcm,solvent=di
 chloromethane,read) nosymm empiricaldispersion=gd3bj int=grid=ultrafin
 e
 ----------------------------------------------------------------------
 1/7=10,18=20,19=15,26=6,38=1,40=2/1,3;
 2/9=110,12=2,15=1,17=6,18=5,40=1/2;
 3/5=1,6=6,7=101,11=2,25=1,30=1,70=2103,71=1,72=9,74=-5,75=-5,124=41/1,2,3;
 4//1;
 5/5=2,38=5,53=9/2;
 6/7=2,8=2,9=2,10=2,28=1/1;
 7/30=1/1,2,3,16;
 1/7=10,18=20,19=15,26=6/3(2);
 2/9=110,15=1/2;
 99//99;
 2/9=110,15=1/2;
 3/5=1,6=6,7=101,11=2,25=1,30=1,70=2105,71=1,72=9,74=-5,75=-5,124=41/1,2,3;
 4/5=5,16=3,69=1/1;
 5/5=2,38=5,53=9/2;
 7/30=1/1,2,3,16;
 1/7=10,18=20,19=15,26=6/3(-5);
 2/9=110,15=1/2;
 6/7=2,8=2,9=2,10=2,19=2,28=1/1;
 99/9=1/99;
 Leave Link    1 at Fri Dec 21 13:47:52 2018, MaxMem=  1342177280 cpu:               8.9 elap:               0.6
 (Enter /gpfs/apps/hpc/Apps/Restricted/Gaussian/Rev_A.03/g16/l101.exe)
 -------------------------------------------------------
 cyclohexylimine monoBIP oxidized but no PT optimization
 -------------------------------------------------------
 Symbolic Z-matrix:
 Charge =  1 Multiplicity = 2
 C                    -0.43944   2.7067    0.23343 
 C                    -1.85331   2.85044   0.18134 
 C                    -2.42922   4.13056   0.09067 
 C                    -1.56389   5.21203   0.06352 
 C                    -0.15761   5.05229   0.12184 
 C                     0.44506   3.79918   0.20762 
 C                    -1.40276   0.72218   0.30522 
 H                    -3.50306   4.25682   0.04474 
 H                    -1.96801   6.21473  -0.0025 
 H                     0.47241   5.93404   0.1007 
 N                    -2.41529   1.60333   0.22875 
 C                    -2.99966  -1.17478   0.38602 
 C                    -1.62108  -0.69509   0.37061 
 C                    -0.57447  -1.61337   0.41063 
 C                    -0.83124  -2.98066   0.47455 
 C                    -2.19158  -3.42083   0.51339 
 C                    -3.279    -2.58332   0.47981 
 H                     0.4451   -1.25569   0.38913 
 H                    -2.36505  -4.48446   0.57465 
 C                     0.26974  -4.02756   0.49235 
 C                    -4.71736  -3.10337   0.53133 
 O                    -3.9884   -0.32945   0.30998 
 H                    -3.60507   0.64066   0.25764 
 N                    -0.1938    1.36595   0.30955 
 H                     0.75937   1.01291   0.36318 
 C                     1.89331   3.60959   0.26867 
 H                     2.49964   4.51988   0.22972 
 N                     2.3951    2.43491   0.36252 
 C                     3.85852   2.30603   0.42064 
 C                     4.5232    2.72834  -0.90044 
 C                     4.48081   3.06944   1.6015 
 H                     4.06044   1.23934   0.5698 
 C                     6.03738   2.49831  -0.84243 
 H                     4.31511   3.79148  -1.07085 
 H                     4.07668   2.17346  -1.73085 
 C                     5.99402   2.8338    1.66334 
 H                     4.28838   4.14141   1.47524 
 H                     3.99631   2.76241   2.53284 
 C                     6.66958   3.23182   0.34565 
 H                     6.50162   2.8157   -1.78092 
 H                     6.22919   1.42239  -0.74412 
 H                     6.42264   3.39506   2.49922 
 H                     6.18581   1.77204   1.86246 
 H                     7.74345   3.02678   0.39168 
 H                     6.55776   4.31365   0.19976 
 C                    -5.44588  -2.51334   1.75957 
 H                    -5.51262  -1.42741   1.70743 
 H                    -6.45988  -2.91906   1.80148 
 H                    -4.93031  -2.78912   2.68299 
 C                    -4.74511  -4.63452   0.65823 
 H                    -5.78415  -4.96507   0.7092 
 H                    -4.27833  -5.12519  -0.19996 
 H                    -4.23895  -4.97211   1.56644 
 C                    -5.46075  -2.71438  -0.76599 
 H                    -5.54831  -1.63399  -0.87354 
 H                    -4.93801  -3.11079  -1.64001 
 H                    -6.46651  -3.14171  -0.74501 
 C                     0.11536  -4.90098   1.75825 
 H                    -0.85336  -5.40321   1.79266 
 H                     0.89326  -5.66873   1.75852 
 H                     0.22407  -4.2982    2.66255 
 C                     1.6712   -3.4053    0.48885 
 H                     1.84297  -2.80513  -0.40792 
 H                     1.83303  -2.7757    1.36724 
 H                     2.41722  -4.20263   0.50463 
 C                     0.11323  -4.91738  -0.76309 
 H                     0.88267  -5.69351  -0.74873 
 H                    -0.86246  -5.40644  -0.79467 
 H                     0.23355  -4.32798  -1.6748 
 
 ITRead=  0  0  0  0  0  0  0  0  0  0  0  0  0  0  0  0  0  0  0  0
 ITRead=  0  0  0  0  0  0  0  0  0  0  0  0  0  0  0  0  0  0  0  0
 ITRead=  0  0  0  0  0  0  0  0  0  0  0  0  0  0  0  0  0  0  0  0
 ITRead=  0  0  0  0  0  0  0  0  0
 MicOpt= -1 -1 -1 -1 -1 -1 -1 -1 -1 -1 -1 -1 -1 -1 -1 -1 -1 -1 -1 -1
 MicOpt= -1 -1 -1 -1 -1 -1 -1 -1 -1 -1 -1 -1 -1 -1 -1 -1 -1 -1 -1 -1
 MicOpt= -1 -1 -1 -1 -1 -1 -1 -1 -1 -1 -1 -1 -1 -1 -1 -1 -1 -1 -1 -1
 MicOpt= -1 -1 -1 -1 -1 -1 -1 -1 -1
 NAtoms=     69 NQM=       69 NQMF=       0 NMMI=      0 NMMIF=      0
                NMic=       0 NMicF=      0.
                    Isotopes and Nuclear Properties:
 (Nuclear quadrupole moments (NQMom) in fm**2, nuclear magnetic moments (NMagM)
  in nuclear magnetons)

  Atom         1           2           3           4           5           6           7           8           9          10
 IAtWgt=          12          12          12          12          12          12          12           1           1           1
 AtmWgt=  12.0000000  12.0000000  12.0000000  12.0000000  12.0000000  12.0000000  12.0000000   1.0078250   1.0078250   1.0078250
 NucSpn=           0           0           0           0           0           0           0           1           1           1
 AtZEff=  -0.0000000  -0.0000000  -0.0000000  -0.0000000  -0.0000000  -0.0000000  -0.0000000  -0.0000000  -0.0000000  -0.0000000
 NQMom=    0.0000000   0.0000000   0.0000000   0.0000000   0.0000000   0.0000000   0.0000000   0.0000000   0.0000000   0.0000000
 NMagM=    0.0000000   0.0000000   0.0000000   0.0000000   0.0000000   0.0000000   0.0000000   2.7928460   2.7928460   2.7928460
 AtZNuc=   6.0000000   6.0000000   6.0000000   6.0000000   6.0000000   6.0000000   6.0000000   1.0000000   1.0000000   1.0000000

  Atom        11          12          13          14          15          16          17          18          19          20
 IAtWgt=          14          12          12          12          12          12          12           1           1          12
 AtmWgt=  14.0030740  12.0000000  12.0000000  12.0000000  12.0000000  12.0000000  12.0000000   1.0078250   1.0078250  12.0000000
 NucSpn=           2           0           0           0           0           0           0           1           1           0
 AtZEff=  -0.0000000  -0.0000000  -0.0000000  -0.0000000  -0.0000000  -0.0000000  -0.0000000  -0.0000000  -0.0000000  -0.0000000
 NQMom=    2.0440000   0.0000000   0.0000000   0.0000000   0.0000000   0.0000000   0.0000000   0.0000000   0.0000000   0.0000000
 NMagM=    0.4037610   0.0000000   0.0000000   0.0000000   0.0000000   0.0000000   0.0000000   2.7928460   2.7928460   0.0000000
 AtZNuc=   7.0000000   6.0000000   6.0000000   6.0000000   6.0000000   6.0000000   6.0000000   1.0000000   1.0000000   6.0000000

  Atom        21          22          23          24          25          26          27          28          29          30
 IAtWgt=          12          16           1          14           1          12           1          14          12          12
 AtmWgt=  12.0000000  15.9949146   1.0078250  14.0030740   1.0078250  12.0000000   1.0078250  14.0030740  12.0000000  12.0000000
 NucSpn=           0           0           1           2           1           0           1           2           0           0
 AtZEff=  -0.0000000  -0.0000000  -0.0000000  -0.0000000  -0.0000000  -0.0000000  -0.0000000  -0.0000000  -0.0000000  -0.0000000
 NQMom=    0.0000000   0.0000000   0.0000000   2.0440000   0.0000000   0.0000000   0.0000000   2.0440000   0.0000000   0.0000000
 NMagM=    0.0000000   0.0000000   2.7928460   0.4037610   2.7928460   0.0000000   2.7928460   0.4037610   0.0000000   0.0000000
 AtZNuc=   6.0000000   8.0000000   1.0000000   7.0000000   1.0000000   6.0000000   1.0000000   7.0000000   6.0000000   6.0000000

  Atom        31          32          33          34          35          36          37          38          39          40
 IAtWgt=          12           1          12           1           1          12           1           1          12           1
 AtmWgt=  12.0000000   1.0078250  12.0000000   1.0078250   1.0078250  12.0000000   1.0078250   1.0078250  12.0000000   1.0078250
 NucSpn=           0           1           0           1           1           0           1           1           0           1
 AtZEff=  -0.0000000  -0.0000000  -0.0000000  -0.0000000  -0.0000000  -0.0000000  -0.0000000  -0.0000000  -0.0000000  -0.0000000
 NQMom=    0.0000000   0.0000000   0.0000000   0.0000000   0.0000000   0.0000000   0.0000000   0.0000000   0.0000000   0.0000000
 NMagM=    0.0000000   2.7928460   0.0000000   2.7928460   2.7928460   0.0000000   2.7928460   2.7928460   0.0000000   2.7928460
 AtZNuc=   6.0000000   1.0000000   6.0000000   1.0000000   1.0000000   6.0000000   1.0000000   1.0000000   6.0000000   1.0000000

  Atom        41          42          43          44          45          46          47          48          49          50
 IAtWgt=           1           1           1           1           1          12           1           1           1          12
 AtmWgt=   1.0078250   1.0078250   1.0078250   1.0078250   1.0078250  12.0000000   1.0078250   1.0078250   1.0078250  12.0000000
 NucSpn=           1           1           1           1           1           0           1           1           1           0
 AtZEff=  -0.0000000  -0.0000000  -0.0000000  -0.0000000  -0.0000000  -0.0000000  -0.0000000  -0.0000000  -0.0000000  -0.0000000
 NQMom=    0.0000000   0.0000000   0.0000000   0.0000000   0.0000000   0.0000000   0.0000000   0.0000000   0.0000000   0.0000000
 NMagM=    2.7928460   2.7928460   2.7928460   2.7928460   2.7928460   0.0000000   2.7928460   2.7928460   2.7928460   0.0000000
 AtZNuc=   1.0000000   1.0000000   1.0000000   1.0000000   1.0000000   6.0000000   1.0000000   1.0000000   1.0000000   6.0000000

  Atom        51          52          53          54          55          56          57          58          59          60
 IAtWgt=           1           1           1          12           1           1           1          12           1           1
 AtmWgt=   1.0078250   1.0078250   1.0078250  12.0000000   1.0078250   1.0078250   1.0078250  12.0000000   1.0078250   1.0078250
 NucSpn=           1           1           1           0           1           1           1           0           1           1
 AtZEff=  -0.0000000  -0.0000000  -0.0000000  -0.0000000  -0.0000000  -0.0000000  -0.0000000  -0.0000000  -0.0000000  -0.0000000
 NQMom=    0.0000000   0.0000000   0.0000000   0.0000000   0.0000000   0.0000000   0.0000000   0.0000000   0.0000000   0.0000000
 NMagM=    2.7928460   2.7928460   2.7928460   0.0000000   2.7928460   2.7928460   2.7928460   0.0000000   2.7928460   2.7928460
 AtZNuc=   1.0000000   1.0000000   1.0000000   6.0000000   1.0000000   1.0000000   1.0000000   6.0000000   1.0000000   1.0000000

  Atom        61          62          63          64          65          66          67          68          69
 IAtWgt=           1          12           1           1           1          12           1           1           1
 AtmWgt=   1.0078250  12.0000000   1.0078250   1.0078250   1.0078250  12.0000000   1.0078250   1.0078250   1.0078250
 NucSpn=           1           0           1           1           1           0           1           1           1
 AtZEff=  -0.0000000  -0.0000000  -0.0000000  -0.0000000  -0.0000000  -0.0000000  -0.0000000  -0.0000000  -0.0000000
 NQMom=    0.0000000   0.0000000   0.0000000   0.0000000   0.0000000   0.0000000   0.0000000   0.0000000   0.0000000
 NMagM=    2.7928460   0.0000000   2.7928460   2.7928460   2.7928460   0.0000000   2.7928460   2.7928460   2.7928460
 AtZNuc=   1.0000000   6.0000000   1.0000000   1.0000000   1.0000000   6.0000000   1.0000000   1.0000000   1.0000000
 Leave Link  101 at Fri Dec 21 13:47:52 2018, MaxMem=  1342177280 cpu:               5.0 elap:               0.3
 (Enter /gpfs/apps/hpc/Apps/Restricted/Gaussian/Rev_A.03/g16/l103.exe)

 GradGradGradGradGradGradGradGradGradGradGradGradGradGradGradGradGradGrad
 Berny optimization.
 Initialization pass.
                           ----------------------------
                           !    Initial Parameters    !
                           ! (Angstroms and Degrees)  !
 --------------------------                            --------------------------
 ! Name  Definition              Value          Derivative Info.                !
 --------------------------------------------------------------------------------
 ! R1    R(1,2)                  1.4221         estimate D2E/DX2                !
 ! R2    R(1,6)                  1.4059         estimate D2E/DX2                !
 ! R3    R(1,24)                 1.3652         estimate D2E/DX2                !
 ! R4    R(2,3)                  1.4066         estimate D2E/DX2                !
 ! R5    R(2,11)                 1.3687         estimate D2E/DX2                !
 ! R6    R(3,4)                  1.3853         estimate D2E/DX2                !
 ! R7    R(3,8)                  1.0822         estimate D2E/DX2                !
 ! R8    R(4,5)                  1.4165         estimate D2E/DX2                !
 ! R9    R(4,9)                  1.0831         estimate D2E/DX2                !
 ! R10   R(5,6)                  1.3931         estimate D2E/DX2                !
 ! R11   R(5,10)                 1.0839         estimate D2E/DX2                !
 ! R12   R(6,26)                 1.4619         estimate D2E/DX2                !
 ! R13   R(7,11)                 1.3444         estimate D2E/DX2                !
 ! R14   R(7,13)                 1.4355         estimate D2E/DX2                !
 ! R15   R(7,24)                 1.3697         estimate D2E/DX2                !
 ! R16   R(12,13)                1.4597         estimate D2E/DX2                !
 ! R17   R(12,17)                1.439          estimate D2E/DX2                !
 ! R18   R(12,22)                1.3031         estimate D2E/DX2                !
 ! R19   R(13,14)                1.3929         estimate D2E/DX2                !
 ! R20   R(14,15)                1.3927         estimate D2E/DX2                !
 ! R21   R(14,18)                1.0807         estimate D2E/DX2                !
 ! R22   R(15,16)                1.4303         estimate D2E/DX2                !
 ! R23   R(15,20)                1.5194         estimate D2E/DX2                !
 ! R24   R(16,17)                1.373          estimate D2E/DX2                !
 ! R25   R(16,19)                1.0794         estimate D2E/DX2                !
 ! R26   R(17,21)                1.5304         estimate D2E/DX2                !
 ! R27   R(20,58)                1.5457         estimate D2E/DX2                !
 ! R28   R(20,62)                1.5334         estimate D2E/DX2                !
 ! R29   R(20,66)                1.5467         estimate D2E/DX2                !
 ! R30   R(21,46)                1.5451         estimate D2E/DX2                !
 ! R31   R(21,50)                1.5366         estimate D2E/DX2                !
 ! R32   R(21,54)                1.545          estimate D2E/DX2                !
 ! R33   R(22,23)                1.0444         estimate D2E/DX2                !
 ! R34   R(24,25)                1.0179         estimate D2E/DX2                !
 ! R35   R(26,27)                1.0944         estimate D2E/DX2                !
 ! R36   R(26,28)                1.2808         estimate D2E/DX2                !
 ! R37   R(28,29)                1.4702         estimate D2E/DX2                !
 ! R38   R(29,30)                1.538          estimate D2E/DX2                !
 ! R39   R(29,31)                1.5377         estimate D2E/DX2                !
 ! R40   R(29,32)                1.0958         estimate D2E/DX2                !
 ! R41   R(30,33)                1.5326         estimate D2E/DX2                !
 ! R42   R(30,34)                1.0966         estimate D2E/DX2                !
 ! R43   R(30,35)                1.094          estimate D2E/DX2                !
 ! R44   R(31,36)                1.5327         estimate D2E/DX2                !
 ! R45   R(31,37)                1.0964         estimate D2E/DX2                !
 ! R46   R(31,38)                1.0938         estimate D2E/DX2                !
 ! R47   R(33,39)                1.5327         estimate D2E/DX2                !
 ! R48   R(33,40)                1.0941         estimate D2E/DX2                !
 ! R49   R(33,41)                1.0973         estimate D2E/DX2                !
 ! R50   R(36,39)                1.5333         estimate D2E/DX2                !
 ! R51   R(36,42)                1.0943         estimate D2E/DX2                !
 ! R52   R(36,43)                1.0972         estimate D2E/DX2                !
 ! R53   R(39,44)                1.0942         estimate D2E/DX2                !
 ! R54   R(39,45)                1.0973         estimate D2E/DX2                !
 ! R55   R(46,47)                1.0892         estimate D2E/DX2                !
 ! R56   R(46,48)                1.093          estimate D2E/DX2                !
 ! R57   R(46,49)                1.093          estimate D2E/DX2                !
 ! R58   R(50,51)                1.0915         estimate D2E/DX2                !
 ! R59   R(50,52)                1.0932         estimate D2E/DX2                !
 ! R60   R(50,53)                1.0932         estimate D2E/DX2                !
 ! R61   R(54,55)                1.0893         estimate D2E/DX2                !
 ! R62   R(54,56)                1.0928         estimate D2E/DX2                !
 ! R63   R(54,57)                1.093          estimate D2E/DX2                !
 ! R64   R(58,59)                1.0917         estimate D2E/DX2                !
 ! R65   R(58,60)                1.093          estimate D2E/DX2                !
 ! R66   R(58,61)                1.0922         estimate D2E/DX2                !
 ! R67   R(62,63)                1.0927         estimate D2E/DX2                !
 ! R68   R(62,64)                1.0928         estimate D2E/DX2                !
 ! R69   R(62,65)                1.092          estimate D2E/DX2                !
 ! R70   R(66,67)                1.093          estimate D2E/DX2                !
 ! R71   R(66,68)                1.0919         estimate D2E/DX2                !
 ! R72   R(66,69)                1.0923         estimate D2E/DX2                !
 ! A1    A(2,1,6)              123.1125         estimate D2E/DX2                !
 ! A2    A(2,1,24)             106.2715         estimate D2E/DX2                !
 ! A3    A(6,1,24)             130.6159         estimate D2E/DX2                !
 ! A4    A(1,2,3)              120.0922         estimate D2E/DX2                !
 ! A5    A(1,2,11)             108.3519         estimate D2E/DX2                !
 ! A6    A(3,2,11)             131.5553         estimate D2E/DX2                !
 ! A7    A(2,3,4)              117.1276         estimate D2E/DX2                !
 ! A8    A(2,3,8)              121.0083         estimate D2E/DX2                !
 ! A9    A(4,3,8)              121.8641         estimate D2E/DX2                !
 ! A10   A(3,4,5)              122.0921         estimate D2E/DX2                !
 ! A11   A(3,4,9)              119.3968         estimate D2E/DX2                !
 ! A12   A(5,4,9)              118.511          estimate D2E/DX2                !
 ! A13   A(4,5,6)              122.2383         estimate D2E/DX2                !
 ! A14   A(4,5,10)             118.9799         estimate D2E/DX2                !
 ! A15   A(6,5,10)             118.7817         estimate D2E/DX2                !
 ! A16   A(1,6,5)              115.336          estimate D2E/DX2                !
 ! A17   A(1,6,26)             121.4483         estimate D2E/DX2                !
 ! A18   A(5,6,26)             123.2156         estimate D2E/DX2                !
 ! A19   A(11,7,13)            122.354          estimate D2E/DX2                !
 ! A20   A(11,7,24)            110.9087         estimate D2E/DX2                !
 ! A21   A(13,7,24)            126.7373         estimate D2E/DX2                !
 ! A22   A(2,11,7)             106.8536         estimate D2E/DX2                !
 ! A23   A(13,12,17)           120.3755         estimate D2E/DX2                !
 ! A24   A(13,12,22)           120.1851         estimate D2E/DX2                !
 ! A25   A(17,12,22)           119.439          estimate D2E/DX2                !
 ! A26   A(7,13,12)            117.9408         estimate D2E/DX2                !
 ! A27   A(7,13,14)            122.5421         estimate D2E/DX2                !
 ! A28   A(12,13,14)           119.5159         estimate D2E/DX2                !
 ! A29   A(13,14,15)           120.6655         estimate D2E/DX2                !
 ! A30   A(13,14,18)           119.3483         estimate D2E/DX2                !
 ! A31   A(15,14,18)           119.9861         estimate D2E/DX2                !
 ! A32   A(14,15,16)           118.603          estimate D2E/DX2                !
 ! A33   A(14,15,20)           122.9171         estimate D2E/DX2                !
 ! A34   A(16,15,20)           118.4776         estimate D2E/DX2                !
 ! A35   A(15,16,17)           124.3947         estimate D2E/DX2                !
 ! A36   A(15,16,19)           117.2348         estimate D2E/DX2                !
 ! A37   A(17,16,19)           118.3705         estimate D2E/DX2                !
 ! A38   A(12,17,16)           116.4183         estimate D2E/DX2                !
 ! A39   A(12,17,21)           121.149          estimate D2E/DX2                !
 ! A40   A(16,17,21)           122.432          estimate D2E/DX2                !
 ! A41   A(15,20,58)           109.0607         estimate D2E/DX2                !
 ! A42   A(15,20,62)           112.497          estimate D2E/DX2                !
 ! A43   A(15,20,66)           108.2738         estimate D2E/DX2                !
 ! A44   A(58,20,62)           108.8119         estimate D2E/DX2                !
 ! A45   A(58,20,66)           109.2422         estimate D2E/DX2                !
 ! A46   A(62,20,66)           108.9103         estimate D2E/DX2                !
 ! A47   A(17,21,46)           109.8856         estimate D2E/DX2                !
 ! A48   A(17,21,50)           110.9997         estimate D2E/DX2                !
 ! A49   A(17,21,54)           109.7805         estimate D2E/DX2                !
 ! A50   A(46,21,50)           107.8384         estimate D2E/DX2                !
 ! A51   A(46,21,54)           110.1493         estimate D2E/DX2                !
 ! A52   A(50,21,54)           108.1513         estimate D2E/DX2                !
 ! A53   A(12,22,23)           109.0877         estimate D2E/DX2                !
 ! A54   A(1,24,7)             107.6142         estimate D2E/DX2                !
 ! A55   A(1,24,25)            120.8013         estimate D2E/DX2                !
 ! A56   A(7,24,25)            131.5829         estimate D2E/DX2                !
 ! A57   A(6,26,27)            116.0713         estimate D2E/DX2                !
 ! A58   A(6,26,28)            120.6721         estimate D2E/DX2                !
 ! A59   A(27,26,28)           123.2566         estimate D2E/DX2                !
 ! A60   A(26,28,29)           118.2452         estimate D2E/DX2                !
 ! A61   A(28,29,30)           111.8486         estimate D2E/DX2                !
 ! A62   A(28,29,31)           112.9333         estimate D2E/DX2                !
 ! A63   A(28,29,32)           105.9095         estimate D2E/DX2                !
 ! A64   A(30,29,31)           110.3906         estimate D2E/DX2                !
 ! A65   A(30,29,32)           107.7318         estimate D2E/DX2                !
 ! A66   A(31,29,32)           107.7077         estimate D2E/DX2                !
 ! A67   A(29,30,33)           110.6862         estimate D2E/DX2                !
 ! A68   A(29,30,34)           108.5216         estimate D2E/DX2                !
 ! A69   A(29,30,35)           109.6538         estimate D2E/DX2                !
 ! A70   A(33,30,34)           109.8073         estimate D2E/DX2                !
 ! A71   A(33,30,35)           110.8448         estimate D2E/DX2                !
 ! A72   A(34,30,35)           107.2359         estimate D2E/DX2                !
 ! A73   A(29,31,36)           110.7451         estimate D2E/DX2                !
 ! A74   A(29,31,37)           109.0228         estimate D2E/DX2                !
 ! A75   A(29,31,38)           109.5888         estimate D2E/DX2                !
 ! A76   A(36,31,37)           109.1619         estimate D2E/DX2                !
 ! A77   A(36,31,38)           111.0885         estimate D2E/DX2                !
 ! A78   A(37,31,38)           107.1426         estimate D2E/DX2                !
 ! A79   A(30,33,39)           111.4078         estimate D2E/DX2                !
 ! A80   A(30,33,40)           110.0717         estimate D2E/DX2                !
 ! A81   A(30,33,41)           108.8596         estimate D2E/DX2                !
 ! A82   A(39,33,40)           110.552          estimate D2E/DX2                !
 ! A83   A(39,33,41)           109.1291         estimate D2E/DX2                !
 ! A84   A(40,33,41)           106.6863         estimate D2E/DX2                !
 ! A85   A(31,36,39)           111.1244         estimate D2E/DX2                !
 ! A86   A(31,36,42)           109.7964         estimate D2E/DX2                !
 ! A87   A(31,36,43)           109.1894         estimate D2E/DX2                !
 ! A88   A(39,36,42)           110.532          estimate D2E/DX2                !
 ! A89   A(39,36,43)           109.2777         estimate D2E/DX2                !
 ! A90   A(42,36,43)           106.8137         estimate D2E/DX2                !
 ! A91   A(33,39,36)           111.1112         estimate D2E/DX2                !
 ! A92   A(33,39,44)           110.3478         estimate D2E/DX2                !
 ! A93   A(33,39,45)           109.0698         estimate D2E/DX2                !
 ! A94   A(36,39,44)           110.3404         estimate D2E/DX2                !
 ! A95   A(36,39,45)           108.9819         estimate D2E/DX2                !
 ! A96   A(44,39,45)           106.8773         estimate D2E/DX2                !
 ! A97   A(21,46,47)           111.8105         estimate D2E/DX2                !
 ! A98   A(21,46,48)           109.0362         estimate D2E/DX2                !
 ! A99   A(21,46,49)           110.6604         estimate D2E/DX2                !
 ! A100  A(47,46,48)           108.3656         estimate D2E/DX2                !
 ! A101  A(47,46,49)           108.7178         estimate D2E/DX2                !
 ! A102  A(48,46,49)           108.1545         estimate D2E/DX2                !
 ! A103  A(21,50,51)           108.8321         estimate D2E/DX2                !
 ! A104  A(21,50,52)           112.005          estimate D2E/DX2                !
 ! A105  A(21,50,53)           111.59           estimate D2E/DX2                !
 ! A106  A(51,50,52)           107.8893         estimate D2E/DX2                !
 ! A107  A(51,50,53)           107.9651         estimate D2E/DX2                !
 ! A108  A(52,50,53)           108.4138         estimate D2E/DX2                !
 ! A109  A(21,54,55)           111.7969         estimate D2E/DX2                !
 ! A110  A(21,54,56)           110.4921         estimate D2E/DX2                !
 ! A111  A(21,54,57)           109.1603         estimate D2E/DX2                !
 ! A112  A(55,54,56)           108.6178         estimate D2E/DX2                !
 ! A113  A(55,54,57)           108.4044         estimate D2E/DX2                !
 ! A114  A(56,54,57)           108.282          estimate D2E/DX2                !
 ! A115  A(20,58,59)           111.9866         estimate D2E/DX2                !
 ! A116  A(20,58,60)           109.0286         estimate D2E/DX2                !
 ! A117  A(20,58,61)           110.872          estimate D2E/DX2                !
 ! A118  A(59,58,60)           107.9628         estimate D2E/DX2                !
 ! A119  A(59,58,61)           108.4282         estimate D2E/DX2                !
 ! A120  A(60,58,61)           108.4588         estimate D2E/DX2                !
 ! A121  A(20,62,63)           111.6201         estimate D2E/DX2                !
 ! A122  A(20,62,64)           111.551          estimate D2E/DX2                !
 ! A123  A(20,62,65)           109.15           estimate D2E/DX2                !
 ! A124  A(63,62,64)           108.6609         estimate D2E/DX2                !
 ! A125  A(63,62,65)           107.7883         estimate D2E/DX2                !
 ! A126  A(64,62,65)           107.9315         estimate D2E/DX2                !
 ! A127  A(20,66,67)           109.0634         estimate D2E/DX2                !
 ! A128  A(20,66,68)           111.8129         estimate D2E/DX2                !
 ! A129  A(20,66,69)           110.8499         estimate D2E/DX2                !
 ! A130  A(67,66,68)           108.1426         estimate D2E/DX2                !
 ! A131  A(67,66,69)           108.457          estimate D2E/DX2                !
 ! A132  A(68,66,69)           108.4208         estimate D2E/DX2                !
 ! D1    D(6,1,2,3)              0.4289         estimate D2E/DX2                !
 ! D2    D(6,1,2,11)          -179.837          estimate D2E/DX2                !
 ! D3    D(24,1,2,3)          -179.662          estimate D2E/DX2                !
 ! D4    D(24,1,2,11)            0.072          estimate D2E/DX2                !
 ! D5    D(2,1,6,5)             -0.214          estimate D2E/DX2                !
 ! D6    D(2,1,6,26)           179.7429         estimate D2E/DX2                !
 ! D7    D(24,1,6,5)           179.901          estimate D2E/DX2                !
 ! D8    D(24,1,6,26)           -0.1421         estimate D2E/DX2                !
 ! D9    D(2,1,24,7)            -0.0499         estimate D2E/DX2                !
 ! D10   D(2,1,24,25)         -179.6425         estimate D2E/DX2                !
 ! D11   D(6,1,24,7)           179.8498         estimate D2E/DX2                !
 ! D12   D(6,1,24,25)            0.2571         estimate D2E/DX2                !
 ! D13   D(1,2,3,4)             -0.346          estimate D2E/DX2                !
 ! D14   D(1,2,3,8)            179.6674         estimate D2E/DX2                !
 ! D15   D(11,2,3,4)           179.9913         estimate D2E/DX2                !
 ! D16   D(11,2,3,8)             0.0047         estimate D2E/DX2                !
 ! D17   D(1,2,11,7)            -0.0655         estimate D2E/DX2                !
 ! D18   D(3,2,11,7)           179.627          estimate D2E/DX2                !
 ! D19   D(2,3,4,5)              0.0857         estimate D2E/DX2                !
 ! D20   D(2,3,4,9)           -179.8006         estimate D2E/DX2                !
 ! D21   D(8,3,4,5)           -179.9278         estimate D2E/DX2                !
 ! D22   D(8,3,4,9)              0.1859         estimate D2E/DX2                !
 ! D23   D(3,4,5,6)              0.1225         estimate D2E/DX2                !
 ! D24   D(3,4,5,10)          -179.7789         estimate D2E/DX2                !
 ! D25   D(9,4,5,6)           -179.9902         estimate D2E/DX2                !
 ! D26   D(9,4,5,10)             0.1084         estimate D2E/DX2                !
 ! D27   D(4,5,6,1)             -0.0581         estimate D2E/DX2                !
 ! D28   D(4,5,6,26)           179.9859         estimate D2E/DX2                !
 ! D29   D(10,5,6,1)           179.8435         estimate D2E/DX2                !
 ! D30   D(10,5,6,26)           -0.1126         estimate D2E/DX2                !
 ! D31   D(1,6,26,27)          179.2534         estimate D2E/DX2                !
 ! D32   D(1,6,26,28)           -0.7675         estimate D2E/DX2                !
 ! D33   D(5,6,26,27)           -0.7932         estimate D2E/DX2                !
 ! D34   D(5,6,26,28)          179.1859         estimate D2E/DX2                !
 ! D35   D(13,7,11,2)         -179.9381         estimate D2E/DX2                !
 ! D36   D(24,7,11,2)            0.0351         estimate D2E/DX2                !
 ! D37   D(11,7,13,12)          -1.5076         estimate D2E/DX2                !
 ! D38   D(11,7,13,14)         178.0808         estimate D2E/DX2                !
 ! D39   D(24,7,13,12)         178.5237         estimate D2E/DX2                !
 ! D40   D(24,7,13,14)          -1.888          estimate D2E/DX2                !
 ! D41   D(11,7,24,1)            0.0106         estimate D2E/DX2                !
 ! D42   D(11,7,24,25)         179.5428         estimate D2E/DX2                !
 ! D43   D(13,7,24,1)          179.9823         estimate D2E/DX2                !
 ! D44   D(13,7,24,25)          -0.4855         estimate D2E/DX2                !
 ! D45   D(17,12,13,7)        -178.6568         estimate D2E/DX2                !
 ! D46   D(17,12,13,14)          1.7419         estimate D2E/DX2                !
 ! D47   D(22,12,13,7)           1.5901         estimate D2E/DX2                !
 ! D48   D(22,12,13,14)       -178.0112         estimate D2E/DX2                !
 ! D49   D(13,12,17,16)         -1.7819         estimate D2E/DX2                !
 ! D50   D(13,12,17,21)        178.5127         estimate D2E/DX2                !
 ! D51   D(22,12,17,16)        177.973          estimate D2E/DX2                !
 ! D52   D(22,12,17,21)         -1.7323         estimate D2E/DX2                !
 ! D53   D(13,12,22,23)         -0.7655         estimate D2E/DX2                !
 ! D54   D(17,12,22,23)        179.4791         estimate D2E/DX2                !
 ! D55   D(7,13,14,15)         179.9643         estimate D2E/DX2                !
 ! D56   D(7,13,14,18)          -0.1888         estimate D2E/DX2                !
 ! D57   D(12,13,14,15)         -0.4536         estimate D2E/DX2                !
 ! D58   D(12,13,14,18)        179.3933         estimate D2E/DX2                !
 ! D59   D(13,14,15,16)         -0.6944         estimate D2E/DX2                !
 ! D60   D(13,14,15,20)        178.741          estimate D2E/DX2                !
 ! D61   D(18,14,15,16)        179.4597         estimate D2E/DX2                !
 ! D62   D(18,14,15,20)         -1.1049         estimate D2E/DX2                !
 ! D63   D(14,15,16,17)          0.6177         estimate D2E/DX2                !
 ! D64   D(14,15,16,19)       -179.2895         estimate D2E/DX2                !
 ! D65   D(20,15,16,17)       -178.8431         estimate D2E/DX2                !
 ! D66   D(20,15,16,19)          1.2497         estimate D2E/DX2                !
 ! D67   D(14,15,20,58)        123.1009         estimate D2E/DX2                !
 ! D68   D(14,15,20,62)          2.2795         estimate D2E/DX2                !
 ! D69   D(14,15,20,66)       -118.1295         estimate D2E/DX2                !
 ! D70   D(16,15,20,58)        -57.463          estimate D2E/DX2                !
 ! D71   D(16,15,20,62)       -178.2844         estimate D2E/DX2                !
 ! D72   D(16,15,20,66)         61.3066         estimate D2E/DX2                !
 ! D73   D(15,16,17,12)          0.6298         estimate D2E/DX2                !
 ! D74   D(15,16,17,21)       -179.669          estimate D2E/DX2                !
 ! D75   D(19,16,17,12)       -179.464          estimate D2E/DX2                !
 ! D76   D(19,16,17,21)          0.2373         estimate D2E/DX2                !
 ! D77   D(12,17,21,46)        -59.6721         estimate D2E/DX2                !
 ! D78   D(12,17,21,50)       -178.8668         estimate D2E/DX2                !
 ! D79   D(12,17,21,54)         61.6174         estimate D2E/DX2                !
 ! D80   D(16,17,21,46)        120.6405         estimate D2E/DX2                !
 ! D81   D(16,17,21,50)          1.4458         estimate D2E/DX2                !
 ! D82   D(16,17,21,54)       -118.0699         estimate D2E/DX2                !
 ! D83   D(15,20,58,59)         59.2656         estimate D2E/DX2                !
 ! D84   D(15,20,58,60)        178.676          estimate D2E/DX2                !
 ! D85   D(15,20,58,61)        -61.9865         estimate D2E/DX2                !
 ! D86   D(62,20,58,59)       -177.6839         estimate D2E/DX2                !
 ! D87   D(62,20,58,60)        -58.2735         estimate D2E/DX2                !
 ! D88   D(62,20,58,61)         61.064          estimate D2E/DX2                !
 ! D89   D(66,20,58,59)        -58.8974         estimate D2E/DX2                !
 ! D90   D(66,20,58,60)         60.513          estimate D2E/DX2                !
 ! D91   D(66,20,58,61)        179.8504         estimate D2E/DX2                !
 ! D92   D(15,20,62,63)        -61.0955         estimate D2E/DX2                !
 ! D93   D(15,20,62,64)         60.6791         estimate D2E/DX2                !
 ! D94   D(15,20,62,65)        179.8592         estimate D2E/DX2                !
 ! D95   D(58,20,62,63)        177.9404         estimate D2E/DX2                !
 ! D96   D(58,20,62,64)        -60.285          estimate D2E/DX2                !
 ! D97   D(58,20,62,65)         58.8952         estimate D2E/DX2                !
 ! D98   D(66,20,62,63)         58.946          estimate D2E/DX2                !
 ! D99   D(66,20,62,64)       -179.2794         estimate D2E/DX2                !
 ! D100  D(66,20,62,65)        -60.0993         estimate D2E/DX2                !
 ! D101  D(15,20,66,67)       -178.4197         estimate D2E/DX2                !
 ! D102  D(15,20,66,68)        -58.871          estimate D2E/DX2                !
 ! D103  D(15,20,66,69)         62.2366         estimate D2E/DX2                !
 ! D104  D(58,20,66,67)        -59.7652         estimate D2E/DX2                !
 ! D105  D(58,20,66,68)         59.7836         estimate D2E/DX2                !
 ! D106  D(58,20,66,69)       -179.1089         estimate D2E/DX2                !
 ! D107  D(62,20,66,67)         58.9601         estimate D2E/DX2                !
 ! D108  D(62,20,66,68)        178.5088         estimate D2E/DX2                !
 ! D109  D(62,20,66,69)        -60.3837         estimate D2E/DX2                !
 ! D110  D(17,21,46,47)         62.0504         estimate D2E/DX2                !
 ! D111  D(17,21,46,48)       -178.1425         estimate D2E/DX2                !
 ! D112  D(17,21,46,49)        -59.3025         estimate D2E/DX2                !
 ! D113  D(50,21,46,47)       -176.8363         estimate D2E/DX2                !
 ! D114  D(50,21,46,48)        -57.0291         estimate D2E/DX2                !
 ! D115  D(50,21,46,49)         61.8109         estimate D2E/DX2                !
 ! D116  D(54,21,46,47)        -59.0177         estimate D2E/DX2                !
 ! D117  D(54,21,46,48)         60.7894         estimate D2E/DX2                !
 ! D118  D(54,21,46,49)        179.6294         estimate D2E/DX2                !
 ! D119  D(17,21,50,51)        179.0333         estimate D2E/DX2                !
 ! D120  D(17,21,50,52)        -61.7652         estimate D2E/DX2                !
 ! D121  D(17,21,50,53)         59.9924         estimate D2E/DX2                !
 ! D122  D(46,21,50,51)         58.6175         estimate D2E/DX2                !
 ! D123  D(46,21,50,52)        177.819          estimate D2E/DX2                !
 ! D124  D(46,21,50,53)        -60.4234         estimate D2E/DX2                !
 ! D125  D(54,21,50,51)        -60.4812         estimate D2E/DX2                !
 ! D126  D(54,21,50,52)         58.7203         estimate D2E/DX2                !
 ! D127  D(54,21,50,53)       -179.5221         estimate D2E/DX2                !
 ! D128  D(17,21,54,55)        -63.4531         estimate D2E/DX2                !
 ! D129  D(17,21,54,56)         57.646          estimate D2E/DX2                !
 ! D130  D(17,21,54,57)        176.6179         estimate D2E/DX2                !
 ! D131  D(46,21,54,55)         57.6779         estimate D2E/DX2                !
 ! D132  D(46,21,54,56)        178.777          estimate D2E/DX2                !
 ! D133  D(46,21,54,57)        -62.2511         estimate D2E/DX2                !
 ! D134  D(50,21,54,55)        175.3031         estimate D2E/DX2                !
 ! D135  D(50,21,54,56)        -63.5978         estimate D2E/DX2                !
 ! D136  D(50,21,54,57)         55.3741         estimate D2E/DX2                !
 ! D137  D(6,26,28,29)        -179.9764         estimate D2E/DX2                !
 ! D138  D(27,26,28,29)          0.0012         estimate D2E/DX2                !
 ! D139  D(26,28,29,30)        -66.8405         estimate D2E/DX2                !
 ! D140  D(26,28,29,31)         58.4164         estimate D2E/DX2                !
 ! D141  D(26,28,29,32)        176.0631         estimate D2E/DX2                !
 ! D142  D(28,29,30,33)       -176.3389         estimate D2E/DX2                !
 ! D143  D(28,29,30,34)         63.0975         estimate D2E/DX2                !
 ! D144  D(28,29,30,35)        -53.7407         estimate D2E/DX2                !
 ! D145  D(31,29,30,33)         57.0117         estimate D2E/DX2                !
 ! D146  D(31,29,30,34)        -63.5519         estimate D2E/DX2                !
 ! D147  D(31,29,30,35)        179.6098         estimate D2E/DX2                !
 ! D148  D(32,29,30,33)        -60.3454         estimate D2E/DX2                !
 ! D149  D(32,29,30,34)        179.091          estimate D2E/DX2                !
 ! D150  D(32,29,30,35)         62.2528         estimate D2E/DX2                !
 ! D151  D(28,29,31,36)        176.632          estimate D2E/DX2                !
 ! D152  D(28,29,31,37)        -63.2449         estimate D2E/DX2                !
 ! D153  D(28,29,31,38)         53.7316         estimate D2E/DX2                !
 ! D154  D(30,29,31,36)        -57.3259         estimate D2E/DX2                !
 ! D155  D(30,29,31,37)         62.7972         estimate D2E/DX2                !
 ! D156  D(30,29,31,38)        179.7737         estimate D2E/DX2                !
 ! D157  D(32,29,31,36)         60.046          estimate D2E/DX2                !
 ! D158  D(32,29,31,37)       -179.8308         estimate D2E/DX2                !
 ! D159  D(32,29,31,38)        -62.8544         estimate D2E/DX2                !
 ! D160  D(29,30,33,39)        -56.1549         estimate D2E/DX2                !
 ! D161  D(29,30,33,40)       -179.1596         estimate D2E/DX2                !
 ! D162  D(29,30,33,41)         64.2343         estimate D2E/DX2                !
 ! D163  D(34,30,33,39)         63.6404         estimate D2E/DX2                !
 ! D164  D(34,30,33,40)        -59.3643         estimate D2E/DX2                !
 ! D165  D(34,30,33,41)       -175.9705         estimate D2E/DX2                !
 ! D166  D(35,30,33,39)       -178.0567         estimate D2E/DX2                !
 ! D167  D(35,30,33,40)         58.9386         estimate D2E/DX2                !
 ! D168  D(35,30,33,41)        -57.6675         estimate D2E/DX2                !
 ! D169  D(29,31,36,39)         56.5818         estimate D2E/DX2                !
 ! D170  D(29,31,36,42)        179.1759         estimate D2E/DX2                !
 ! D171  D(29,31,36,43)        -64.0298         estimate D2E/DX2                !
 ! D172  D(37,31,36,39)        -63.4582         estimate D2E/DX2                !
 ! D173  D(37,31,36,42)         59.1358         estimate D2E/DX2                !
 ! D174  D(37,31,36,43)        175.9301         estimate D2E/DX2                !
 ! D175  D(38,31,36,39)        178.6084         estimate D2E/DX2                !
 ! D176  D(38,31,36,42)        -58.7976         estimate D2E/DX2                !
 ! D177  D(38,31,36,43)         57.9967         estimate D2E/DX2                !
 ! D178  D(30,33,39,36)         55.2341         estimate D2E/DX2                !
 ! D179  D(30,33,39,44)        177.9579         estimate D2E/DX2                !
 ! D180  D(30,33,39,45)        -64.9239         estimate D2E/DX2                !
 ! D181  D(40,33,39,36)        177.9636         estimate D2E/DX2                !
 ! D182  D(40,33,39,44)        -59.3125         estimate D2E/DX2                !
 ! D183  D(40,33,39,45)         57.8056         estimate D2E/DX2                !
 ! D184  D(41,33,39,36)        -64.9964         estimate D2E/DX2                !
 ! D185  D(41,33,39,44)         57.7274         estimate D2E/DX2                !
 ! D186  D(41,33,39,45)        174.8456         estimate D2E/DX2                !
 ! D187  D(31,36,39,33)        -55.3523         estimate D2E/DX2                !
 ! D188  D(31,36,39,44)       -178.0805         estimate D2E/DX2                !
 ! D189  D(31,36,39,45)         64.8577         estimate D2E/DX2                !
 ! D190  D(42,36,39,33)       -177.5204         estimate D2E/DX2                !
 ! D191  D(42,36,39,44)         59.7515         estimate D2E/DX2                !
 ! D192  D(42,36,39,45)        -57.3103         estimate D2E/DX2                !
 ! D193  D(43,36,39,33)         65.2072         estimate D2E/DX2                !
 ! D194  D(43,36,39,44)        -57.5209         estimate D2E/DX2                !
 ! D195  D(43,36,39,45)       -174.5828         estimate D2E/DX2                !
 --------------------------------------------------------------------------------
 Trust Radius=3.00D-01 FncErr=5.00D-06 GrdErr=5.00D-06 EigMax=2.50D+02 EigMin=1.00D-04
 Number of steps in this run=    409 maximum allowed number of steps=    414.
 GradGradGradGradGradGradGradGradGradGradGradGradGradGradGradGradGradGrad

 Leave Link  103 at Fri Dec 21 13:47:53 2018, MaxMem=  1342177280 cpu:               0.4 elap:               0.0
 (Enter /gpfs/apps/hpc/Apps/Restricted/Gaussian/Rev_A.03/g16/l202.exe)
 Symmetry turned off by external request.
 Stoichiometry    C28H37N3O(1+,2)
 Framework group  C1[X(C28H37N3O)]
 Deg. of freedom   201
 Full point group                 C1      NOp   1
                          Input orientation:                          
 ---------------------------------------------------------------------
 Center     Atomic      Atomic             Coordinates (Angstroms)
 Number     Number       Type             X           Y           Z
 ---------------------------------------------------------------------
      1          6           0       -0.439441    2.706703    0.233429
      2          6           0       -1.853314    2.850437    0.181342
      3          6           0       -2.429223    4.130564    0.090669
      4          6           0       -1.563892    5.212033    0.063517
      5          6           0       -0.157609    5.052288    0.121844
      6          6           0        0.445064    3.799182    0.207619
      7          6           0       -1.402764    0.722176    0.305223
      8          1           0       -3.503056    4.256816    0.044742
      9          1           0       -1.968005    6.214728   -0.002495
     10          1           0        0.472412    5.934038    0.100700
     11          7           0       -2.415291    1.603331    0.228753
     12          6           0       -2.999660   -1.174782    0.386022
     13          6           0       -1.621080   -0.695093    0.370605
     14          6           0       -0.574472   -1.613367    0.410634
     15          6           0       -0.831236   -2.980659    0.474548
     16          6           0       -2.191576   -3.420832    0.513393
     17          6           0       -3.279001   -2.583323    0.479814
     18          1           0        0.445102   -1.255692    0.389132
     19          1           0       -2.365055   -4.484460    0.574650
     20          6           0        0.269744   -4.027561    0.492350
     21          6           0       -4.717358   -3.103373    0.531329
     22          8           0       -3.988395   -0.329445    0.309978
     23          1           0       -3.605072    0.640664    0.257638
     24          7           0       -0.193802    1.365946    0.309545
     25          1           0        0.759372    1.012909    0.363180
     26          6           0        1.893314    3.609589    0.268671
     27          1           0        2.499643    4.519879    0.229715
     28          7           0        2.395099    2.434908    0.362522
     29          6           0        3.858517    2.306034    0.420638
     30          6           0        4.523203    2.728339   -0.900440
     31          6           0        4.480810    3.069439    1.601495
     32          1           0        4.060444    1.239343    0.569797
     33          6           0        6.037379    2.498305   -0.842432
     34          1           0        4.315106    3.791482   -1.070848
     35          1           0        4.076680    2.173458   -1.730850
     36          6           0        5.994022    2.833797    1.663342
     37          1           0        4.288385    4.141413    1.475239
     38          1           0        3.996305    2.762413    2.532837
     39          6           0        6.669577    3.231819    0.345654
     40          1           0        6.501619    2.815702   -1.780924
     41          1           0        6.229185    1.422392   -0.744122
     42          1           0        6.422638    3.395061    2.499224
     43          1           0        6.185814    1.772044    1.862457
     44          1           0        7.743455    3.026785    0.391677
     45          1           0        6.557759    4.313645    0.199764
     46          6           0       -5.445884   -2.513343    1.759572
     47          1           0       -5.512619   -1.427406    1.707427
     48          1           0       -6.459881   -2.919057    1.801484
     49          1           0       -4.930306   -2.789124    2.682992
     50          6           0       -4.745112   -4.634519    0.658228
     51          1           0       -5.784154   -4.965073    0.709197
     52          1           0       -4.278326   -5.125193   -0.199959
     53          1           0       -4.238951   -4.972112    1.566437
     54          6           0       -5.460754   -2.714384   -0.765987
     55          1           0       -5.548311   -1.633991   -0.873544
     56          1           0       -4.938012   -3.110791   -1.640012
     57          1           0       -6.466514   -3.141713   -0.745005
     58          6           0        0.115358   -4.900983    1.758249
     59          1           0       -0.853364   -5.403209    1.792657
     60          1           0        0.893261   -5.668726    1.758521
     61          1           0        0.224072   -4.298203    2.662548
     62          6           0        1.671196   -3.405295    0.488854
     63          1           0        1.842970   -2.805126   -0.407919
     64          1           0        1.833034   -2.775698    1.367242
     65          1           0        2.417223   -4.202627    0.504628
     66          6           0        0.113231   -4.917375   -0.763091
     67          1           0        0.882667   -5.693514   -0.748730
     68          1           0       -0.862455   -5.406439   -0.794666
     69          1           0        0.233549   -4.327985   -1.674798
 ---------------------------------------------------------------------
 Rotational constants (GHZ):           0.1858616           0.0709368           0.0536846
 Leave Link  202 at Fri Dec 21 13:47:53 2018, MaxMem=  1342177280 cpu:               0.9 elap:               0.1
 (Enter /gpfs/apps/hpc/Apps/Restricted/Gaussian/Rev_A.03/g16/l301.exe)
 Standard basis: 6-31G(d,p) (6D, 7F)
 Ernie: Thresh=  0.10000D-02 Tol=  0.10000D-05 Strict=F.
   665 basis functions,  1155 primitive gaussians,   665 cartesian basis functions
   117 alpha electrons      116 beta electrons
       nuclear repulsion energy      3168.0547107205 Hartrees.
 IExCor=  402 DFT=T Ex+Corr=B3LYP ExCW=0 ScaHFX=  0.200000
 ScaDFX=  0.800000  0.720000  1.000000  0.810000 ScalE2=  1.000000  1.000000
 IRadAn=      5 IRanWt=     -1 IRanGd=            0 ICorTp=0 IEmpDi=141
 NAtoms=   69 NActive=   69 NUniq=   69 SFac= 1.00D+00 NAtFMM=   60 NAOKFM=T Big=T
 Integral buffers will be    131072 words long.
 Raffenetti 2 integral format.
 Two-electron integral symmetry is turned off.
 R6Disp:  Grimme-D3(BJ) Dispersion energy=       -0.1503653151 Hartrees.
 Nuclear repulsion after empirical dispersion term =     3167.9043454054 Hartrees.
 Using the following non-standard input for PCM:
 radii=bondi
 dis
 rep
 cav
 --- end of non-standard input.
 ------------------------------------------------------------------------------
 Polarizable Continuum Model (PCM)
 =================================
 Model                : C-PCM.
 Atomic radii         : Bondi.
 Polarization charges : Total charges.
 Charge compensation  : None.
 Solution method      : On-the-fly selection.
 Cavity type          : Scaled VdW (van der Waals Surface) (Alpha=1.100).
 Cavity algorithm     : GePol (No added spheres)
                        Default sphere list used, NSphG=   69.
                        Lebedev-Laikov grids with approx.  5.0 points / Ang**2.
                        Smoothing algorithm: York/Karplus (Gamma=1.0000).
                        Polarization charges: spherical gaussians, with
                                              point-specific exponents (IZeta= 3).
                        Self-potential: point-specific (ISelfS= 7).
                        Self-field    : sphere-specific E.n sum rule (ISelfD= 2).
 1st derivatives      : Analytical E(r).r(x)/FMM algorithm (CHGder, D1EAlg=3).
                        Cavity 1st derivative terms included.
 Solvent              : Dichloromethane, Eps=   8.930000 Eps(inf)=   2.028346
 ------------------------------------------------------------------------------
 GePol: Number of generator spheres                  =      69
 GePol: Total number of spheres                      =      69
 GePol: Number of exposed spheres                    =      69 (100.00%)
 GePol: Number of points                             =    4315
 GePol: Average weight of points                     =       0.12
 GePol: Minimum weight of points                     =   0.57D-11
 GePol: Maximum weight of points                     =    0.21770
 GePol: Number of points with low weight             =     309
 GePol: Fraction of low-weight points (<1% of avg)   =       7.16%
 GePol: Cavity surface area                          =    517.424 Ang**2
 GePol: Cavity volume                                =    500.051 Ang**3
 PCM non-electrostatic energy =         0.0251173045 Hartrees.
 Nuclear repulsion after PCM non-electrostatic terms =     3167.9294627099 Hartrees.
 Leave Link  301 at Fri Dec 21 13:47:53 2018, MaxMem=  1342177280 cpu:               4.3 elap:               0.3
 (Enter /gpfs/apps/hpc/Apps/Restricted/Gaussian/Rev_A.03/g16/l302.exe)
 NPDir=0 NMtPBC=     1 NCelOv=     1 NCel=       1 NClECP=     1 NCelD=      1
         NCelK=      1 NCelE2=     1 NClLst=     1 CellRange=     0.0.
 One-electron integrals computed using PRISM.
 NBasis=   665 RedAO= T EigKep=  3.00D-04  NBF=   665
 NBsUse=   665 1.00D-06 EigRej= -1.00D+00 NBFU=   665
 Precomputing XC quadrature grid using
 IXCGrd= 4 IRadAn=           5 IRanWt=          -1 IRanGd=           0 AccXCQ= 0.00D+00.
 Generated NRdTot=       0 NPtTot=           0 NUsed=           0 NTot=          32
 NSgBfM=   647   647   647   647   647 MxSgAt=    69 MxSgA2=    69.
 Leave Link  302 at Fri Dec 21 13:47:55 2018, MaxMem=  1342177280 cpu:              23.6 elap:               1.5
 (Enter /gpfs/apps/hpc/Apps/Restricted/Gaussian/Rev_A.03/g16/l303.exe)
 DipDrv:  MaxL=1.
 Leave Link  303 at Fri Dec 21 13:47:55 2018, MaxMem=  1342177280 cpu:               1.6 elap:               0.2
 (Enter /gpfs/apps/hpc/Apps/Restricted/Gaussian/Rev_A.03/g16/l401.exe)
 ExpMin= 1.61D-01 ExpMax= 5.48D+03 ExpMxC= 8.25D+02 IAcc=3 IRadAn=         5 AccDes= 0.00D+00
 Harris functional with IExCor=  402 and IRadAn=       5 diagonalized for initial guess.
 HarFok:  IExCor=  402 AccDes= 0.00D+00 IRadAn=         5 IDoV= 1 UseB2=F ITyADJ=14
 ICtDFT=  3500011 ScaDFX=  1.000000  1.000000  1.000000  1.000000
 FoFCou: FMM=F IPFlag=           0 FMFlag=      100000 FMFlg1=        2001
         NFxFlg=           0 DoJE=T BraDBF=F KetDBF=T FulRan=T
         wScrn=  0.000000 ICntrl=       500 IOpCl=  0 I1Cent=   200000004 NGrid=           0
         NMat0=    1 NMatS0=      1 NMatT0=    0 NMatD0=    1 NMtDS0=    0 NMtDT0=    0
 Symmetry not used in FoFCou.
 Harris En= -1328.76959130701    
 JPrj=0 DoOrth=F DoCkMO=F.
 Initial guess <Sx>= 0.0000 <Sy>= 0.0000 <Sz>= 0.5000 <S**2>= 0.7500 S= 0.5000
 Leave Link  401 at Fri Dec 21 13:48:01 2018, MaxMem=  1342177280 cpu:              91.8 elap:               5.8
 (Enter /gpfs/apps/hpc/Apps/Restricted/Gaussian/Rev_A.03/g16/l502.exe)
 Two-electron integral symmetry not used.
 UHF open shell SCF:
 Using DIIS extrapolation, IDIIS=  1040.
 NGot=  1342177280 LenX=  1341276554 LenY=  1340833664
 Requested convergence on RMS density matrix=1.00D-08 within 128 cycles.
 Requested convergence on MAX density matrix=1.00D-06.
 Requested convergence on             energy=1.00D-06.
 No special actions if energy rises.
 Fock matrices will be formed incrementally for  20 cycles.

 Cycle   1  Pass 1  IDiag  1:
 FoFJK:  IHMeth= 1 ICntrl=       0 DoSepK=F KAlg= 0 I1Cent=           0 FoldK=F
 IRaf= 760000000 NMat=       1 IRICut=       1 DoRegI=T DoRafI=F ISym2E= 0 IDoP0=0 IntGTp=1.
 FoFCou: FMM=T IPFlag=           0 FMFlag=      100000 FMFlg1=        2001
         NFxFlg=           0 DoJE=F BraDBF=F KetDBF=F FulRan=T
         wScrn=  0.000000 ICntrl=         0 IOpCl=  1 I1Cent=           0 NGrid=           0
         NMat0=    1 NMatS0=      1 NMatT0=    0 NMatD0=    1 NMtDS0=    0 NMtDT0=    0
 Symmetry not used in FoFCou.
 FMM levels:  10  Number of levels for PrismC:   9
 Inv3:  Mode=1 IEnd=    55857675.
 Iteration    1 A*A^-1 deviation from unit magnitude is 9.10D-15 for   3239.
 Iteration    1 A*A^-1 deviation from orthogonality  is 4.27D-15 for   4297   1973.
 Iteration    1 A^-1*A deviation from unit magnitude is 9.10D-15 for   3239.
 Iteration    1 A^-1*A deviation from orthogonality  is 4.19D-15 for   4294   4178.
 E= -1327.99008341512    
 DIIS: error= 2.86D-02 at cycle   1 NSaved=   1.
 NSaved= 1 IEnMin= 1 EnMin= -1327.99008341512     IErMin= 1 ErrMin= 2.86D-02
 ErrMax= 2.86D-02  0.00D+00 EMaxC= 1.00D-01 BMatC= 3.06D+00 BMatP= 3.06D+00
 IDIUse=3 WtCom= 7.14D-01 WtEn= 2.86D-01
 Coeff-Com:  0.100D+01
 Coeff-En:   0.100D+01
 Coeff:      0.100D+01
 Gap=     0.171 Goal=   None    Shift=    0.000
 Gap=     0.046 Goal=   None    Shift=    0.000
 GapD=    0.046 DampG=0.250 DampE=0.500 DampFc=0.2500 IDamp=-1.
 Damping current iteration by 2.50D-01
 RMSDP=3.12D-03 MaxDP=1.37D-01              OVMax= 3.00D-01

 Cycle   2  Pass 1  IDiag  1:
 RMSU=  7.58D-04    CP:  9.84D-01
 E= -1328.28284497264     Delta-E=       -0.292761557527 Rises=F Damp=T
 DIIS: error= 1.54D-02 at cycle   2 NSaved=   2.
 NSaved= 2 IEnMin= 2 EnMin= -1328.28284497264     IErMin= 2 ErrMin= 1.54D-02
 ErrMax= 1.54D-02  0.00D+00 EMaxC= 1.00D-01 BMatC= 8.04D-01 BMatP= 3.06D+00
 IDIUse=3 WtCom= 8.46D-01 WtEn= 1.54D-01
 Coeff-Com: -0.852D+00 0.185D+01
 Coeff-En:   0.000D+00 0.100D+01
 Coeff:     -0.721D+00 0.172D+01
 Gap=     0.218 Goal=   None    Shift=    0.000
 Gap=     0.083 Goal=   None    Shift=    0.000
 RMSDP=1.16D-03 MaxDP=7.16D-02 DE=-2.93D-01 OVMax= 2.77D-01

 Cycle   3  Pass 1  IDiag  1:
 RMSU=  8.15D-04    CP:  9.55D-01  1.98D+00
 E= -1328.77582773552     Delta-E=       -0.492982762880 Rises=F Damp=F
 DIIS: error= 4.54D-03 at cycle   3 NSaved=   3.
 NSaved= 3 IEnMin= 3 EnMin= -1328.77582773552     IErMin= 3 ErrMin= 4.54D-03
 ErrMax= 4.54D-03  0.00D+00 EMaxC= 1.00D-01 BMatC= 9.06D-02 BMatP= 8.04D-01
 IDIUse=3 WtCom= 9.55D-01 WtEn= 4.54D-02
 Coeff-Com: -0.311D+00 0.686D+00 0.625D+00
 Coeff-En:   0.000D+00 0.000D+00 0.100D+01
 Coeff:     -0.297D+00 0.655D+00 0.642D+00
 Gap=     0.156 Goal=   None    Shift=    0.000
 Gap=     0.057 Goal=   None    Shift=    0.000
 RMSDP=4.04D-04 MaxDP=3.72D-02 DE=-4.93D-01 OVMax= 1.26D-01

 Cycle   4  Pass 1  IDiag  1:
 RMSU=  3.23D-04    CP:  9.58D-01  2.01D+00  7.08D-01
 E= -1328.79042452267     Delta-E=       -0.014596787144 Rises=F Damp=F
 DIIS: error= 3.77D-03 at cycle   4 NSaved=   4.
 NSaved= 4 IEnMin= 4 EnMin= -1328.79042452267     IErMin= 4 ErrMin= 3.77D-03
 ErrMax= 3.77D-03  0.00D+00 EMaxC= 1.00D-01 BMatC= 3.99D-02 BMatP= 9.06D-02
 IDIUse=3 WtCom= 9.62D-01 WtEn= 3.77D-02
 Coeff-Com: -0.465D-01 0.116D+00 0.395D+00 0.535D+00
 Coeff-En:   0.000D+00 0.000D+00 0.307D+00 0.693D+00
 Coeff:     -0.447D-01 0.112D+00 0.392D+00 0.541D+00
 Gap=     0.157 Goal=   None    Shift=    0.000
 Gap=     0.059 Goal=   None    Shift=    0.000
 RMSDP=1.77D-04 MaxDP=1.77D-02 DE=-1.46D-02 OVMax= 3.49D-02

 Cycle   5  Pass 1  IDiag  1:
 RMSU=  9.63D-05    CP:  9.57D-01  1.98D+00  7.98D-01  6.08D-01
 E= -1328.80005002099     Delta-E=       -0.009625498325 Rises=F Damp=F
 DIIS: error= 7.83D-04 at cycle   5 NSaved=   5.
 NSaved= 5 IEnMin= 5 EnMin= -1328.80005002099     IErMin= 5 ErrMin= 7.83D-04
 ErrMax= 7.83D-04  0.00D+00 EMaxC= 1.00D-01 BMatC= 2.51D-03 BMatP= 3.99D-02
 IDIUse=3 WtCom= 9.92D-01 WtEn= 7.83D-03
 Coeff-Com:  0.284D-02 0.144D-02 0.155D+00 0.282D+00 0.559D+00
 Coeff-En:   0.000D+00 0.000D+00 0.000D+00 0.000D+00 0.100D+01
 Coeff:      0.282D-02 0.143D-02 0.154D+00 0.279D+00 0.563D+00
 Gap=     0.156 Goal=   None    Shift=    0.000
 Gap=     0.060 Goal=   None    Shift=    0.000
 RMSDP=5.21D-05 MaxDP=5.97D-03 DE=-9.63D-03 OVMax= 1.70D-02

 Cycle   6  Pass 1  IDiag  1:
 RMSU=  3.53D-05    CP:  9.57D-01  1.98D+00  8.06D-01  6.55D-01  6.41D-01
 E= -1328.80066261768     Delta-E=       -0.000612596689 Rises=F Damp=F
 DIIS: error= 1.91D-04 at cycle   6 NSaved=   6.
 NSaved= 6 IEnMin= 6 EnMin= -1328.80066261768     IErMin= 6 ErrMin= 1.91D-04
 ErrMax= 1.91D-04  0.00D+00 EMaxC= 1.00D-01 BMatC= 2.32D-04 BMatP= 2.51D-03
 IDIUse=3 WtCom= 9.98D-01 WtEn= 1.91D-03
 Coeff-Com:  0.498D-02-0.778D-02 0.483D-01 0.948D-01 0.291D+00 0.569D+00
 Coeff-En:   0.000D+00 0.000D+00 0.000D+00 0.000D+00 0.000D+00 0.100D+01
 Coeff:      0.497D-02-0.777D-02 0.482D-01 0.946D-01 0.290D+00 0.570D+00
 Gap=     0.156 Goal=   None    Shift=    0.000
 Gap=     0.060 Goal=   None    Shift=    0.000
 RMSDP=1.68D-05 MaxDP=1.75D-03 DE=-6.13D-04 OVMax= 5.53D-03

 Cycle   7  Pass 1  IDiag  1:
 RMSU=  1.46D-05    CP:  9.57D-01  1.98D+00  8.06D-01  6.60D-01  7.25D-01
                    CP:  9.72D-01
 E= -1328.80073365040     Delta-E=       -0.000071032721 Rises=F Damp=F
 DIIS: error= 1.59D-04 at cycle   7 NSaved=   7.
 NSaved= 7 IEnMin= 7 EnMin= -1328.80073365040     IErMin= 7 ErrMin= 1.59D-04
 ErrMax= 1.59D-04  0.00D+00 EMaxC= 1.00D-01 BMatC= 4.49D-05 BMatP= 2.32D-04
 IDIUse=3 WtCom= 9.98D-01 WtEn= 1.59D-03
 Coeff-Com:  0.223D-02-0.439D-02-0.147D-02-0.402D-02 0.583D-01 0.290D+00
 Coeff-Com:  0.659D+00
 Coeff-En:   0.000D+00 0.000D+00 0.000D+00 0.000D+00 0.000D+00 0.000D+00
 Coeff-En:   0.100D+01
 Coeff:      0.223D-02-0.438D-02-0.147D-02-0.401D-02 0.582D-01 0.290D+00
 Coeff:      0.660D+00
 Gap=     0.156 Goal=   None    Shift=    0.000
 Gap=     0.060 Goal=   None    Shift=    0.000
 RMSDP=1.17D-05 MaxDP=1.12D-03 DE=-7.10D-05 OVMax= 7.29D-03

 Cycle   8  Pass 1  IDiag  1:
 RMSU=  7.83D-06    CP:  9.57D-01  1.98D+00  8.07D-01  6.67D-01  7.58D-01
                    CP:  1.19D+00  1.03D+00
 E= -1328.80076061393     Delta-E=       -0.000026963523 Rises=F Damp=F
 DIIS: error= 1.01D-04 at cycle   8 NSaved=   8.
 NSaved= 8 IEnMin= 8 EnMin= -1328.80076061393     IErMin= 8 ErrMin= 1.01D-04
 ErrMax= 1.01D-04  0.00D+00 EMaxC= 1.00D-01 BMatC= 1.45D-05 BMatP= 4.49D-05
 IDIUse=3 WtCom= 9.99D-01 WtEn= 1.01D-03
 Coeff-Com: -0.652D-03 0.817D-03-0.173D-01-0.395D-01-0.756D-01-0.940D-01
 Coeff-Com:  0.326D+00 0.900D+00
 Coeff-En:   0.000D+00 0.000D+00 0.000D+00 0.000D+00 0.000D+00 0.000D+00
 Coeff-En:   0.000D+00 0.100D+01
 Coeff:     -0.651D-03 0.816D-03-0.173D-01-0.395D-01-0.755D-01-0.939D-01
 Coeff:      0.326D+00 0.900D+00
 Gap=     0.156 Goal=   None    Shift=    0.000
 Gap=     0.061 Goal=   None    Shift=    0.000
 RMSDP=1.13D-05 MaxDP=1.32D-03 DE=-2.70D-05 OVMax= 7.92D-03

 Cycle   9  Pass 1  IDiag  1:
 RMSU=  4.13D-06    CP:  9.57D-01  1.98D+00  8.07D-01  6.74D-01  7.94D-01
                    CP:  1.39D+00  1.47D+00  1.31D+00
 E= -1328.80077603634     Delta-E=       -0.000015422416 Rises=F Damp=F
 DIIS: error= 4.07D-05 at cycle   9 NSaved=   9.
 NSaved= 9 IEnMin= 9 EnMin= -1328.80077603634     IErMin= 9 ErrMin= 4.07D-05
 ErrMax= 4.07D-05  0.00D+00 EMaxC= 1.00D-01 BMatC= 5.80D-06 BMatP= 1.45D-05
 IDIUse=1 WtCom= 1.00D+00 WtEn= 0.00D+00
 Coeff-Com: -0.747D-03 0.131D-02-0.990D-02-0.237D-01-0.621D-01-0.150D+00
 Coeff-Com: -0.471D-02 0.563D+00 0.687D+00
 Coeff:     -0.747D-03 0.131D-02-0.990D-02-0.237D-01-0.621D-01-0.150D+00
 Coeff:     -0.471D-02 0.563D+00 0.687D+00
 Gap=     0.156 Goal=   None    Shift=    0.000
 Gap=     0.061 Goal=   None    Shift=    0.000
 RMSDP=6.26D-06 MaxDP=7.02D-04 DE=-1.54D-05 OVMax= 4.32D-03

 Cycle  10  Pass 1  IDiag  1:
 RMSU=  2.17D-06    CP:  9.57D-01  1.98D+00  8.07D-01  6.76D-01  8.11D-01
                    CP:  1.50D+00  1.67D+00  1.65D+00  1.03D+00
 E= -1328.80078083356     Delta-E=       -0.000004797213 Rises=F Damp=F
 DIIS: error= 2.47D-05 at cycle  10 NSaved=  10.
 NSaved=10 IEnMin=10 EnMin= -1328.80078083356     IErMin=10 ErrMin= 2.47D-05
 ErrMax= 2.47D-05  0.00D+00 EMaxC= 1.00D-01 BMatC= 1.05D-06 BMatP= 5.80D-06
 IDIUse=1 WtCom= 1.00D+00 WtEn= 0.00D+00
 Coeff-Com: -0.564D-04 0.234D-03 0.373D-03-0.496D-03-0.694D-02-0.418D-01
 Coeff-Com: -0.888D-01 0.385D-01 0.302D+00 0.797D+00
 Coeff:     -0.564D-04 0.234D-03 0.373D-03-0.496D-03-0.694D-02-0.418D-01
 Coeff:     -0.888D-01 0.385D-01 0.302D+00 0.797D+00
 Gap=     0.156 Goal=   None    Shift=    0.000
 Gap=     0.061 Goal=   None    Shift=    0.000
 RMSDP=3.08D-06 MaxDP=3.81D-04 DE=-4.80D-06 OVMax= 2.07D-03

 Cycle  11  Pass 1  IDiag  1:
 RMSU=  1.21D-06    CP:  9.57D-01  1.98D+00  8.07D-01  6.77D-01  8.17D-01
                    CP:  1.55D+00  1.75D+00  1.82D+00  1.30D+00  1.20D+00
 E= -1328.80078199520     Delta-E=       -0.000001161643 Rises=F Damp=F
 DIIS: error= 1.48D-05 at cycle  11 NSaved=  11.
 NSaved=11 IEnMin=11 EnMin= -1328.80078199520     IErMin=11 ErrMin= 1.48D-05
 ErrMax= 1.48D-05  0.00D+00 EMaxC= 1.00D-01 BMatC= 4.10D-07 BMatP= 1.05D-06
 IDIUse=1 WtCom= 1.00D+00 WtEn= 0.00D+00
 Coeff-Com:  0.221D-03-0.292D-03 0.374D-02 0.781D-02 0.179D-01 0.284D-01
 Coeff-Com: -0.528D-01-0.168D+00-0.663D-01 0.448D+00 0.781D+00
 Coeff:      0.221D-03-0.292D-03 0.374D-02 0.781D-02 0.179D-01 0.284D-01
 Coeff:     -0.528D-01-0.168D+00-0.663D-01 0.448D+00 0.781D+00
 Gap=     0.156 Goal=   None    Shift=    0.000
 Gap=     0.060 Goal=   None    Shift=    0.000
 RMSDP=1.93D-06 MaxDP=3.23D-04 DE=-1.16D-06 OVMax= 1.23D-03

 Cycle  12  Pass 1  IDiag  1:
 RMSU=  5.97D-07    CP:  9.57D-01  1.98D+00  8.07D-01  6.78D-01  8.20D-01
                    CP:  1.57D+00  1.81D+00  1.93D+00  1.47D+00  1.62D+00
                    CP:  1.08D+00
 E= -1328.80078243302     Delta-E=       -0.000000437824 Rises=F Damp=F
 DIIS: error= 6.18D-06 at cycle  12 NSaved=  12.
 NSaved=12 IEnMin=12 EnMin= -1328.80078243302     IErMin=12 ErrMin= 6.18D-06
 ErrMax= 6.18D-06  0.00D+00 EMaxC= 1.00D-01 BMatC= 8.46D-08 BMatP= 4.10D-07
 IDIUse=1 WtCom= 1.00D+00 WtEn= 0.00D+00
 Coeff-Com:  0.938D-04-0.184D-03 0.941D-03 0.224D-02 0.752D-02 0.218D-01
 Coeff-Com:  0.766D-02-0.568D-01-0.110D+00-0.136D+00 0.277D+00 0.986D+00
 Coeff:      0.938D-04-0.184D-03 0.941D-03 0.224D-02 0.752D-02 0.218D-01
 Coeff:      0.766D-02-0.568D-01-0.110D+00-0.136D+00 0.277D+00 0.986D+00
 Gap=     0.156 Goal=   None    Shift=    0.000
 Gap=     0.060 Goal=   None    Shift=    0.000
 RMSDP=1.11D-06 MaxDP=1.66D-04 DE=-4.38D-07 OVMax= 6.27D-04

 Cycle  13  Pass 1  IDiag  1:
 RMSU=  2.99D-07    CP:  9.57D-01  1.98D+00  8.07D-01  6.79D-01  8.21D-01
                    CP:  1.58D+00  1.83D+00  1.98D+00  1.58D+00  1.84D+00
                    CP:  1.46D+00  1.21D+00
 E= -1328.80078253949     Delta-E=       -0.000000106469 Rises=F Damp=F
 DIIS: error= 3.16D-06 at cycle  13 NSaved=  13.
 NSaved=13 IEnMin=13 EnMin= -1328.80078253949     IErMin=13 ErrMin= 3.16D-06
 ErrMax= 3.16D-06  0.00D+00 EMaxC= 1.00D-01 BMatC= 2.45D-08 BMatP= 8.46D-08
 IDIUse=1 WtCom= 1.00D+00 WtEn= 0.00D+00
 Coeff-Com:  0.848D-05-0.413D-04-0.805D-04-0.899D-04 0.121D-02 0.759D-02
 Coeff-Com:  0.125D-01-0.385D-03-0.476D-01-0.151D+00 0.392D-01 0.520D+00
 Coeff-Com:  0.618D+00
 Coeff:      0.848D-05-0.413D-04-0.805D-04-0.899D-04 0.121D-02 0.759D-02
 Coeff:      0.125D-01-0.385D-03-0.476D-01-0.151D+00 0.392D-01 0.520D+00
 Coeff:      0.618D+00
 Gap=     0.156 Goal=   None    Shift=    0.000
 Gap=     0.060 Goal=   None    Shift=    0.000
 RMSDP=2.84D-07 MaxDP=5.02D-05 DE=-1.06D-07 OVMax= 1.21D-04

 Cycle  14  Pass 1  IDiag  1:
 RMSU=  1.60D-07    CP:  9.57D-01  1.98D+00  8.07D-01  6.79D-01  8.21D-01
                    CP:  1.58D+00  1.83D+00  1.98D+00  1.60D+00  1.89D+00
                    CP:  1.52D+00  1.43D+00  8.93D-01
 E= -1328.80078255282     Delta-E=       -0.000000013322 Rises=F Damp=F
 DIIS: error= 2.48D-06 at cycle  14 NSaved=  14.
 NSaved=14 IEnMin=14 EnMin= -1328.80078255282     IErMin=14 ErrMin= 2.48D-06
 ErrMax= 2.48D-06  0.00D+00 EMaxC= 1.00D-01 BMatC= 7.90D-09 BMatP= 2.45D-08
 IDIUse=1 WtCom= 1.00D+00 WtEn= 0.00D+00
 Coeff-Com: -0.251D-04 0.351D-04-0.343D-03-0.770D-03-0.166D-02-0.216D-02
 Coeff-Com:  0.376D-02 0.174D-01 0.525D-02-0.525D-01-0.568D-01-0.104D-01
 Coeff-Com:  0.380D+00 0.718D+00
 Coeff:     -0.251D-04 0.351D-04-0.343D-03-0.770D-03-0.166D-02-0.216D-02
 Coeff:      0.376D-02 0.174D-01 0.525D-02-0.525D-01-0.568D-01-0.104D-01
 Coeff:      0.380D+00 0.718D+00
 Gap=     0.156 Goal=   None    Shift=    0.000
 Gap=     0.060 Goal=   None    Shift=    0.000
 RMSDP=1.96D-07 MaxDP=2.64D-05 DE=-1.33D-08 OVMax= 9.40D-05

 Cycle  15  Pass 1  IDiag  1:
 RMSU=  6.74D-08    CP:  9.57D-01  1.98D+00  8.07D-01  6.79D-01  8.22D-01
                    CP:  1.58D+00  1.84D+00  1.99D+00  1.61D+00  1.92D+00
                    CP:  1.58D+00  1.53D+00  1.17D+00  9.71D-01
 E= -1328.80078255786     Delta-E=       -0.000000005041 Rises=F Damp=F
 DIIS: error= 7.80D-07 at cycle  15 NSaved=  15.
 NSaved=15 IEnMin=15 EnMin= -1328.80078255786     IErMin=15 ErrMin= 7.80D-07
 ErrMax= 7.80D-07  0.00D+00 EMaxC= 1.00D-01 BMatC= 1.03D-09 BMatP= 7.90D-09
 IDIUse=1 WtCom= 1.00D+00 WtEn= 0.00D+00
 Coeff-Com: -0.108D-04 0.205D-04-0.140D-03-0.350D-03-0.101D-02-0.231D-02
 Coeff-Com: -0.820D-03 0.841D-02 0.117D-01 0.430D-02-0.273D-01-0.103D+00
 Coeff-Com:  0.547D-01 0.290D+00 0.766D+00
 Coeff:     -0.108D-04 0.205D-04-0.140D-03-0.350D-03-0.101D-02-0.231D-02
 Coeff:     -0.820D-03 0.841D-02 0.117D-01 0.430D-02-0.273D-01-0.103D+00
 Coeff:      0.547D-01 0.290D+00 0.766D+00
 Gap=     0.156 Goal=   None    Shift=    0.000
 Gap=     0.060 Goal=   None    Shift=    0.000
 RMSDP=7.14D-08 MaxDP=1.10D-05 DE=-5.04D-09 OVMax= 2.83D-05

 Cycle  16  Pass 1  IDiag  1:
 RMSU=  3.72D-08    CP:  9.57D-01  1.98D+00  8.07D-01  6.79D-01  8.22D-01
                    CP:  1.58D+00  1.84D+00  1.99D+00  1.61D+00  1.93D+00
                    CP:  1.60D+00  1.57D+00  1.28D+00  1.16D+00  1.08D+00
 E= -1328.80078255865     Delta-E=       -0.000000000796 Rises=F Damp=F
 DIIS: error= 4.43D-07 at cycle  16 NSaved=  16.
 NSaved=16 IEnMin=16 EnMin= -1328.80078255865     IErMin=16 ErrMin= 4.43D-07
 ErrMax= 4.43D-07  0.00D+00 EMaxC= 1.00D-01 BMatC= 4.80D-10 BMatP= 1.03D-09
 IDIUse=1 WtCom= 1.00D+00 WtEn= 0.00D+00
 Coeff-Com:  0.708D-05-0.701D-05 0.657D-04 0.120D-03 0.123D-03-0.296D-03
 Coeff-Com: -0.208D-02-0.243D-02 0.426D-02 0.214D-01 0.778D-02-0.550D-01
 Coeff-Com: -0.117D+00-0.125D+00 0.472D+00 0.796D+00
 Coeff:      0.708D-05-0.701D-05 0.657D-04 0.120D-03 0.123D-03-0.296D-03
 Coeff:     -0.208D-02-0.243D-02 0.426D-02 0.214D-01 0.778D-02-0.550D-01
 Coeff:     -0.117D+00-0.125D+00 0.472D+00 0.796D+00
 Gap=     0.156 Goal=   None    Shift=    0.000
 Gap=     0.060 Goal=   None    Shift=    0.000
 RMSDP=5.44D-08 MaxDP=5.51D-06 DE=-7.96D-10 OVMax= 2.42D-05

 Cycle  17  Pass 1  IDiag  1:
 RMSU=  1.54D-08    CP:  9.57D-01  1.98D+00  8.07D-01  6.79D-01  8.22D-01
                    CP:  1.58D+00  1.84D+00  1.99D+00  1.61D+00  1.93D+00
                    CP:  1.61D+00  1.59D+00  1.35D+00  1.28D+00  1.46D+00
                    CP:  1.01D+00
 E= -1328.80078255905     Delta-E=       -0.000000000396 Rises=F Damp=F
 DIIS: error= 1.27D-07 at cycle  17 NSaved=  17.
 NSaved=17 IEnMin=17 EnMin= -1328.80078255905     IErMin=17 ErrMin= 1.27D-07
 ErrMax= 1.27D-07  0.00D+00 EMaxC= 1.00D-01 BMatC= 3.02D-11 BMatP= 4.80D-10
 IDIUse=1 WtCom= 1.00D+00 WtEn= 0.00D+00
 Coeff-Com:  0.346D-05-0.469D-05 0.318D-04 0.662D-04 0.138D-03 0.208D-03
 Coeff-Com: -0.432D-03-0.153D-02-0.249D-03 0.437D-02 0.499D-02-0.590D-03
 Coeff-Com: -0.379D-01-0.660D-01 0.360D-01 0.173D+00 0.888D+00
 Coeff:      0.346D-05-0.469D-05 0.318D-04 0.662D-04 0.138D-03 0.208D-03
 Coeff:     -0.432D-03-0.153D-02-0.249D-03 0.437D-02 0.499D-02-0.590D-03
 Coeff:     -0.379D-01-0.660D-01 0.360D-01 0.173D+00 0.888D+00
 Gap=     0.156 Goal=   None    Shift=    0.000
 Gap=     0.060 Goal=   None    Shift=    0.000
 RMSDP=1.67D-08 MaxDP=1.94D-06 DE=-3.96D-10 OVMax= 6.51D-06

 Cycle  18  Pass 1  IDiag  1:
 RMSU=  7.62D-09    CP:  9.57D-01  1.98D+00  8.07D-01  6.79D-01  8.22D-01
                    CP:  1.59D+00  1.84D+00  1.99D+00  1.61D+00  1.93D+00
                    CP:  1.61D+00  1.60D+00  1.36D+00  1.31D+00  1.55D+00
                    CP:  1.17D+00  1.20D+00
 E= -1328.80078255898     Delta-E=        0.000000000065 Rises=F Damp=F
 DIIS: error= 7.55D-08 at cycle  18 NSaved=  18.
 NSaved=18 IEnMin=17 EnMin= -1328.80078255905     IErMin=18 ErrMin= 7.55D-08
 ErrMax= 7.55D-08  0.00D+00 EMaxC= 1.00D-01 BMatC= 1.78D-11 BMatP= 3.02D-11
 IDIUse=1 WtCom= 1.00D+00 WtEn= 0.00D+00
 Coeff-Com:  0.624D-06-0.148D-05 0.437D-05 0.117D-04 0.586D-04 0.212D-03
 Coeff-Com:  0.261D-03-0.301D-03-0.124D-02-0.280D-02 0.948D-03 0.139D-01
 Coeff-Com:  0.684D-02-0.581D-02-0.963D-01-0.108D+00 0.515D+00 0.677D+00
 Coeff:      0.624D-06-0.148D-05 0.437D-05 0.117D-04 0.586D-04 0.212D-03
 Coeff:      0.261D-03-0.301D-03-0.124D-02-0.280D-02 0.948D-03 0.139D-01
 Coeff:      0.684D-02-0.581D-02-0.963D-01-0.108D+00 0.515D+00 0.677D+00
 Gap=     0.156 Goal=   None    Shift=    0.000
 Gap=     0.060 Goal=   None    Shift=    0.000
 RMSDP=7.76D-09 MaxDP=1.14D-06 DE= 6.55D-11 OVMax= 2.67D-06

 Cycle  19  Pass 1  IDiag  1:
 RMSU=  3.88D-09    CP:  9.57D-01  1.98D+00  8.07D-01  6.79D-01  8.22D-01
                    CP:  1.59D+00  1.84D+00  1.99D+00  1.61D+00  1.93D+00
                    CP:  1.61D+00  1.60D+00  1.37D+00  1.33D+00  1.59D+00
                    CP:  1.23D+00  1.47D+00  9.97D-01
 E= -1328.80078255910     Delta-E=       -0.000000000121 Rises=F Damp=F
 DIIS: error= 3.41D-08 at cycle  19 NSaved=  19.
 NSaved=19 IEnMin=19 EnMin= -1328.80078255910     IErMin=19 ErrMin= 3.41D-08
 ErrMax= 3.41D-08  0.00D+00 EMaxC= 1.00D-01 BMatC= 2.78D-12 BMatP= 1.78D-11
[...]
   D155       1.09602   0.00000  -0.00000  -0.00000  -0.00000   1.09602
   D156       3.13764   0.00000  -0.00000  -0.00000  -0.00000   3.13764
   D157       1.04800  -0.00000  -0.00000  -0.00000  -0.00000   1.04800
   D158      -3.13864  -0.00000  -0.00000  -0.00000  -0.00000  -3.13864
   D159      -1.09702  -0.00000  -0.00000  -0.00000  -0.00000  -1.09702
   D160      -0.98008  -0.00000  -0.00000  -0.00000  -0.00000  -0.98008
   D161      -3.12692  -0.00000  -0.00000  -0.00000  -0.00000  -3.12692
   D162       1.12111  -0.00000  -0.00000  -0.00000  -0.00000   1.12111
   D163       1.11074  -0.00000  -0.00000  -0.00000  -0.00000   1.11074
   D164      -1.03610   0.00000  -0.00000  -0.00000  -0.00000  -1.03610
   D165      -3.07126   0.00000  -0.00000  -0.00000  -0.00000  -3.07126
   D166      -3.10767  -0.00000  -0.00000  -0.00000  -0.00000  -3.10767
   D167       1.02868  -0.00000  -0.00000  -0.00000  -0.00000   1.02868
   D168      -1.00648  -0.00000  -0.00000  -0.00000  -0.00000  -1.00648
   D169       0.98755  -0.00000  -0.00000  -0.00000  -0.00000   0.98755
   D170       3.12721  -0.00000  -0.00000  -0.00000  -0.00000   3.12721
   D171      -1.11752  -0.00000  -0.00000  -0.00000  -0.00000  -1.11752
   D172      -1.10755   0.00000  -0.00000   0.00000  -0.00000  -1.10755
   D173       1.03211   0.00000  -0.00000   0.00000  -0.00000   1.03211
   D174       3.07056   0.00000  -0.00000  -0.00000  -0.00000   3.07056
   D175       3.11731   0.00000  -0.00000   0.00000   0.00000   3.11731
   D176      -1.02621   0.00000  -0.00000   0.00000   0.00000  -1.02621
   D177       1.01224  -0.00000  -0.00000   0.00000  -0.00000   1.01224
   D178       0.96402  -0.00000  -0.00000  -0.00000  -0.00000   0.96402
   D179       3.10596  -0.00000  -0.00000  -0.00000  -0.00000   3.10596
   D180      -1.13313  -0.00000  -0.00000  -0.00000  -0.00000  -1.13313
   D181       3.10606  -0.00000  -0.00000  -0.00000  -0.00000   3.10606
   D182      -1.03519  -0.00000  -0.00000   0.00000  -0.00000  -1.03519
   D183       1.00891  -0.00000  -0.00000   0.00000  -0.00000   1.00891
   D184      -1.13440   0.00000  -0.00000  -0.00000  -0.00000  -1.13440
   D185       1.00754  -0.00000  -0.00000   0.00000  -0.00000   1.00754
   D186       3.05163   0.00000  -0.00000   0.00000  -0.00000   3.05163
   D187      -0.96609   0.00000   0.00000   0.00000   0.00000  -0.96609
   D188      -3.10810   0.00000   0.00000   0.00000   0.00000  -3.10810
   D189       1.13197   0.00000   0.00000   0.00000   0.00000   1.13197
   D190      -3.09832  -0.00000   0.00000   0.00000   0.00000  -3.09832
   D191       1.04285  -0.00000   0.00000   0.00000   0.00000   1.04285
   D192      -1.00026  -0.00000   0.00000   0.00000   0.00000  -1.00026
   D193       1.13807   0.00000   0.00000   0.00000   0.00000   1.13807
   D194      -1.00394   0.00000   0.00000   0.00000   0.00000  -1.00394
   D195      -3.04706   0.00000   0.00000   0.00000   0.00000  -3.04705
         Item               Value     Threshold  Converged?
 Maximum Force            0.000000     0.000015     YES
 RMS     Force            0.000000     0.000010     YES
 Maximum Displacement     0.000102     0.000060     NO 
 RMS     Displacement     0.000021     0.000040     YES
 Predicted change in Energy=-1.790491D-11
 GradGradGradGradGradGradGradGradGradGradGradGradGradGradGradGradGradGrad

 Leave Link  103 at Fri Dec 21 14:09:36 2018, MaxMem=  1342177280 cpu:               4.6 elap:               0.3
 (Enter /gpfs/apps/hpc/Apps/Restricted/Gaussian/Rev_A.03/g16/l202.exe)
 Symmetry turned off by external request.
 Stoichiometry    C28H37N3O(1+,2)
 Framework group  C1[X(C28H37N3O)]
 Deg. of freedom   201
 Full point group                 C1      NOp   1
                          Input orientation:                          
 ---------------------------------------------------------------------
 Center     Atomic      Atomic             Coordinates (Angstroms)
 Number     Number       Type             X           Y           Z
 ---------------------------------------------------------------------
      1          6           0       -0.439440    2.706702    0.233447
      2          6           0       -1.853310    2.850428    0.181349
      3          6           0       -2.429226    4.130552    0.090676
      4          6           0       -1.563900    5.212026    0.063534
      5          6           0       -0.157617    5.052288    0.121873
      6          6           0        0.445060    3.799185    0.207650
      7          6           0       -1.402749    0.722166    0.305226
      8          1           0       -3.503059    4.256798    0.044739
      9          1           0       -1.968018    6.214719   -0.002480
     10          1           0        0.472399    5.934041    0.100736
     11          7           0       -2.415280    1.603317    0.228753
     12          6           0       -2.999650   -1.174786    0.385996
     13          6           0       -1.621066   -0.695104    0.370599
     14          6           0       -0.574464   -1.613381    0.410640
     15          6           0       -0.831237   -2.980675    0.474551
     16          6           0       -2.191578   -3.420841    0.513388
     17          6           0       -3.278998   -2.583328    0.479796
     18          1           0        0.445112   -1.255710    0.389151
     19          1           0       -2.365060   -4.484468    0.574651
     20          6           0        0.269739   -4.027582    0.492355
     21          6           0       -4.717359   -3.103367    0.531316
     22          8           0       -3.988375   -0.329445    0.309925
     23          1           0       -3.605031    0.640678    0.257593
     24          7           0       -0.193794    1.365943    0.309561
     25          1           0        0.759381    1.012909    0.363188
     26          6           0        1.893310    3.609599    0.268711
     27          1           0        2.499636    4.519892    0.229769
     28          7           0        2.395102    2.434920    0.362549
     29          6           0        3.858520    2.306050    0.420660
     30          6           0        4.523191    2.728323   -0.900437
     31          6           0        4.480827    3.069476    1.601494
     32          1           0        4.060451    1.239362    0.569841
     33          6           0        6.037366    2.498298   -0.842442
     34          1           0        4.315088    3.791461   -1.070867
     35          1           0        4.076657    2.173420   -1.730826
     36          6           0        5.994041    2.833833    1.663327
     37          1           0        4.288408    4.141449    1.475225
     38          1           0        3.996330    2.762467    2.532847
     39          6           0        6.669574    3.231839    0.345623
     40          1           0        6.501595    2.815679   -1.780946
     41          1           0        6.229183    1.422388   -0.744113
     42          1           0        6.422667    3.395110    2.499195
     43          1           0        6.185837    1.772083    1.862453
     44          1           0        7.743456    3.026820    0.391631
     45          1           0        6.557743    4.313661    0.199716
     46          6           0       -5.445876   -2.513308    1.759552
     47          1           0       -5.512594   -1.427372    1.707391
     48          1           0       -6.459879   -2.919009    1.801470
     49          1           0       -4.930304   -2.789084    2.682978
     50          6           0       -4.745120   -4.634510    0.658236
     51          1           0       -5.784163   -4.965057    0.709243
     52          1           0       -4.278367   -5.125198   -0.199962
     53          1           0       -4.238932   -4.972095    1.566433
     54          6           0       -5.460756   -2.714388   -0.766004
     55          1           0       -5.548317   -1.633997   -0.873568
     56          1           0       -4.938017   -3.110804   -1.640026
     57          1           0       -6.466516   -3.141719   -0.745014
     58          6           0        0.115344   -4.901017    1.758246
     59          1           0       -0.853387   -5.403226    1.792656
     60          1           0        0.893233   -5.668774    1.758497
     61          1           0        0.224079   -4.298253    2.662553
     62          6           0        1.671192   -3.405320    0.488874
     63          1           0        1.842976   -2.805146   -0.407894
     64          1           0        1.833023   -2.775728    1.367267
     65          1           0        2.417217   -4.202654    0.504651
     66          6           0        0.113224   -4.917385   -0.763093
     67          1           0        0.882663   -5.693523   -0.748742
     68          1           0       -0.862461   -5.406451   -0.794668
     69          1           0        0.233539   -4.327989   -1.674797
 ---------------------------------------------------------------------
 Rotational constants (GHZ):           0.1858616           0.0709367           0.0536846
 Leave Link  202 at Fri Dec 21 14:09:36 2018, MaxMem=  1342177280 cpu:               0.5 elap:               0.1
 (Enter /gpfs/apps/hpc/Apps/Restricted/Gaussian/Rev_A.03/g16/l301.exe)
 Standard basis: 6-31G(d,p) (6D, 7F)
 Ernie: Thresh=  0.10000D-02 Tol=  0.10000D-05 Strict=F.
   665 basis functions,  1155 primitive gaussians,   665 cartesian basis functions
   117 alpha electrons      116 beta electrons
       nuclear repulsion energy      3168.0542118605 Hartrees.
 IExCor=  402 DFT=T Ex+Corr=B3LYP ExCW=0 ScaHFX=  0.200000
 ScaDFX=  0.800000  0.720000  1.000000  0.810000 ScalE2=  1.000000  1.000000
 IRadAn=      5 IRanWt=     -1 IRanGd=            0 ICorTp=0 IEmpDi=141
 NAtoms=   69 NActive=   69 NUniq=   69 SFac= 1.00D+00 NAtFMM=   60 NAOKFM=T Big=T
 Integral buffers will be    131072 words long.
 Raffenetti 2 integral format.
 Two-electron integral symmetry is turned off.
 R6Disp:  Grimme-D3(BJ) Dispersion energy=       -0.1503652332 Hartrees.
 Nuclear repulsion after empirical dispersion term =     3167.9038466272 Hartrees.
 ------------------------------------------------------------------------------
 Polarizable Continuum Model (PCM)
 =================================
 Model                : C-PCM.
 Atomic radii         : Bondi.
 Polarization charges : Total charges.
 Charge compensation  : None.
 Solution method      : On-the-fly selection.
 Cavity type          : Scaled VdW (van der Waals Surface) (Alpha=1.100).
 Cavity algorithm     : GePol (No added spheres)
                        Default sphere list used, NSphG=   69.
                        Lebedev-Laikov grids with approx.  5.0 points / Ang**2.
                        Smoothing algorithm: York/Karplus (Gamma=1.0000).
                        Polarization charges: spherical gaussians, with
                                              point-specific exponents (IZeta= 3).
                        Self-potential: point-specific (ISelfS= 7).
                        Self-field    : sphere-specific E.n sum rule (ISelfD= 2).
 1st derivatives      : Analytical E(r).r(x)/FMM algorithm (CHGder, D1EAlg=3).
                        Cavity 1st derivative terms included.
 Solvent              : Dichloromethane, Eps=   8.930000 Eps(inf)=   2.028346
 ------------------------------------------------------------------------------
 GePol: Number of generator spheres                  =      69
 GePol: Total number of spheres                      =      69
 GePol: Number of exposed spheres                    =      69 (100.00%)
 GePol: Number of points                             =    4315
 GePol: Average weight of points                     =       0.12
 GePol: Minimum weight of points                     =   0.57D-11
 GePol: Maximum weight of points                     =    0.21770
 GePol: Number of points with low weight             =     309
 GePol: Fraction of low-weight points (<1% of avg)   =       7.16%
 GePol: Cavity surface area                          =    517.425 Ang**2
 GePol: Cavity volume                                =    500.051 Ang**3
 PCM non-electrostatic energy =         0.0251172676 Hartrees.
 Nuclear repulsion after PCM non-electrostatic terms =     3167.9289638948 Hartrees.
 Leave Link  301 at Fri Dec 21 14:09:37 2018, MaxMem=  1342177280 cpu:               3.7 elap:               0.3
 (Enter /gpfs/apps/hpc/Apps/Restricted/Gaussian/Rev_A.03/g16/l302.exe)
 NPDir=0 NMtPBC=     1 NCelOv=     1 NCel=       1 NClECP=     1 NCelD=      1
         NCelK=      1 NCelE2=     1 NClLst=     1 CellRange=     0.0.
 One-electron integrals computed using PRISM.
 NBasis=   665 RedAO= T EigKep=  3.00D-04  NBF=   665
 NBsUse=   665 1.00D-06 EigRej= -1.00D+00 NBFU=   665
 Precomputing XC quadrature grid using
 IXCGrd= 4 IRadAn=           5 IRanWt=          -1 IRanGd=           0 AccXCQ= 0.00D+00.
 Generated NRdTot=       0 NPtTot=           0 NUsed=           0 NTot=          32
 NSgBfM=   647   647   647   647   647 MxSgAt=    69 MxSgA2=    69.
 Leave Link  302 at Fri Dec 21 14:09:38 2018, MaxMem=  1342177280 cpu:              23.2 elap:               1.5
 (Enter /gpfs/apps/hpc/Apps/Restricted/Gaussian/Rev_A.03/g16/l303.exe)
 DipDrv:  MaxL=1.
 Leave Link  303 at Fri Dec 21 14:09:38 2018, MaxMem=  1342177280 cpu:               1.4 elap:               0.2
 (Enter /gpfs/apps/hpc/Apps/Restricted/Gaussian/Rev_A.03/g16/l401.exe)
 Initial guess from the checkpoint file:  "cyclohexyl-monoBIP-E0PT.chk"
 B after Tr=    -0.000000    0.000001    0.000004
         Rot=    1.000000   -0.000001   -0.000000   -0.000000 Ang=  -0.00 deg.
 Guess basis will be translated and rotated to current coordinates.
 JPrj=2 DoOrth=T DoCkMO=T.
 Initial guess <Sx>= 0.0000 <Sy>= 0.0000 <Sz>= 0.5000 <S**2>= 0.7623 S= 0.5061
 Leave Link  401 at Fri Dec 21 14:09:41 2018, MaxMem=  1342177280 cpu:              32.5 elap:               2.1
 (Enter /gpfs/apps/hpc/Apps/Restricted/Gaussian/Rev_A.03/g16/l502.exe)
 Two-electron integral symmetry not used.
 UHF open shell SCF:
 Using DIIS extrapolation, IDIIS=  1040.
 NGot=  1342177280 LenX=  1341276554 LenY=  1340833664
 Requested convergence on RMS density matrix=1.00D-08 within 128 cycles.
 Requested convergence on MAX density matrix=1.00D-06.
 Requested convergence on             energy=1.00D-06.
 No special actions if energy rises.
 Fock matrices will be formed incrementally for  20 cycles.

 Cycle   1  Pass 1  IDiag  1:
 FoFJK:  IHMeth= 1 ICntrl=       0 DoSepK=F KAlg= 0 I1Cent=           0 FoldK=F
 IRaf= 760000000 NMat=       1 IRICut=       1 DoRegI=T DoRafI=F ISym2E= 0 IDoP0=0 IntGTp=1.
 FoFCou: FMM=T IPFlag=           0 FMFlag=      100000 FMFlg1=        2001
         NFxFlg=           0 DoJE=F BraDBF=F KetDBF=F FulRan=T
         wScrn=  0.000000 ICntrl=         0 IOpCl=  1 I1Cent=           0 NGrid=           0
         NMat0=    1 NMatS0=      1 NMatT0=    0 NMatD0=    1 NMtDS0=    0 NMtDT0=    0
 Symmetry not used in FoFCou.
 FMM levels:  10  Number of levels for PrismC:   9
 Inv3:  Mode=1 IEnd=    55857675.
 Iteration    1 A*A^-1 deviation from unit magnitude is 8.88D-15 for   4313.
 Iteration    1 A*A^-1 deviation from orthogonality  is 4.95D-15 for   4313   2973.
 Iteration    1 A^-1*A deviation from unit magnitude is 8.99D-15 for   4310.
 Iteration    1 A^-1*A deviation from orthogonality  is 3.54D-15 for   4310   1958.
 E= -1328.80078255798    
 DIIS: error= 1.38D-06 at cycle   1 NSaved=   1.
 NSaved= 1 IEnMin= 1 EnMin= -1328.80078255798     IErMin= 1 ErrMin= 1.38D-06
 ErrMax= 1.38D-06  0.00D+00 EMaxC= 1.00D-01 BMatC= 2.56D-09 BMatP= 2.56D-09
 IDIUse=1 WtCom= 1.00D+00 WtEn= 0.00D+00
 Coeff-Com:  0.100D+01
 Coeff:      0.100D+01
 Gap=     1.688 Goal=   None    Shift=    0.000
 Gap=     1.689 Goal=   None    Shift=    0.000
 RMSDP=5.84D-08 MaxDP=3.43D-06              OVMax= 6.49D-06

 Cycle   2  Pass 1  IDiag  1:
 RMSU=  5.84D-08    CP:  1.00D+00
 E= -1328.80078255922     Delta-E=       -0.000000001248 Rises=F Damp=F
 DIIS: error= 1.21D-07 at cycle   2 NSaved=   2.
 NSaved= 2 IEnMin= 2 EnMin= -1328.80078255922     IErMin= 2 ErrMin= 1.21D-07
 ErrMax= 1.21D-07  0.00D+00 EMaxC= 1.00D-01 BMatC= 3.44D-11 BMatP= 2.56D-09
 IDIUse=1 WtCom= 1.00D+00 WtEn= 0.00D+00
 Coeff-Com: -0.725D-01 0.107D+01
 Coeff:     -0.725D-01 0.107D+01
 Gap=     0.156 Goal=   None    Shift=    0.000
 Gap=     0.060 Goal=   None    Shift=    0.000
 RMSDP=1.07D-08 MaxDP=9.70D-07 DE=-1.25D-09 OVMax= 1.15D-06

 Cycle   3  Pass 1  IDiag  1:
 RMSU=  9.29D-09    CP:  1.00D+00  1.09D+00
 E= -1328.80078255929     Delta-E=       -0.000000000065 Rises=F Damp=F
 DIIS: error= 1.52D-07 at cycle   3 NSaved=   3.
 NSaved= 3 IEnMin= 3 EnMin= -1328.80078255929     IErMin= 2 ErrMin= 1.21D-07
 ErrMax= 1.52D-07  0.00D+00 EMaxC= 1.00D-01 BMatC= 5.53D-11 BMatP= 3.44D-11
 IDIUse=1 WtCom= 1.00D+00 WtEn= 0.00D+00
 Coeff-Com: -0.521D-01 0.668D+00 0.384D+00
 Coeff:     -0.521D-01 0.668D+00 0.384D+00
 Gap=     0.156 Goal=   None    Shift=    0.000
 Gap=     0.060 Goal=   None    Shift=    0.000
 RMSDP=6.03D-09 MaxDP=1.01D-06 DE=-6.46D-11 OVMax= 1.91D-06

 Cycle   4  Pass 1  IDiag  1:
 RMSU=  3.67D-09    CP:  1.00D+00  1.10D+00  4.91D-01
 E= -1328.80078255926     Delta-E=        0.000000000025 Rises=F Damp=F
 DIIS: error= 2.93D-08 at cycle   4 NSaved=   4.
 NSaved= 4 IEnMin= 3 EnMin= -1328.80078255929     IErMin= 4 ErrMin= 2.93D-08
 ErrMax= 2.93D-08  0.00D+00 EMaxC= 1.00D-01 BMatC= 1.78D-12 BMatP= 3.44D-11
 IDIUse=1 WtCom= 1.00D+00 WtEn= 0.00D+00
 Coeff-Com: -0.113D-01 0.130D+00 0.175D+00 0.706D+00
 Coeff:     -0.113D-01 0.130D+00 0.175D+00 0.706D+00
 Gap=     0.156 Goal=   None    Shift=    0.000
 Gap=     0.060 Goal=   None    Shift=    0.000
 RMSDP=1.36D-09 MaxDP=1.13D-07 DE= 2.46D-11 OVMax= 6.45D-07

 Error on total polarization charges =  0.04508
 SCF Done:  E(UB3LYP) =  -1328.80078256     A.U. after    4 cycles
            NFock=  4  Conv=0.14D-08     -V/T= 2.0097
 <Sx>= 0.0000 <Sy>= 0.0000 <Sz>= 0.5000 <S**2>= 0.7623 S= 0.5061
 <L.S>= 0.000000000000E+00
 KE= 1.316087694088D+03 PE=-9.387783455965D+03 EE= 3.574966015423D+03
 Annihilation of the first spin contaminant:
 S**2 before annihilation     0.7623,   after     0.7501
 Leave Link  502 at Fri Dec 21 14:11:08 2018, MaxMem=  1342177280 cpu:            1315.7 elap:              87.4
 (Enter /gpfs/apps/hpc/Apps/Restricted/Gaussian/Rev_A.03/g16/l701.exe)
 ... and contract with generalized density number  0.
 Compute integral first derivatives.
 R6Disp: Adding Grimme-D3(BJ) dispersion energy 1st derivatives to the gradient.
 D1PCM: C-PCM CHGder 1st derivatives, ID1Alg=3 FixD1E=F DoIter=F DoCFld=F I1PDM=0.
 GePol: Maximum number of non-zero 1st derivatives   =     199
 Leave Link  701 at Fri Dec 21 14:11:12 2018, MaxMem=  1342177280 cpu:              60.7 elap:               3.8
 (Enter /gpfs/apps/hpc/Apps/Restricted/Gaussian/Rev_A.03/g16/l702.exe)
 L702 exits ... SP integral derivatives will be done elsewhere.
 Leave Link  702 at Fri Dec 21 14:11:12 2018, MaxMem=  1342177280 cpu:               0.5 elap:               0.0
 (Enter /gpfs/apps/hpc/Apps/Restricted/Gaussian/Rev_A.03/g16/l703.exe)
 Integral derivatives from FoFJK, PRISM(SPDF).
 Compute integral first derivatives, UseDBF=F ICtDFT=           0.
 Calling FoFJK, ICntrl=      2127 FMM=T ISym2X=0 I1Cent= 0 IOpClX= 1 NMat=1 NMatS=1 NMatT=0.
 FoFJK:  IHMeth= 1 ICntrl=    2127 DoSepK=F KAlg= 0 I1Cent=           0 FoldK=F
 IRaf=         0 NMat=       1 IRICut=       1 DoRegI=T DoRafI=F ISym2E= 0 IDoP0=0 IntGTp=1.
 FoFCou: FMM=T IPFlag=           0 FMFlag=      100000 FMFlg1=        2001
         NFxFlg=           0 DoJE=F BraDBF=F KetDBF=F FulRan=T
         wScrn=  0.000000 ICntrl=      2127 IOpCl=  1 I1Cent=           0 NGrid=           0
         NMat0=    1 NMatS0=      1 NMatT0=    0 NMatD0=    1 NMtDS0=    0 NMtDT0=    0
 Symmetry not used in FoFCou.
 FMM levels:  10  Number of levels for PrismC:   9
