 Entering Gaussian System, Link 0=g16
 Initial command:
 /gpfs/apps/hpc/Apps/Restricted/Gaussian/Rev_A.03/g16/l1.exe "/gpfs/scratch60/fas/hammes_schiffer/jg2487/c42n03/Gau-28026.inp" -scrdir="/gpfs/scratch60/fas/hammes_schiffer/jg2487/c42n03/"
 Entering Link 1 = /gpfs/apps/hpc/Apps/Restricted/Gaussian/Rev_A.03/g16/l1.exe PID=     28027.
  
 Copyright (c) 1988,1990,1992,1993,1995,1998,2003,2009,2016,
            Gaussian, Inc.  All Rights Reserved.
  
 This is part of the Gaussian(R) 16 program.  It is based on
 the Gaussian(R) 09 system (copyright 2009, Gaussian, Inc.),
 the Gaussian(R) 03 system (copyright 2003, Gaussian, Inc.),
 the Gaussian(R) 98 system (copyright 1998, Gaussian, Inc.),
 the Gaussian(R) 94 system (copyright 1995, Gaussian, Inc.),
 the Gaussian 92(TM) system (copyright 1992, Gaussian, Inc.),
 the Gaussian 90(TM) system (copyright 1990, Gaussian, Inc.),
 the Gaussian 88(TM) system (copyright 1988, Gaussian, Inc.),
 the Gaussian 86(TM) system (copyright 1986, Carnegie Mellon
 University), and the Gaussian 82(TM) system (copyright 1983,
 Carnegie Mellon University). Gaussian is a federally registered
 trademark of Gaussian, Inc.
  
 This software contains proprietary and confidential information,
 including trade secrets, belonging to Gaussian, Inc.
  
 This software is provided under written license and may be
 used, copied, transmitted, or stored only in accord with that
 written license.
  
 The following legend is applicable only to US Government
 contracts under FAR:
  
                    RESTRICTED RIGHTS LEGEND
  
 Use, reproduction and disclosure by the US Government is
 subject to restrictions as set forth in subparagraphs (a)
 and (c) of the Commercial Computer Software - Restricted
 Rights clause in FAR 52.227-19.
  
 Gaussian, Inc.
 340 Quinnipiac St., Bldg. 40, Wallingford CT 06492
  
  
 ---------------------------------------------------------------
 Warning -- This program may not be used in any manner that
 competes with the business of Gaussian, Inc. or will provide
 assistance to any competitor of Gaussian, Inc.  The licensee
 of this program is prohibited from giving any competitor of
 Gaussian, Inc. access to this program.  By using this program,
 the user acknowledges that Gaussian, Inc. is engaged in the
 business of creating and licensing software in the field of
 computational chemistry and represents and warrants to the
 licensee that it is not a competitor of Gaussian, Inc. and that
 it will not use this program in any manner prohibited above.
 ---------------------------------------------------------------
  

 Cite this work as:
 Gaussian 16, Revision A.03,
 M. J. Frisch, G. W. Trucks, H. B. Schlegel, G. E. Scuseria, 
 M. A. Robb, J. R. Cheeseman, G. Scalmani, V. Barone, 
 G. A. Petersson, H. Nakatsuji, X. Li, M. Caricato, A. V. Marenich, 
 J. Bloino, B. G. Janesko, R. Gomperts, B. Mennucci, H. P. Hratchian, 
 J. V. Ortiz, A. F. Izmaylov, J. L. Sonnenberg, D. Williams-Young, 
 F. Ding, F. Lipparini, F. Egidi, J. Goings, B. Peng, A. Petrone, 
 T. Henderson, D. Ranasinghe, V. G. Zakrzewski, J. Gao, N. Rega, 
 G. Zheng, W. Liang, M. Hada, M. Ehara, K. Toyota, R. Fukuda, 
 J. Hasegawa, M. Ishida, T. Nakajima, Y. Honda, O. Kitao, H. Nakai, 
 T. Vreven, K. Throssell, J. A. Montgomery, Jr., J. E. Peralta, 
 F. Ogliaro, M. J. Bearpark, J. J. Heyd, E. N. Brothers, K. N. Kudin, 
 V. N. Staroverov, T. A. Keith, R. Kobayashi, J. Normand, 
 K. Raghavachari, A. P. Rendell, J. C. Burant, S. S. Iyengar, 
 J. Tomasi, M. Cossi, J. M. Millam, M. Klene, C. Adamo, R. Cammi, 
 J. W. Ochterski, R. L. Martin, K. Morokuma, O. Farkas, 
 J. B. Foresman, and D. J. Fox, Gaussian, Inc., Wallingford CT, 2016.
 
 ******************************************
 Gaussian 16:  ES64L-G16RevA.03 25-Dec-2016
                21-Dec-2018 
 ******************************************
 %chk=cyclohexyl-monoBIP-E0PT.chk
 %mem=10GB
 %nprocshared=16
 Will use up to   16 processors via shared memory.
 ----------------------------------------------------------------------
 #p opt=tight freq=internalmodes b3lyp/6-31g(d,p) scrf=(cpcm,solvent=di
 chloromethane,read) nosymm empiricaldispersion=gd3bj int=grid=ultrafin
 e
 ----------------------------------------------------------------------
 1/7=10,18=20,19=15,26=6,38=1,40=2/1,3;
 2/9=110,12=2,15=1,17=6,18=5,40=1/2;
 3/5=1,6=6,7=101,11=2,25=1,30=1,70=2103,71=1,72=9,74=-5,75=-5,124=41/1,2,3;
 4//1;
 5/5=2,38=5,53=9/2;
 6/7=2,8=2,9=2,10=2,28=1/1;
 7/30=1/1,2,3,16;
 1/7=10,18=20,19=15,26=6/3(2);
 2/9=110,15=1/2;
 99//99;
 2/9=110,15=1/2;
 3/5=1,6=6,7=101,11=2,25=1,30=1,70=2105,71=1,72=9,74=-5,75=-5,124=41/1,2,3;
 4/5=5,16=3,69=1/1;
 5/5=2,38=5,53=9/2;
 7/30=1/1,2,3,16;
 1/7=10,18=20,19=15,26=6/3(-5);
 2/9=110,15=1/2;
 6/7=2,8=2,9=2,10=2,19=2,28=1/1;
 99/9=1/99;
 Leave Link    1 at Fri Dec 21 16:01:59 2018, MaxMem=  1342177280 cpu:               6.4 elap:               0.4
 (Enter /gpfs/apps/hpc/Apps/Restricted/Gaussian/Rev_A.03/g16/l101.exe)
 -------------------------------------------------------
 cyclohexylimine monoBIP oxidized but no PT optimization
 -------------------------------------------------------
 Symbolic Z-matrix:
 Charge =  1 Multiplicity = 2
 C                    -0.43944   2.7067    0.23344 
 C                    -1.85331   2.85043   0.18134 
 C                    -2.42923   4.13055   0.09066 
 C                    -1.5639    5.21202   0.06352 
 C                    -0.15762   5.05229   0.12186 
 C                     0.44506   3.79918   0.20764 
 C                    -1.40275   0.72216   0.30522 
 H                    -3.50306   4.25679   0.04472 
 H                    -1.96802   6.21472  -0.0025 
 H                     0.4724    5.93404   0.10072 
 N                    -2.41528   1.60331   0.22874 
 C                    -2.99965  -1.17479   0.386 
 C                    -1.62106  -0.69511   0.3706 
 C                    -0.57446  -1.61338   0.41064 
 C                    -0.83124  -2.98068   0.47455 
 C                    -2.19158  -3.42084   0.51339 
 C                    -3.279    -2.58333   0.4798 
 H                     0.44511  -1.25571   0.38915 
 H                    -2.36506  -4.48447   0.57465 
 C                     0.26974  -4.02759   0.49236 
 C                    -4.71736  -3.10337   0.53132 
 O                    -3.98837  -0.32944   0.30994 
 H                    -3.60503   0.64068   0.25762 
 N                    -0.19379   1.36594   0.30955 
 H                     0.75938   1.01291   0.36318 
 C                     1.89331   3.6096    0.2687 
 H                     2.49964   4.51989   0.22976 
 N                     2.3951    2.43492   0.36253 
 C                     3.85852   2.30605   0.42065 
 C                     4.5232    2.72835  -0.90044 
 C                     4.48082   3.06946   1.6015 
 H                     4.06045   1.23936   0.56981 
 C                     6.03737   2.49832  -0.84244 
 H                     4.31509   3.79149  -1.07085 
 H                     4.07667   2.17346  -1.73084 
 C                     5.99404   2.83382   1.66333 
 H                     4.2884    4.14143   1.47525 
 H                     3.99632   2.76243   2.53284 
 C                     6.66958   3.23184   0.34564 
 H                     6.50161   2.81572  -1.78094 
 H                     6.22919   1.42241  -0.74413 
 H                     6.42266   3.39508   2.49921 
 H                     6.18583   1.77206   1.86244 
 H                     7.74346   3.02683   0.39165 
 H                     6.55774   4.31367   0.19975 
 C                    -5.44587  -2.51332   1.75957 
 H                    -5.51258  -1.42738   1.70742 
 H                    -6.45987  -2.91901   1.80148 
 H                    -4.93029  -2.78911   2.68299 
 C                    -4.74512  -4.63451   0.65823 
 H                    -5.78417  -4.96506   0.70922 
 H                    -4.27836  -5.12519  -0.19997 
 H                    -4.23894  -4.9721    1.56642 
 C                    -5.46076  -2.71437  -0.76599 
 H                    -5.54832  -1.63398  -0.87354 
 H                    -4.93803  -3.11078  -1.64002 
 H                    -6.46652  -3.1417   -0.745 
 C                     0.11534  -4.90101   1.75825 
 H                    -0.85339  -5.40323   1.79266 
 H                     0.89323  -5.66877   1.75851 
 H                     0.22407  -4.29825   2.66256 
 C                     1.67119  -3.40532   0.48887 
 H                     1.84297  -2.80515  -0.4079 
 H                     1.83302  -2.77573   1.36726 
 H                     2.41722  -4.20266   0.50465 
 C                     0.11322  -4.91739  -0.76309 
 H                     0.88266  -5.69353  -0.74873 
 H                    -0.86246  -5.40646  -0.79466 
 H                     0.23354  -4.328    -1.6748 
 
 ITRead=  0  0  0  0  0  0  0  0  0  0  0  0  0  0  0  0  0  0  0  0
 ITRead=  0  0  0  0  0  0  0  0  0  0  0  0  0  0  0  0  0  0  0  0
 ITRead=  0  0  0  0  0  0  0  0  0  0  0  0  0  0  0  0  0  0  0  0
 ITRead=  0  0  0  0  0  0  0  0  0
 MicOpt= -1 -1 -1 -1 -1 -1 -1 -1 -1 -1 -1 -1 -1 -1 -1 -1 -1 -1 -1 -1
 MicOpt= -1 -1 -1 -1 -1 -1 -1 -1 -1 -1 -1 -1 -1 -1 -1 -1 -1 -1 -1 -1
 MicOpt= -1 -1 -1 -1 -1 -1 -1 -1 -1 -1 -1 -1 -1 -1 -1 -1 -1 -1 -1 -1
 MicOpt= -1 -1 -1 -1 -1 -1 -1 -1 -1
 NAtoms=     69 NQM=       69 NQMF=       0 NMMI=      0 NMMIF=      0
                NMic=       0 NMicF=      0.
                    Isotopes and Nuclear Properties:
 (Nuclear quadrupole moments (NQMom) in fm**2, nuclear magnetic moments (NMagM)
  in nuclear magnetons)

  Atom         1           2           3           4           5           6           7           8           9          10
 IAtWgt=          12          12          12          12          12          12          12           1           1           1
 AtmWgt=  12.0000000  12.0000000  12.0000000  12.0000000  12.0000000  12.0000000  12.0000000   1.0078250   1.0078250   1.0078250
 NucSpn=           0           0           0           0           0           0           0           1           1           1
 AtZEff=  -0.0000000  -0.0000000  -0.0000000  -0.0000000  -0.0000000  -0.0000000  -0.0000000  -0.0000000  -0.0000000  -0.0000000
 NQMom=    0.0000000   0.0000000   0.0000000   0.0000000   0.0000000   0.0000000   0.0000000   0.0000000   0.0000000   0.0000000
 NMagM=    0.0000000   0.0000000   0.0000000   0.0000000   0.0000000   0.0000000   0.0000000   2.7928460   2.7928460   2.7928460
 AtZNuc=   6.0000000   6.0000000   6.0000000   6.0000000   6.0000000   6.0000000   6.0000000   1.0000000   1.0000000   1.0000000

  Atom        11          12          13          14          15          16          17          18          19          20
 IAtWgt=          14          12          12          12          12          12          12           1           1          12
 AtmWgt=  14.0030740  12.0000000  12.0000000  12.0000000  12.0000000  12.0000000  12.0000000   1.0078250   1.0078250  12.0000000
 NucSpn=           2           0           0           0           0           0           0           1           1           0
 AtZEff=  -0.0000000  -0.0000000  -0.0000000  -0.0000000  -0.0000000  -0.0000000  -0.0000000  -0.0000000  -0.0000000  -0.0000000
 NQMom=    2.0440000   0.0000000   0.0000000   0.0000000   0.0000000   0.0000000   0.0000000   0.0000000   0.0000000   0.0000000
 NMagM=    0.4037610   0.0000000   0.0000000   0.0000000   0.0000000   0.0000000   0.0000000   2.7928460   2.7928460   0.0000000
 AtZNuc=   7.0000000   6.0000000   6.0000000   6.0000000   6.0000000   6.0000000   6.0000000   1.0000000   1.0000000   6.0000000

  Atom        21          22          23          24          25          26          27          28          29          30
 IAtWgt=          12          16           1          14           1          12           1          14          12          12
 AtmWgt=  12.0000000  15.9949146   1.0078250  14.0030740   1.0078250  12.0000000   1.0078250  14.0030740  12.0000000  12.0000000
 NucSpn=           0           0           1           2           1           0           1           2           0           0
 AtZEff=  -0.0000000  -0.0000000  -0.0000000  -0.0000000  -0.0000000  -0.0000000  -0.0000000  -0.0000000  -0.0000000  -0.0000000
 NQMom=    0.0000000   0.0000000   0.0000000   2.0440000   0.0000000   0.0000000   0.0000000   2.0440000   0.0000000   0.0000000
 NMagM=    0.0000000   0.0000000   2.7928460   0.4037610   2.7928460   0.0000000   2.7928460   0.4037610   0.0000000   0.0000000
 AtZNuc=   6.0000000   8.0000000   1.0000000   7.0000000   1.0000000   6.0000000   1.0000000   7.0000000   6.0000000   6.0000000

  Atom        31          32          33          34          35          36          37          38          39          40
 IAtWgt=          12           1          12           1           1          12           1           1          12           1
 AtmWgt=  12.0000000   1.0078250  12.0000000   1.0078250   1.0078250  12.0000000   1.0078250   1.0078250  12.0000000   1.0078250
 NucSpn=           0           1           0           1           1           0           1           1           0           1
 AtZEff=  -0.0000000  -0.0000000  -0.0000000  -0.0000000  -0.0000000  -0.0000000  -0.0000000  -0.0000000  -0.0000000  -0.0000000
 NQMom=    0.0000000   0.0000000   0.0000000   0.0000000   0.0000000   0.0000000   0.0000000   0.0000000   0.0000000   0.0000000
 NMagM=    0.0000000   2.7928460   0.0000000   2.7928460   2.7928460   0.0000000   2.7928460   2.7928460   0.0000000   2.7928460
 AtZNuc=   6.0000000   1.0000000   6.0000000   1.0000000   1.0000000   6.0000000   1.0000000   1.0000000   6.0000000   1.0000000

  Atom        41          42          43          44          45          46          47          48          49          50
 IAtWgt=           1           1           1           1           1          12           1           1           1          12
 AtmWgt=   1.0078250   1.0078250   1.0078250   1.0078250   1.0078250  12.0000000   1.0078250   1.0078250   1.0078250  12.0000000
 NucSpn=           1           1           1           1           1           0           1           1           1           0
 AtZEff=  -0.0000000  -0.0000000  -0.0000000  -0.0000000  -0.0000000  -0.0000000  -0.0000000  -0.0000000  -0.0000000  -0.0000000
 NQMom=    0.0000000   0.0000000   0.0000000   0.0000000   0.0000000   0.0000000   0.0000000   0.0000000   0.0000000   0.0000000
 NMagM=    2.7928460   2.7928460   2.7928460   2.7928460   2.7928460   0.0000000   2.7928460   2.7928460   2.7928460   0.0000000
 AtZNuc=   1.0000000   1.0000000   1.0000000   1.0000000   1.0000000   6.0000000   1.0000000   1.0000000   1.0000000   6.0000000

  Atom        51          52          53          54          55          56          57          58          59          60
 IAtWgt=           1           1           1          12           1           1           1          12           1           1
 AtmWgt=   1.0078250   1.0078250   1.0078250  12.0000000   1.0078250   1.0078250   1.0078250  12.0000000   1.0078250   1.0078250
 NucSpn=           1           1           1           0           1           1           1           0           1           1
 AtZEff=  -0.0000000  -0.0000000  -0.0000000  -0.0000000  -0.0000000  -0.0000000  -0.0000000  -0.0000000  -0.0000000  -0.0000000
 NQMom=    0.0000000   0.0000000   0.0000000   0.0000000   0.0000000   0.0000000   0.0000000   0.0000000   0.0000000   0.0000000
 NMagM=    2.7928460   2.7928460   2.7928460   0.0000000   2.7928460   2.7928460   2.7928460   0.0000000   2.7928460   2.7928460
 AtZNuc=   1.0000000   1.0000000   1.0000000   6.0000000   1.0000000   1.0000000   1.0000000   6.0000000   1.0000000   1.0000000

  Atom        61          62          63          64          65          66          67          68          69
 IAtWgt=           1          12           1           1           1          12           1           1           1
 AtmWgt=   1.0078250  12.0000000   1.0078250   1.0078250   1.0078250  12.0000000   1.0078250   1.0078250   1.0078250
 NucSpn=           1           0           1           1           1           0           1           1           1
 AtZEff=  -0.0000000  -0.0000000  -0.0000000  -0.0000000  -0.0000000  -0.0000000  -0.0000000  -0.0000000  -0.0000000
 NQMom=    0.0000000   0.0000000   0.0000000   0.0000000   0.0000000   0.0000000   0.0000000   0.0000000   0.0000000
 NMagM=    2.7928460   0.0000000   2.7928460   2.7928460   2.7928460   0.0000000   2.7928460   2.7928460   2.7928460
 AtZNuc=   1.0000000   6.0000000   1.0000000   1.0000000   1.0000000   6.0000000   1.0000000   1.0000000   1.0000000
 Leave Link  101 at Fri Dec 21 16:02:00 2018, MaxMem=  1342177280 cpu:               4.9 elap:               0.3
 (Enter /gpfs/apps/hpc/Apps/Restricted/Gaussian/Rev_A.03/g16/l103.exe)

 GradGradGradGradGradGradGradGradGradGradGradGradGradGradGradGradGradGrad
 Berny optimization.
 Initialization pass.
                           ----------------------------
                           !    Initial Parameters    !
                           ! (Angstroms and Degrees)  !
 --------------------------                            --------------------------
 ! Name  Definition              Value          Derivative Info.                !
 --------------------------------------------------------------------------------
 ! R1    R(1,2)                  1.4221         estimate D2E/DX2                !
 ! R2    R(1,6)                  1.4059         estimate D2E/DX2                !
 ! R3    R(1,24)                 1.3652         estimate D2E/DX2                !
 ! R4    R(2,3)                  1.4066         estimate D2E/DX2                !
 ! R5    R(2,11)                 1.3687         estimate D2E/DX2                !
 ! R6    R(3,4)                  1.3853         estimate D2E/DX2                !
 ! R7    R(3,8)                  1.0822         estimate D2E/DX2                !
 ! R8    R(4,5)                  1.4165         estimate D2E/DX2                !
 ! R9    R(4,9)                  1.0831         estimate D2E/DX2                !
 ! R10   R(5,6)                  1.3931         estimate D2E/DX2                !
 ! R11   R(5,10)                 1.0839         estimate D2E/DX2                !
 ! R12   R(6,26)                 1.4619         estimate D2E/DX2                !
 ! R13   R(7,11)                 1.3444         estimate D2E/DX2                !
 ! R14   R(7,13)                 1.4355         estimate D2E/DX2                !
 ! R15   R(7,24)                 1.3697         estimate D2E/DX2                !
 ! R16   R(12,13)                1.4597         estimate D2E/DX2                !
 ! R17   R(12,17)                1.439          estimate D2E/DX2                !
 ! R18   R(12,22)                1.3031         estimate D2E/DX2                !
 ! R19   R(13,14)                1.3929         estimate D2E/DX2                !
 ! R20   R(14,15)                1.3927         estimate D2E/DX2                !
 ! R21   R(14,18)                1.0807         estimate D2E/DX2                !
 ! R22   R(15,16)                1.4303         estimate D2E/DX2                !
 ! R23   R(15,20)                1.5194         estimate D2E/DX2                !
 ! R24   R(16,17)                1.373          estimate D2E/DX2                !
 ! R25   R(16,19)                1.0794         estimate D2E/DX2                !
 ! R26   R(17,21)                1.5304         estimate D2E/DX2                !
 ! R27   R(20,58)                1.5457         estimate D2E/DX2                !
 ! R28   R(20,62)                1.5334         estimate D2E/DX2                !
 ! R29   R(20,66)                1.5467         estimate D2E/DX2                !
 ! R30   R(21,46)                1.5451         estimate D2E/DX2                !
 ! R31   R(21,50)                1.5366         estimate D2E/DX2                !
 ! R32   R(21,54)                1.545          estimate D2E/DX2                !
 ! R33   R(22,23)                1.0444         estimate D2E/DX2                !
 ! R34   R(24,25)                1.0179         estimate D2E/DX2                !
 ! R35   R(26,27)                1.0944         estimate D2E/DX2                !
 ! R36   R(26,28)                1.2808         estimate D2E/DX2                !
 ! R37   R(28,29)                1.4702         estimate D2E/DX2                !
 ! R38   R(29,30)                1.538          estimate D2E/DX2                !
 ! R39   R(29,31)                1.5377         estimate D2E/DX2                !
 ! R40   R(29,32)                1.0958         estimate D2E/DX2                !
 ! R41   R(30,33)                1.5326         estimate D2E/DX2                !
 ! R42   R(30,34)                1.0966         estimate D2E/DX2                !
 ! R43   R(30,35)                1.094          estimate D2E/DX2                !
 ! R44   R(31,36)                1.5327         estimate D2E/DX2                !
 ! R45   R(31,37)                1.0964         estimate D2E/DX2                !
 ! R46   R(31,38)                1.0938         estimate D2E/DX2                !
 ! R47   R(33,39)                1.5327         estimate D2E/DX2                !
 ! R48   R(33,40)                1.0941         estimate D2E/DX2                !
 ! R49   R(33,41)                1.0973         estimate D2E/DX2                !
 ! R50   R(36,39)                1.5333         estimate D2E/DX2                !
 ! R51   R(36,42)                1.0943         estimate D2E/DX2                !
 ! R52   R(36,43)                1.0972         estimate D2E/DX2                !
 ! R53   R(39,44)                1.0942         estimate D2E/DX2                !
 ! R54   R(39,45)                1.0973         estimate D2E/DX2                !
 ! R55   R(46,47)                1.0892         estimate D2E/DX2                !
 ! R56   R(46,48)                1.093          estimate D2E/DX2                !
 ! R57   R(46,49)                1.093          estimate D2E/DX2                !
 ! R58   R(50,51)                1.0915         estimate D2E/DX2                !
 ! R59   R(50,52)                1.0932         estimate D2E/DX2                !
 ! R60   R(50,53)                1.0932         estimate D2E/DX2                !
 ! R61   R(54,55)                1.0893         estimate D2E/DX2                !
 ! R62   R(54,56)                1.0928         estimate D2E/DX2                !
 ! R63   R(54,57)                1.093          estimate D2E/DX2                !
 ! R64   R(58,59)                1.0917         estimate D2E/DX2                !
 ! R65   R(58,60)                1.093          estimate D2E/DX2                !
 ! R66   R(58,61)                1.0922         estimate D2E/DX2                !
 ! R67   R(62,63)                1.0927         estimate D2E/DX2                !
 ! R68   R(62,64)                1.0928         estimate D2E/DX2                !
 ! R69   R(62,65)                1.092          estimate D2E/DX2                !
 ! R70   R(66,67)                1.093          estimate D2E/DX2                !
 ! R71   R(66,68)                1.0919         estimate D2E/DX2                !
 ! R72   R(66,69)                1.0923         estimate D2E/DX2                !
 ! A1    A(2,1,6)              123.1126         estimate D2E/DX2                !
 ! A2    A(2,1,24)             106.2715         estimate D2E/DX2                !
 ! A3    A(6,1,24)             130.6158         estimate D2E/DX2                !
 ! A4    A(1,2,3)              120.0922         estimate D2E/DX2                !
 ! A5    A(1,2,11)             108.3518         estimate D2E/DX2                !
 ! A6    A(3,2,11)             131.5553         estimate D2E/DX2                !
 ! A7    A(2,3,4)              117.1276         estimate D2E/DX2                !
 ! A8    A(2,3,8)              121.0083         estimate D2E/DX2                !
 ! A9    A(4,3,8)              121.8641         estimate D2E/DX2                !
 ! A10   A(3,4,5)              122.092          estimate D2E/DX2                !
 ! A11   A(3,4,9)              119.3967         estimate D2E/DX2                !
 ! A12   A(5,4,9)              118.5111         estimate D2E/DX2                !
 ! A13   A(4,5,6)              122.2383         estimate D2E/DX2                !
 ! A14   A(4,5,10)             118.9799         estimate D2E/DX2                !
 ! A15   A(6,5,10)             118.7817         estimate D2E/DX2                !
 ! A16   A(1,6,5)              115.3361         estimate D2E/DX2                !
 ! A17   A(1,6,26)             121.4484         estimate D2E/DX2                !
 ! A18   A(5,6,26)             123.2155         estimate D2E/DX2                !
 ! A19   A(11,7,13)            122.3537         estimate D2E/DX2                !
 ! A20   A(11,7,24)            110.9086         estimate D2E/DX2                !
 ! A21   A(13,7,24)            126.7377         estimate D2E/DX2                !
 ! A22   A(2,11,7)             106.8537         estimate D2E/DX2                !
 ! A23   A(13,12,17)           120.3754         estimate D2E/DX2                !
 ! A24   A(13,12,22)           120.1849         estimate D2E/DX2                !
 ! A25   A(17,12,22)           119.4392         estimate D2E/DX2                !
 ! A26   A(7,13,12)            117.9404         estimate D2E/DX2                !
 ! A27   A(7,13,14)            122.5424         estimate D2E/DX2                !
 ! A28   A(12,13,14)           119.516          estimate D2E/DX2                !
 ! A29   A(13,14,15)           120.6654         estimate D2E/DX2                !
 ! A30   A(13,14,18)           119.3483         estimate D2E/DX2                !
 ! A31   A(15,14,18)           119.9861         estimate D2E/DX2                !
 ! A32   A(14,15,16)           118.6031         estimate D2E/DX2                !
 ! A33   A(14,15,20)           122.917          estimate D2E/DX2                !
 ! A34   A(16,15,20)           118.4775         estimate D2E/DX2                !
 ! A35   A(15,16,17)           124.3946         estimate D2E/DX2                !
 ! A36   A(15,16,19)           117.2347         estimate D2E/DX2                !
 ! A37   A(17,16,19)           118.3706         estimate D2E/DX2                !
 ! A38   A(12,17,16)           116.4184         estimate D2E/DX2                !
 ! A39   A(12,17,21)           121.1488         estimate D2E/DX2                !
 ! A40   A(16,17,21)           122.4322         estimate D2E/DX2                !
 ! A41   A(15,20,58)           109.0609         estimate D2E/DX2                !
 ! A42   A(15,20,62)           112.4968         estimate D2E/DX2                !
 ! A43   A(15,20,66)           108.2736         estimate D2E/DX2                !
 ! A44   A(58,20,62)           108.8118         estimate D2E/DX2                !
 ! A45   A(58,20,66)           109.2421         estimate D2E/DX2                !
 ! A46   A(62,20,66)           108.9106         estimate D2E/DX2                !
 ! A47   A(17,21,46)           109.8853         estimate D2E/DX2                !
 ! A48   A(17,21,50)           110.9995         estimate D2E/DX2                !
 ! A49   A(17,21,54)           109.7807         estimate D2E/DX2                !
 ! A50   A(46,21,50)           107.8387         estimate D2E/DX2                !
 ! A51   A(46,21,54)           110.1492         estimate D2E/DX2                !
 ! A52   A(50,21,54)           108.1514         estimate D2E/DX2                !
 ! A53   A(12,22,23)           109.0874         estimate D2E/DX2                !
 ! A54   A(1,24,7)             107.6143         estimate D2E/DX2                !
 ! A55   A(1,24,25)            120.8015         estimate D2E/DX2                !
 ! A56   A(7,24,25)            131.5827         estimate D2E/DX2                !
 ! A57   A(6,26,27)            116.0714         estimate D2E/DX2                !
 ! A58   A(6,26,28)            120.672          estimate D2E/DX2                !
 ! A59   A(27,26,28)           123.2566         estimate D2E/DX2                !
 ! A60   A(26,28,29)           118.2453         estimate D2E/DX2                !
 ! A61   A(28,29,30)           111.8483         estimate D2E/DX2                !
 ! A62   A(28,29,31)           112.9336         estimate D2E/DX2                !
 ! A63   A(28,29,32)           105.9095         estimate D2E/DX2                !
 ! A64   A(30,29,31)           110.3908         estimate D2E/DX2                !
 ! A65   A(30,29,32)           107.7317         estimate D2E/DX2                !
 ! A66   A(31,29,32)           107.7074         estimate D2E/DX2                !
 ! A67   A(29,30,33)           110.6863         estimate D2E/DX2                !
 ! A68   A(29,30,34)           108.5215         estimate D2E/DX2                !
 ! A69   A(29,30,35)           109.6537         estimate D2E/DX2                !
 ! A70   A(33,30,34)           109.8073         estimate D2E/DX2                !
 ! A71   A(33,30,35)           110.8449         estimate D2E/DX2                !
 ! A72   A(34,30,35)           107.2359         estimate D2E/DX2                !
 ! A73   A(29,31,36)           110.745          estimate D2E/DX2                !
 ! A74   A(29,31,37)           109.0232         estimate D2E/DX2                !
 ! A75   A(29,31,38)           109.5887         estimate D2E/DX2                !
 ! A76   A(36,31,37)           109.1617         estimate D2E/DX2                !
 ! A77   A(36,31,38)           111.0886         estimate D2E/DX2                !
 ! A78   A(37,31,38)           107.1426         estimate D2E/DX2                !
 ! A79   A(30,33,39)           111.4078         estimate D2E/DX2                !
 ! A80   A(30,33,40)           110.0717         estimate D2E/DX2                !
 ! A81   A(30,33,41)           108.8597         estimate D2E/DX2                !
 ! A82   A(39,33,40)           110.552          estimate D2E/DX2                !
 ! A83   A(39,33,41)           109.129          estimate D2E/DX2                !
 ! A84   A(40,33,41)           106.6862         estimate D2E/DX2                !
 ! A85   A(31,36,39)           111.1241         estimate D2E/DX2                !
 ! A86   A(31,36,42)           109.7963         estimate D2E/DX2                !
 ! A87   A(31,36,43)           109.1895         estimate D2E/DX2                !
 ! A88   A(39,36,42)           110.5321         estimate D2E/DX2                !
 ! A89   A(39,36,43)           109.2778         estimate D2E/DX2                !
 ! A90   A(42,36,43)           106.8138         estimate D2E/DX2                !
 ! A91   A(33,39,36)           111.1112         estimate D2E/DX2                !
 ! A92   A(33,39,44)           110.3478         estimate D2E/DX2                !
 ! A93   A(33,39,45)           109.0697         estimate D2E/DX2                !
 ! A94   A(36,39,44)           110.3407         estimate D2E/DX2                !
 ! A95   A(36,39,45)           108.9819         estimate D2E/DX2                !
 ! A96   A(44,39,45)           106.8771         estimate D2E/DX2                !
 ! A97   A(21,46,47)           111.8104         estimate D2E/DX2                !
 ! A98   A(21,46,48)           109.0361         estimate D2E/DX2                !
 ! A99   A(21,46,49)           110.6605         estimate D2E/DX2                !
 ! A100  A(47,46,48)           108.3657         estimate D2E/DX2                !
 ! A101  A(47,46,49)           108.7179         estimate D2E/DX2                !
 ! A102  A(48,46,49)           108.1544         estimate D2E/DX2                !
 ! A103  A(21,50,51)           108.8321         estimate D2E/DX2                !
 ! A104  A(21,50,52)           112.005          estimate D2E/DX2                !
 ! A105  A(21,50,53)           111.59           estimate D2E/DX2                !
 ! A106  A(51,50,52)           107.8892         estimate D2E/DX2                !
 ! A107  A(51,50,53)           107.965          estimate D2E/DX2                !
 ! A108  A(52,50,53)           108.4139         estimate D2E/DX2                !
 ! A109  A(21,54,55)           111.7969         estimate D2E/DX2                !
 ! A110  A(21,54,56)           110.4922         estimate D2E/DX2                !
 ! A111  A(21,54,57)           109.1601         estimate D2E/DX2                !
 ! A112  A(55,54,56)           108.6181         estimate D2E/DX2                !
 ! A113  A(55,54,57)           108.4043         estimate D2E/DX2                !
 ! A114  A(56,54,57)           108.2819         estimate D2E/DX2                !
 ! A115  A(20,58,59)           111.9866         estimate D2E/DX2                !
 ! A116  A(20,58,60)           109.0284         estimate D2E/DX2                !
 ! A117  A(20,58,61)           110.8723         estimate D2E/DX2                !
 ! A118  A(59,58,60)           107.9627         estimate D2E/DX2                !
 ! A119  A(59,58,61)           108.4282         estimate D2E/DX2                !
 ! A120  A(60,58,61)           108.4588         estimate D2E/DX2                !
 ! A121  A(20,62,63)           111.6201         estimate D2E/DX2                !
 ! A122  A(20,62,64)           111.551          estimate D2E/DX2                !
 ! A123  A(20,62,65)           109.15           estimate D2E/DX2                !
 ! A124  A(63,62,64)           108.6609         estimate D2E/DX2                !
 ! A125  A(63,62,65)           107.7883         estimate D2E/DX2                !
 ! A126  A(64,62,65)           107.9314         estimate D2E/DX2                !
 ! A127  A(20,66,67)           109.0633         estimate D2E/DX2                !
 ! A128  A(20,66,68)           111.8129         estimate D2E/DX2                !
 ! A129  A(20,66,69)           110.8501         estimate D2E/DX2                !
 ! A130  A(67,66,68)           108.1425         estimate D2E/DX2                !
 ! A131  A(67,66,69)           108.4569         estimate D2E/DX2                !
 ! A132  A(68,66,69)           108.4208         estimate D2E/DX2                !
 ! D1    D(6,1,2,3)              0.429          estimate D2E/DX2                !
 ! D2    D(6,1,2,11)          -179.8369         estimate D2E/DX2                !
 ! D3    D(24,1,2,3)          -179.662          estimate D2E/DX2                !
 ! D4    D(24,1,2,11)            0.0721         estimate D2E/DX2                !
 ! D5    D(2,1,6,5)             -0.2141         estimate D2E/DX2                !
 ! D6    D(2,1,6,26)           179.743          estimate D2E/DX2                !
 ! D7    D(24,1,6,5)           179.901          estimate D2E/DX2                !
 ! D8    D(24,1,6,26)           -0.1419         estimate D2E/DX2                !
 ! D9    D(2,1,24,7)            -0.0499         estimate D2E/DX2                !
 ! D10   D(2,1,24,25)         -179.6434         estimate D2E/DX2                !
 ! D11   D(6,1,24,7)           179.8497         estimate D2E/DX2                !
 ! D12   D(6,1,24,25)            0.2561         estimate D2E/DX2                !
 ! D13   D(1,2,3,4)             -0.346          estimate D2E/DX2                !
 ! D14   D(1,2,3,8)            179.6673         estimate D2E/DX2                !
 ! D15   D(11,2,3,4)           179.9912         estimate D2E/DX2                !
 ! D16   D(11,2,3,8)             0.0046         estimate D2E/DX2                !
 ! D17   D(1,2,11,7)            -0.0656         estimate D2E/DX2                !
 ! D18   D(3,2,11,7)           179.627          estimate D2E/DX2                !
 ! D19   D(2,3,4,5)              0.0857         estimate D2E/DX2                !
 ! D20   D(2,3,4,9)           -179.8005         estimate D2E/DX2                !
 ! D21   D(8,3,4,5)           -179.9278         estimate D2E/DX2                !
 ! D22   D(8,3,4,9)              0.186          estimate D2E/DX2                !
 ! D23   D(3,4,5,6)              0.1226         estimate D2E/DX2                !
 ! D24   D(3,4,5,10)          -179.7789         estimate D2E/DX2                !
 ! D25   D(9,4,5,6)           -179.9902         estimate D2E/DX2                !
 ! D26   D(9,4,5,10)             0.1083         estimate D2E/DX2                !
 ! D27   D(4,5,6,1)             -0.0581         estimate D2E/DX2                !
 ! D28   D(4,5,6,26)           179.9856         estimate D2E/DX2                !
 ! D29   D(10,5,6,1)           179.8436         estimate D2E/DX2                !
 ! D30   D(10,5,6,26)           -0.1127         estimate D2E/DX2                !
 ! D31   D(1,6,26,27)          179.2539         estimate D2E/DX2                !
 ! D32   D(1,6,26,28)           -0.7667         estimate D2E/DX2                !
 ! D33   D(5,6,26,27)           -0.7924         estimate D2E/DX2                !
 ! D34   D(5,6,26,28)          179.187          estimate D2E/DX2                !
 ! D35   D(13,7,11,2)         -179.938          estimate D2E/DX2                !
 ! D36   D(24,7,11,2)            0.0351         estimate D2E/DX2                !
 ! D37   D(11,7,13,12)          -1.5076         estimate D2E/DX2                !
 ! D38   D(11,7,13,14)         178.0809         estimate D2E/DX2                !
 ! D39   D(24,7,13,12)         178.5237         estimate D2E/DX2                !
 ! D40   D(24,7,13,14)          -1.8878         estimate D2E/DX2                !
 ! D41   D(11,7,24,1)            0.0106         estimate D2E/DX2                !
 ! D42   D(11,7,24,25)         179.5438         estimate D2E/DX2                !
 ! D43   D(13,7,24,1)          179.9822         estimate D2E/DX2                !
 ! D44   D(13,7,24,25)          -0.4845         estimate D2E/DX2                !
 ! D45   D(17,12,13,7)        -178.6564         estimate D2E/DX2                !
 ! D46   D(17,12,13,14)          1.7422         estimate D2E/DX2                !
 ! D47   D(22,12,13,7)           1.5906         estimate D2E/DX2                !
 ! D48   D(22,12,13,14)       -178.0108         estimate D2E/DX2                !
 ! D49   D(13,12,17,16)         -1.7821         estimate D2E/DX2                !
 ! D50   D(13,12,17,21)        178.5118         estimate D2E/DX2                !
 ! D51   D(22,12,17,16)        177.9727         estimate D2E/DX2                !
 ! D52   D(22,12,17,21)         -1.7334         estimate D2E/DX2                !
 ! D53   D(13,12,22,23)         -0.7665         estimate D2E/DX2                !
 ! D54   D(17,12,22,23)        179.4783         estimate D2E/DX2                !
 ! D55   D(7,13,14,15)         179.9641         estimate D2E/DX2                !
 ! D56   D(7,13,14,18)          -0.1889         estimate D2E/DX2                !
 ! D57   D(12,13,14,15)         -0.4536         estimate D2E/DX2                !
 ! D58   D(12,13,14,18)        179.3934         estimate D2E/DX2                !
 ! D59   D(13,14,15,16)         -0.6946         estimate D2E/DX2                !
 ! D60   D(13,14,15,20)        178.7407         estimate D2E/DX2                !
 ! D61   D(18,14,15,16)        179.4594         estimate D2E/DX2                !
 ! D62   D(18,14,15,20)         -1.1053         estimate D2E/DX2                !
 ! D63   D(14,15,16,17)          0.618          estimate D2E/DX2                !
 ! D64   D(14,15,16,19)       -179.2891         estimate D2E/DX2                !
 ! D65   D(20,15,16,17)       -178.8427         estimate D2E/DX2                !
 ! D66   D(20,15,16,19)          1.2501         estimate D2E/DX2                !
 ! D67   D(14,15,20,58)        123.1012         estimate D2E/DX2                !
 ! D68   D(14,15,20,62)          2.2798         estimate D2E/DX2                !
 ! D69   D(14,15,20,66)       -118.1293         estimate D2E/DX2                !
 ! D70   D(16,15,20,58)        -57.4628         estimate D2E/DX2                !
 ! D71   D(16,15,20,62)       -178.2842         estimate D2E/DX2                !
 ! D72   D(16,15,20,66)         61.3067         estimate D2E/DX2                !
 ! D73   D(15,16,17,12)          0.6297         estimate D2E/DX2                !
 ! D74   D(15,16,17,21)       -179.6683         estimate D2E/DX2                !
 ! D75   D(19,16,17,12)       -179.4641         estimate D2E/DX2                !
 ! D76   D(19,16,17,21)          0.2378         estimate D2E/DX2                !
 ! D77   D(12,17,21,46)        -59.672          estimate D2E/DX2                !
 ! D78   D(12,17,21,50)       -178.8667         estimate D2E/DX2                !
 ! D79   D(12,17,21,54)         61.6174         estimate D2E/DX2                !
 ! D80   D(16,17,21,46)        120.6399         estimate D2E/DX2                !
 ! D81   D(16,17,21,50)          1.4452         estimate D2E/DX2                !
 ! D82   D(16,17,21,54)       -118.0707         estimate D2E/DX2                !
 ! D83   D(15,20,58,59)         59.2648         estimate D2E/DX2                !
 ! D84   D(15,20,58,60)        178.675          estimate D2E/DX2                !
 ! D85   D(15,20,58,61)        -61.9875         estimate D2E/DX2                !
 ! D86   D(62,20,58,59)       -177.6848         estimate D2E/DX2                !
 ! D87   D(62,20,58,60)        -58.2746         estimate D2E/DX2                !
 ! D88   D(62,20,58,61)         61.0629         estimate D2E/DX2                !
 ! D89   D(66,20,58,59)        -58.8981         estimate D2E/DX2                !
 ! D90   D(66,20,58,60)         60.5121         estimate D2E/DX2                !
 ! D91   D(66,20,58,61)        179.8496         estimate D2E/DX2                !
 ! D92   D(15,20,62,63)        -61.0956         estimate D2E/DX2                !
 ! D93   D(15,20,62,64)         60.679          estimate D2E/DX2                !
 ! D94   D(15,20,62,65)        179.8591         estimate D2E/DX2                !
 ! D95   D(58,20,62,63)        177.9402         estimate D2E/DX2                !
 ! D96   D(58,20,62,64)        -60.2852         estimate D2E/DX2                !
 ! D97   D(58,20,62,65)         58.8949         estimate D2E/DX2                !
 ! D98   D(66,20,62,63)         58.9457         estimate D2E/DX2                !
 ! D99   D(66,20,62,64)       -179.2797         estimate D2E/DX2                !
 ! D100  D(66,20,62,65)        -60.0996         estimate D2E/DX2                !
 ! D101  D(15,20,66,67)       -178.4203         estimate D2E/DX2                !
 ! D102  D(15,20,66,68)        -58.8716         estimate D2E/DX2                !
 ! D103  D(15,20,66,69)         62.236          estimate D2E/DX2                !
 ! D104  D(58,20,66,67)        -59.7657         estimate D2E/DX2                !
 ! D105  D(58,20,66,68)         59.783          estimate D2E/DX2                !
 ! D106  D(58,20,66,69)       -179.1094         estimate D2E/DX2                !
 ! D107  D(62,20,66,67)         58.9596         estimate D2E/DX2                !
 ! D108  D(62,20,66,68)        178.5082         estimate D2E/DX2                !
 ! D109  D(62,20,66,69)        -60.3841         estimate D2E/DX2                !
 ! D110  D(17,21,46,47)         62.0499         estimate D2E/DX2                !
 ! D111  D(17,21,46,48)       -178.143          estimate D2E/DX2                !
 ! D112  D(17,21,46,49)        -59.3031         estimate D2E/DX2                !
 ! D113  D(50,21,46,47)       -176.837          estimate D2E/DX2                !
 ! D114  D(50,21,46,48)        -57.0299         estimate D2E/DX2                !
 ! D115  D(50,21,46,49)         61.81           estimate D2E/DX2                !
 ! D116  D(54,21,46,47)        -59.0182         estimate D2E/DX2                !
 ! D117  D(54,21,46,48)         60.7889         estimate D2E/DX2                !
 ! D118  D(54,21,46,49)        179.6288         estimate D2E/DX2                !
 ! D119  D(17,21,50,51)        179.0323         estimate D2E/DX2                !
 ! D120  D(17,21,50,52)        -61.7663         estimate D2E/DX2                !
 ! D121  D(17,21,50,53)         59.9914         estimate D2E/DX2                !
 ! D122  D(46,21,50,51)         58.6169         estimate D2E/DX2                !
 ! D123  D(46,21,50,52)        177.8182         estimate D2E/DX2                !
 ! D124  D(46,21,50,53)        -60.424          estimate D2E/DX2                !
 ! D125  D(54,21,50,51)        -60.482          estimate D2E/DX2                !
 ! D126  D(54,21,50,52)         58.7194         estimate D2E/DX2                !
 ! D127  D(54,21,50,53)       -179.5229         estimate D2E/DX2                !
 ! D128  D(17,21,54,55)        -63.4539         estimate D2E/DX2                !
 ! D129  D(17,21,54,56)         57.6456         estimate D2E/DX2                !
 ! D130  D(17,21,54,57)        176.6174         estimate D2E/DX2                !
 ! D131  D(46,21,54,55)         57.6768         estimate D2E/DX2                !
 ! D132  D(46,21,54,56)        178.7763         estimate D2E/DX2                !
 ! D133  D(46,21,54,57)        -62.252          estimate D2E/DX2                !
 ! D134  D(50,21,54,55)        175.3023         estimate D2E/DX2                !
 ! D135  D(50,21,54,56)        -63.5982         estimate D2E/DX2                !
 ! D136  D(50,21,54,57)         55.3736         estimate D2E/DX2                !
 ! D137  D(6,26,28,29)        -179.977          estimate D2E/DX2                !
 ! D138  D(27,26,28,29)          0.0009         estimate D2E/DX2                !
 ! D139  D(26,28,29,30)        -66.8419         estimate D2E/DX2                !
 ! D140  D(26,28,29,31)         58.4154         estimate D2E/DX2                !
 ! D141  D(26,28,29,32)        176.062          estimate D2E/DX2                !
 ! D142  D(28,29,30,33)       -176.339          estimate D2E/DX2                !
 ! D143  D(28,29,30,34)         63.0974         estimate D2E/DX2                !
 ! D144  D(28,29,30,35)        -53.7406         estimate D2E/DX2                !
 ! D145  D(31,29,30,33)         57.0112         estimate D2E/DX2                !
 ! D146  D(31,29,30,34)        -63.5525         estimate D2E/DX2                !
 ! D147  D(31,29,30,35)        179.6095         estimate D2E/DX2                !
 ! D148  D(32,29,30,33)        -60.3456         estimate D2E/DX2                !
 ! D149  D(32,29,30,34)        179.0907         estimate D2E/DX2                !
 ! D150  D(32,29,30,35)         62.2527         estimate D2E/DX2                !
 ! D151  D(28,29,31,36)        176.6321         estimate D2E/DX2                !
 ! D152  D(28,29,31,37)        -63.2449         estimate D2E/DX2                !
 ! D153  D(28,29,31,38)         53.7317         estimate D2E/DX2                !
 ! D154  D(30,29,31,36)        -57.3257         estimate D2E/DX2                !
 ! D155  D(30,29,31,37)         62.7973         estimate D2E/DX2                !
 ! D156  D(30,29,31,38)        179.7739         estimate D2E/DX2                !
 ! D157  D(32,29,31,36)         60.0461         estimate D2E/DX2                !
 ! D158  D(32,29,31,37)       -179.8309         estimate D2E/DX2                !
 ! D159  D(32,29,31,38)        -62.8543         estimate D2E/DX2                !
 ! D160  D(29,30,33,39)        -56.1545         estimate D2E/DX2                !
 ! D161  D(29,30,33,40)       -179.1592         estimate D2E/DX2                !
 ! D162  D(29,30,33,41)         64.2347         estimate D2E/DX2                !
 ! D163  D(34,30,33,39)         63.6407         estimate D2E/DX2                !
 ! D164  D(34,30,33,40)        -59.364          estimate D2E/DX2                !
 ! D165  D(34,30,33,41)       -175.9701         estimate D2E/DX2                !
 ! D166  D(35,30,33,39)       -178.0564         estimate D2E/DX2                !
 ! D167  D(35,30,33,40)         58.9389         estimate D2E/DX2                !
 ! D168  D(35,30,33,41)        -57.6671         estimate D2E/DX2                !
 ! D169  D(29,31,36,39)         56.5821         estimate D2E/DX2                !
 ! D170  D(29,31,36,42)        179.176          estimate D2E/DX2                !
 ! D171  D(29,31,36,43)        -64.0295         estimate D2E/DX2                !
 ! D172  D(37,31,36,39)        -63.4582         estimate D2E/DX2                !
 ! D173  D(37,31,36,42)         59.1357         estimate D2E/DX2                !
 ! D174  D(37,31,36,43)        175.9302         estimate D2E/DX2                !
 ! D175  D(38,31,36,39)        178.6086         estimate D2E/DX2                !
 ! D176  D(38,31,36,42)        -58.7975         estimate D2E/DX2                !
 ! D177  D(38,31,36,43)         57.997          estimate D2E/DX2                !
 ! D178  D(30,33,39,36)         55.2343         estimate D2E/DX2                !
 ! D179  D(30,33,39,44)        177.9585         estimate D2E/DX2                !
 ! D180  D(30,33,39,45)        -64.9236         estimate D2E/DX2                !
 ! D181  D(40,33,39,36)        177.9639         estimate D2E/DX2                !
 ! D182  D(40,33,39,44)        -59.312          estimate D2E/DX2                !
 ! D183  D(40,33,39,45)         57.8059         estimate D2E/DX2                !
 ! D184  D(41,33,39,36)        -64.9963         estimate D2E/DX2                !
 ! D185  D(41,33,39,44)         57.7278         estimate D2E/DX2                !
 ! D186  D(41,33,39,45)        174.8457         estimate D2E/DX2                !
 ! D187  D(31,36,39,33)        -55.3529         estimate D2E/DX2                !
 ! D188  D(31,36,39,44)       -178.0812         estimate D2E/DX2                !
 ! D189  D(31,36,39,45)         64.8571         estimate D2E/DX2                !
 ! D190  D(42,36,39,33)       -177.5208         estimate D2E/DX2                !
 ! D191  D(42,36,39,44)         59.751          estimate D2E/DX2                !
 ! D192  D(42,36,39,45)        -57.3107         estimate D2E/DX2                !
 ! D193  D(43,36,39,33)         65.2066         estimate D2E/DX2                !
 ! D194  D(43,36,39,44)        -57.5217         estimate D2E/DX2                !
 ! D195  D(43,36,39,45)       -174.5834         estimate D2E/DX2                !
 --------------------------------------------------------------------------------
 Trust Radius=3.00D-01 FncErr=5.00D-06 GrdErr=5.00D-06 EigMax=2.50D+02 EigMin=1.00D-04
 Number of steps in this run=    409 maximum allowed number of steps=    414.
 GradGradGradGradGradGradGradGradGradGradGradGradGradGradGradGradGradGrad

 Leave Link  103 at Fri Dec 21 16:02:00 2018, MaxMem=  1342177280 cpu:               0.6 elap:               0.1
 (Enter /gpfs/apps/hpc/Apps/Restricted/Gaussian/Rev_A.03/g16/l202.exe)
 Symmetry turned off by external request.
 Stoichiometry    C28H37N3O(1+,2)
 Framework group  C1[X(C28H37N3O)]
 Deg. of freedom   201
 Full point group                 C1      NOp   1
                          Input orientation:                          
 ---------------------------------------------------------------------
 Center     Atomic      Atomic             Coordinates (Angstroms)
 Number     Number       Type             X           Y           Z
 ---------------------------------------------------------------------
      1          6           0       -0.439439    2.706700    0.233437
      2          6           0       -1.853310    2.850425    0.181337
      3          6           0       -2.429226    4.130549    0.090659
      4          6           0       -1.563900    5.212024    0.063516
      5          6           0       -0.157618    5.052286    0.121858
      6          6           0        0.445060    3.799183    0.207638
      7          6           0       -1.402747    0.722164    0.305221
      8          1           0       -3.503059    4.256794    0.044721
      9          1           0       -1.968019    6.214716   -0.002499
     10          1           0        0.472399    5.934039    0.100720
     11          7           0       -2.415279    1.603313    0.228743
     12          6           0       -2.999649   -1.174787    0.386002
     13          6           0       -1.621064   -0.695106    0.370598
     14          6           0       -0.574463   -1.613384    0.410637
     15          6           0       -0.831237   -2.980677    0.474550
     16          6           0       -2.191579   -3.420843    0.513388
     17          6           0       -3.278998   -2.583329    0.479798
     18          1           0        0.445113   -1.255714    0.389146
     19          1           0       -2.365062   -4.484470    0.574651
     20          6           0        0.269737   -4.027585    0.492356
     21          6           0       -4.717359   -3.103365    0.531321
     22          8           0       -3.988373   -0.329444    0.309941
     23          1           0       -3.605028    0.640680    0.257615
     24          7           0       -0.193792    1.365942    0.309554
     25          1           0        0.759383    1.012908    0.363184
     26          6           0        1.893311    3.609599    0.268700
     27          1           0        2.499635    4.519893    0.229761
     28          7           0        2.395103    2.434919    0.362534
     29          6           0        3.858522    2.306050    0.420648
     30          6           0        4.523198    2.728346   -0.900438
     31          6           0        4.480822    3.069457    1.601498
     32          1           0        4.060453    1.239360    0.569812
     33          6           0        6.037374    2.498323   -0.842441
     34          1           0        4.315093    3.791486   -1.070853
     35          1           0        4.076669    2.173455   -1.730840
     36          6           0        5.994037    2.833816    1.663333
     37          1           0        4.288400    4.141432    1.475246
     38          1           0        3.996323    2.762431    2.532844
     39          6           0        6.669575    3.231845    0.345639
     40          1           0        6.501605    2.815721   -1.780938
     41          1           0        6.229192    1.422411   -0.744130
     42          1           0        6.422658    3.395080    2.499213
     43          1           0        6.185833    1.772063    1.862442
     44          1           0        7.743457    3.026827    0.391649
     45          1           0        6.557743    4.313670    0.199749
     46          6           0       -5.445868   -2.513318    1.759568
     47          1           0       -5.512580   -1.427381    1.707420
     48          1           0       -6.459873   -2.919013    1.801484
     49          1           0       -4.930294   -2.789109    2.682988
     50          6           0       -4.745122   -4.634510    0.658225
     51          1           0       -5.784166   -4.965057    0.709218
     52          1           0       -4.278360   -5.125190   -0.199972
     53          1           0       -4.238944   -4.972103    1.566424
     54          6           0       -5.460763   -2.714372   -0.765991
     55          1           0       -5.548324   -1.633979   -0.873542
     56          1           0       -4.938029   -3.110778   -1.640020
     57          1           0       -6.466523   -3.141703   -0.745001
     58          6           0        0.115342   -4.901014    1.758251
     59          1           0       -0.853388   -5.403226    1.792660
     60          1           0        0.893232   -5.668769    1.758509
     61          1           0        0.224071   -4.298246    2.662556
     62          6           0        1.671191   -3.405324    0.488872
     63          1           0        1.842974   -2.805154   -0.407898
     64          1           0        1.833024   -2.775729    1.367263
     65          1           0        2.417216   -4.202659    0.504651
     66          6           0        0.113222   -4.917392   -0.763089
     67          1           0        0.882660   -5.693531   -0.748734
     68          1           0       -0.862463   -5.406458   -0.794663
     69          1           0        0.233537   -4.328000   -1.674795
 ---------------------------------------------------------------------
 Rotational constants (GHZ):           0.1858617           0.0709367           0.0536845
 Leave Link  202 at Fri Dec 21 16:02:00 2018, MaxMem=  1342177280 cpu:               0.3 elap:               0.0
 (Enter /gpfs/apps/hpc/Apps/Restricted/Gaussian/Rev_A.03/g16/l301.exe)
 Standard basis: 6-31G(d,p) (6D, 7F)
 Ernie: Thresh=  0.10000D-02 Tol=  0.10000D-05 Strict=F.
   665 basis functions,  1155 primitive gaussians,   665 cartesian basis functions
   117 alpha electrons      116 beta electrons
       nuclear repulsion energy      3168.0540561090 Hartrees.
 IExCor=  402 DFT=T Ex+Corr=B3LYP ExCW=0 ScaHFX=  0.200000
 ScaDFX=  0.800000  0.720000  1.000000  0.810000 ScalE2=  1.000000  1.000000
 IRadAn=      5 IRanWt=     -1 IRanGd=            0 ICorTp=0 IEmpDi=141
 NAtoms=   69 NActive=   69 NUniq=   69 SFac= 1.00D+00 NAtFMM=   60 NAOKFM=T Big=T
 Integral buffers will be    131072 words long.
 Raffenetti 2 integral format.
 Two-electron integral symmetry is turned off.
 R6Disp:  Grimme-D3(BJ) Dispersion energy=       -0.1503652241 Hartrees.
 Nuclear repulsion after empirical dispersion term =     3167.9036908850 Hartrees.
 Using the following non-standard input for PCM:
 radii=bondi
 dis
 rep
 cav
 --- end of non-standard input.
 ------------------------------------------------------------------------------
 Polarizable Continuum Model (PCM)
 =================================
 Model                : C-PCM.
 Atomic radii         : Bondi.
 Polarization charges : Total charges.
 Charge compensation  : None.
 Solution method      : On-the-fly selection.
 Cavity type          : Scaled VdW (van der Waals Surface) (Alpha=1.100).
 Cavity algorithm     : GePol (No added spheres)
                        Default sphere list used, NSphG=   69.
                        Lebedev-Laikov grids with approx.  5.0 points / Ang**2.
                        Smoothing algorithm: York/Karplus (Gamma=1.0000).
                        Polarization charges: spherical gaussians, with
                                              point-specific exponents (IZeta= 3).
                        Self-potential: point-specific (ISelfS= 7).
                        Self-field    : sphere-specific E.n sum rule (ISelfD= 2).
 1st derivatives      : Analytical E(r).r(x)/FMM algorithm (CHGder, D1EAlg=3).
                        Cavity 1st derivative terms included.
 Solvent              : Dichloromethane, Eps=   8.930000 Eps(inf)=   2.028346
 ------------------------------------------------------------------------------
 GePol: Number of generator spheres                  =      69
 GePol: Total number of spheres                      =      69
 GePol: Number of exposed spheres                    =      69 (100.00%)
 GePol: Number of points                             =    4315
 GePol: Average weight of points                     =       0.12
 GePol: Minimum weight of points                     =   0.57D-11
 GePol: Maximum weight of points                     =    0.21770
 GePol: Number of points with low weight             =     309
 GePol: Fraction of low-weight points (<1% of avg)   =       7.16%
 GePol: Cavity surface area                          =    517.425 Ang**2
 GePol: Cavity volume                                =    500.051 Ang**3
 PCM non-electrostatic energy =         0.0251172969 Hartrees.
 Nuclear repulsion after PCM non-electrostatic terms =     3167.9288081818 Hartrees.
 Leave Link  301 at Fri Dec 21 16:02:00 2018, MaxMem=  1342177280 cpu:               2.9 elap:               0.2
 (Enter /gpfs/apps/hpc/Apps/Restricted/Gaussian/Rev_A.03/g16/l302.exe)
 NPDir=0 NMtPBC=     1 NCelOv=     1 NCel=       1 NClECP=     1 NCelD=      1
         NCelK=      1 NCelE2=     1 NClLst=     1 CellRange=     0.0.
 One-electron integrals computed using PRISM.
 NBasis=   665 RedAO= T EigKep=  3.00D-04  NBF=   665
 NBsUse=   665 1.00D-06 EigRej= -1.00D+00 NBFU=   665
 Precomputing XC quadrature grid using
 IXCGrd= 4 IRadAn=           5 IRanWt=          -1 IRanGd=           0 AccXCQ= 0.00D+00.
 Generated NRdTot=       0 NPtTot=           0 NUsed=           0 NTot=          32
 NSgBfM=   647   647   647   647   647 MxSgAt=    69 MxSgA2=    69.
 Leave Link  302 at Fri Dec 21 16:02:01 2018, MaxMem=  1342177280 cpu:              17.3 elap:               1.1
 (Enter /gpfs/apps/hpc/Apps/Restricted/Gaussian/Rev_A.03/g16/l303.exe)
 DipDrv:  MaxL=1.
 Leave Link  303 at Fri Dec 21 16:02:01 2018, MaxMem=  1342177280 cpu:               1.3 elap:               0.1
 (Enter /gpfs/apps/hpc/Apps/Restricted/Gaussian/Rev_A.03/g16/l401.exe)
 ExpMin= 1.61D-01 ExpMax= 5.48D+03 ExpMxC= 8.25D+02 IAcc=3 IRadAn=         5 AccDes= 0.00D+00
 Harris functional with IExCor=  402 and IRadAn=       5 diagonalized for initial guess.
 HarFok:  IExCor=  402 AccDes= 0.00D+00 IRadAn=         5 IDoV= 1 UseB2=F ITyADJ=14
 ICtDFT=  3500011 ScaDFX=  1.000000  1.000000  1.000000  1.000000
 FoFCou: FMM=F IPFlag=           0 FMFlag=      100000 FMFlg1=        2001
         NFxFlg=           0 DoJE=T BraDBF=F KetDBF=T FulRan=T
         wScrn=  0.000000 ICntrl=       500 IOpCl=  0 I1Cent=   200000004 NGrid=           0
         NMat0=    1 NMatS0=      1 NMatT0=    0 NMatD0=    1 NMtDS0=    0 NMtDT0=    0
 Symmetry not used in FoFCou.
 Harris En= -1328.76959020267    
 JPrj=0 DoOrth=F DoCkMO=F.
 Initial guess <Sx>= 0.0000 <Sy>= 0.0000 <Sz>= 0.5000 <S**2>= 0.7500 S= 0.5000
 Leave Link  401 at Fri Dec 21 16:02:05 2018, MaxMem=  1342177280 cpu:              60.3 elap:               3.8
 (Enter /gpfs/apps/hpc/Apps/Restricted/Gaussian/Rev_A.03/g16/l502.exe)
 Two-electron integral symmetry not used.
 UHF open shell SCF:
 Using DIIS extrapolation, IDIIS=  1040.
 NGot=  1342177280 LenX=  1341276554 LenY=  1340833664
 Requested convergence on RMS density matrix=1.00D-08 within 128 cycles.
 Requested convergence on MAX density matrix=1.00D-06.
 Requested convergence on             energy=1.00D-06.
 No special actions if energy rises.
 Fock matrices will be formed incrementally for  20 cycles.

 Cycle   1  Pass 1  IDiag  1:
 FoFJK:  IHMeth= 1 ICntrl=       0 DoSepK=F KAlg= 0 I1Cent=           0 FoldK=F
 IRaf= 760000000 NMat=       1 IRICut=       1 DoRegI=T DoRafI=F ISym2E= 0 IDoP0=0 IntGTp=1.
 FoFCou: FMM=T IPFlag=           0 FMFlag=      100000 FMFlg1=        2001
         NFxFlg=           0 DoJE=F BraDBF=F KetDBF=F FulRan=T
         wScrn=  0.000000 ICntrl=         0 IOpCl=  1 I1Cent=           0 NGrid=           0
         NMat0=    1 NMatS0=      1 NMatT0=    0 NMatD0=    1 NMtDS0=    0 NMtDT0=    0
 Symmetry not used in FoFCou.
 FMM levels:  10  Number of levels for PrismC:   9
 Inv3:  Mode=1 IEnd=    55857675.
 Iteration    1 A*A^-1 deviation from unit magnitude is 9.88D-15 for    920.
 Iteration    1 A*A^-1 deviation from orthogonality  is 4.86D-15 for   3342    942.
 Iteration    1 A^-1*A deviation from unit magnitude is 8.10D-15 for    920.
 Iteration    1 A^-1*A deviation from orthogonality  is 1.99D-15 for   4310   1958.
 E= -1327.99008450186    
 DIIS: error= 2.86D-02 at cycle   1 NSaved=   1.
 NSaved= 1 IEnMin= 1 EnMin= -1327.99008450186     IErMin= 1 ErrMin= 2.86D-02
 ErrMax= 2.86D-02  0.00D+00 EMaxC= 1.00D-01 BMatC= 3.06D+00 BMatP= 3.06D+00
 IDIUse=3 WtCom= 7.14D-01 WtEn= 2.86D-01
 Coeff-Com:  0.100D+01
 Coeff-En:   0.100D+01
 Coeff:      0.100D+01
 Gap=     0.171 Goal=   None    Shift=    0.000
 Gap=     0.046 Goal=   None    Shift=    0.000
 GapD=    0.046 DampG=0.250 DampE=0.500 DampFc=0.2500 IDamp=-1.
 Damping current iteration by 2.50D-01
 RMSDP=3.12D-03 MaxDP=1.37D-01              OVMax= 3.00D-01

 Cycle   2  Pass 1  IDiag  1:
 RMSU=  7.58D-04    CP:  9.84D-01
 E= -1328.28284573182     Delta-E=       -0.292761229955 Rises=F Damp=T
 DIIS: error= 1.54D-02 at cycle   2 NSaved=   2.
 NSaved= 2 IEnMin= 2 EnMin= -1328.28284573182     IErMin= 2 ErrMin= 1.54D-02
 ErrMax= 1.54D-02  0.00D+00 EMaxC= 1.00D-01 BMatC= 8.04D-01 BMatP= 3.06D+00
 IDIUse=3 WtCom= 8.46D-01 WtEn= 1.54D-01
 Coeff-Com: -0.852D+00 0.185D+01
 Coeff-En:   0.000D+00 0.100D+01
 Coeff:     -0.721D+00 0.172D+01
 Gap=     0.218 Goal=   None    Shift=    0.000
 Gap=     0.083 Goal=   None    Shift=    0.000
 RMSDP=1.16D-03 MaxDP=7.16D-02 DE=-2.93D-01 OVMax= 2.77D-01

 Cycle   3  Pass 1  IDiag  1:
 RMSU=  8.15D-04    CP:  9.55D-01  1.98D+00
 E= -1328.77582832455     Delta-E=       -0.492982592732 Rises=F Damp=F
 DIIS: error= 4.54D-03 at cycle   3 NSaved=   3.
 NSaved= 3 IEnMin= 3 EnMin= -1328.77582832455     IErMin= 3 ErrMin= 4.54D-03
 ErrMax= 4.54D-03  0.00D+00 EMaxC= 1.00D-01 BMatC= 9.06D-02 BMatP= 8.04D-01
 IDIUse=3 WtCom= 9.55D-01 WtEn= 4.54D-02
 Coeff-Com: -0.311D+00 0.686D+00 0.625D+00
 Coeff-En:   0.000D+00 0.000D+00 0.100D+01
 Coeff:     -0.297D+00 0.655D+00 0.642D+00
 Gap=     0.156 Goal=   None    Shift=    0.000
 Gap=     0.057 Goal=   None    Shift=    0.000
 RMSDP=4.04D-04 MaxDP=3.72D-02 DE=-4.93D-01 OVMax= 1.26D-01

 Cycle   4  Pass 1  IDiag  1:
 RMSU=  3.23D-04    CP:  9.58D-01  2.01D+00  7.08D-01
 E= -1328.79042465260     Delta-E=       -0.014596328055 Rises=F Damp=F
 DIIS: error= 3.77D-03 at cycle   4 NSaved=   4.
 NSaved= 4 IEnMin= 4 EnMin= -1328.79042465260     IErMin= 4 ErrMin= 3.77D-03
 ErrMax= 3.77D-03  0.00D+00 EMaxC= 1.00D-01 BMatC= 3.99D-02 BMatP= 9.06D-02
 IDIUse=3 WtCom= 9.62D-01 WtEn= 3.77D-02
 Coeff-Com: -0.465D-01 0.116D+00 0.395D+00 0.535D+00
 Coeff-En:   0.000D+00 0.000D+00 0.307D+00 0.693D+00
 Coeff:     -0.447D-01 0.112D+00 0.392D+00 0.541D+00
 Gap=     0.157 Goal=   None    Shift=    0.000
 Gap=     0.059 Goal=   None    Shift=    0.000
 RMSDP=1.77D-04 MaxDP=1.77D-02 DE=-1.46D-02 OVMax= 3.49D-02

 Cycle   5  Pass 1  IDiag  1:
 RMSU=  9.63D-05    CP:  9.57D-01  1.98D+00  7.98D-01  6.08D-01
 E= -1328.80005002143     Delta-E=       -0.009625368830 Rises=F Damp=F
 DIIS: error= 7.83D-04 at cycle   5 NSaved=   5.
 NSaved= 5 IEnMin= 5 EnMin= -1328.80005002143     IErMin= 5 ErrMin= 7.83D-04
 ErrMax= 7.83D-04  0.00D+00 EMaxC= 1.00D-01 BMatC= 2.51D-03 BMatP= 3.99D-02
 IDIUse=3 WtCom= 9.92D-01 WtEn= 7.83D-03
 Coeff-Com:  0.284D-02 0.144D-02 0.155D+00 0.282D+00 0.559D+00
 Coeff-En:   0.000D+00 0.000D+00 0.000D+00 0.000D+00 0.100D+01
 Coeff:      0.282D-02 0.143D-02 0.154D+00 0.279D+00 0.563D+00
 Gap=     0.156 Goal=   None    Shift=    0.000
 Gap=     0.060 Goal=   None    Shift=    0.000
 RMSDP=5.21D-05 MaxDP=5.97D-03 DE=-9.63D-03 OVMax= 1.70D-02

 Cycle   6  Pass 1  IDiag  1:
 RMSU=  3.53D-05    CP:  9.57D-01  1.98D+00  8.06D-01  6.55D-01  6.41D-01
 E= -1328.80066261526     Delta-E=       -0.000612593828 Rises=F Damp=F
 DIIS: error= 1.91D-04 at cycle   6 NSaved=   6.
 NSaved= 6 IEnMin= 6 EnMin= -1328.80066261526     IErMin= 6 ErrMin= 1.91D-04
 ErrMax= 1.91D-04  0.00D+00 EMaxC= 1.00D-01 BMatC= 2.32D-04 BMatP= 2.51D-03
 IDIUse=3 WtCom= 9.98D-01 WtEn= 1.91D-03
 Coeff-Com:  0.498D-02-0.778D-02 0.483D-01 0.948D-01 0.291D+00 0.569D+00
 Coeff-En:   0.000D+00 0.000D+00 0.000D+00 0.000D+00 0.000D+00 0.100D+01
 Coeff:      0.497D-02-0.777D-02 0.482D-01 0.946D-01 0.290D+00 0.570D+00
 Gap=     0.156 Goal=   None    Shift=    0.000
 Gap=     0.060 Goal=   None    Shift=    0.000
 RMSDP=1.68D-05 MaxDP=1.75D-03 DE=-6.13D-04 OVMax= 5.53D-03

 Cycle   7  Pass 1  IDiag  1:
 RMSU=  1.46D-05    CP:  9.57D-01  1.98D+00  8.06D-01  6.60D-01  7.25D-01
                    CP:  9.72D-01
 E= -1328.80073364881     Delta-E=       -0.000071033555 Rises=F Damp=F
 DIIS: error= 1.59D-04 at cycle   7 NSaved=   7.
 NSaved= 7 IEnMin= 7 EnMin= -1328.80073364881     IErMin= 7 ErrMin= 1.59D-04
 ErrMax= 1.59D-04  0.00D+00 EMaxC= 1.00D-01 BMatC= 4.49D-05 BMatP= 2.32D-04
 IDIUse=3 WtCom= 9.98D-01 WtEn= 1.59D-03
 Coeff-Com:  0.223D-02-0.439D-02-0.147D-02-0.402D-02 0.583D-01 0.290D+00
 Coeff-Com:  0.659D+00
 Coeff-En:   0.000D+00 0.000D+00 0.000D+00 0.000D+00 0.000D+00 0.000D+00
 Coeff-En:   0.100D+01
 Coeff:      0.223D-02-0.438D-02-0.147D-02-0.401D-02 0.582D-01 0.290D+00
 Coeff:      0.660D+00
 Gap=     0.156 Goal=   None    Shift=    0.000
 Gap=     0.060 Goal=   None    Shift=    0.000
 RMSDP=1.17D-05 MaxDP=1.12D-03 DE=-7.10D-05 OVMax= 7.29D-03

 Cycle   8  Pass 1  IDiag  1:
 RMSU=  7.83D-06    CP:  9.57D-01  1.98D+00  8.07D-01  6.67D-01  7.58D-01
                    CP:  1.19D+00  1.03D+00
 E= -1328.80076061363     Delta-E=       -0.000026964811 Rises=F Damp=F
 DIIS: error= 1.01D-04 at cycle   8 NSaved=   8.
 NSaved= 8 IEnMin= 8 EnMin= -1328.80076061363     IErMin= 8 ErrMin= 1.01D-04
 ErrMax= 1.01D-04  0.00D+00 EMaxC= 1.00D-01 BMatC= 1.45D-05 BMatP= 4.49D-05
 IDIUse=3 WtCom= 9.99D-01 WtEn= 1.01D-03
 Coeff-Com: -0.652D-03 0.817D-03-0.173D-01-0.395D-01-0.756D-01-0.940D-01
 Coeff-Com:  0.326D+00 0.900D+00
 Coeff-En:   0.000D+00 0.000D+00 0.000D+00 0.000D+00 0.000D+00 0.000D+00
 Coeff-En:   0.000D+00 0.100D+01
 Coeff:     -0.651D-03 0.816D-03-0.173D-01-0.395D-01-0.755D-01-0.939D-01
 Coeff:      0.326D+00 0.900D+00
 Gap=     0.156 Goal=   None    Shift=    0.000
 Gap=     0.061 Goal=   None    Shift=    0.000
 RMSDP=1.13D-05 MaxDP=1.32D-03 DE=-2.70D-05 OVMax= 7.92D-03

 Cycle   9  Pass 1  IDiag  1:
 RMSU=  4.13D-06    CP:  9.57D-01  1.98D+00  8.07D-01  6.74D-01  7.94D-01
                    CP:  1.39D+00  1.47D+00  1.31D+00
 E= -1328.80077603658     Delta-E=       -0.000015422955 Rises=F Damp=F
 DIIS: error= 4.07D-05 at cycle   9 NSaved=   9.
 NSaved= 9 IEnMin= 9 EnMin= -1328.80077603658     IErMin= 9 ErrMin= 4.07D-05
 ErrMax= 4.07D-05  0.00D+00 EMaxC= 1.00D-01 BMatC= 5.80D-06 BMatP= 1.45D-05
 IDIUse=1 WtCom= 1.00D+00 WtEn= 0.00D+00
 Coeff-Com: -0.747D-03 0.131D-02-0.990D-02-0.237D-01-0.621D-01-0.150D+00
 Coeff-Com: -0.470D-02 0.563D+00 0.687D+00
 Coeff:     -0.747D-03 0.131D-02-0.990D-02-0.237D-01-0.621D-01-0.150D+00
 Coeff:     -0.470D-02 0.563D+00 0.687D+00
 Gap=     0.156 Goal=   None    Shift=    0.000
 Gap=     0.061 Goal=   None    Shift=    0.000
 RMSDP=6.26D-06 MaxDP=7.02D-04 DE=-1.54D-05 OVMax= 4.32D-03

 Cycle  10  Pass 1  IDiag  1:
 RMSU=  2.17D-06    CP:  9.57D-01  1.98D+00  8.07D-01  6.76D-01  8.11D-01
                    CP:  1.50D+00  1.67D+00  1.65D+00  1.03D+00
 E= -1328.80078083374     Delta-E=       -0.000004797159 Rises=F Damp=F
 DIIS: error= 2.47D-05 at cycle  10 NSaved=  10.
 NSaved=10 IEnMin=10 EnMin= -1328.80078083374     IErMin=10 ErrMin= 2.47D-05
 ErrMax= 2.47D-05  0.00D+00 EMaxC= 1.00D-01 BMatC= 1.05D-06 BMatP= 5.80D-06
 IDIUse=1 WtCom= 1.00D+00 WtEn= 0.00D+00
 Coeff-Com: -0.564D-04 0.234D-03 0.373D-03-0.496D-03-0.694D-02-0.418D-01
 Coeff-Com: -0.888D-01 0.385D-01 0.302D+00 0.797D+00
 Coeff:     -0.564D-04 0.234D-03 0.373D-03-0.496D-03-0.694D-02-0.418D-01
 Coeff:     -0.888D-01 0.385D-01 0.302D+00 0.797D+00
 Gap=     0.156 Goal=   None    Shift=    0.000
 Gap=     0.061 Goal=   None    Shift=    0.000
 RMSDP=3.08D-06 MaxDP=3.81D-04 DE=-4.80D-06 OVMax= 2.07D-03

 Cycle  11  Pass 1  IDiag  1:
 RMSU=  1.21D-06    CP:  9.57D-01  1.98D+00  8.07D-01  6.77D-01  8.17D-01
                    CP:  1.55D+00  1.75D+00  1.82D+00  1.30D+00  1.20D+00
 E= -1328.80078199529     Delta-E=       -0.000001161546 Rises=F Damp=F
 DIIS: error= 1.48D-05 at cycle  11 NSaved=  11.
 NSaved=11 IEnMin=11 EnMin= -1328.80078199529     IErMin=11 ErrMin= 1.48D-05
 ErrMax= 1.48D-05  0.00D+00 EMaxC= 1.00D-01 BMatC= 4.10D-07 BMatP= 1.05D-06
 IDIUse=1 WtCom= 1.00D+00 WtEn= 0.00D+00
 Coeff-Com:  0.221D-03-0.292D-03 0.374D-02 0.781D-02 0.179D-01 0.284D-01
 Coeff-Com: -0.528D-01-0.168D+00-0.663D-01 0.448D+00 0.781D+00
 Coeff:      0.221D-03-0.292D-03 0.374D-02 0.781D-02 0.179D-01 0.284D-01
 Coeff:     -0.528D-01-0.168D+00-0.663D-01 0.448D+00 0.781D+00
 Gap=     0.156 Goal=   None    Shift=    0.000
 Gap=     0.060 Goal=   None    Shift=    0.000
 RMSDP=1.93D-06 MaxDP=3.23D-04 DE=-1.16D-06 OVMax= 1.23D-03

 Cycle  12  Pass 1  IDiag  1:
 RMSU=  5.97D-07    CP:  9.57D-01  1.98D+00  8.07D-01  6.78D-01  8.20D-01
                    CP:  1.57D+00  1.81D+00  1.93D+00  1.47D+00  1.62D+00
                    CP:  1.08D+00
 E= -1328.80078243318     Delta-E=       -0.000000437897 Rises=F Damp=F
 DIIS: error= 6.18D-06 at cycle  12 NSaved=  12.
 NSaved=12 IEnMin=12 EnMin= -1328.80078243318     IErMin=12 ErrMin= 6.18D-06
 ErrMax= 6.18D-06  0.00D+00 EMaxC= 1.00D-01 BMatC= 8.46D-08 BMatP= 4.10D-07
 IDIUse=1 WtCom= 1.00D+00 WtEn= 0.00D+00
 Coeff-Com:  0.938D-04-0.184D-03 0.941D-03 0.224D-02 0.752D-02 0.218D-01
 Coeff-Com:  0.766D-02-0.568D-01-0.110D+00-0.136D+00 0.277D+00 0.986D+00
 Coeff:      0.938D-04-0.184D-03 0.941D-03 0.224D-02 0.752D-02 0.218D-01
 Coeff:      0.766D-02-0.568D-01-0.110D+00-0.136D+00 0.277D+00 0.986D+00
 Gap=     0.156 Goal=   None    Shift=    0.000
 Gap=     0.060 Goal=   None    Shift=    0.000
 RMSDP=1.11D-06 MaxDP=1.66D-04 DE=-4.38D-07 OVMax= 6.27D-04

 Cycle  13  Pass 1  IDiag  1:
 RMSU=  2.99D-07    CP:  9.57D-01  1.98D+00  8.07D-01  6.79D-01  8.21D-01
                    CP:  1.58D+00  1.83D+00  1.98D+00  1.58D+00  1.84D+00
                    CP:  1.46D+00  1.21D+00
 E= -1328.80078253967     Delta-E=       -0.000000106485 Rises=F Damp=F
 DIIS: error= 3.16D-06 at cycle  13 NSaved=  13.
 NSaved=13 IEnMin=13 EnMin= -1328.80078253967     IErMin=13 ErrMin= 3.16D-06
 ErrMax= 3.16D-06  0.00D+00 EMaxC= 1.00D-01 BMatC= 2.45D-08 BMatP= 8.46D-08
 IDIUse=1 WtCom= 1.00D+00 WtEn= 0.00D+00
 Coeff-Com:  0.848D-05-0.413D-04-0.805D-04-0.899D-04 0.121D-02 0.759D-02
 Coeff-Com:  0.125D-01-0.385D-03-0.476D-01-0.151D+00 0.392D-01 0.520D+00
 Coeff-Com:  0.618D+00
 Coeff:      0.848D-05-0.413D-04-0.805D-04-0.899D-04 0.121D-02 0.759D-02
 Coeff:      0.125D-01-0.385D-03-0.476D-01-0.151D+00 0.392D-01 0.520D+00
 Coeff:      0.618D+00
 Gap=     0.156 Goal=   None    Shift=    0.000
 Gap=     0.060 Goal=   None    Shift=    0.000
 RMSDP=2.84D-07 MaxDP=5.02D-05 DE=-1.06D-07 OVMax= 1.21D-04

 Cycle  14  Pass 1  IDiag  1:
 RMSU=  1.60D-07    CP:  9.57D-01  1.98D+00  8.07D-01  6.79D-01  8.21D-01
                    CP:  1.58D+00  1.83D+00  1.98D+00  1.60D+00  1.89D+00
                    CP:  1.52D+00  1.43D+00  8.93D-01
 E= -1328.80078255307     Delta-E=       -0.000000013401 Rises=F Damp=F
 DIIS: error= 2.48D-06 at cycle  14 NSaved=  14.
 NSaved=14 IEnMin=14 EnMin= -1328.80078255307     IErMin=14 ErrMin= 2.48D-06
 ErrMax= 2.48D-06  0.00D+00 EMaxC= 1.00D-01 BMatC= 7.90D-09 BMatP= 2.45D-08
 IDIUse=1 WtCom= 1.00D+00 WtEn= 0.00D+00
 Coeff-Com: -0.251D-04 0.351D-04-0.343D-03-0.770D-03-0.166D-02-0.216D-02
 Coeff-Com:  0.376D-02 0.174D-01 0.525D-02-0.525D-01-0.568D-01-0.104D-01
 Coeff-Com:  0.380D+00 0.718D+00
 Coeff:     -0.251D-04 0.351D-04-0.343D-03-0.770D-03-0.166D-02-0.216D-02
 Coeff:      0.376D-02 0.174D-01 0.525D-02-0.525D-01-0.568D-01-0.104D-01
 Coeff:      0.380D+00 0.718D+00
 Gap=     0.156 Goal=   None    Shift=    0.000
 Gap=     0.060 Goal=   None    Shift=    0.000
 RMSDP=1.96D-07 MaxDP=2.64D-05 DE=-1.34D-08 OVMax= 9.40D-05

 Cycle  15  Pass 1  IDiag  1:
 RMSU=  6.74D-08    CP:  9.57D-01  1.98D+00  8.07D-01  6.79D-01  8.22D-01
                    CP:  1.58D+00  1.84D+00  1.99D+00  1.61D+00  1.92D+00
                    CP:  1.58D+00  1.53D+00  1.17D+00  9.71D-01
 E= -1328.80078255806     Delta-E=       -0.000000004991 Rises=F Damp=F
 DIIS: error= 7.80D-07 at cycle  15 NSaved=  15.
 NSaved=15 IEnMin=15 EnMin= -1328.80078255806     IErMin=15 ErrMin= 7.80D-07
 ErrMax= 7.80D-07  0.00D+00 EMaxC= 1.00D-01 BMatC= 1.03D-09 BMatP= 7.90D-09
 IDIUse=1 WtCom= 1.00D+00 WtEn= 0.00D+00
 Coeff-Com: -0.108D-04 0.205D-04-0.140D-03-0.350D-03-0.101D-02-0.231D-02
 Coeff-Com: -0.820D-03 0.841D-02 0.117D-01 0.430D-02-0.273D-01-0.103D+00
 Coeff-Com:  0.547D-01 0.290D+00 0.766D+00
 Coeff:     -0.108D-04 0.205D-04-0.140D-03-0.350D-03-0.101D-02-0.231D-02
 Coeff:     -0.820D-03 0.841D-02 0.117D-01 0.430D-02-0.273D-01-0.103D+00
 Coeff:      0.547D-01 0.290D+00 0.766D+00
 Gap=     0.156 Goal=   None    Shift=    0.000
 Gap=     0.060 Goal=   None    Shift=    0.000
 RMSDP=7.14D-08 MaxDP=1.10D-05 DE=-4.99D-09 OVMax= 2.83D-05

 Cycle  16  Pass 1  IDiag  1:
 RMSU=  3.72D-08    CP:  9.57D-01  1.98D+00  8.07D-01  6.79D-01  8.22D-01
                    CP:  1.58D+00  1.84D+00  1.99D+00  1.61D+00  1.93D+00
                    CP:  1.60D+00  1.57D+00  1.28D+00  1.16D+00  1.08D+00
 E= -1328.80078255878     Delta-E=       -0.000000000724 Rises=F Damp=F
 DIIS: error= 4.43D-07 at cycle  16 NSaved=  16.
 NSaved=16 IEnMin=16 EnMin= -1328.80078255878     IErMin=16 ErrMin= 4.43D-07
 ErrMax= 4.43D-07  0.00D+00 EMaxC= 1.00D-01 BMatC= 4.80D-10 BMatP= 1.03D-09
 IDIUse=1 WtCom= 1.00D+00 WtEn= 0.00D+00
 Coeff-Com:  0.707D-05-0.701D-05 0.657D-04 0.120D-03 0.123D-03-0.296D-03
 Coeff-Com: -0.208D-02-0.243D-02 0.426D-02 0.214D-01 0.778D-02-0.550D-01
 Coeff-Com: -0.117D+00-0.125D+00 0.472D+00 0.796D+00
 Coeff:      0.707D-05-0.701D-05 0.657D-04 0.120D-03 0.123D-03-0.296D-03
 Coeff:     -0.208D-02-0.243D-02 0.426D-02 0.214D-01 0.778D-02-0.550D-01
 Coeff:     -0.117D+00-0.125D+00 0.472D+00 0.796D+00
 Gap=     0.156 Goal=   None    Shift=    0.000
 Gap=     0.060 Goal=   None    Shift=    0.000
 RMSDP=5.44D-08 MaxDP=5.51D-06 DE=-7.24D-10 OVMax= 2.42D-05

 Cycle  17  Pass 1  IDiag  1:
 RMSU=  1.54D-08    CP:  9.57D-01  1.98D+00  8.07D-01  6.79D-01  8.22D-01
                    CP:  1.58D+00  1.84D+00  1.99D+00  1.61D+00  1.93D+00
                    CP:  1.61D+00  1.59D+00  1.35D+00  1.28D+00  1.46D+00
                    CP:  1.01D+00
 E= -1328.80078255919     Delta-E=       -0.000000000406 Rises=F Damp=F
 DIIS: error= 1.27D-07 at cycle  17 NSaved=  17.
 NSaved=17 IEnMin=17 EnMin= -1328.80078255919     IErMin=17 ErrMin= 1.27D-07
 ErrMax= 1.27D-07  0.00D+00 EMaxC= 1.00D-01 BMatC= 3.02D-11 BMatP= 4.80D-10
 IDIUse=1 WtCom= 1.00D+00 WtEn= 0.00D+00
 Coeff-Com:  0.346D-05-0.469D-05 0.318D-04 0.662D-04 0.138D-03 0.208D-03
 Coeff-Com: -0.432D-03-0.153D-02-0.249D-03 0.437D-02 0.499D-02-0.591D-03
 Coeff-Com: -0.379D-01-0.659D-01 0.360D-01 0.173D+00 0.888D+00
 Coeff:      0.346D-05-0.469D-05 0.318D-04 0.662D-04 0.138D-03 0.208D-03
 Coeff:     -0.432D-03-0.153D-02-0.249D-03 0.437D-02 0.499D-02-0.591D-03
 Coeff:     -0.379D-01-0.659D-01 0.360D-01 0.173D+00 0.888D+00
 Gap=     0.156 Goal=   None    Shift=    0.000
 Gap=     0.060 Goal=   None    Shift=    0.000
 RMSDP=1.67D-08 MaxDP=1.94D-06 DE=-4.06D-10 OVMax= 6.51D-06

 Cycle  18  Pass 1  IDiag  1:
 RMSU=  7.62D-09    CP:  9.57D-01  1.98D+00  8.07D-01  6.79D-01  8.22D-01
                    CP:  1.59D+00  1.84D+00  1.99D+00  1.61D+00  1.93D+00
                    CP:  1.61D+00  1.60D+00  1.36D+00  1.31D+00  1.55D+00
                    CP:  1.17D+00  1.20D+00
 E= -1328.80078255918     Delta-E=        0.000000000012 Rises=F Damp=F
 DIIS: error= 7.55D-08 at cycle  18 NSaved=  18.
 NSaved=18 IEnMin=17 EnMin= -1328.80078255919     IErMin=18 ErrMin= 7.55D-08
 ErrMax= 7.55D-08  0.00D+00 EMaxC= 1.00D-01 BMatC= 1.78D-11 BMatP= 3.02D-11
 IDIUse=1 WtCom= 1.00D+00 WtEn= 0.00D+00
 Coeff-Com:  0.624D-06-0.148D-05 0.437D-05 0.117D-04 0.586D-04 0.212D-03
 Coeff-Com:  0.261D-03-0.301D-03-0.124D-02-0.280D-02 0.948D-03 0.139D-01
 Coeff-Com:  0.684D-02-0.581D-02-0.963D-01-0.108D+00 0.515D+00 0.677D+00
 Coeff:      0.624D-06-0.148D-05 0.437D-05 0.117D-04 0.586D-04 0.212D-03
 Coeff:      0.261D-03-0.301D-03-0.124D-02-0.280D-02 0.948D-03 0.139D-01
 Coeff:      0.684D-02-0.581D-02-0.963D-01-0.108D+00 0.515D+00 0.677D+00
 Gap=     0.156 Goal=   None    Shift=    0.000
 Gap=     0.060 Goal=   None    Shift=    0.000
 RMSDP=7.76D-09 MaxDP=1.14D-06 DE= 1.18D-11 OVMax= 2.66D-06

 Cycle  19  Pass 1  IDiag  1:
 RMSU=  3.88D-09    CP:  9.57D-01  1.98D+00  8.07D-01  6.79D-01  8.22D-01
                    CP:  1.59D+00  1.84D+00  1.99D+00  1.61D+00  1.93D+00
                    CP:  1.61D+00  1.60D+00  1.37D+00  1.33D+00  1.59D+00
                    CP:  1.23D+00  1.47D+00  9.97D-01
 E= -1328.80078255921     Delta-E=       -0.000000000031 Rises=F Damp=F
 DIIS: error= 3.41D-08 at cycle  19 NSaved=  19.
 NSaved=19 IEnMin=19 EnMin= -1328.80078255921     IErMin=19 ErrMin= 3.41D-08
 ErrMax= 3.41D-08  0.00D+00 EMaxC= 1.00D-01 BMatC= 2.78D-12 BMatP= 1.78D-11
[...]
 00003432,-0.00066082,-0.00058845,0.00002625,-0.00007338,0.00039725,-0.
 00000833,-0.00057037,-0.00020912,-0.00001083,0.00041805,-0.00026619,0.
 00003011,0.00007003,0.00014801,-0.00000161,0.00017605,-0.00095986,-0.0
 0000952,0.00002625,-0.00000851,0.00000179,0.00000148,-0.00002131,-0.00
 000303,-0.00000793,-0.00001480,0.00000046,-0.00012091,0.00080356,-0.00
 011667,-0.00043075,-0.00004453,-0.00000637,-0.00040346,0.00090928,0.00
 036824,0.00142465,-0.00194512,0.00063808,-0.00235696,-0.00089377,-0.00
 372630,0.00055688,-0.00016794,0.00010473,-0.00028899,0.00031580,-0.000
 00531,-0.00000096,-0.00002654,-0.00015973,-0.00009008,0.00009369,0.000
 06372,0.01929411,-0.02138438,-0.00387056,-0.00000881,-0.00003788,-0.00
 007488,0.00020202,-0.00013772,0.00003608,-0.00011049,-0.00004859,-0.00
 000191,0.00018558,0.00046822,-0.00001188,0.00008425,0.00000473,-0.0000
 0182,0.00014104,-0.00003671,0.00000738,-0.00002612,-0.00000846,-0.0000
 0058,-0.00008844,0.00006256,-0.00000838,0.00003278,-0.00004146,0.00000
 934,-0.00001563,0.00000907,-0.00002273,-0.00001586,0.00001426,0.000015
 62,-0.00001304,0.00000911,-0.00000220,0.00000238,-0.00000755,0.0000116
 9,0.00000145,0.00000111,-0.00000012,0.00000242,0.00000051,0.00000214,0
 .00000293,-0.00000974,-0.00000829,0.00000190,0.00000165,-0.00000011,0.
 00000215,-0.00000041,-0.00000184,0.00000063,0.00000304,-0.00000045,-0.
 00000687,0.00000060,0.00000091,-0.00000151,0.00000245,-0.00000090,-0.0
 0000649,0.00000011,-0.00000134,-0.00000162,0.00000262,0.00000033,-0.00
 000300,-0.00000075,0.00000010,0.00000054,0.00000021,-0.00000005,0.0000
 2234,0.00002681,0.00003831,-0.00000733,0.00000271,0.00000276,0.0000129
 2,-0.00000376,-0.00001577,-0.00000314,0.00000139,-0.00000344,0.0000266
 4,-0.00000698,0.00000409,0.00000675,0.00000906,-0.00000057,-0.00000031
 ,0.00000312,-0.00000203,-0.00000227,-0.00000077,0.00000346,-0.00000471
 ,0.00000494,-0.00002736,-0.00000743,0.00000213,-0.00000330,-0.00000156
 ,0.00000214,0.00000905,0.00000730,0.00000339,0.00000847,0.00082295,-0.
 00017019,0.00147942,0.00000794,0.00008701,-0.00011298,-0.00026866,0.00
 046040,-0.00044007,-0.00020349,0.00007338,0.00044774,0.00079274,0.0005
 3459,0.00092362,-0.00013155,0.00004282,-0.00000988,0.00021074,0.000364
 29,0.00000132,-0.00054408,-0.00006961,0.00010014,-0.00438631,0.0066984
 1,-0.04558977,0.00566438,-0.00235113,0.05025070,0.00014880,-0.00011563
 ,0.00001096,-0.00017172,-0.00016988,0.00000798,-0.00001789,0.00010662,
 -0.00000458,-0.00014398,-0.00005262,-0.00000259,0.00010150,-0.00006248
 ,0.00000694,0.00001890,0.00003031,0.00000012,0.00003151,-0.00034514,0.
 00000171,0.00000665,-0.00000243,0.00000045,0.00000057,-0.00000558,-0.0
 0000038,-0.00000214,-0.00000327,0.00000003,-0.00003070,0.00025750,-0.0
 0002806,-0.00017187,-0.00019192,-0.00015818,-0.00018681,0.00043625,0.0
 0003944,0.00027735,-0.00078053,0.00015364,-0.00011013,0.00123813,-0.00
 032499,-0.00101152,0.00127446,0.00113140,0.00016837,0.00018548,-0.0000
 0308,-0.00001641,0.00002559,-0.00000987,-0.00160046,0.00158653,0.00151
 079,-0.00215048,-0.00044062,-0.00000644,-0.00002662,0.00002715,0.00009
 554,0.00005258,0.00005840,0.00000599,-0.00005826,-0.00006158,0.0000217
 0,0.00007249,0.00012881,-0.00000880,0.00001469,0.00000879,0.00000045,0
 .00002835,-0.00000492,0.00000120,-0.00000623,-0.00000285,0.00000001,-0
 .00001872,0.00000715,-0.00000178,0.00000589,-0.00000188,0.00000145,-0.
 00000238,0.00000214,-0.00000428,-0.00000259,0.00000262,0.00000360,-0.0
 0000154,-0.00000028,0.00000022,0.00000079,0.00000026,0.00000187,0.0000
 0026,-0.00000115,0.00000015,-0.00000003,0.00000044,-0.00000066,0.00000
 079,-0.00000048,-0.00000181,0.00000033,-0.00000092,-0.00000013,0.00000
 021,0.00000041,-0.00000012,0.00000054,0.00000105,0.00000004,-0.0000018
 0,-0.00000022,0.00000069,0.00000044,-0.00000072,-0.00000019,-0.0000018
 0,-0.00000055,-0.00000085,0.00000025,-0.00000032,0.00000058,-0.0000012
 1,0.00000005,-0.00000008,0.00000018,-0.00000100,0.00000002,-0.00001731
 ,-0.00001985,-0.00002099,-0.00000366,0.00000392,0.00000221,-0.00000738
 ,0.00000680,0.00000758,0.00000171,-0.00000247,-0.00000259,0.00004578,0
 .00001989,0.00000511,0.00000388,-0.00000655,-0.00000652,-0.00039354,0.
 00001322,-0.00009874,0.00000111,-0.00000261,-0.00000012,0.00001730,-0.
 00001008,0.00000860,-0.00000098,0.00000191,-0.00000058,-0.00026338,0.0
 0013159,0.00012109,-0.00000123,0.00000103,-0.00000068,0.00025470,0.000
 09209,0.00032035,0.00029743,0.00005463,-0.00028275,-0.00002262,-0.0000
 4305,-0.00000778,0.00012333,0.00009073,-0.00010813,0.00111473,-0.00048
 265,-0.00131905,0.00000118,0.00005263,0.00014982,-0.00018537,-0.000322
 73,0.00006656,0.00033423,0.00005146,0.00011571,-0.26482981,-0.10820582
 ,-0.00416558,-0.01856262,-0.01062381,-0.00003046,0.28884777,-0.0000328
 8,0.00004155,0.00000024,0.00005463,0.00000300,0.00000595,0.00000735,-0
 .00002234,0.00000004,0.00005352,0.00001886,0.00000076,-0.00004639,0.00
 003151,-0.00000329,-0.00000350,-0.00002140,0.00000014,-0.00001412,-0.0
 0011791,-0.00000890,-0.00000255,0.00000025,-0.00000003,0.,0.00000219,0
 .00000006,0.00000080,0.00000218,-0.00000022,0.00000975,0.00004806,-0.0
 0000536,-0.00016277,-0.00039688,-0.00005791,-0.00013465,0.00023823,-0.
 00004867,0.00023063,-0.00038938,0.00010793,-0.00111904,0.00071994,0.00
 024615,-0.00007527,-0.00131969,-0.00027425,0.00051989,0.00036151,0.000
 04759,-0.00002652,0.00010878,-0.00000249,0.00194075,-0.00042721,-0.001
 46204,-0.01574653,-0.00969601,0.00041378,-0.00003160,0.00007591,0.0000
 4463,0.00000214,0.00025820,-0.00002271,-0.00006876,-0.00011992,0.00002
 338,0.00002990,-0.00001092,-0.00000182,-0.00001930,0.00000496,-0.00000
 091,-0.00002381,0.00000746,-0.00000129,0.00000352,0.00000074,0.0000000
 4,0.00001473,-0.00001416,0.00000183,-0.00000662,0.00001267,-0.00000220
 ,0.00000325,-0.00000150,0.00000383,0.00000330,-0.00000266,-0.00000235,
 0.00000327,-0.00000318,0.00000082,-0.00000026,0.00000247,-0.00000224,-
 0.00000033,-0.00000121,0.00000021,-0.00000076,0.00000027,-0.00000096,-
 0.00000040,0.00000282,0.00000134,-0.00000039,-0.00000127,-0.00000006,-
 0.00000060,0.00000048,0.00000061,0.00000016,-0.00000025,0.00000008,0.0
 0000086,-0.00000035,0.00000021,0.00000082,-0.00000122,0.00000010,0.000
 00080,-0.00000039,-0.00000011,0.00000076,-0.00000113,0.00000028,0.0000
 0022,0.00000024,-0.00000004,-0.00000008,-0.00000073,0.00000007,-0.0000
 2408,-0.00005615,-0.00007002,-0.00000094,0.00000699,0.00000441,-0.0000
 2467,0.00001269,0.00002568,0.00000634,-0.00000170,0.00000546,-0.000009
 61,-0.00001091,-0.00001088,-0.00002691,-0.00000266,0.00000709,0.000125
 71,-0.00055862,-0.00001371,0.00000532,0.00000571,-0.00001183,-0.000008
 82,-0.00004752,0.00006190,0.00000088,0.00000583,-0.00000234,0.00012358
 ,-0.00007730,-0.00008345,-0.00002392,0.00000490,-0.00002263,0.00031933
 ,0.00040913,0.00120042,0.00007040,0.00019777,-0.00029436,0.00006093,0.
 00005743,-0.00009054,0.00022723,-0.00009964,0.00003921,0.00073992,-0.0
 0191741,-0.00363804,0.00035063,0.00015848,-0.00001036,-0.00134300,-0.0
 0021592,-0.00027181,-0.00018869,0.00024093,0.00004716,-0.10720445,-0.0
 9934720,-0.00208372,0.02058490,0.01140725,0.00046191,0.11613878,0.1079
 8955,-0.00003194,0.00002947,0.00000040,0.00004676,0.00000886,0.0000053
 8,0.00000521,-0.00001760,-0.00000087,0.00004050,0.00001344,0.00000066,
 -0.00003447,0.00002082,-0.00000235,-0.00000304,-0.00001288,-0.00000018
 ,-0.00000310,-0.00005163,-0.00002084,-0.00000213,0.00000053,0.00000012
 ,-0.00000010,0.00000163,0.00000023,0.00000068,0.00000141,-0.00000017,0
 .00000503,0.00001497,0.00000142,-0.00007154,-0.00022050,0.00000570,-0.
 00013404,0.00012257,-0.00004625,0.00013246,-0.00028184,0.00015666,-0.0
 0027098,0.00086134,0.00039738,-0.00031675,-0.00117674,-0.00045936,0.00
 036620,0.00031654,-0.00001871,-0.00002797,0.00008873,-0.00002241,0.001
 89237,-0.00101372,-0.00122537,-0.02380243,-0.01031122,-0.00101093,-0.0
 0000531,0.00002286,0.00000578,-0.00001590,0.00018417,-0.00002013,-0.00
 004403,-0.00007912,0.00001367,0.00001127,-0.00001549,0.00000065,-0.000
 00998,0.00000345,-0.00000259,-0.00001390,0.00000413,-0.00000082,0.0000
 0230,0.00000047,-0.00000021,0.00000853,-0.00000766,0.00000247,-0.00000
 368,0.00000710,-0.00000181,0.00000162,-0.00000159,0.00000129,0.0000018
 4,-0.00000155,-0.00000161,0.00000206,-0.00000172,0.00000001,-0.0000001
 9,0.00000105,-0.00000097,-0.00000023,-0.00000034,0.00000039,-0.0000000
 3,0.00000017,0.00000018,-0.00000017,0.00000170,0.00000078,-0.00000025,
 -0.00000063,0.00000004,-0.00000042,0.00000034,0.00000072,0.00000008,-0
 .00000030,-0.00000023,0.00000041,-0.00000030,0.00000019,0.00000029,-0.
 00000033,-0.00000019,0.00000053,-0.00000017,0.00000015,0.00000047,-0.0
 0000064,0.00000006,0.00000015,0.00000012,0.00000009,-0.00000005,-0.000
 00020,0.00000017,-0.00001031,-0.00003458,-0.00003778,0.00000097,0.0000
 0318,0.00000116,-0.00001313,0.00000706,0.00001440,0.00000335,-0.000001
 12,0.00000129,-0.00002943,0.00000898,0.00001637,-0.00001868,-0.0000020
 6,-0.00000098,0.00000285,-0.00004685,-0.00038374,0.00000175,0.00000233
 ,-0.00001718,-0.00000891,-0.00002322,0.00004861,0.00000165,0.00000274,
 -0.00000357,-0.00001264,-0.00002675,-0.00001902,-0.00001298,0.00000342
 ,-0.00001550,-0.00086831,-0.00036473,0.00173640,0.00025854,0.00038103,
 -0.00050949,-0.00000534,0.00007082,-0.00010947,0.00023421,-0.00000022,
 0.00023161,0.00036706,-0.00310853,-0.00442919,0.00000433,-0.00016981,0
 .00021033,-0.00156768,-0.00100816,0.00010175,0.00025960,0.00016476,-0.
 00006445,-0.00303758,-0.00166461,-0.04852218,-0.00076174,-0.00034933,-
 0.00080335,0.00282106,0.00688612,0.05298182,0.00003207,-0.00002253,0.0
 0000232,-0.00003489,-0.00002964,0.,-0.00000376,0.00002025,-0.00000233,
 -0.00003068,-0.00001066,-0.00000053,0.00002269,-0.00001383,0.00000150,
 0.00000262,0.00000726,0.00000004,0.00001264,-0.00006320,0.00000649,0.0
 0000114,-0.00000015,0.00000025,0.00000005,-0.00000090,0.00000031,-0.00
 000039,-0.00000085,0.00000005,-0.00000740,0.00005603,-0.00000109,-0.00
 005613,-0.00011053,-0.00001913,-0.00002443,0.00005853,-0.00002406,0.00
 009736,-0.00008859,-0.00016228,0.00006297,-0.00026621,0.00040320,-0.00
 049980,-0.00008883,0.00005348,0.00002098,0.00023005,-0.00013224,0.0000
 1368,-0.00000919,0.00000600,0.00026391,-0.00001893,-0.00003968,-0.0016
 1662,0.00208051,-0.00203238,0.00001214,0.00000448,0.00001374,-0.000015
 15,0.00007057,0.00000074,-0.00001982,-0.00002491,0.00000872,0.00001145
 ,0.00002785,-0.00000201,0.00000697,-0.00000175,0.00000031,0.00001069,-
 0.00000339,0.00000052,-0.00000142,-0.00000030,-0.00000008,-0.00000662,
 0.00000683,-0.00000036,0.00000371,-0.00000614,0.00000093,-0.00000156,0
 .00000038,-0.00000230,-0.00000151,0.00000133,0.00000082,-0.00000126,0.
 00000163,-0.00000069,0.00000029,-0.00000188,0.00000122,0.00000008,0.00
 000093,0.00000008,0.00000041,-0.00000086,0.00000036,0.00000032,-0.0000
 0134,-0.00000059,0.00000018,0.00000070,0.00000011,0.00000016,-0.000000
 19,0.00000007,-0.00000020,0.00000009,-0.00000031,-0.00000052,0.0000000
 7,-0.00000003,-0.00000053,0.00000058,-0.00000045,-0.00000036,0.0000002
 8,0.00000020,-0.00000034,0.00000047,-0.00000025,-0.00000015,-0.0000001
 7,0.00000007,0.00000006,0.00000056,0.00000012,-0.00000641,-0.00000376,
 -0.00000749,0.00000007,0.00000119,0.00000086,-0.00000329,0.00000119,0.
 00000351,0.00000041,-0.00000087,-0.00000166,0.00000050,-0.00000058,0.0
 0000225,-0.00000480,0.00000009,-0.00000051,0.00000673,-0.00000137,0.00
 001147,0.00000086,0.00000024,-0.00000915,-0.00000653,-0.00000109,0.000
 01523,-0.00000008,0.00000153,-0.00000062,-0.00012351,0.00000344,0.0000
 0481,-0.00000204,0.00000004,-0.00000527,0.00030377,-0.00033361,-0.0005
 8559,0.00012207,0.00022485,-0.00021936,0.00009595,-0.00030192,0.000210
 38,0.00052874,-0.00001146,-0.00018043,0.00030210,0.00049228,-0.0008539
 9,-0.00006554,-0.00015651,0.00008265,-0.00001713,0.00009067,0.00012076
 ,-0.00000699,0.00003330,-0.00003589,-0.05054131,-0.01763779,0.02399967
 ,0.00363408,0.01157280,-0.01985571,-0.00195136,-0.01526276,0.02466525,
 0.04948066,-0.00009424,0.00007378,-0.00000676,0.00010953,0.00009922,-0
 .00000435,0.00001149,-0.00006616,0.00000216,0.00009389,0.00003398,0.00
 000171,-0.00006772,0.00004231,-0.00000492,-0.00001125,-0.00002172,0.00
 000026,-0.00001753,0.00018220,-0.00000422,-0.00000413,0.00000135,-0.00
 000022,-0.00000034,0.00000351,0.00000039,0.00000129,0.00000227,0.00000
 002,0.00002068,-0.00014940,0.00001627,0.00000267,0.00006185,0.00000400
 ,0.00015847,-0.00020689,-0.00000162,-0.00040870,0.00042221,0.00030950,
 -0.00005063,0.00116967,-0.00087041,-0.00004523,-0.00026108,0.00007954,
 0.00006035,-0.00003332,0.00005426,-0.00000154,-0.00000210,0.00000852,0
 .00004825,0.00003605,-0.00004175,0.00252115,0.00961997,-0.01626441,0.0
 0001304,-0.00001285,0.00000687,-0.00000503,-0.00002709,-0.00000547,0.0
 0003070,0.00003515,-0.00000326,-0.00003802,-0.00007821,0.00000169,-0.0
 0001231,-0.00000282,-0.00000126,-0.00002231,0.00000503,-0.00000109,0.0
 0000421,0.00000177,0.00000015,0.00001458,-0.00000867,0.00000059,-0.000
 00597,0.00000551,-0.00000125,0.00000244,-0.00000133,0.00000408,0.00000
 251,-0.00000220,-0.00000246,0.00000180,-0.00000114,0.00000043,-0.00000
 072,0.00000145,-0.00000191,-0.00000015,-0.00000007,-0.00000018,-0.0000
 0139,-0.00000101,-0.00000100,-0.00000067,0.00000136,0.00000140,-0.0000
 0030,-0.00000008,0.00000005,-0.00000022,-0.00000007,-0.00000004,-0.000
 00011,-0.00000056,0.00000030,0.00000144,0.00000013,-0.00000055,0.00000
 018,-0.00000081,0.00000035,0.00000114,-0.00000003,0.00000012,0.0000001
 6,-0.00000035,-0.00000001,0.00000072,0.00000011,-0.00000004,-0.0000001
 1,0.00000001,-0.00000013,0.00000057,0.00000466,0.00000016,-0.00000021,
 0.00000016,0.00000046,0.00000047,-0.00000115,-0.00000043,-0.00000006,-
 0.00000031,-0.00000094,0.00000142,-0.00000283,-0.00000196,-0.00000217,
 0.00000093,0.00000013,0.00000393,0.00000029,0.00000548,-0.00000023,0.0
 0000072,-0.00000465,0.00000284,0.00000583,-0.00000074,0.00000043,0.000
 00016,-0.00000092,-0.00000049,0.00000475,0.00001171,0.00000142,-0.0000
 0131,0.00000084,-0.00035550,-0.00188611,-0.00315108,0.00009316,-0.0001
 0156,0.00000385,-0.00020020,0.00005789,-0.00007291,-0.00002143,0.00082
 652,-0.00101646,0.00058718,0.00095005,-0.00018179,0.00012603,0.0000193
 9,0.00006629,0.00024593,0.00010877,0.00007413,-0.00011309,-0.00003175,
 0.00001775,-0.01786353,-0.13092962,0.12501938,-0.00423400,-0.01134970,
 0.01791906,-0.00007021,-0.00755418,0.01075982,0.01948570,0.13895752,0.
 00010354,-0.00010956,0.00000630,-0.00013298,-0.00011932,-0.00000453,-0
 .00001522,0.00008169,-0.00000699,-0.00011580,-0.00004420,-0.00000083,0
 .00008540,-0.00005783,0.00000607,0.00001442,0.00003581,0.00000043,0.00
 004694,-0.00016935,0.00002350,0.00000523,-0.00000169,-0.00000045,0.000
 00007,-0.00000420,0.00000041,-0.00000136,-0.00000300,-0.00000027,-0.00
 003046,0.00014682,0.00001464,-0.00010174,0.00009549,-0.00000066,-0.000
 03783,0.00012388,-0.00006851,0.00023345,-0.00042801,0.00024320,-0.0013
 8121,0.00199578,-0.00006768,0.00015334,0.00003022,0.00000806,-0.000061
 56,0.00001390,-0.00007145,-0.00000929,-0.00001286,0.00001806,-0.000150
 81,-0.00000105,0.00002867,0.00340569,0.01274654,-0.02043474,0.00000725
 ,-0.00002927,0.00000205,0.00004928,-0.00010012,0.00001552,-0.00000061,
 0.00003041,-0.00001076,0.00002750,0.00009706,0.00000158,0.00002023,-0.
 00000157,-0.00000564,0.00003129,-0.00000999,0.00000114,-0.00000543,-0.
 00000119,-0.00000099,-0.00001878,0.00001786,0.00000254,0.00000676,-0.0
 0001049,0.00000105,-0.00000404,0.00000107,-0.00000668,-0.00000365,0.00
 000327,0.00000209,-0.00000325,0.00000258,-0.00000123,0.00000022,-0.000
 00225,0.00000313,0.00000041,0.00000088,0.00000029,0.00000155,0.0000007
 8,0.00000267,0.00000044,-0.00000173,-0.00000158,0.00000059,0.00000065,
 0.00000028,0.00000012,-0.00000003,0.00000049,0.00000022,0.00000032,-0.
 00000086,-0.00000150,0.00000011,0.00000043,-0.00000063,0.00000119,-0.0
 0000054,-0.00000088,0.00000050,0.00000038,-0.00000036,0.00000031,-0.00
 000032,-0.00000018,-0.00000008,0.00000036,0.00000004,0.00000039,0.0000
 0033,0.00000653,0.00001452,0.00001567,-0.00000202,-0.00000069,0.000000
 74,0.00000668,-0.00000185,-0.00000689,-0.00000143,0.00000077,0.0000008
 0,0.00000473,-0.00000580,-0.00000489,0.00000474,0.00000302,0.00000074,
 -0.00000585,0.00000094,0.00000033,-0.00000327,0.00000005,0.00000739,0.
 00000501,0.00001015,-0.00002475,-0.00000193,-0.00000085,0.00000102,0.0
 0007028,-0.00001575,-0.00005940,0.00000561,-0.00000101,0.00000994,-0.0
 0053168,-0.00453515,-0.00400106,0.00010382,-0.00003327,0.00023428,-0.0
 0008103,-0.00011125,0.00043236,0.00016532,0.00099815,-0.00148195,0.000
 93397,0.00122794,0.00082777,-0.00057566,-0.00057459,-0.00003401,0.0001
 3447,-0.00020550,0.00028754,-0.00007783,-0.00005904,-0.00003046,0.0233
 8235,0.12330673,-0.23054413,-0.00020295,-0.00047685,0.00044386,-0.0000
 1424,-0.00113789,0.00181360,-0.02544205,-0.13272250,0.25241252\\-0.000
 00484,-0.00000031,0.00000633,-0.00000521,-0.00000270,0.00000922,-0.000
 00727,-0.00000326,0.00001263,-0.00000899,-0.00000185,0.00001307,-0.000
 00867,0.00000020,0.00001022,-0.00000655,0.00000094,0.00000673,-0.00000
 190,-0.00000211,0.00000445,-0.00000753,-0.00000483,0.00001481,-0.00001
 065,-0.00000237,0.00001567,-0.00001002,0.00000120,0.00001070,-0.000003
 12,-0.00000331,0.00000779,0.00000148,-0.00000463,0.00000376,0.00000064
 ,-0.00000250,0.00000218,0.00000213,-0.00000100,-0.00000148,0.00000434,
 -0.00000153,-0.00000352,0.00000511,-0.00000367,-0.00000189,0.00000382,
 -0.00000530,0.00000179,0.00000155,0.00000065,-0.00000261,0.00000691,-0
 .00000411,-0.00000357,0.00000602,0.00000015,-0.00000739,0.00000466,-0.
 00000758,0.00000329,-0.00000013,-0.00000608,0.00000704,-0.00000121,-0.
 00000549,0.00000840,-0.00000262,-0.00000024,0.00000342,-0.00000188,0.0
 0000111,0.00000106,-0.00000612,0.00000306,0.00000393,-0.00000761,0.000
 00411,0.00000438,-0.00000415,0.00000365,0.00000068,-0.00000390,0.00000
 585,-0.00000217,-0.00000688,0.00000930,-0.00000259,-0.00000294,0.00000
 457,-0.00000192,-0.00000194,0.00000586,-0.00000456,-0.00000643,0.00001
 153,-0.00000581,-0.00000886,0.00000931,-0.00000026,-0.00000758,0.00001
 014,-0.00000287,-0.00000243,0.00000679,-0.00000511,-0.00000477,0.00000
 449,0.00000043,-0.00000070,0.00000209,-0.00000160,-0.00000543,0.000010
 27,-0.00000561,-0.00000866,0.00001399,-0.00000605,-0.00000462,0.000011
 63,-0.00000814,-0.00000175,0.00000591,-0.00000481,-0.00000042,0.000006
 71,-0.00000742,-0.00000500,0.00001184,-0.00000791,-0.00000736,0.000010
 40,-0.00000336,0.00000595,-0.00001103,0.00000576,0.00000417,-0.0000110
 4,0.00000788,0.00000673,-0.00001268,0.00000685,0.00000812,-0.00001191,
 0.00000432,0.00000730,-0.00000783,0.00000050,0.00000785,-0.00000958,0.
 00000182,0.00000646,-0.00000557,-0.00000126,0.00000943,-0.00000880,-0.
 00000105,0.00000173,-0.00000630,0.00000536,-0.00000010,-0.00000628,0.0
 0000755,0.00000072,-0.00000392,0.00000371,0.00000239,-0.00000790,0.000
 00644,0.00000970,-0.00000245,-0.00000884,0.00001052,-0.00000400,-0.000
 00796,0.00001085,-0.00000122,-0.00001164,0.00001039,-0.00000396,-0.000
 00787,0.00000509,0.00000233,-0.00000888,0.00000251,0.00000424,-0.00000
 803,0.00000569,0.00000093,-0.00000796,0.00000632,0.00000344,-0.0000117
 0,0.00000510,0.00000228,-0.00000886,0.00000632,0.00000338,-0.00001165,
 0.00000572,0.00000088,-0.00000792,0.00000257,0.00000413,-0.00000793\\\
 @


      TO SUSPECT YOUR OWN MORTALITY IS TO KNOW THE BEGINNING OF TERROR.
      TO LEARN IRREFUTABLY THAT YOU ARE MORTAL IS TO KNOW THE END
      OF TERROR.

                                                  -- JESSICA
                                                     CHILDREN OF DUNE
                                                     BY FRANK HERBERT
 Job cpu time:       0 days 14 hours 11 minutes 30.6 seconds.
 Elapsed time:       0 days  0 hours 53 minutes 26.3 seconds.
 File lengths (MBytes):  RWF=   5892 Int=      0 D2E=      0 Chk=     88 Scr=      8
 Normal termination of Gaussian 16 at Fri Dec 21 17:09:45 2018.
