 Entering Gaussian System, Link 0=g16
 Input=cyclohexyl-monoBIP-2PT.com
 Output=cyclohexyl-monoBIP-2PT.log
 Initial command:
 /gpfs/apps/hpc/Apps/Restricted/Gaussian/Rev_A.03/g16/l1.exe "/gpfs/scratch60/fas/hammes_schiffer/jg2487/c01n01/Gau-13822.inp" -scrdir="/gpfs/scratch60/fas/hammes_schiffer/jg2487/c01n01/"
 Entering Link 1 = /gpfs/apps/hpc/Apps/Restricted/Gaussian/Rev_A.03/g16/l1.exe PID=     13823.
  
 Copyright (c) 1988,1990,1992,1993,1995,1998,2003,2009,2016,
            Gaussian, Inc.  All Rights Reserved.
  
 This is part of the Gaussian(R) 16 program.  It is based on
 the Gaussian(R) 09 system (copyright 2009, Gaussian, Inc.),
 the Gaussian(R) 03 system (copyright 2003, Gaussian, Inc.),
 the Gaussian(R) 98 system (copyright 1998, Gaussian, Inc.),
 the Gaussian(R) 94 system (copyright 1995, Gaussian, Inc.),
 the Gaussian 92(TM) system (copyright 1992, Gaussian, Inc.),
 the Gaussian 90(TM) system (copyright 1990, Gaussian, Inc.),
 the Gaussian 88(TM) system (copyright 1988, Gaussian, Inc.),
 the Gaussian 86(TM) system (copyright 1986, Carnegie Mellon
 University), and the Gaussian 82(TM) system (copyright 1983,
 Carnegie Mellon University). Gaussian is a federally registered
 trademark of Gaussian, Inc.
  
 This software contains proprietary and confidential information,
 including trade secrets, belonging to Gaussian, Inc.
  
 This software is provided under written license and may be
 used, copied, transmitted, or stored only in accord with that
 written license.
  
 The following legend is applicable only to US Government
 contracts under FAR:
  
                    RESTRICTED RIGHTS LEGEND
  
 Use, reproduction and disclosure by the US Government is
 subject to restrictions as set forth in subparagraphs (a)
 and (c) of the Commercial Computer Software - Restricted
 Rights clause in FAR 52.227-19.
  
 Gaussian, Inc.
 340 Quinnipiac St., Bldg. 40, Wallingford CT 06492
  
  
 ---------------------------------------------------------------
 Warning -- This program may not be used in any manner that
 competes with the business of Gaussian, Inc. or will provide
 assistance to any competitor of Gaussian, Inc.  The licensee
 of this program is prohibited from giving any competitor of
 Gaussian, Inc. access to this program.  By using this program,
 the user acknowledges that Gaussian, Inc. is engaged in the
 business of creating and licensing software in the field of
 computational chemistry and represents and warrants to the
 licensee that it is not a competitor of Gaussian, Inc. and that
 it will not use this program in any manner prohibited above.
 ---------------------------------------------------------------
  

 Cite this work as:
 Gaussian 16, Revision A.03,
 M. J. Frisch, G. W. Trucks, H. B. Schlegel, G. E. Scuseria, 
 M. A. Robb, J. R. Cheeseman, G. Scalmani, V. Barone, 
 G. A. Petersson, H. Nakatsuji, X. Li, M. Caricato, A. V. Marenich, 
 J. Bloino, B. G. Janesko, R. Gomperts, B. Mennucci, H. P. Hratchian, 
 J. V. Ortiz, A. F. Izmaylov, J. L. Sonnenberg, D. Williams-Young, 
 F. Ding, F. Lipparini, F. Egidi, J. Goings, B. Peng, A. Petrone, 
 T. Henderson, D. Ranasinghe, V. G. Zakrzewski, J. Gao, N. Rega, 
 G. Zheng, W. Liang, M. Hada, M. Ehara, K. Toyota, R. Fukuda, 
 J. Hasegawa, M. Ishida, T. Nakajima, Y. Honda, O. Kitao, H. Nakai, 
 T. Vreven, K. Throssell, J. A. Montgomery, Jr., J. E. Peralta, 
 F. Ogliaro, M. J. Bearpark, J. J. Heyd, E. N. Brothers, K. N. Kudin, 
 V. N. Staroverov, T. A. Keith, R. Kobayashi, J. Normand, 
 K. Raghavachari, A. P. Rendell, J. C. Burant, S. S. Iyengar, 
 J. Tomasi, M. Cossi, J. M. Millam, M. Klene, C. Adamo, R. Cammi, 
 J. W. Ochterski, R. L. Martin, K. Morokuma, O. Farkas, 
 J. B. Foresman, and D. J. Fox, Gaussian, Inc., Wallingford CT, 2016.
 
 ******************************************
 Gaussian 16:  ES64L-G16RevA.03 25-Dec-2016
                17-Dec-2018 
 ******************************************
 %chk=cyclohexyl-monoBIP-2PT.chk
 %mem=10GB
 %nprocshared=4
 Will use up to    4 processors via shared memory.
 ----------------------------------------------------------------
 #p freq(ReadFC,InternalModes) Geom(AllCheck) NoSymm scale=0.9649
 ----------------------------------------------------------------
 1/18=20,29=7,38=1,114=964900/1,3;
 2/9=110,12=2,15=1,40=1/2;
 7/8=21,25=11,30=1/16;
 99/5=2/99;
 Leave Link    1 at Mon Dec 17 15:42:00 2018, MaxMem=  1342177280 cpu:               2.6 elap:               0.9
 (Enter /gpfs/apps/hpc/Apps/Restricted/Gaussian/Rev_A.03/g16/l101.exe)
 Structure from the checkpoint file:  "cyclohexyl-monoBIP-2PT.chk"
 ----------------------------------------------------------------------
 cyclohexylimine monoBIP neutral, with both protons transferred optimiz
 ation
 ----------------------------------------------------------------------
 Charge =  0 Multiplicity = 1
 Redundant internal coordinates found in file.  (old form).
 C,0,-0.4929435673,2.6965150654,0.2581042499
 C,0,-1.9036992763,2.8976510547,0.229344186
 C,0,-2.4602595149,4.1651999559,0.1643232557
 C,0,-1.583152718,5.2686521023,0.1391477358
 C,0,-0.2046382614,5.1026452557,0.1741048752
 C,0,0.3779919794,3.8130101196,0.2307456268
 C,0,-1.3921155763,0.735542633,0.3283312233
 H,0,-3.533460272,4.3090034023,0.1356050854
 H,0,-1.9983698146,6.2680543143,0.0942300277
 H,0,0.4472640372,5.968643224,0.1600191955
 N,0,-2.428728788,1.6265430715,0.2750937753
 C,0,-3.0088068371,-1.1405755537,0.4030316549
 C,0,-1.640048992,-0.6740731504,0.3896096799
 C,0,-0.5586920686,-1.5858140752,0.4337041036
 C,0,-0.7620738447,-2.9490536446,0.498641805
 C,0,-2.1034145203,-3.4128611821,0.5223117246
 C,0,-3.1941914708,-2.5699745021,0.4771460762
 H,0,0.4502860403,-1.1850187286,0.4165861083
 H,0,-2.2772554305,-4.485524222,0.5781534957
 C,0,0.3802008557,-3.9312951675,0.5369204064
 H,0,1.3423992353,-3.4148499067,0.5132309504
 H,0,0.3539888263,-4.5487668067,1.4413965358
 H,0,0.3494717983,-4.6202706931,-0.3143245022
 C,0,-4.6039421276,-3.0898241306,0.4933047375
 H,0,-5.1704189117,-2.6779404588,1.3349885887
 H,0,-5.1443261085,-2.7924234293,-0.4117058595
 H,0,-4.6213769001,-4.1793542217,0.5649009344
 O,0,-4.0297803301,-0.3554049326,0.3532647133
 N,0,-0.1903457039,1.3678189639,0.3170602119
 C,0,1.7888889258,3.649294109,0.2690884002
 H,0,2.4261659138,4.5271770155,0.2587235983
 N,0,2.3666191118,2.480133855,0.3253222173
 C,0,3.8217848406,2.2619687585,0.3875316386
 C,0,4.500086153,2.6456648928,-0.9350565964
 C,0,4.4505142691,3.0078648977,1.5713226525
 H,0,3.9393194346,1.1873161287,0.5440831326
 C,0,6.0067039334,2.3707966952,-0.8606315516
 H,0,4.325880309,3.7118532542,-1.1217029454
 H,0,4.0430161646,2.0898920751,-1.757835024
 C,0,5.955978893,2.728199229,1.641117624
 H,0,4.2895872244,4.0843952721,1.4409401001
 H,0,3.9508899758,2.7122833861,2.4975218836
 C,0,6.6532183819,3.0938237608,0.3256846533
 H,0,6.4829655861,2.6684893394,-1.7990037653
 H,0,6.1653881669,1.2906749572,-0.7541969652
 H,0,6.39196971,3.2844997936,2.4757630627
 H,0,6.1137783689,1.6634518527,1.851501314
 H,0,7.7181341243,2.8494756497,0.3826617061
 H,0,6.5814725536,4.1776416005,0.17057658
 H,0,-3.3812829963,1.2102737093,0.2868801072
 H,0,1.7320692182,1.6693044107,0.330857576
 Recover connectivity data from disk.
 ITRead=  0  0  0  0  0  0  0  0  0  0  0  0  0  0  0  0  0  0  0  0
 ITRead=  0  0  0  0  0  0  0  0  0  0  0  0  0  0  0  0  0  0  0  0
 ITRead=  0  0  0  0  0  0  0  0  0  0  0
 MicOpt= -1 -1 -1 -1 -1 -1 -1 -1 -1 -1 -1 -1 -1 -1 -1 -1 -1 -1 -1 -1
 MicOpt= -1 -1 -1 -1 -1 -1 -1 -1 -1 -1 -1 -1 -1 -1 -1 -1 -1 -1 -1 -1
 MicOpt= -1 -1 -1 -1 -1 -1 -1 -1 -1 -1 -1
 NAtoms=     51 NQM=       51 NQMF=       0 NMMI=      0 NMMIF=      0
                NMic=       0 NMicF=      0.
                    Isotopes and Nuclear Properties:
 (Nuclear quadrupole moments (NQMom) in fm**2, nuclear magnetic moments (NMagM)
  in nuclear magnetons)

  Atom         1           2           3           4           5           6           7           8           9          10
 IAtWgt=          12          12          12          12          12          12          12           1           1           1
 AtmWgt=  12.0000000  12.0000000  12.0000000  12.0000000  12.0000000  12.0000000  12.0000000   1.0078250   1.0078250   1.0078250
 NucSpn=           0           0           0           0           0           0           0           1           1           1
 AtZEff=   3.6000000   3.6000000   3.6000000   3.6000000   3.6000000   3.6000000   3.6000000   1.0000000   1.0000000   1.0000000
 NQMom=    0.0000000   0.0000000   0.0000000   0.0000000   0.0000000   0.0000000   0.0000000   0.0000000   0.0000000   0.0000000
 NMagM=    0.0000000   0.0000000   0.0000000   0.0000000   0.0000000   0.0000000   0.0000000   2.7928460   2.7928460   2.7928460
 AtZNuc=   6.0000000   6.0000000   6.0000000   6.0000000   6.0000000   6.0000000   6.0000000   1.0000000   1.0000000   1.0000000

  Atom        11          12          13          14          15          16          17          18          19          20
 IAtWgt=          14          12          12          12          12          12          12           1           1          12
 AtmWgt=  14.0030740  12.0000000  12.0000000  12.0000000  12.0000000  12.0000000  12.0000000   1.0078250   1.0078250  12.0000000
 NucSpn=           2           0           0           0           0           0           0           1           1           0
 AtZEff=   4.5500000   3.6000000   3.6000000   3.6000000   3.6000000   3.6000000   3.6000000   1.0000000   1.0000000   3.6000000
 NQMom=    2.0440000   0.0000000   0.0000000   0.0000000   0.0000000   0.0000000   0.0000000   0.0000000   0.0000000   0.0000000
 NMagM=    0.4037610   0.0000000   0.0000000   0.0000000   0.0000000   0.0000000   0.0000000   2.7928460   2.7928460   0.0000000
 AtZNuc=   7.0000000   6.0000000   6.0000000   6.0000000   6.0000000   6.0000000   6.0000000   1.0000000   1.0000000   6.0000000

  Atom        21          22          23          24          25          26          27          28          29          30
 IAtWgt=           1           1           1          12           1           1           1          16          14          12
 AtmWgt=   1.0078250   1.0078250   1.0078250  12.0000000   1.0078250   1.0078250   1.0078250  15.9949146  14.0030740  12.0000000
 NucSpn=           1           1           1           0           1           1           1           0           2           0
 AtZEff=   1.0000000   1.0000000   1.0000000   3.6000000   1.0000000   1.0000000   1.0000000   5.6000000   4.5500000   3.6000000
 NQMom=    0.0000000   0.0000000   0.0000000   0.0000000   0.0000000   0.0000000   0.0000000   0.0000000   2.0440000   0.0000000
 NMagM=    2.7928460   2.7928460   2.7928460   0.0000000   2.7928460   2.7928460   2.7928460   0.0000000   0.4037610   0.0000000
 AtZNuc=   1.0000000   1.0000000   1.0000000   6.0000000   1.0000000   1.0000000   1.0000000   8.0000000   7.0000000   6.0000000

  Atom        31          32          33          34          35          36          37          38          39          40
 IAtWgt=           1          14          12          12          12           1          12           1           1          12
 AtmWgt=   1.0078250  14.0030740  12.0000000  12.0000000  12.0000000   1.0078250  12.0000000   1.0078250   1.0078250  12.0000000
 NucSpn=           1           2           0           0           0           1           0           1           1           0
 AtZEff=   1.0000000   4.5500000   3.6000000   3.6000000   3.6000000   1.0000000   3.6000000   1.0000000   1.0000000   3.6000000
 NQMom=    0.0000000   2.0440000   0.0000000   0.0000000   0.0000000   0.0000000   0.0000000   0.0000000   0.0000000   0.0000000
 NMagM=    2.7928460   0.4037610   0.0000000   0.0000000   0.0000000   2.7928460   0.0000000   2.7928460   2.7928460   0.0000000
 AtZNuc=   1.0000000   7.0000000   6.0000000   6.0000000   6.0000000   1.0000000   6.0000000   1.0000000   1.0000000   6.0000000

  Atom        41          42          43          44          45          46          47          48          49          50
 IAtWgt=           1           1          12           1           1           1           1           1           1           1
 AtmWgt=   1.0078250   1.0078250  12.0000000   1.0078250   1.0078250   1.0078250   1.0078250   1.0078250   1.0078250   1.0078250
 NucSpn=           1           1           0           1           1           1           1           1           1           1
 AtZEff=   1.0000000   1.0000000   3.6000000   1.0000000   1.0000000   1.0000000   1.0000000   1.0000000   1.0000000   1.0000000
 NQMom=    0.0000000   0.0000000   0.0000000   0.0000000   0.0000000   0.0000000   0.0000000   0.0000000   0.0000000   0.0000000
 NMagM=    2.7928460   2.7928460   0.0000000   2.7928460   2.7928460   2.7928460   2.7928460   2.7928460   2.7928460   2.7928460
 AtZNuc=   1.0000000   1.0000000   6.0000000   1.0000000   1.0000000   1.0000000   1.0000000   1.0000000   1.0000000   1.0000000

  Atom        51
 IAtWgt=           1
 AtmWgt=   1.0078250
 NucSpn=           1
 AtZEff=   1.0000000
 NQMom=    0.0000000
 NMagM=    2.7928460
 AtZNuc=   1.0000000
 Leave Link  101 at Mon Dec 17 15:42:00 2018, MaxMem=  1342177280 cpu:               1.1 elap:               0.3
 (Enter /gpfs/apps/hpc/Apps/Restricted/Gaussian/Rev_A.03/g16/l103.exe)

 GradGradGradGradGradGradGradGradGradGradGradGradGradGradGradGradGradGrad
 Berny optimization.
 Initialization pass.
                           ----------------------------
                           !    Initial Parameters    !
                           ! (Angstroms and Degrees)  !
 --------------------------                            --------------------------
 ! Name  Definition              Value          Derivative Info.                !
 --------------------------------------------------------------------------------
 ! R1    R(1,2)                  1.4253         estimate D2E/DX2                !
 ! R2    R(1,6)                  1.4163         estimate D2E/DX2                !
 ! R3    R(1,29)                 1.364          estimate D2E/DX2                !
 ! R4    R(2,3)                  1.3859         estimate D2E/DX2                !
 ! R5    R(2,11)                 1.376          estimate D2E/DX2                !
 ! R6    R(3,4)                  1.4098         estimate D2E/DX2                !
 ! R7    R(3,8)                  1.0832         estimate D2E/DX2                !
 ! R8    R(4,5)                  1.3889         estimate D2E/DX2                !
 ! R9    R(4,9)                  1.0832         estimate D2E/DX2                !
 ! R10   R(5,6)                  1.4163         estimate D2E/DX2                !
 ! R11   R(5,10)                 1.084          estimate D2E/DX2                !
 ! R12   R(6,30)                 1.4209         estimate D2E/DX2                !
 ! R13   R(7,11)                 1.3679         estimate D2E/DX2                !
 ! R14   R(7,13)                 1.4326         estimate D2E/DX2                !
 ! R15   R(7,29)                 1.358          estimate D2E/DX2                !
 ! R16   R(11,50)                1.0396         estimate D2E/DX2                !
 ! R17   R(12,13)                1.4461         estimate D2E/DX2                !
 ! R18   R(12,17)                1.4433         estimate D2E/DX2                !
 ! R19   R(12,28)                1.2889         estimate D2E/DX2                !
 ! R20   R(13,14)                1.4151         estimate D2E/DX2                !
 ! R21   R(14,15)                1.3799         estimate D2E/DX2                !
 ! R22   R(14,18)                1.0858         estimate D2E/DX2                !
 ! R23   R(15,16)                1.4195         estimate D2E/DX2                !
 ! R24   R(15,20)                1.507          estimate D2E/DX2                !
 ! R25   R(16,17)                1.3792         estimate D2E/DX2                !
 ! R26   R(16,19)                1.0881         estimate D2E/DX2                !
 ! R27   R(17,24)                1.5026         estimate D2E/DX2                !
 ! R28   R(20,21)                1.0923         estimate D2E/DX2                !
 ! R29   R(20,22)                1.0955         estimate D2E/DX2                !
 ! R30   R(20,23)                1.0956         estimate D2E/DX2                !
 ! R31   R(24,25)                1.095          estimate D2E/DX2                !
 ! R32   R(24,26)                1.0952         estimate D2E/DX2                !
 ! R33   R(24,27)                1.092          estimate D2E/DX2                !
 ! R34   R(30,31)                1.0849         estimate D2E/DX2                !
 ! R35   R(30,32)                1.3053         estimate D2E/DX2                !
 ! R36   R(32,33)                1.4727         estimate D2E/DX2                !
 ! R37   R(32,51)                1.0296         estimate D2E/DX2                !
 ! R38   R(33,34)                1.5351         estimate D2E/DX2                !
 ! R39   R(33,35)                1.534          estimate D2E/DX2                !
 ! R40   R(33,36)                1.0923         estimate D2E/DX2                !
 ! R41   R(34,37)                1.5333         estimate D2E/DX2                !
 ! R42   R(34,38)                1.0963         estimate D2E/DX2                !
 ! R43   R(34,39)                1.0931         estimate D2E/DX2                !
 ! R44   R(35,40)                1.5328         estimate D2E/DX2                !
 ! R45   R(35,41)                1.0963         estimate D2E/DX2                !
 ! R46   R(35,42)                1.0931         estimate D2E/DX2                !
 ! R47   R(37,43)                1.5323         estimate D2E/DX2                !
 ! R48   R(37,44)                1.0936         estimate D2E/DX2                !
 ! R49   R(37,45)                1.0969         estimate D2E/DX2                !
 ! R50   R(40,43)                1.533          estimate D2E/DX2                !
 ! R51   R(40,46)                1.0937         estimate D2E/DX2                !
 ! R52   R(40,47)                1.0967         estimate D2E/DX2                !
 ! R53   R(43,48)                1.0941         estimate D2E/DX2                !
 ! R54   R(43,49)                1.0972         estimate D2E/DX2                !
 ! A1    A(2,1,6)              119.8037         estimate D2E/DX2                !
 ! A2    A(2,1,29)             110.9725         estimate D2E/DX2                !
 ! A3    A(6,1,29)             129.2231         estimate D2E/DX2                !
 ! A4    A(1,2,3)              121.8371         estimate D2E/DX2                !
 ! A5    A(1,2,11)             104.2781         estimate D2E/DX2                !
 ! A6    A(3,2,11)             133.8844         estimate D2E/DX2                !
 ! A7    A(2,3,4)              117.8304         estimate D2E/DX2                !
 ! A8    A(2,3,8)              121.3702         estimate D2E/DX2                !
 ! A9    A(4,3,8)              120.7994         estimate D2E/DX2                !
 ! A10   A(3,4,5)              121.5666         estimate D2E/DX2                !
 ! A11   A(3,4,9)              118.9747         estimate D2E/DX2                !
 ! A12   A(5,4,9)              119.4586         estimate D2E/DX2                !
 ! A13   A(4,5,6)              121.2079         estimate D2E/DX2                !
 ! A14   A(4,5,10)             120.0698         estimate D2E/DX2                !
 ! A15   A(6,5,10)             118.7222         estimate D2E/DX2                !
 ! A16   A(1,6,5)              117.7514         estimate D2E/DX2                !
 ! A17   A(1,6,30)             121.2835         estimate D2E/DX2                !
 ! A18   A(5,6,30)             120.9634         estimate D2E/DX2                !
 ! A19   A(11,7,13)            120.7585         estimate D2E/DX2                !
 ! A20   A(11,7,29)            111.5323         estimate D2E/DX2                !
 ! A21   A(13,7,29)            127.709          estimate D2E/DX2                !
 ! A22   A(2,11,7)             108.2904         estimate D2E/DX2                !
 ! A23   A(2,11,50)            136.0429         estimate D2E/DX2                !
 ! A24   A(7,11,50)            115.6637         estimate D2E/DX2                !
 ! A25   A(13,12,17)           116.2019         estimate D2E/DX2                !
 ! A26   A(13,12,28)           123.5633         estimate D2E/DX2                !
 ! A27   A(17,12,28)           120.2348         estimate D2E/DX2                !
 ! A28   A(7,13,12)            118.7916         estimate D2E/DX2                !
 ! A29   A(7,13,14)            120.2019         estimate D2E/DX2                !
 ! A30   A(12,13,14)           121.0065         estimate D2E/DX2                !
 ! A31   A(13,14,15)           121.6928         estimate D2E/DX2                !
 ! A32   A(13,14,18)           118.1492         estimate D2E/DX2                !
 ! A33   A(15,14,18)           120.1579         estimate D2E/DX2                !
 ! A34   A(14,15,16)           117.5731         estimate D2E/DX2                !
 ! A35   A(14,15,20)           122.2362         estimate D2E/DX2                !
 ! A36   A(16,15,20)           120.19           estimate D2E/DX2                !
 ! A37   A(15,16,17)           123.1683         estimate D2E/DX2                !
 ! A38   A(15,16,19)           118.2907         estimate D2E/DX2                !
 ! A39   A(17,16,19)           118.541          estimate D2E/DX2                !
 ! A40   A(12,17,16)           120.3545         estimate D2E/DX2                !
 ! A41   A(12,17,24)           117.6257         estimate D2E/DX2                !
 ! A42   A(16,17,24)           122.0186         estimate D2E/DX2                !
 ! A43   A(15,20,21)           111.0376         estimate D2E/DX2                !
 ! A44   A(15,20,22)           111.7294         estimate D2E/DX2                !
 ! A45   A(15,20,23)           111.6477         estimate D2E/DX2                !
 ! A46   A(21,20,22)           107.7876         estimate D2E/DX2                !
 ! A47   A(21,20,23)           107.77           estimate D2E/DX2                !
 ! A48   A(22,20,23)           106.6416         estimate D2E/DX2                !
 ! A49   A(17,24,25)           111.3149         estimate D2E/DX2                !
 ! A50   A(17,24,26)           111.1048         estimate D2E/DX2                !
 ! A51   A(17,24,27)           111.1527         estimate D2E/DX2                !
 ! A52   A(25,24,26)           106.1277         estimate D2E/DX2                !
 ! A53   A(25,24,27)           108.46           estimate D2E/DX2                !
 ! A54   A(26,24,27)           108.4952         estimate D2E/DX2                !
 ! A55   A(1,29,7)             104.9265         estimate D2E/DX2                !
 ! A56   A(6,30,31)            119.3279         estimate D2E/DX2                !
 ! A57   A(6,30,32)            122.9461         estimate D2E/DX2                !
 ! A58   A(31,30,32)           117.7246         estimate D2E/DX2                !
 ! A59   A(30,32,33)           124.8769         estimate D2E/DX2                !
 ! A60   A(30,32,51)           115.6464         estimate D2E/DX2                !
 ! A61   A(33,32,51)           119.4756         estimate D2E/DX2                !
 ! A62   A(32,33,34)           111.2948         estimate D2E/DX2                !
 ! A63   A(32,33,35)           111.4414         estimate D2E/DX2                !
 ! A64   A(32,33,36)           104.9577         estimate D2E/DX2                !
 ! A65   A(34,33,35)           111.2379         estimate D2E/DX2                !
 ! A66   A(34,33,36)           108.7739         estimate D2E/DX2                !
 ! A67   A(35,33,36)           108.8856         estimate D2E/DX2                !
 ! A68   A(33,34,37)           110.3372         estimate D2E/DX2                !
 ! A69   A(33,34,38)           108.6352         estimate D2E/DX2                !
 ! A70   A(33,34,39)           109.6742         estimate D2E/DX2                !
 ! A71   A(37,34,38)           109.7999         estimate D2E/DX2                !
 ! A72   A(37,34,39)           110.8714         estimate D2E/DX2                !
 ! A73   A(38,34,39)           107.4507         estimate D2E/DX2                !
 ! A74   A(33,35,40)           110.4251         estimate D2E/DX2                !
 ! A75   A(33,35,41)           108.9988         estimate D2E/DX2                !
 ! A76   A(33,35,42)           109.5767         estimate D2E/DX2                !
 ! A77   A(40,35,41)           109.1934         estimate D2E/DX2                !
 ! A78   A(40,35,42)           111.1618         estimate D2E/DX2                !
 ! A79   A(41,35,42)           107.4107         estimate D2E/DX2                !
 ! A80   A(34,37,43)           111.5654         estimate D2E/DX2                !
 ! A81   A(34,37,44)           109.7228         estimate D2E/DX2                !
 ! A82   A(34,37,45)           108.8678         estimate D2E/DX2                !
 ! A83   A(43,37,44)           110.6161         estimate D2E/DX2                !
 ! A84   A(43,37,45)           109.176          estimate D2E/DX2                !
 ! A85   A(44,37,45)           106.7566         estimate D2E/DX2                !
 ! A86   A(35,40,43)           111.3529         estimate D2E/DX2                !
 ! A87   A(35,40,46)           109.4796         estimate D2E/DX2                !
 ! A88   A(35,40,47)           109.0975         estimate D2E/DX2                !
 ! A89   A(43,40,46)           110.6221         estimate D2E/DX2                !
 ! A90   A(43,40,47)           109.3112         estimate D2E/DX2                !
 ! A91   A(46,40,47)           106.8612         estimate D2E/DX2                !
 ! A92   A(37,43,40)           111.0923         estimate D2E/DX2                !
 ! A93   A(37,43,48)           110.2187         estimate D2E/DX2                !
 ! A94   A(37,43,49)           109.2113         estimate D2E/DX2                !
 ! A95   A(40,43,48)           110.1658         estimate D2E/DX2                !
 ! A96   A(40,43,49)           109.0957         estimate D2E/DX2                !
 ! A97   A(48,43,49)           106.955          estimate D2E/DX2                !
 ! D1    D(6,1,2,3)              0.5091         estimate D2E/DX2                !
 ! D2    D(6,1,2,11)          -179.6776         estimate D2E/DX2                !
 ! D3    D(29,1,2,3)          -179.7625         estimate D2E/DX2                !
 ! D4    D(29,1,2,11)            0.0509         estimate D2E/DX2                !
 ! D5    D(2,1,6,5)             -0.0406         estimate D2E/DX2                !
 ! D6    D(2,1,6,30)           179.4841         estimate D2E/DX2                !
 ! D7    D(29,1,6,5)          -179.7133         estimate D2E/DX2                !
 ! D8    D(29,1,6,30)           -0.1885         estimate D2E/DX2                !
 ! D9    D(2,1,29,7)            -0.121          estimate D2E/DX2                !
 ! D10   D(6,1,29,7)           179.5749         estimate D2E/DX2                !
 ! D11   D(1,2,3,4)             -0.571          estimate D2E/DX2                !
 ! D12   D(1,2,3,8)            179.551          estimate D2E/DX2                !
 ! D13   D(11,2,3,4)           179.6799         estimate D2E/DX2                !
 ! D14   D(11,2,3,8)            -0.1981         estimate D2E/DX2                !
 ! D15   D(1,2,11,7)             0.0411         estimate D2E/DX2                !
 ! D16   D(1,2,11,50)          179.3615         estimate D2E/DX2                !
 ! D17   D(3,2,11,7)           179.8211         estimate D2E/DX2                !
 ! D18   D(3,2,11,50)           -0.8585         estimate D2E/DX2                !
 ! D19   D(2,3,4,5)              0.1786         estimate D2E/DX2                !
 ! D20   D(2,3,4,9)           -179.6495         estimate D2E/DX2                !
 ! D21   D(8,3,4,5)           -179.9427         estimate D2E/DX2                !
 ! D22   D(8,3,4,9)              0.2292         estimate D2E/DX2                !
 ! D23   D(3,4,5,6)              0.2816         estimate D2E/DX2                !
 ! D24   D(3,4,5,10)          -179.608          estimate D2E/DX2                !
 ! D25   D(9,4,5,6)           -179.8911         estimate D2E/DX2                !
 ! D26   D(9,4,5,10)             0.2193         estimate D2E/DX2                !
 ! D27   D(4,5,6,1)             -0.3432         estimate D2E/DX2                !
 ! D28   D(4,5,6,30)          -179.8695         estimate D2E/DX2                !
 ! D29   D(10,5,6,1)           179.5479         estimate D2E/DX2                !
 ! D30   D(10,5,6,30)            0.0215         estimate D2E/DX2                !
 ! D31   D(1,6,30,31)         -179.2613         estimate D2E/DX2                !
 ! D32   D(1,6,30,32)            0.2955         estimate D2E/DX2                !
 ! D33   D(5,6,30,31)            0.2482         estimate D2E/DX2                !
 ! D34   D(5,6,30,32)          179.805          estimate D2E/DX2                !
 ! D35   D(13,7,11,2)          179.744          estimate D2E/DX2                !
 ! D36   D(13,7,11,50)           0.2674         estimate D2E/DX2                !
 ! D37   D(29,7,11,2)           -0.1219         estimate D2E/DX2                !
 ! D38   D(29,7,11,50)        -179.5985         estimate D2E/DX2                !
 ! D39   D(11,7,13,12)          -0.3966         estimate D2E/DX2                !
 ! D40   D(11,7,13,14)         179.5024         estimate D2E/DX2                !
 ! D41   D(29,7,13,12)         179.4458         estimate D2E/DX2                !
 ! D42   D(29,7,13,14)          -0.6553         estimate D2E/DX2                !
 ! D43   D(11,7,29,1)            0.1487         estimate D2E/DX2                !
 ! D44   D(13,7,29,1)         -179.7056         estimate D2E/DX2                !
 ! D45   D(17,12,13,7)        -179.4862         estimate D2E/DX2                !
 ! D46   D(17,12,13,14)          0.6157         estimate D2E/DX2                !
 ! D47   D(28,12,13,7)           0.504          estimate D2E/DX2                !
 ! D48   D(28,12,13,14)       -179.3942         estimate D2E/DX2                !
 ! D49   D(13,12,17,16)         -0.4045         estimate D2E/DX2                !
 ! D50   D(13,12,17,24)        179.9892         estimate D2E/DX2                !
 ! D51   D(28,12,17,16)        179.605          estimate D2E/DX2                !
 ! D52   D(28,12,17,24)         -0.0013         estimate D2E/DX2                !
 ! D53   D(7,13,14,15)         179.7297         estimate D2E/DX2                !
 ! D54   D(7,13,14,18)          -0.1833         estimate D2E/DX2                !
 ! D55   D(12,13,14,15)         -0.3736         estimate D2E/DX2                !
 ! D56   D(12,13,14,18)        179.7135         estimate D2E/DX2                !
 ! D57   D(13,14,15,16)         -0.1033         estimate D2E/DX2                !
 ! D58   D(13,14,15,20)        179.5864         estimate D2E/DX2                !
 ! D59   D(18,14,15,16)        179.808          estimate D2E/DX2                !
 ! D60   D(18,14,15,20)         -0.5024         estimate D2E/DX2                !
 ! D61   D(14,15,16,17)          0.3233         estimate D2E/DX2                !
 ! D62   D(14,15,16,19)       -179.7176         estimate D2E/DX2                !
 ! D63   D(20,15,16,17)       -179.3729         estimate D2E/DX2                !
 ! D64   D(20,15,16,19)          0.5862         estimate D2E/DX2                !
 ! D65   D(14,15,20,21)          0.3793         estimate D2E/DX2                !
 ! D66   D(14,15,20,22)        120.7524         estimate D2E/DX2                !
 ! D67   D(14,15,20,23)       -119.916          estimate D2E/DX2                !
 ! D68   D(16,15,20,21)       -179.939          estimate D2E/DX2                !
 ! D69   D(16,15,20,22)        -59.5659         estimate D2E/DX2                !
 ! D70   D(16,15,20,23)         59.7657         estimate D2E/DX2                !
 ! D71   D(15,16,17,12)         -0.0569         estimate D2E/DX2                !
 ! D72   D(15,16,17,24)        179.5317         estimate D2E/DX2                !
 ! D73   D(19,16,17,12)        179.9841         estimate D2E/DX2                !
 ! D74   D(19,16,17,24)         -0.4274         estimate D2E/DX2                !
 ! D75   D(12,17,24,25)        -58.1818         estimate D2E/DX2                !
 ! D76   D(12,17,24,26)         59.8661         estimate D2E/DX2                !
 ! D77   D(12,17,24,27)       -179.2074         estimate D2E/DX2                !
 ! D78   D(16,17,24,25)        122.2188         estimate D2E/DX2                !
 ! D79   D(16,17,24,26)       -119.7332         estimate D2E/DX2                !
 ! D80   D(16,17,24,27)          1.1933         estimate D2E/DX2                !
 ! D81   D(6,30,32,33)        -179.0121         estimate D2E/DX2                !
 ! D82   D(6,30,32,51)           0.6012         estimate D2E/DX2                !
 ! D83   D(31,30,32,33)          0.5514         estimate D2E/DX2                !
 ! D84   D(31,30,32,51)       -179.8353         estimate D2E/DX2                !
 ! D85   D(30,32,33,34)        -69.0671         estimate D2E/DX2                !
 ! D86   D(30,32,33,35)         55.737          estimate D2E/DX2                !
 ! D87   D(30,32,33,36)        173.4383         estimate D2E/DX2                !
 ! D88   D(51,32,33,34)        111.3333         estimate D2E/DX2                !
 ! D89   D(51,32,33,35)       -123.8626         estimate D2E/DX2                !
 ! D90   D(51,32,33,36)         -6.1613         estimate D2E/DX2                !
 ! D91   D(32,33,34,37)       -178.3107         estimate D2E/DX2                !
 ! D92   D(32,33,34,38)         61.2759         estimate D2E/DX2                !
 ! D93   D(32,33,34,39)        -55.8964         estimate D2E/DX2                !
 ! D94   D(35,33,34,37)         56.7711         estimate D2E/DX2                !
 ! D95   D(35,33,34,38)        -63.6422         estimate D2E/DX2                !
 ! D96   D(35,33,34,39)        179.1854         estimate D2E/DX2                !
 ! D97   D(36,33,34,37)        -63.155          estimate D2E/DX2                !
 ! D98   D(36,33,34,38)        176.4316         estimate D2E/DX2                !
 ! D99   D(36,33,34,39)         59.2593         estimate D2E/DX2                !
 ! D100  D(32,33,35,40)        178.1505         estimate D2E/DX2                !
 ! D101  D(32,33,35,41)        -61.8996         estimate D2E/DX2                !
 ! D102  D(32,33,35,42)         55.379          estimate D2E/DX2                !
 ! D103  D(34,33,35,40)        -57.0137         estimate D2E/DX2                !
 ! D104  D(34,33,35,41)         62.9363         estimate D2E/DX2                !
 ! D105  D(34,33,35,42)       -179.7852         estimate D2E/DX2                !
 ! D106  D(36,33,35,40)         62.8462         estimate D2E/DX2                !
 ! D107  D(36,33,35,41)       -177.2038         estimate D2E/DX2                !
 ! D108  D(36,33,35,42)        -59.9253         estimate D2E/DX2                !
 ! D109  D(33,34,37,43)        -55.7812         estimate D2E/DX2                !
 ! D110  D(33,34,37,44)       -178.7302         estimate D2E/DX2                !
 ! D111  D(33,34,37,45)         64.7708         estimate D2E/DX2                !
 ! D112  D(38,34,37,43)         63.9307         estimate D2E/DX2                !
 ! D113  D(38,34,37,44)        -59.0183         estimate D2E/DX2                !
 ! D114  D(38,34,37,45)       -175.5173         estimate D2E/DX2                !
 ! D115  D(39,34,37,43)       -177.4894         estimate D2E/DX2                !
 ! D116  D(39,34,37,44)         59.5615         estimate D2E/DX2                !
 ! D117  D(39,34,37,45)        -56.9374         estimate D2E/DX2                !
 ! D118  D(33,35,40,43)         56.0947         estimate D2E/DX2                !
 ! D119  D(33,35,40,46)        178.7379         estimate D2E/DX2                !
 ! D120  D(33,35,40,47)        -64.6433         estimate D2E/DX2                !
 ! D121  D(41,35,40,43)        -63.7381         estimate D2E/DX2                !
 ! D122  D(41,35,40,46)         58.9051         estimate D2E/DX2                !
 ! D123  D(41,35,40,47)        175.524          estimate D2E/DX2                !
 ! D124  D(42,35,40,43)        177.9354         estimate D2E/DX2                !
 ! D125  D(42,35,40,46)        -59.4214         estimate D2E/DX2                !
 ! D126  D(42,35,40,47)         57.1974         estimate D2E/DX2                !
 ! D127  D(34,37,43,40)         55.2349         estimate D2E/DX2                !
 ! D128  D(34,37,43,48)        177.634          estimate D2E/DX2                !
 ! D129  D(34,37,43,49)        -65.1444         estimate D2E/DX2                !
 ! D130  D(44,37,43,40)        177.6727         estimate D2E/DX2                !
 ! D131  D(44,37,43,48)        -59.9282         estimate D2E/DX2                !
 ! D132  D(44,37,43,49)         57.2934         estimate D2E/DX2                !
 ! D133  D(45,37,43,40)        -65.1365         estimate D2E/DX2                !
 ! D134  D(45,37,43,48)         57.2626         estimate D2E/DX2                !
 ! D135  D(45,37,43,49)        174.4842         estimate D2E/DX2                !
 ! D136  D(35,40,43,37)        -55.308          estimate D2E/DX2                !
 ! D137  D(35,40,43,48)       -177.7377         estimate D2E/DX2                !
 ! D138  D(35,40,43,49)         65.1396         estimate D2E/DX2                !
 ! D139  D(46,40,43,37)       -177.292          estimate D2E/DX2                !
 ! D140  D(46,40,43,48)         60.2783         estimate D2E/DX2                !
 ! D141  D(46,40,43,49)        -56.8443         estimate D2E/DX2                !
 ! D142  D(47,40,43,37)         65.3045         estimate D2E/DX2                !
 ! D143  D(47,40,43,48)        -57.1253         estimate D2E/DX2                !
 ! D144  D(47,40,43,49)       -174.2479         estimate D2E/DX2                !
 --------------------------------------------------------------------------------
 Trust Radius=3.00D-01 FncErr=1.00D-07 GrdErr=1.00D-07 EigMax=2.50D+02 EigMin=1.00D-04
 Number of steps in this run=    305 maximum allowed number of steps=    306.
 GradGradGradGradGradGradGradGradGradGradGradGradGradGradGradGradGradGrad

 Leave Link  103 at Mon Dec 17 15:42:00 2018, MaxMem=  1342177280 cpu:               0.1 elap:               0.0
 (Enter /gpfs/apps/hpc/Apps/Restricted/Gaussian/Rev_A.03/g16/l202.exe)
 Symmetry turned off by external request.
 Stoichiometry    C22H25N3O
 Framework group  C1[X(C22H25N3O)]
 Deg. of freedom   147
 Full point group                 C1      NOp   1
                          Input orientation:                          
 ---------------------------------------------------------------------
 Center     Atomic      Atomic             Coordinates (Angstroms)
 Number     Number       Type             X           Y           Z
 ---------------------------------------------------------------------
      1          6           0       -0.492944    2.696515    0.258104
      2          6           0       -1.903699    2.897651    0.229344
      3          6           0       -2.460260    4.165200    0.164323
      4          6           0       -1.583153    5.268652    0.139148
      5          6           0       -0.204638    5.102645    0.174105
      6          6           0        0.377992    3.813010    0.230746
      7          6           0       -1.392116    0.735543    0.328331
      8          1           0       -3.533460    4.309003    0.135605
      9          1           0       -1.998370    6.268054    0.094230
     10          1           0        0.447264    5.968643    0.160019
     11          7           0       -2.428729    1.626543    0.275094
     12          6           0       -3.008807   -1.140576    0.403032
     13          6           0       -1.640049   -0.674073    0.389610
     14          6           0       -0.558692   -1.585814    0.433704
     15          6           0       -0.762074   -2.949054    0.498642
     16          6           0       -2.103415   -3.412861    0.522312
     17          6           0       -3.194191   -2.569975    0.477146
     18          1           0        0.450286   -1.185019    0.416586
     19          1           0       -2.277255   -4.485524    0.578153
     20          6           0        0.380201   -3.931295    0.536920
     21          1           0        1.342399   -3.414850    0.513231
     22          1           0        0.353989   -4.548767    1.441397
     23          1           0        0.349472   -4.620271   -0.314325
     24          6           0       -4.603942   -3.089824    0.493305
     25          1           0       -5.170419   -2.677940    1.334989
     26          1           0       -5.144326   -2.792423   -0.411706
     27          1           0       -4.621377   -4.179354    0.564901
     28          8           0       -4.029780   -0.355405    0.353265
     29          7           0       -0.190346    1.367819    0.317060
     30          6           0        1.788889    3.649294    0.269088
     31          1           0        2.426166    4.527177    0.258724
     32          7           0        2.366619    2.480134    0.325322
     33          6           0        3.821785    2.261969    0.387532
     34          6           0        4.500086    2.645665   -0.935057
     35          6           0        4.450514    3.007865    1.571323
     36          1           0        3.939319    1.187316    0.544083
     37          6           0        6.006704    2.370797   -0.860632
     38          1           0        4.325880    3.711853   -1.121703
     39          1           0        4.043016    2.089892   -1.757835
     40          6           0        5.955979    2.728199    1.641118
     41          1           0        4.289587    4.084395    1.440940
     42          1           0        3.950890    2.712283    2.497522
     43          6           0        6.653218    3.093824    0.325685
     44          1           0        6.482966    2.668489   -1.799004
     45          1           0        6.165388    1.290675   -0.754197
     46          1           0        6.391970    3.284500    2.475763
     47          1           0        6.113778    1.663452    1.851501
     48          1           0        7.718134    2.849476    0.382662
     49          1           0        6.581473    4.177642    0.170577
     50          1           0       -3.381283    1.210274    0.286880
     51          1           0        1.732069    1.669304    0.330858
 ---------------------------------------------------------------------
 Rotational constants (GHZ):           0.2812081           0.1070817           0.0801252
 Leave Link  202 at Mon Dec 17 15:42:00 2018, MaxMem=  1342177280 cpu:               0.0 elap:               0.0
 (Enter /gpfs/apps/hpc/Apps/Restricted/Gaussian/Rev_A.03/g16/l716.exe)
 Electric field and nuclear coordinate derivatives read from checkpoint file.
 Dipole        = 5.51711657D+00 3.97687382D+00-7.17470705D-02
 Polarizability= 5.10114783D+02 6.68602716D+01 6.32882442D+02
                 1.11876621D+00-1.84623978D+01 1.78304786D+02
 Full mass-weighted force constant matrix:
 Low frequencies ---   -8.5085   -0.0017   -0.0005    0.0023    2.3717   18.4576
 Low frequencies ---   34.9649   39.1941   56.3640
 Diagonal vibrational polarizability:
      104.8984112     101.2526479      69.2018747
 Harmonic frequencies (cm**-1), IR intensities (KM/Mole), Raman scattering
 activities (A**4/AMU), depolarization ratios for plane and unpolarized
 incident light, reduced masses (AMU), force constants (mDyne/A),
 and normal coordinates:
                      1                      2                      3
                      A                      A                      A
 Frequencies --     33.6805                38.6271                56.0650
 Red. masses --      4.4452                 4.4565                 4.1842
 Frc consts  --      0.0030                 0.0039                 0.0077
 IR Inten    --      0.1011                 0.9077                 1.3549
  Atom  AN      X      Y      Z        X      Y      Z        X      Y      Z
     1   6    -0.01   0.02  -0.09     0.03  -0.05  -0.03    -0.01   0.01   0.02
     2   6    -0.02   0.02  -0.03     0.03  -0.04   0.02    -0.01   0.01   0.10
     3   6    -0.02   0.02   0.04     0.04  -0.03   0.03    -0.01   0.00   0.08
     4   6    -0.02   0.02   0.04     0.05  -0.04  -0.01    -0.02   0.00  -0.03
     5   6    -0.02   0.02  -0.01     0.05  -0.05  -0.06    -0.02   0.01  -0.12
     6   6    -0.02   0.02  -0.07     0.04  -0.06  -0.06    -0.01   0.01  -0.08
     7   6    -0.00   0.01  -0.09     0.00  -0.04   0.01     0.00   0.01   0.13
     8   1    -0.02   0.02   0.09     0.04  -0.02   0.06    -0.02  -0.00   0.14
     9   1    -0.03   0.02   0.09     0.06  -0.04  -0.01    -0.02  -0.00  -0.05
    10   1    -0.02   0.02   0.01     0.06  -0.06  -0.09    -0.02   0.01  -0.20
    11   7    -0.01   0.01  -0.03     0.02  -0.03   0.04    -0.00   0.01   0.18
    12   6     0.02   0.00   0.06    -0.04   0.00   0.04     0.01   0.00   0.05
    13   6     0.01   0.01  -0.08    -0.03  -0.04   0.01     0.01   0.01   0.11
    14   6     0.02   0.02  -0.15    -0.06  -0.07  -0.02     0.01   0.01   0.08
    15   6     0.04   0.02  -0.11    -0.09  -0.06  -0.04     0.01   0.00  -0.02
    16   6     0.05   0.01   0.02    -0.11  -0.03  -0.01     0.01  -0.00  -0.11
    17   6     0.04   0.00   0.11    -0.08   0.01   0.03     0.01  -0.00  -0.08
    18   1     0.02   0.03  -0.24    -0.04  -0.10  -0.04     0.01   0.01   0.13
    19   1     0.06   0.01   0.07    -0.14  -0.02  -0.03     0.01  -0.01  -0.21
    20   6     0.05   0.03  -0.17    -0.12  -0.10  -0.08     0.01   0.00  -0.05
    21   1     0.05   0.04  -0.23    -0.11  -0.12  -0.09     0.01   0.01   0.03
    22   1     0.10   0.04  -0.17    -0.12  -0.11  -0.08    -0.02  -0.07  -0.10
    23   1     0.00   0.02  -0.17    -0.16  -0.08  -0.09     0.05   0.07  -0.11
    24   6     0.04  -0.01   0.25    -0.10   0.05   0.06     0.01  -0.01  -0.18
    25   1     0.12  -0.02   0.30    -0.07   0.06   0.07    -0.02  -0.07  -0.17
    26   1    -0.04  -0.01   0.30    -0.11   0.07   0.07     0.04   0.05  -0.18
    27   1     0.06  -0.01   0.25    -0.13   0.05   0.05     0.01  -0.02  -0.26
    28   8     0.01  -0.01   0.14    -0.03   0.03   0.08     0.01   0.00   0.10
    29   7    -0.01   0.02  -0.13     0.02  -0.06  -0.02     0.00   0.01   0.05
    30   6    -0.02   0.02  -0.05     0.04  -0.05  -0.09    -0.01   0.01  -0.14
    31   1    -0.01   0.02  -0.01     0.03  -0.05  -0.13    -0.01   0.01  -0.19
    32   7    -0.02   0.01  -0.07     0.06  -0.04  -0.07    -0.01   0.02  -0.09
    33   6    -0.03  -0.01   0.00     0.07   0.02  -0.04    -0.01   0.01  -0.03
    34   6     0.04  -0.05   0.03     0.09   0.11   0.00     0.06  -0.11  -0.03
    35   6    -0.07   0.01   0.02    -0.01   0.00   0.01    -0.06   0.10  -0.06
    36   1    -0.06  -0.01   0.03     0.11   0.01  -0.08    -0.02   0.02   0.06
    37   6     0.03  -0.09   0.10     0.10   0.20   0.04     0.05  -0.13   0.07
    38   1     0.08  -0.05  -0.00     0.03   0.11   0.04     0.09  -0.12  -0.12
    39   1     0.07  -0.05   0.02     0.15   0.12  -0.04     0.09  -0.17  -0.00
    40   6    -0.08  -0.03   0.09     0.01   0.10   0.05    -0.06   0.09   0.04
    41   1    -0.04   0.01  -0.01    -0.06  -0.00   0.05    -0.04   0.09  -0.14
    42   1    -0.11   0.03  -0.00    -0.02  -0.06  -0.01    -0.10   0.17  -0.06
    43   6    -0.00  -0.09   0.12     0.02   0.21   0.08     0.01  -0.06   0.04
    44   1     0.08  -0.11   0.11     0.11   0.25   0.06     0.09  -0.20   0.07
    45   1    -0.00  -0.09   0.12     0.16   0.21   0.02     0.03  -0.13   0.15
    46   1    -0.10  -0.01   0.10    -0.05   0.09   0.08    -0.10   0.16   0.01
    47   1    -0.12  -0.03   0.13     0.08   0.10  -0.00    -0.09   0.11   0.15
    48   1    -0.01  -0.13   0.18     0.04   0.31   0.10     0.00  -0.09   0.12
    49   1     0.06  -0.09   0.09    -0.08   0.21   0.12     0.07  -0.07  -0.06
    50   1    -0.01   0.02   0.04     0.01  -0.02   0.07     0.00  -0.00   0.17
    51   1    -0.03   0.02  -0.11     0.08  -0.06  -0.03    -0.01   0.02  -0.03
                      4                      5                      6
                      A                      A                      A
 Frequencies --     60.5033                66.0672                90.2093
 Red. masses --      3.3524                 4.4555                 3.4455
 Frc consts  --      0.0072                 0.0115                 0.0165
 IR Inten    --      1.2051                 2.5224                 0.2427
  Atom  AN      X      Y      Z        X      Y      Z        X      Y      Z
     1   6     0.01  -0.02   0.00    -0.00  -0.01  -0.05    -0.01  -0.00  -0.01
     2   6     0.01  -0.02  -0.02    -0.01  -0.01   0.03    -0.00   0.04   0.01
     3   6     0.00  -0.02   0.00    -0.01  -0.00   0.18     0.05   0.07   0.04
     4   6    -0.01  -0.02   0.04    -0.02   0.00   0.23     0.09   0.03   0.05
     5   6    -0.01  -0.01   0.07    -0.02   0.00   0.13     0.09  -0.01   0.01
     6   6     0.00  -0.01   0.05    -0.01  -0.00  -0.02     0.04  -0.04  -0.02
     7   6     0.01  -0.02  -0.04     0.00  -0.01  -0.09    -0.05   0.02  -0.02
     8   1     0.00  -0.03  -0.01    -0.02  -0.00   0.26     0.06   0.11   0.07
     9   1    -0.01  -0.02   0.06    -0.02   0.01   0.34     0.13   0.05   0.07
    10   1    -0.01  -0.01   0.11    -0.02   0.00   0.16     0.12  -0.04   0.01
    11   7     0.01  -0.02  -0.05    -0.00  -0.01  -0.01    -0.04   0.05  -0.00
    12   6    -0.01  -0.00  -0.03    -0.00  -0.01  -0.08    -0.03  -0.00  -0.01
    13   6    -0.01  -0.02  -0.05    -0.00  -0.01  -0.07    -0.04   0.03  -0.02
    14   6    -0.02  -0.04  -0.05    -0.01  -0.01   0.01    -0.01   0.06  -0.01
    15   6    -0.04  -0.03  -0.03    -0.01  -0.00   0.10     0.03   0.06   0.00
    16   6    -0.05  -0.01   0.00    -0.01  -0.00   0.08     0.05   0.02   0.00
    17   6    -0.03   0.00   0.01    -0.01  -0.00  -0.01     0.02  -0.01  -0.01
    18   1    -0.01  -0.05  -0.06    -0.00  -0.01   0.03    -0.02   0.10  -0.02
    19   1    -0.06  -0.01   0.02    -0.02   0.00   0.14     0.08   0.02   0.01
    20   6    -0.06  -0.05  -0.04    -0.01   0.00   0.22     0.07   0.10   0.02
    21   1    -0.05  -0.07  -0.05    -0.01  -0.00   0.14     0.05   0.14   0.02
    22   1    -0.06  -0.05  -0.04     0.00   0.12   0.31     0.08   0.12   0.03
    23   1    -0.08  -0.06  -0.04    -0.02  -0.12   0.32     0.10   0.09   0.03
    24   6    -0.04   0.03   0.05    -0.01   0.00  -0.05     0.04  -0.07  -0.01
    25   1    -0.02   0.05   0.05    -0.05   0.05  -0.10     0.02  -0.09  -0.01
    26   1    -0.06   0.02   0.05     0.03  -0.04  -0.09     0.03  -0.08  -0.01
    27   1    -0.06   0.03   0.07    -0.02   0.01   0.01     0.08  -0.07  -0.02
    28   8    -0.00   0.01  -0.03    -0.00  -0.00  -0.13    -0.04  -0.02  -0.00
    29   7     0.01  -0.02  -0.02     0.00  -0.01  -0.13    -0.04  -0.00  -0.02
    30   6     0.00   0.01   0.09    -0.01   0.01  -0.06     0.03  -0.10  -0.03
    31   1    -0.02   0.03   0.13    -0.02   0.02   0.00     0.06  -0.13  -0.06
    32   7     0.03   0.03   0.07     0.01   0.01  -0.16    -0.01  -0.12   0.01
    33   6     0.03   0.04   0.08     0.01   0.02  -0.10    -0.01  -0.13   0.02
    34   6     0.00  -0.14   0.01     0.09   0.01  -0.06    -0.04  -0.17   0.00
    35   6     0.05   0.20  -0.03    -0.05   0.03  -0.07    -0.04  -0.07   0.01
    36   1     0.03   0.06   0.23     0.01   0.02  -0.08    -0.01  -0.12   0.06
    37   6     0.01  -0.12   0.02     0.08  -0.01   0.02    -0.01   0.01   0.02
    38   1    -0.01  -0.17  -0.13     0.12   0.01  -0.07    -0.15  -0.20  -0.08
    39   1    -0.01  -0.26   0.10     0.13   0.02  -0.08     0.02  -0.27   0.04
    40   6     0.06   0.22  -0.02    -0.05   0.01   0.02    -0.02   0.08  -0.01
    41   1     0.05   0.18  -0.15    -0.03   0.03  -0.09    -0.13  -0.09   0.01
    42   1     0.08   0.31   0.02    -0.10   0.04  -0.09    -0.01  -0.11   0.02
    43   6     0.03   0.04  -0.09     0.03  -0.02   0.06    -0.10   0.17  -0.03
    44   1    -0.02  -0.22  -0.03     0.13  -0.02   0.05    -0.04   0.00  -0.00
    45   1     0.03  -0.11   0.14     0.06  -0.02   0.03     0.12   0.04   0.10
    46   1     0.07   0.33  -0.11    -0.09   0.02   0.03    -0.07   0.13  -0.02
    47   1     0.07   0.25   0.12    -0.08   0.01   0.05     0.11   0.10  -0.02
    48   1     0.03   0.05  -0.08     0.02  -0.06   0.12    -0.05   0.39  -0.05
    49   1     0.03   0.02  -0.23     0.08  -0.02   0.04    -0.33   0.16  -0.06
    50   1     0.01  -0.03  -0.05    -0.00  -0.02  -0.00    -0.04   0.10   0.00
    51   1     0.05   0.01   0.02     0.02   0.01  -0.21    -0.04  -0.10   0.03
                      7                      8                      9
                      A                      A                      A
 Frequencies --    117.8747               121.7065               133.7027
 Red. masses --      3.3444                 1.8635                 2.2300
 Frc consts  --      0.0274                 0.0163                 0.0235
 IR Inten    --     10.9253                 1.6489                 0.5670
  Atom  AN      X      Y      Z        X      Y      Z        X      Y      Z
     1   6     0.04   0.02  -0.03    -0.01  -0.01  -0.04     0.01  -0.00  -0.10
     2   6     0.04  -0.02   0.02    -0.01   0.00  -0.03     0.01  -0.01  -0.08
     3   6    -0.00  -0.04   0.05     0.00   0.01  -0.02    -0.00  -0.01  -0.01
     4   6    -0.04  -0.01   0.01     0.01   0.00  -0.00    -0.01  -0.00   0.05
     5   6    -0.03   0.03  -0.04     0.01  -0.01   0.00    -0.01   0.01   0.05
     6   6     0.00   0.05  -0.05    -0.00  -0.01  -0.01     0.00   0.01  -0.03
     7   6     0.10  -0.00  -0.01    -0.02  -0.00  -0.03     0.02  -0.01  -0.06
     8   1    -0.01  -0.07   0.10     0.00   0.02  -0.01    -0.00  -0.01   0.02
     9   1    -0.07  -0.02   0.03     0.01   0.01   0.01    -0.02  -0.00   0.12
    10   1    -0.05   0.05  -0.06     0.01  -0.01   0.03    -0.01   0.01   0.11
    11   7     0.08  -0.03   0.04    -0.02   0.01  -0.02     0.01  -0.01  -0.07
    12   6     0.09   0.04  -0.00    -0.02  -0.01   0.06     0.01   0.01   0.07
    13   6     0.10  -0.01  -0.01    -0.03   0.00  -0.01     0.01  -0.00   0.02
    14   6     0.07  -0.05  -0.03    -0.02   0.01  -0.03     0.01  -0.01   0.05
    15   6     0.01  -0.05  -0.01    -0.00   0.01  -0.02    -0.00  -0.01   0.05
    16   6    -0.01   0.01  -0.01     0.00  -0.01  -0.05    -0.01  -0.00  -0.01
    17   6     0.03   0.05  -0.01    -0.01  -0.02  -0.03     0.00   0.01  -0.01
    18   1     0.09  -0.10  -0.04    -0.02   0.02  -0.05     0.01  -0.02   0.06
    19   1    -0.05   0.02  -0.01     0.01  -0.01  -0.10    -0.02  -0.00  -0.06
    20   6    -0.05  -0.11   0.04     0.01   0.02   0.07    -0.01  -0.01   0.03
    21   1    -0.01  -0.19  -0.27     0.00   0.01  -0.40    -0.01   0.01   0.52
    22   1     0.08   0.13   0.20     0.25   0.41   0.34    -0.28  -0.36  -0.22
    23   1    -0.26  -0.34   0.23    -0.24  -0.35   0.38     0.27   0.32  -0.26
    24   6    -0.00   0.13  -0.02     0.00  -0.04  -0.08    -0.00   0.02  -0.10
    25   1     0.01   0.19  -0.04    -0.01  -0.12  -0.05    -0.03  -0.05  -0.08
    26   1     0.03   0.15  -0.04     0.00   0.03  -0.06     0.03   0.10  -0.09
    27   1    -0.07   0.14   0.00     0.02  -0.05  -0.18    -0.02   0.01  -0.19
    28   8     0.11   0.07   0.01    -0.03  -0.01   0.16     0.01   0.02   0.16
    29   7     0.08   0.03  -0.04    -0.02  -0.01  -0.05     0.02  -0.00  -0.11
    30   6     0.00   0.03  -0.03    -0.00  -0.00   0.03    -0.00   0.01   0.03
    31   1     0.03   0.01  -0.05    -0.01   0.00   0.06    -0.00   0.01   0.11
    32   7    -0.06   0.01   0.03     0.01   0.00   0.03    -0.01   0.01   0.01
    33   6    -0.07  -0.05   0.04     0.02   0.02   0.02    -0.01  -0.00   0.02
    34   6    -0.10  -0.08   0.02     0.00   0.03   0.02    -0.02  -0.01   0.01
    35   6    -0.06  -0.06   0.04     0.04   0.02   0.01     0.01  -0.01   0.02
    36   1    -0.11  -0.05   0.04     0.03   0.02   0.02    -0.01  -0.00   0.02
    37   6    -0.09  -0.00   0.00     0.00   0.01  -0.01    -0.02   0.01  -0.01
    38   1    -0.15  -0.09  -0.02     0.02   0.03   0.03    -0.03  -0.01   0.01
    39   1    -0.10  -0.12   0.05    -0.01   0.05   0.02    -0.03  -0.01   0.02
    40   6    -0.06  -0.01  -0.00     0.04  -0.00  -0.00     0.01  -0.01  -0.01
    41   1    -0.09  -0.06   0.07     0.05   0.02   0.01     0.01  -0.01   0.03
    42   1    -0.04  -0.09   0.04     0.05   0.03   0.02     0.02  -0.02   0.02
    43   6    -0.12   0.06  -0.02     0.03  -0.02  -0.01    -0.02   0.01  -0.01
    44   1    -0.12  -0.00  -0.01    -0.01   0.01  -0.01    -0.03   0.01  -0.01
    45   1    -0.03   0.01   0.03    -0.01   0.00  -0.02    -0.01   0.01  -0.01
    46   1    -0.05  -0.02  -0.00     0.05  -0.01  -0.01     0.02  -0.02  -0.01
    47   1    -0.00  -0.02  -0.04     0.02  -0.00  -0.00     0.01  -0.01  -0.03
    48   1    -0.10   0.17  -0.05     0.03  -0.05  -0.02    -0.01   0.03  -0.03
    49   1    -0.24   0.05  -0.01     0.06  -0.02  -0.01    -0.04   0.01  -0.00
    50   1     0.09  -0.10   0.05    -0.02   0.03   0.04     0.01  -0.01   0.03
    51   1    -0.10   0.04   0.04     0.03  -0.01  -0.00    -0.01   0.01  -0.06
                     10                     11                     12
                      A                      A                      A
 Frequencies --    147.4014               157.9738               194.5372
 Red. masses --      4.1505                 1.0942                 3.2460
 Frc consts  --      0.0531                 0.0161                 0.0724
 IR Inten    --      5.1258                 1.4511                 0.0924
  Atom  AN      X      Y      Z        X      Y      Z        X      Y      Z
     1   6    -0.00  -0.01  -0.10    -0.00   0.00  -0.00    -0.01   0.01   0.08
     2   6    -0.00   0.00   0.08    -0.00   0.00  -0.01    -0.02  -0.01   0.10
     3   6     0.00   0.01   0.18     0.00   0.00  -0.01    -0.04  -0.03  -0.01
     4   6     0.01  -0.00   0.02     0.00   0.00  -0.00    -0.05  -0.02  -0.10
     5   6     0.01  -0.02  -0.18     0.00   0.00   0.01    -0.05   0.00  -0.04
     6   6     0.01  -0.02  -0.17    -0.00   0.00   0.01    -0.02   0.02   0.07
     7   6    -0.02  -0.00  -0.02    -0.00   0.00  -0.00     0.00  -0.00  -0.02
     8   1    -0.00   0.02   0.36     0.00   0.00  -0.02    -0.04  -0.05  -0.06
     9   1     0.02   0.00   0.06     0.00   0.00   0.00    -0.06  -0.03  -0.21
    10   1     0.02  -0.02  -0.27     0.00   0.00   0.02    -0.07   0.02  -0.09
    11   7    -0.02   0.01   0.14    -0.00   0.00  -0.01    -0.01  -0.01   0.08
    12   6    -0.02  -0.01  -0.05    -0.00   0.00   0.02    -0.00   0.00  -0.06
    13   6    -0.03  -0.00  -0.05    -0.00   0.00   0.01    -0.00  -0.01  -0.15
    14   6    -0.02   0.01  -0.05    -0.00   0.00  -0.01    -0.01  -0.01  -0.16
    15   6    -0.01   0.01  -0.00     0.00   0.00   0.00    -0.01  -0.00  -0.08
    16   6    -0.00  -0.00   0.03     0.00   0.00   0.03    -0.01  -0.00  -0.09
    17   6    -0.01  -0.01  -0.01     0.00   0.00   0.03    -0.01   0.00  -0.08
    18   1    -0.02   0.01  -0.06    -0.00   0.00  -0.04    -0.00  -0.01  -0.14
    19   1     0.01  -0.00   0.09     0.00   0.00   0.04    -0.01   0.00  -0.02
    20   6     0.01   0.03   0.03    -0.00  -0.00  -0.04     0.02   0.03   0.18
    21   1     0.00   0.06   0.19     0.00  -0.00  -0.08    -0.00   0.08   0.51
    22   1    -0.08  -0.06  -0.04     0.03   0.00  -0.03    -0.24  -0.02   0.14
    23   1     0.13   0.11  -0.05    -0.04  -0.01  -0.03     0.32   0.08   0.13
    24   6    -0.00  -0.03   0.02     0.00  -0.01  -0.04    -0.01   0.03   0.05
    25   1    -0.04   0.08  -0.06    -0.20   0.42  -0.39     0.04   0.18   0.01
    26   1     0.02  -0.17  -0.04     0.21  -0.47  -0.33    -0.05  -0.12   0.03
    27   1     0.01  -0.02   0.17    -0.00   0.03   0.48    -0.03   0.04   0.23
    28   8    -0.03  -0.02  -0.07    -0.00   0.00   0.03    -0.00   0.01   0.10
    29   7    -0.01  -0.02  -0.13    -0.00   0.00   0.00    -0.00   0.01   0.01
    30   6     0.01  -0.01  -0.08    -0.00  -0.00   0.01    -0.01   0.04   0.05
    31   1     0.01  -0.02  -0.17    -0.00   0.00   0.02    -0.02   0.05   0.10
    32   7     0.01   0.00   0.15     0.00  -0.00  -0.01     0.01   0.04  -0.02
    33   6     0.02   0.04   0.12     0.00  -0.00  -0.00     0.01  -0.01  -0.02
    34   6    -0.07   0.07   0.09     0.00  -0.00  -0.00     0.05  -0.06  -0.02
    35   6     0.09   0.04   0.09    -0.00  -0.00  -0.00     0.03  -0.05  -0.00
    36   1     0.04   0.04   0.11    -0.00  -0.00  -0.00    -0.04  -0.02  -0.01
    37   6    -0.08   0.01  -0.03     0.00  -0.00   0.00     0.06  -0.01   0.01
    38   1    -0.05   0.09   0.16     0.00  -0.00  -0.01     0.03  -0.07  -0.08
    39   1    -0.15   0.13   0.10     0.01  -0.00  -0.00     0.08  -0.11  -0.00
    40   6     0.09  -0.01  -0.01    -0.00   0.00   0.00     0.04  -0.04  -0.01
    41   1     0.09   0.04   0.08    -0.00  -0.00  -0.00     0.04  -0.04   0.03
    42   1     0.14   0.05   0.12    -0.00  -0.00  -0.00     0.03  -0.07  -0.01
    43   6     0.04  -0.06  -0.05     0.00   0.00   0.00     0.01   0.05   0.00
    44   1    -0.12   0.02  -0.05     0.01  -0.00   0.00     0.06  -0.01   0.01
    45   1    -0.12   0.00  -0.08     0.01  -0.00   0.00     0.11   0.00   0.05
    46   1     0.16  -0.02  -0.04    -0.00   0.00   0.00     0.03  -0.08   0.02
    47   1     0.06  -0.01  -0.00    -0.00   0.00   0.00     0.06  -0.05  -0.08
    48   1     0.02  -0.14  -0.11     0.00   0.00   0.01     0.04   0.15  -0.00
    49   1     0.12  -0.05  -0.03    -0.00   0.00   0.00    -0.09   0.05   0.02
    50   1    -0.02   0.02   0.12    -0.00   0.00   0.00    -0.00  -0.03   0.09
    51   1     0.03  -0.01   0.19     0.00  -0.00  -0.01     0.01   0.04  -0.06
                     13                     14                     15
                      A                      A                      A
 Frequencies --    198.0231               228.6739               231.7394
 Red. masses --      3.3467                 3.1091                 3.6888
 Frc consts  --      0.0773                 0.0958                 0.1167
 IR Inten    --      1.1279                 1.2488                 9.2388
  Atom  AN      X      Y      Z        X      Y      Z        X      Y      Z
     1   6    -0.03   0.02  -0.08     0.00   0.00   0.06    -0.03  -0.06   0.01
     2   6    -0.05  -0.01  -0.02     0.00   0.01   0.09    -0.04  -0.08  -0.01
     3   6    -0.09  -0.03   0.01     0.01   0.01   0.00    -0.07  -0.11   0.00
     4   6    -0.11  -0.01  -0.01     0.01   0.00  -0.08    -0.06  -0.11   0.02
     5   6    -0.10   0.02  -0.02     0.01  -0.00  -0.03    -0.06  -0.10   0.00
     6   6    -0.04   0.03  -0.04     0.00   0.00   0.06    -0.03  -0.09  -0.00
     7   6    -0.02   0.01   0.02     0.00  -0.00  -0.04    -0.00  -0.03  -0.00
     8   1    -0.09  -0.05   0.06     0.01   0.01  -0.04    -0.07  -0.12   0.00
     9   1    -0.13  -0.02   0.01     0.02  -0.00  -0.18    -0.06  -0.11   0.03
    10   1    -0.14   0.04  -0.00     0.02  -0.00  -0.07    -0.08  -0.08   0.00
    11   7    -0.03  -0.01   0.05     0.00   0.01   0.06    -0.02  -0.07  -0.02
    12   6    -0.01   0.00   0.02     0.00  -0.00   0.01     0.02   0.05   0.01
    13   6    -0.01   0.01   0.08     0.00  -0.00  -0.10     0.01   0.01   0.01
    14   6    -0.01   0.02   0.08     0.00  -0.01  -0.16     0.01   0.05  -0.00
    15   6    -0.00   0.02   0.04     0.00   0.00   0.07     0.02   0.06   0.00
    16   6     0.00   0.01   0.05     0.00   0.01   0.27     0.01   0.06   0.02
    17   6    -0.01   0.00   0.04     0.00   0.00   0.10     0.01   0.08   0.01
    18   1    -0.01   0.02   0.07     0.00  -0.02  -0.34     0.00   0.06  -0.03
    19   1     0.01   0.01   0.02     0.00   0.02   0.40     0.00   0.06   0.02
    20   6    -0.00   0.01  -0.09    -0.01  -0.02  -0.06     0.13   0.18  -0.03
    21   1    -0.00  -0.00  -0.27    -0.00  -0.03  -0.07     0.04   0.33  -0.08
    22   1     0.13   0.04  -0.07     0.02  -0.09  -0.11     0.26   0.20  -0.01
    23   1    -0.15  -0.02  -0.07    -0.07   0.06  -0.12     0.19   0.16  -0.01
    24   6     0.00  -0.01  -0.02     0.00  -0.01  -0.17    -0.04   0.23  -0.03
    25   1    -0.02  -0.09   0.00    -0.12  -0.27  -0.12    -0.01   0.29  -0.04
    26   1     0.01   0.05  -0.01     0.12   0.24  -0.15     0.02   0.34  -0.03
    27   1     0.01  -0.02  -0.10     0.01  -0.03  -0.48    -0.20   0.23  -0.06
    28   8    -0.02  -0.01  -0.08     0.00  -0.00   0.02     0.03   0.08  -0.00
    29   7    -0.02   0.02  -0.07     0.00  -0.00  -0.02    -0.01  -0.05   0.02
    30   6    -0.02   0.08   0.05     0.00  -0.00   0.05    -0.03  -0.11  -0.01
    31   1    -0.05   0.11   0.18    -0.00  -0.00   0.07    -0.03  -0.11  -0.05
    32   7     0.03   0.09  -0.01    -0.00  -0.01  -0.01     0.00  -0.10   0.02
    33   6     0.04  -0.02   0.02    -0.00  -0.00  -0.01     0.02  -0.03  -0.00
    34   6     0.09  -0.12   0.01     0.00   0.00  -0.01     0.01   0.03   0.01
    35   6     0.11  -0.10   0.04    -0.01   0.01  -0.01     0.01  -0.01  -0.01
    36   1    -0.07  -0.03   0.03     0.00   0.00  -0.01     0.07  -0.03  -0.02
    37   6     0.11  -0.01   0.03    -0.00   0.00  -0.00     0.01   0.00  -0.00
    38   1     0.04  -0.15  -0.11     0.00   0.01  -0.01     0.03   0.04   0.07
    39   1     0.13  -0.22   0.05     0.01   0.01  -0.02     0.01   0.07  -0.02
    40   6     0.12  -0.09  -0.03    -0.02   0.01   0.00     0.02   0.04   0.00
    41   1     0.11  -0.09   0.11    -0.01   0.01  -0.02    -0.03  -0.02  -0.02
    42   1     0.14  -0.15   0.04    -0.02   0.02  -0.02     0.03  -0.01   0.00
    43   6     0.04   0.10  -0.01    -0.01  -0.00   0.01     0.04  -0.02  -0.00
    44   1     0.08  -0.03   0.00     0.01   0.00   0.00     0.01   0.00  -0.00
    45   1     0.21   0.01   0.09    -0.00   0.00  -0.00    -0.01  -0.00  -0.02
    46   1     0.12  -0.18   0.03    -0.03   0.02   0.00     0.00   0.10  -0.02
    47   1     0.17  -0.11  -0.18    -0.02   0.01   0.01     0.05   0.06   0.07
    48   1     0.09   0.31  -0.05    -0.01  -0.01   0.02     0.03  -0.08   0.01
    49   1    -0.18   0.09   0.02     0.01  -0.00   0.00     0.11  -0.02  -0.02
    50   1    -0.02  -0.03   0.03     0.00   0.01   0.05    -0.01  -0.16  -0.00
    51   1     0.03   0.09  -0.12    -0.00  -0.01  -0.04     0.02  -0.11   0.05
                     16                     17                     18
                      A                      A                      A
 Frequencies --    234.7123               261.4303               268.8525
 Red. masses --      3.9096                 2.2267                 3.1954
 Frc consts  --      0.1269                 0.0897                 0.1361
 IR Inten    --      3.9172                 2.5880                 5.9907
  Atom  AN      X      Y      Z        X      Y      Z        X      Y      Z
     1   6     0.01  -0.02  -0.11     0.05  -0.03   0.01     0.10  -0.03  -0.01
     2   6     0.01  -0.00   0.04     0.05  -0.03  -0.01     0.11  -0.04   0.00
     3   6     0.04   0.01  -0.07     0.04  -0.04   0.02     0.05  -0.07  -0.01
     4   6     0.05  -0.01  -0.12     0.01  -0.02   0.02    -0.01  -0.03  -0.00
     5   6     0.05  -0.02   0.05     0.01  -0.01  -0.01    -0.00   0.01   0.02
     6   6     0.01  -0.03   0.04     0.02  -0.00  -0.01     0.04   0.03   0.00
     7   6    -0.00  -0.00   0.03     0.03  -0.02   0.00     0.06  -0.03   0.01
     8   1     0.04   0.03  -0.08     0.03  -0.06   0.03     0.05  -0.13  -0.02
     9   1     0.07  -0.01  -0.21    -0.00  -0.03   0.03    -0.04  -0.05  -0.01
    10   1     0.06  -0.03   0.15     0.01  -0.01  -0.03    -0.03   0.03   0.03
    11   7    -0.00   0.01   0.23     0.04  -0.02  -0.02     0.09  -0.02   0.02
    12   6     0.01   0.00  -0.01    -0.03  -0.00   0.00    -0.07   0.00   0.00
    13   6     0.00   0.00   0.06    -0.03  -0.01   0.00    -0.05  -0.01   0.01
    14   6     0.00   0.01   0.07    -0.04  -0.00  -0.01    -0.07  -0.01   0.00
    15   6     0.01   0.00  -0.00    -0.02   0.00  -0.00    -0.05  -0.00  -0.00
    16   6     0.00   0.00  -0.05    -0.02  -0.01   0.01    -0.05  -0.01   0.01
    17   6     0.00   0.01  -0.02    -0.03  -0.00   0.01    -0.06  -0.01   0.01
    18   1     0.00   0.01   0.13    -0.04  -0.00  -0.02    -0.07  -0.01  -0.00
    19   1     0.00   0.00  -0.08    -0.02  -0.01   0.01    -0.05  -0.01   0.01
    20   6     0.02   0.02  -0.01     0.05   0.09  -0.01     0.06   0.14  -0.01
    21   1     0.01   0.03  -0.06    -0.01   0.18  -0.03    -0.03   0.30  -0.05
    22   1     0.06   0.04   0.01     0.12   0.10  -0.00     0.19   0.15  -0.00
    23   1    -0.01  -0.01   0.01     0.10   0.07  -0.00     0.16   0.12  -0.00
    24   6    -0.00   0.02   0.04    -0.03  -0.02  -0.00    -0.04  -0.08   0.00
    25   1     0.04   0.09   0.04    -0.04  -0.03  -0.00    -0.07  -0.13   0.00
    26   1    -0.03  -0.02   0.04    -0.02  -0.01  -0.01    -0.06  -0.12  -0.00
    27   1    -0.02   0.03   0.11    -0.02  -0.02  -0.02     0.03  -0.09  -0.01
    28   8     0.01   0.01  -0.06    -0.03   0.01  -0.00    -0.06   0.02  -0.01
    29   7     0.00  -0.02  -0.21     0.04  -0.03   0.03     0.09  -0.05  -0.01
    30   6    -0.01  -0.04   0.24     0.02   0.04  -0.01     0.04   0.11   0.00
    31   1    -0.02  -0.03   0.59     0.02   0.04  -0.02     0.03   0.12   0.04
    32   7    -0.01  -0.05  -0.05     0.01   0.04   0.02     0.01   0.10  -0.04
    33   6    -0.01   0.00  -0.01    -0.01   0.04   0.04    -0.02   0.03  -0.03
    34   6    -0.03   0.02  -0.02    -0.04  -0.10  -0.02    -0.01   0.07  -0.01
    35   6    -0.05   0.06  -0.03    -0.00   0.13  -0.03    -0.04  -0.09   0.05
    36   1     0.04   0.01   0.01    -0.01   0.06   0.16    -0.06   0.01  -0.12
    37   6    -0.03   0.03  -0.02     0.00   0.09  -0.03    -0.06  -0.11   0.03
    38   1    -0.05   0.02   0.01    -0.18  -0.15  -0.19     0.13   0.11   0.07
    39   1    -0.02   0.03  -0.02     0.02  -0.29   0.07    -0.08   0.18  -0.04
    40   6    -0.07   0.01   0.00    -0.06  -0.13  -0.00    -0.01   0.06   0.01
    41   1     0.01   0.06  -0.08     0.17   0.14  -0.16    -0.14  -0.09   0.19
    42   1    -0.08   0.11  -0.03    -0.08   0.30  -0.02    -0.01  -0.25   0.02
    43   6    -0.02  -0.02   0.01    -0.04   0.00   0.05    -0.07   0.01  -0.04
    44   1    -0.02   0.08  -0.00    -0.04   0.24  -0.00     0.00  -0.27   0.01
    45   1    -0.02   0.03  -0.08     0.13   0.10  -0.15    -0.17  -0.11   0.17
    46   1    -0.06   0.01   0.00     0.03  -0.35   0.09    -0.04   0.18  -0.05
    47   1    -0.11   0.01   0.02    -0.25  -0.20  -0.20     0.11   0.09   0.10
    48   1    -0.04  -0.09   0.03    -0.04   0.01   0.03    -0.05   0.10  -0.04
    49   1     0.05  -0.02   0.03    -0.05   0.02   0.18    -0.17  -0.01  -0.14
    50   1     0.00  -0.00   0.17     0.03   0.01  -0.02     0.08   0.02   0.01
    51   1     0.01  -0.07  -0.39     0.01   0.04   0.03    -0.01   0.11  -0.05
                     19                     20                     21
                      A                      A                      A
 Frequencies --    293.1031               323.8379               339.8655
 Red. masses --      3.5115                 3.7823                 2.2757
 Frc consts  --      0.1777                 0.2337                 0.1549
 IR Inten    --     34.2667                 0.1103                 1.3220
  Atom  AN      X      Y      Z        X      Y      Z        X      Y      Z
     1   6     0.02  -0.03   0.01     0.00  -0.01   0.08     0.02   0.05  -0.00
     2   6     0.02  -0.05   0.01     0.01   0.00   0.05     0.02   0.02   0.00
     3   6    -0.04  -0.09   0.00     0.01   0.01   0.24    -0.02   0.00   0.01
     4   6    -0.06  -0.08   0.00     0.01  -0.00  -0.06    -0.05   0.02  -0.01
     5   6    -0.05  -0.05   0.00     0.01  -0.02  -0.23    -0.04   0.06  -0.01
     6   6     0.00  -0.03   0.01     0.00  -0.01   0.05     0.01   0.07   0.01
     7   6     0.04   0.00  -0.01    -0.00  -0.01  -0.11     0.04   0.01  -0.01
     8   1    -0.04  -0.14   0.00     0.00   0.02   0.43    -0.03  -0.03   0.02
     9   1    -0.07  -0.09  -0.00     0.02  -0.01  -0.15    -0.07   0.01  -0.03
    10   1    -0.09  -0.02  -0.00     0.02  -0.03  -0.47    -0.07   0.08  -0.03
    11   7     0.03  -0.04  -0.00     0.00  -0.01  -0.20     0.04   0.01  -0.01
    12   6    -0.04   0.11  -0.01     0.00   0.00  -0.00    -0.01  -0.01   0.01
    13   6    -0.01   0.04  -0.01    -0.00  -0.00  -0.03     0.01  -0.00   0.00
    14   6     0.03   0.09  -0.00     0.00   0.01   0.11    -0.03  -0.04   0.01
    15   6     0.02   0.10   0.00     0.01   0.01   0.07    -0.04  -0.04   0.01
    16   6     0.02   0.16  -0.02     0.01   0.00  -0.04    -0.04  -0.05  -0.00
    17   6    -0.01   0.12  -0.01     0.00   0.00  -0.02    -0.03  -0.03   0.01
    18   1     0.01   0.13   0.00     0.00   0.02   0.17    -0.02  -0.07   0.02
    19   1     0.01   0.16  -0.02     0.01   0.00  -0.11    -0.05  -0.04  -0.01
    20   6    -0.11  -0.04   0.01    -0.00  -0.00  -0.03     0.03   0.04  -0.00
    21   1    -0.02  -0.20   0.04     0.00  -0.02  -0.12    -0.03   0.13  -0.02
    22   1    -0.24  -0.05  -0.00     0.08  -0.03  -0.05     0.10   0.04  -0.00
    23   1    -0.21  -0.02  -0.00    -0.10   0.02  -0.05     0.08   0.03  -0.00
    24   6     0.11  -0.20   0.01     0.00   0.01   0.01    -0.03  -0.04   0.00
    25   1     0.01  -0.37   0.03     0.03   0.04   0.01    -0.04  -0.05   0.00
    26   1     0.00  -0.37   0.02    -0.02  -0.01   0.02    -0.03  -0.05  -0.00
    27   1     0.42  -0.20   0.02    -0.01   0.01   0.05    -0.02  -0.04   0.00
    28   8    -0.01   0.18   0.00    -0.00  -0.00   0.03     0.00  -0.01  -0.00
    29   7     0.04  -0.02  -0.00    -0.00  -0.01   0.02     0.04   0.04  -0.02
    30   6     0.00  -0.05   0.00    -0.00   0.01   0.19     0.01   0.02   0.02
    31   1     0.01  -0.05  -0.01    -0.02   0.02   0.40     0.05  -0.01  -0.00
    32   7    -0.00  -0.05   0.01     0.00   0.00  -0.02    -0.03  -0.02   0.03
    33   6     0.00  -0.03   0.00    -0.00   0.00  -0.03    -0.02  -0.12  -0.00
    34   6    -0.01  -0.01   0.00     0.01   0.02  -0.03    -0.02  -0.07   0.01
    35   6    -0.00   0.01  -0.02    -0.02  -0.01  -0.02    -0.01  -0.08  -0.04
    36   1     0.03  -0.03   0.01     0.01   0.00  -0.05    -0.07  -0.12  -0.01
    37   6     0.00   0.03  -0.01     0.00  -0.02   0.00     0.03   0.12  -0.05
    38   1    -0.04  -0.01   0.01     0.04   0.03  -0.01    -0.18  -0.10   0.00
    39   1     0.01  -0.01  -0.00     0.01   0.04  -0.04     0.07  -0.13  -0.00
    40   6    -0.01   0.01   0.00    -0.03   0.01   0.00     0.02   0.10   0.03
    41   1    -0.01   0.00  -0.05    -0.01  -0.01  -0.01    -0.11  -0.10  -0.07
    42   1    -0.01   0.04  -0.01    -0.04  -0.02  -0.03     0.02  -0.08  -0.02
    43   6     0.02  -0.02   0.01    -0.02   0.00   0.00     0.11  -0.06   0.03
    44   1    -0.01   0.08  -0.00     0.03  -0.05   0.01    -0.05   0.32  -0.02
    45   1     0.03   0.03  -0.07    -0.02  -0.02   0.03     0.14   0.11  -0.26
    46   1    -0.02   0.04  -0.00    -0.04   0.02  -0.00    -0.09   0.29  -0.05
    47   1    -0.01   0.02   0.04    -0.01   0.01   0.01     0.12   0.15   0.24
    48   1     0.01  -0.08   0.02    -0.01   0.03   0.02     0.04  -0.33   0.06
    49   1     0.08  -0.01   0.02    -0.04   0.00  -0.01     0.40  -0.04   0.05
    50   1     0.04  -0.11   0.02    -0.00   0.01  -0.08     0.04   0.02  -0.00
    51   1    -0.00  -0.05   0.02     0.01  -0.01  -0.23    -0.09   0.02   0.03
                     22                     23                     24
                      A                      A                      A
 Frequencies --    350.2178               376.6237               383.4650
 Red. masses --      3.8926                 3.6858                 3.8229
 Frc consts  --      0.2813                 0.3080                 0.3312
 IR Inten    --      0.1220                 8.1633                 6.8569
  Atom  AN      X      Y      Z        X      Y      Z        X      Y      Z
     1   6    -0.00  -0.00  -0.13    -0.05   0.04   0.04     0.04  -0.04   0.01
     2   6    -0.00  -0.00  -0.17    -0.05   0.02   0.06     0.04  -0.02   0.04
     3   6    -0.00   0.01   0.05    -0.02   0.05   0.02     0.02  -0.04   0.02
     4   6     0.00   0.01   0.07     0.00   0.03  -0.04    -0.00  -0.04  -0.03
     5   6     0.01  -0.00  -0.08     0.00   0.03   0.00    -0.00  -0.03   0.00
     6   6    -0.00  -0.01  -0.12    -0.03   0.01   0.07     0.02  -0.01   0.06
     7   6    -0.00   0.01   0.16     0.02   0.01  -0.07    -0.03  -0.01  -0.04
     8   1    -0.00   0.03   0.28    -0.02   0.08  -0.02     0.01  -0.07   0.02
     9   1     0.00   0.02   0.21     0.01   0.04  -0.11    -0.01  -0.04  -0.08
    10   1     0.01  -0.01  -0.07     0.02   0.02  -0.03    -0.01  -0.02  -0.02
    11   7    -0.00   0.00   0.00    -0.01  -0.00  -0.04    -0.00   0.00  -0.01
    12   6     0.00   0.01   0.07     0.03   0.02   0.13    -0.03  -0.00   0.13
    13   6     0.01   0.00   0.09     0.04  -0.02   0.07    -0.05   0.02   0.08
    14   6    -0.00  -0.02  -0.18    -0.02  -0.08  -0.00     0.01   0.08  -0.02
    15   6    -0.00  -0.02  -0.16    -0.06  -0.09  -0.10     0.06   0.07  -0.12
    16   6    -0.00  -0.00   0.02    -0.07  -0.05  -0.07     0.07   0.04  -0.08
    17   6    -0.00   0.01   0.10    -0.04   0.01   0.17     0.04   0.01   0.17
    18   1     0.00  -0.03  -0.26     0.01  -0.16  -0.00    -0.02   0.15  -0.04
    19   1    -0.01   0.00   0.06    -0.13  -0.05  -0.23     0.12   0.03  -0.22
    20   6     0.00  -0.00   0.06     0.06   0.04   0.03    -0.06  -0.05   0.04
    21   1    -0.00   0.01   0.25    -0.04   0.23   0.10     0.04  -0.22   0.18
    22   1    -0.19   0.07   0.11     0.08   0.09   0.06    -0.31   0.00   0.07
    23   1     0.20  -0.08   0.11     0.28  -0.01   0.06    -0.04  -0.09   0.08
    24   6     0.01  -0.01  -0.03    -0.02  -0.10  -0.01     0.03   0.09  -0.02
    25   1    -0.09  -0.09  -0.05    -0.19  -0.24  -0.06    -0.06   0.11  -0.09
    26   1     0.09   0.03  -0.06     0.07  -0.12  -0.07     0.20   0.21  -0.08
    27   1     0.02  -0.02  -0.11     0.10  -0.11  -0.09    -0.09   0.09  -0.10
    28   8     0.02   0.01  -0.06     0.12   0.12  -0.08    -0.11  -0.12  -0.08
    29   7    -0.00   0.01   0.18    -0.00   0.05  -0.10    -0.00  -0.05  -0.09
    30   6    -0.01  -0.01   0.15    -0.03  -0.07  -0.02     0.03   0.07  -0.00
    31   1    -0.03   0.01   0.48     0.00  -0.09  -0.19     0.01   0.08  -0.20
    32   7    -0.01  -0.01  -0.05    -0.03  -0.06   0.09     0.03   0.08   0.13
    33   6    -0.01  -0.01  -0.00    -0.00   0.01  -0.04     0.02   0.01  -0.08
    34   6     0.01   0.01   0.00     0.02   0.04  -0.02    -0.02  -0.02  -0.11
    35   6    -0.01  -0.01  -0.01     0.02   0.03  -0.06     0.00  -0.05  -0.04
    36   1    -0.01  -0.01  -0.00     0.05   0.01  -0.05    -0.01  -0.00  -0.12
    37   6     0.01   0.00  -0.01     0.02  -0.04   0.06    -0.01   0.02  -0.01
    38   1     0.01   0.01   0.04     0.10   0.06   0.01    -0.06  -0.04  -0.20
    39   1     0.00   0.03  -0.01     0.04   0.10  -0.07     0.04  -0.12  -0.07
    40   6    -0.01   0.01  -0.01     0.00  -0.04  -0.02    -0.01   0.02   0.06
    41   1    -0.01  -0.01   0.00     0.08   0.03  -0.13    -0.04  -0.05  -0.02
    42   1    -0.00  -0.01  -0.00    -0.01   0.11  -0.06    -0.06  -0.09  -0.09
    43   6     0.00  -0.00  -0.01     0.00   0.04   0.01    -0.02  -0.02   0.04
[...]
                           ----------------------------
                           ! Normal Mode   142        !
 --------------------------                            --------------------------
 ! Name  Definition              Value          Relative Weight (%)             !
 --------------------------------------------------------------------------------
 ! R20   R(13,14)               -0.0421                  2.7                    !
 ! R21   R(14,15)               -0.0478                  3.1                    !
 ! R22   R(14,18)                1.081                  69.3                    !
 ! R26   R(16,19)                0.0526                  3.4                    !
 ! A29   A(7,13,14)              0.0292                  1.9                    !
 ! A30   A(12,13,14)            -0.0276                  1.8                    !
 ! A31   A(13,14,15)             0.0561                  3.6                    !
 ! A32   A(13,14,18)            -0.0278                  1.8                    !
 ! A33   A(15,14,18)            -0.0284                  1.8                    !
 ! A34   A(14,15,16)            -0.0275                  1.8                    !
 ! A35   A(14,15,20)             0.029                   1.9                    !
 --------------------------------------------------------------------------------
                           ----------------------------
                           ! Normal Mode   143        !
 --------------------------                            --------------------------
 ! Name  Definition              Value          Relative Weight (%)             !
 --------------------------------------------------------------------------------
 ! R7    R(3,8)                  0.0464                  2.3                    !
 ! R8    R(4,5)                 -0.0294                  1.5                    !
 ! R9    R(4,9)                 -0.3465                 17.5                    !
 ! R10   R(5,6)                 -0.0419                  2.1                    !
 ! R11   R(5,10)                 1.0196                 51.5                    !
 ! R34   R(30,31)                0.0932                  4.7                    !
 ! A10   A(3,4,5)               -0.0453                  2.3                    !
 ! A12   A(5,4,9)                0.0386                  2.0                    !
 ! A13   A(4,5,6)                0.0624                  3.2                    !
 ! A14   A(4,5,10)              -0.0407                  2.1                    !
 ! A16   A(1,6,5)               -0.0256                  1.3                    !
 ! A18   A(5,6,30)               0.0293                  1.5                    !
 --------------------------------------------------------------------------------
                           ----------------------------
                           ! Normal Mode   144        !
 --------------------------                            --------------------------
 ! Name  Definition              Value          Relative Weight (%)             !
 --------------------------------------------------------------------------------
 ! R7    R(3,8)                 -0.0188                  1.0                    !
 ! R9    R(4,9)                  0.0468                  2.4                    !
 ! R11   R(5,10)                -0.0837                  4.3                    !
 ! R12   R(6,30)                -0.0457                  2.4                    !
 ! R34   R(30,31)                1.0698                 55.3                    !
 ! R35   R(30,32)               -0.0478                  2.5                    !
 ! R37   R(32,51)                0.1385                  7.2                    !
 ! R42   R(34,38)                0.0134                  0.7                    !
 ! R45   R(35,41)                0.0343                  1.8                    !
 ! A17   A(1,6,30)              -0.027                   1.4                    !
 ! A18   A(5,6,30)               0.027                   1.4                    !
 ! A56   A(6,30,31)             -0.0266                  1.4                    !
 ! A57   A(6,30,32)              0.0629                  3.3                    !
 ! A58   A(31,30,32)            -0.0363                  1.9                    !
 ! A59   A(30,32,33)             0.039                   2.0                    !
 ! A60   A(30,32,51)            -0.0314                  1.6                    !
 --------------------------------------------------------------------------------
                           ----------------------------
                           ! Normal Mode   145        !
 --------------------------                            --------------------------
 ! Name  Definition              Value          Relative Weight (%)             !
 --------------------------------------------------------------------------------
 ! R4    R(2,3)                  0.029                   1.3                    !
 ! R7    R(3,8)                 -0.6104                 27.7                    !
 ! R8    R(4,5)                 -0.0498                  2.3                    !
 ! R9    R(4,9)                  0.8368                 38.0                    !
 ! R11   R(5,10)                 0.314                  14.3                    !
 ! A7    A(2,3,4)               -0.0534                  2.4                    !
 ! A9    A(4,3,8)                0.0426                  1.9                    !
 ! A10   A(3,4,5)                0.0516                  2.3                    !
 ! A11   A(3,4,9)               -0.0412                  1.9                    !
 --------------------------------------------------------------------------------
                           ----------------------------
                           ! Normal Mode   146        !
 --------------------------                            --------------------------
 ! Name  Definition              Value          Relative Weight (%)             !
 --------------------------------------------------------------------------------
 ! R4    R(2,3)                  0.0413                  2.1                    !
 ! R6    R(3,4)                  0.0631                  3.1                    !
 ! R7    R(3,8)                 -0.8947                 44.4                    !
 ! R8    R(4,5)                  0.0316                  1.6                    !
 ! R9    R(4,9)                 -0.5925                 29.4                    !
 ! R11   R(5,10)                -0.1604                  8.0                    !
 ! A7    A(2,3,4)               -0.0313                  1.6                    !
 --------------------------------------------------------------------------------
                           ----------------------------
                           ! Normal Mode   147        !
 --------------------------                            --------------------------
 ! Name  Definition              Value          Relative Weight (%)             !
 --------------------------------------------------------------------------------
 ! R11   R(5,10)                 0.0083                  0.5                    !
 ! R16   R(11,50)                0.0163                  0.9                    !
 ! R22   R(14,18)                0.0063                  0.3                    !
 ! R34   R(30,31)                0.1403                  7.7                    !
 ! R35   R(30,32)                0.0279                  1.5                    !
 ! R36   R(32,33)                0.0357                  2.0                    !
 ! R37   R(32,51)               -1.0609                 58.2                    !
 ! R40   R(33,36)               -0.0062                  0.3                    !
 ! R43   R(34,39)               -0.0115                  0.6                    !
 ! R46   R(35,42)                0.0063                  0.3                    !
 ! A56   A(6,30,31)             -0.0086                  0.5                    !
 ! A57   A(6,30,32)             -0.0206                  1.1                    !
 ! A58   A(31,30,32)             0.0292                  1.6                    !
 ! A59   A(30,32,33)            -0.0483                  2.6                    !
 ! A60   A(30,32,51)            -0.0103                  0.6                    !
 ! A61   A(33,32,51)             0.0585                  3.2                    !
 ! A62   A(32,33,34)             0.0085                  0.5                    !
 ! A63   A(32,33,35)             0.0136                  0.7                    !
 ! A64   A(32,33,36)            -0.0256                  1.4                    !
 ! D85   D(30,32,33,34)         -0.0092                  0.5                    !
 ! D86   D(30,32,33,35)          0.0084                  0.5                    !
 ! D88   D(51,32,33,34)         -0.0096                  0.5                    !
 ! D89   D(51,32,33,35)          0.008                   0.4                    !
 ! D91   D(32,33,34,37)          0.0241                  1.3                    !
 ! D92   D(32,33,34,38)          0.0248                  1.4                    !
 ! D93   D(32,33,34,39)          0.0251                  1.4                    !
 ! D100  D(32,33,35,40)         -0.0217                  1.2                    !
 ! D101  D(32,33,35,41)         -0.0211                  1.2                    !
 ! D102  D(32,33,35,42)         -0.0221                  1.2                    !
 --------------------------------------------------------------------------------
 -------------------------------------------------------------------
 Center     Atomic                   Forces (Hartrees/Bohr)
 Number     Number              X              Y              Z
 -------------------------------------------------------------------
      1        6           0.000003440    0.000002696   -0.000001272
      2        6           0.000003541    0.000005625   -0.000001862
      3        6           0.000006196    0.000006572   -0.000002602
      4        6           0.000008673    0.000005016   -0.000002672
      5        6           0.000008011    0.000002377   -0.000001862
      6        6           0.000005691    0.000000670   -0.000001081
      7        6          -0.000000667    0.000004514   -0.000001095
      8        1           0.000006559    0.000008860   -0.000003258
      9        1           0.000010490    0.000005744   -0.000003145
     10        1           0.000009883    0.000000863   -0.000001815
     11        7           0.000000861    0.000006706   -0.000001897
     12        6          -0.000004778    0.000008250   -0.000001303
     13        6          -0.000003776    0.000005399   -0.000000675
     14        6          -0.000005108    0.000002729    0.000000245
     15        6          -0.000008134    0.000003605    0.000000498
     16        6          -0.000009343    0.000006032    0.000000042
     17        6          -0.000007477    0.000007999   -0.000000718
     18        1          -0.000004666    0.000000965    0.000000508
     19        1          -0.000011303    0.000006541    0.000000247
     20        6          -0.000009915    0.000001149    0.000001374
     21        1          -0.000009227   -0.000000823    0.000001663
     22        1          -0.000011916    0.000001438    0.000001546
     23        1          -0.000011183    0.000000868    0.000001644
     24        6          -0.000008437    0.000011156   -0.000001385
     25        1          -0.000008079    0.000012515   -0.000001747
     26        1          -0.000007412    0.000011905   -0.000001745
     27        1          -0.000010675    0.000011249   -0.000000964
     28        8          -0.000002713    0.000009787   -0.000001924
     29        7           0.000000619    0.000002453   -0.000000599
     30        6           0.000004995   -0.000001766   -0.000000558
     31        1           0.000007003   -0.000003070   -0.000000346
     32        7           0.000002683   -0.000002894    0.000000327
     33        6           0.000002099   -0.000006014    0.000001031
     34        6           0.000003874   -0.000007593    0.000001234
     35        6           0.000003388   -0.000006645    0.000001212
     36        1           0.000000057   -0.000005974    0.000001429
     37        6           0.000003181   -0.000010561    0.000002036
     38        1           0.000005965   -0.000007319    0.000000839
     39        1           0.000003013   -0.000006981    0.000001212
     40        6           0.000002579   -0.000009736    0.000001909
     41        1           0.000005365   -0.000006411    0.000000607
     42        1           0.000002215   -0.000005366    0.000000911
     43        6           0.000003993   -0.000011533    0.000002208
     44        1           0.000004234   -0.000011904    0.000002241
     45        1           0.000000921   -0.000010889    0.000002526
     46        1           0.000003332   -0.000010286    0.000002008
     47        1           0.000000403   -0.000009957    0.000002382
     48        1           0.000003506   -0.000013647    0.000002802
     49        1           0.000006282   -0.000011466    0.000001771
     50        1           0.000000336    0.000008627   -0.000002184
     51        1           0.000001417   -0.000001476    0.000000261
 -------------------------------------------------------------------
 Cartesian Forces:  Max     0.000013647 RMS     0.000005654
 FormGI is forming the generalized inverse of G from B-inverse, IUseBI=4.
 Leave Link  716 at Mon Dec 17 15:42:01 2018, MaxMem=  1342177280 cpu:               1.2 elap:               0.3
 (Enter /gpfs/apps/hpc/Apps/Restricted/Gaussian/Rev_A.03/g16/l9999.exe)

 ----------------------------------------------------------------------

 Electric dipole moment (input orientation):
 (Debye = 10**-18 statcoulomb cm , SI units = C m)
                  (au)            (Debye)         (10**-30 SI)
   Tot        0.680142D+01      0.172875D+02      0.576648D+02
   x          0.551712D+01      0.140231D+02      0.467761D+02
   y          0.397687D+01      0.101082D+02      0.337173D+02
   z         -0.717471D-01     -0.182363D+00     -0.608297D+00

 Dipole polarizability, Alpha (input orientation).
 (esu units = cm**3 , SI units = C**2 m**2 J**-1)
 Alpha(0;0):
               (au)            (10**-24 esu)      (10**-40 SI)
   iso        0.440434D+03      0.652656D+02      0.726178D+02
   aniso      0.424668D+03      0.629292D+02      0.700182D+02
   xx         0.510115D+03      0.755912D+02      0.841066D+02
   yx         0.668603D+02      0.990767D+01      0.110238D+02
   yy         0.632882D+03      0.937835D+02      0.104348D+03
   zx         0.111877D+01      0.165784D+00      0.184460D+00
   zy        -0.184624D+02     -0.273585D+01     -0.304404D+01
   zz         0.178305D+03      0.264220D+02      0.293985D+02

 ----------------------------------------------------------------------

 Dipole orientation:
     6         -3.15035273          3.49629157          2.21873113
     6         -4.18151796          5.05477090          0.27901197
     6         -5.58238595          7.19843572          0.82773521
     6         -5.98813007          7.79642681          3.39200362
     6         -5.01869598          6.30375240          5.32099270
     6         -3.56847199          4.11841611          4.78799491
     6         -2.05084437          1.80796076         -1.32777330
     1         -6.34799785          8.38018537         -0.65789870
     1         -7.08743699          9.45820835          3.86070213
     1         -5.36890119          6.79981878          7.27745147
     7         -3.43256387          3.90776438         -1.93122068
     6         -1.48927045          0.86960173         -5.88048747
     6         -1.02481587          0.22148495         -3.26660070
     6          0.41803095         -1.93439858         -2.61730090
     6          1.42464250         -3.50791878         -4.43666511
     6          0.95939365         -2.89262858         -7.00575090
     6         -0.42540212         -0.81218449         -7.74554952
     1          0.71992097         -2.33378623         -0.62744697
     1          1.73542760         -4.12348417         -8.45857919
     6          2.97883063         -5.79975140         -3.77176837
     1          3.15641868         -6.00647079         -1.72570474
     1          2.13511416         -7.53907033         -4.51225216
     1          4.88835896         -5.68343336         -4.56318498
     6         -0.87167644         -0.19593575        -10.48127427
     1         -2.89359219         -0.10340249        -10.91129129
     1         -0.09587432          1.66137755        -10.96297207
     1         -0.00550340         -1.60674135        -11.71329999
     8         -2.77054271          2.82051701         -6.57696634
     7         -1.84556295          1.51375743          1.21326733
     6         -2.58580379          2.59550005          6.76908664
     1         -2.96173703          3.11540234          8.71618443
     7         -1.24719098          0.56405087          6.36170405
     6         -0.22376120         -1.09267832          8.35001595
     6          1.88543566          0.22880770          9.84010793
     6         -2.31605677         -2.04774805         10.11436808
     1          0.58414729         -2.70121815          7.33962905
     6          2.97407583         -1.55815556         11.84439287
     1          1.09545216          1.91146854         10.75487124
     1          3.36077862          0.86461594          8.54177089
     6         -1.21670336         -3.83448405         12.11167671
     1         -3.19324914         -0.42649381         11.05979215
     1         -3.78434321         -2.98412443          9.00343255
     6          0.90988399         -2.56040978         13.61068807
     1          4.44432051         -0.58455449         12.92209133
     1          3.88981135         -3.15535856         10.89203993
     1         -2.72405899         -4.46365729         13.37804821
     1         -0.47479771         -5.52672941         11.17288321
     1          1.71801253         -3.89022873         14.97196211
     1          0.12044617         -0.98360777         14.70136253
     1         -3.67654575          4.24279355         -3.85157450
     1         -0.92286927          0.12994365          4.49297339

 Electric dipole moment (dipole orientation):
 (Debye = 10**-18 statcoulomb cm , SI units = C m)
                  (au)            (Debye)         (10**-30 SI)
   Tot        0.680142D+01      0.172875D+02      0.576648D+02
   x          0.000000D+00      0.000000D+00      0.000000D+00
   y          0.000000D+00      0.000000D+00      0.000000D+00
   z          0.680142D+01      0.172875D+02      0.576648D+02

 Dipole polarizability, Alpha (dipole orientation).
 (esu units = cm**3 , SI units = C**2 m**2 J**-1)
 Alpha(0;0):
               (au)            (10**-24 esu)      (10**-40 SI)
   iso        0.440434D+03      0.652656D+02      0.726178D+02
   aniso      0.424668D+03      0.629292D+02      0.700182D+02
   xx         0.283556D+03      0.420186D+02      0.467520D+02
   yx        -0.161029D+03     -0.238621D+02     -0.265501D+02
   yy         0.422063D+03      0.625433D+02      0.695888D+02
   zx        -0.422284D+02     -0.625760D+01     -0.696252D+01
   zy         0.676030D+02      0.100177D+02      0.111462D+02
   zz         0.615683D+03      0.912349D+02      0.101512D+03

 ----------------------------------------------------------------------

 This type of calculation cannot be archived.


 When cryptography is outlawed, bayl bhgynjf jvyy unir cevinpl.
 Job cpu time:       0 days  0 hours  0 minutes  5.2 seconds.
 Elapsed time:       0 days  0 hours  0 minutes  1.6 seconds.
 File lengths (MBytes):  RWF=     72 Int=      0 D2E=      0 Chk=     52 Scr=      8
 Normal termination of Gaussian 16 at Mon Dec 17 15:42:01 2018.
