 Entering Gaussian System, Link 0=g16
 Input=cyclohexyl-monoBIP-2PT.com
 Output=cyclohexyl-monoBIP-2PT.log
 Initial command:
 /gpfs/apps/hpc/Apps/Restricted/Gaussian/Rev_A.03/g16/l1.exe "/gpfs/scratch60/fas/hammes_schiffer/jg2487/c42n01/Gau-71763.inp" -scrdir="/gpfs/scratch60/fas/hammes_schiffer/jg2487/c42n01/"
 Entering Link 1 = /gpfs/apps/hpc/Apps/Restricted/Gaussian/Rev_A.03/g16/l1.exe PID=     71764.
  
 Copyright (c) 1988,1990,1992,1993,1995,1998,2003,2009,2016,
            Gaussian, Inc.  All Rights Reserved.
  
 This is part of the Gaussian(R) 16 program.  It is based on
 the Gaussian(R) 09 system (copyright 2009, Gaussian, Inc.),
 the Gaussian(R) 03 system (copyright 2003, Gaussian, Inc.),
 the Gaussian(R) 98 system (copyright 1998, Gaussian, Inc.),
 the Gaussian(R) 94 system (copyright 1995, Gaussian, Inc.),
 the Gaussian 92(TM) system (copyright 1992, Gaussian, Inc.),
 the Gaussian 90(TM) system (copyright 1990, Gaussian, Inc.),
 the Gaussian 88(TM) system (copyright 1988, Gaussian, Inc.),
 the Gaussian 86(TM) system (copyright 1986, Carnegie Mellon
 University), and the Gaussian 82(TM) system (copyright 1983,
 Carnegie Mellon University). Gaussian is a federally registered
 trademark of Gaussian, Inc.
  
 This software contains proprietary and confidential information,
 including trade secrets, belonging to Gaussian, Inc.
  
 This software is provided under written license and may be
 used, copied, transmitted, or stored only in accord with that
 written license.
  
 The following legend is applicable only to US Government
 contracts under FAR:
  
                    RESTRICTED RIGHTS LEGEND
  
 Use, reproduction and disclosure by the US Government is
 subject to restrictions as set forth in subparagraphs (a)
 and (c) of the Commercial Computer Software - Restricted
 Rights clause in FAR 52.227-19.
  
 Gaussian, Inc.
 340 Quinnipiac St., Bldg. 40, Wallingford CT 06492
  
  
 ---------------------------------------------------------------
 Warning -- This program may not be used in any manner that
 competes with the business of Gaussian, Inc. or will provide
 assistance to any competitor of Gaussian, Inc.  The licensee
 of this program is prohibited from giving any competitor of
 Gaussian, Inc. access to this program.  By using this program,
 the user acknowledges that Gaussian, Inc. is engaged in the
 business of creating and licensing software in the field of
 computational chemistry and represents and warrants to the
 licensee that it is not a competitor of Gaussian, Inc. and that
 it will not use this program in any manner prohibited above.
 ---------------------------------------------------------------
  

 Cite this work as:
 Gaussian 16, Revision A.03,
 M. J. Frisch, G. W. Trucks, H. B. Schlegel, G. E. Scuseria, 
 M. A. Robb, J. R. Cheeseman, G. Scalmani, V. Barone, 
 G. A. Petersson, H. Nakatsuji, X. Li, M. Caricato, A. V. Marenich, 
 J. Bloino, B. G. Janesko, R. Gomperts, B. Mennucci, H. P. Hratchian, 
 J. V. Ortiz, A. F. Izmaylov, J. L. Sonnenberg, D. Williams-Young, 
 F. Ding, F. Lipparini, F. Egidi, J. Goings, B. Peng, A. Petrone, 
 T. Henderson, D. Ranasinghe, V. G. Zakrzewski, J. Gao, N. Rega, 
 G. Zheng, W. Liang, M. Hada, M. Ehara, K. Toyota, R. Fukuda, 
 J. Hasegawa, M. Ishida, T. Nakajima, Y. Honda, O. Kitao, H. Nakai, 
 T. Vreven, K. Throssell, J. A. Montgomery, Jr., J. E. Peralta, 
 F. Ogliaro, M. J. Bearpark, J. J. Heyd, E. N. Brothers, K. N. Kudin, 
 V. N. Staroverov, T. A. Keith, R. Kobayashi, J. Normand, 
 K. Raghavachari, A. P. Rendell, J. C. Burant, S. S. Iyengar, 
 J. Tomasi, M. Cossi, J. M. Millam, M. Klene, C. Adamo, R. Cammi, 
 J. W. Ochterski, R. L. Martin, K. Morokuma, O. Farkas, 
 J. B. Foresman, and D. J. Fox, Gaussian, Inc., Wallingford CT, 2016.
 
 ******************************************
 Gaussian 16:  ES64L-G16RevA.03 25-Dec-2016
                21-Dec-2018 
 ******************************************
 %chk=cyclohexyl-monoBIP-2PT.chk
 %mem=10GB
 %nprocshared=4
 Will use up to    4 processors via shared memory.
 ----------------------------------------------------------------
 #p freq(ReadFC,InternalModes) Geom(AllCheck) NoSymm scale=0.9631
 ----------------------------------------------------------------
 1/18=20,29=7,38=1,114=963100/1,3;
 2/9=110,12=2,15=1,40=1/2;
 7/8=21,25=11,30=1/16;
 99/5=2/99;
 Leave Link    1 at Fri Dec 21 18:09:30 2018, MaxMem=  1342177280 cpu:               1.3 elap:               0.4
 (Enter /gpfs/apps/hpc/Apps/Restricted/Gaussian/Rev_A.03/g16/l101.exe)
 Structure from the checkpoint file:  "cyclohexyl-monoBIP-2PT.chk"
 ----------------------------------------------------------------------
 cyclohexylimine monoBIP neutral, with both protons transferred optimiz
 ation
 ----------------------------------------------------------------------
 Charge =  0 Multiplicity = 1
 Redundant internal coordinates found in file.  (old form).
 C,0,-0.5093970122,2.7270358687,0.3601853162
 C,0,-1.9152291258,2.930209075,0.2495773178
 C,0,-2.4653630184,4.1980144085,0.1425954996
 C,0,-1.5859897127,5.2990509123,0.1516756454
 C,0,-0.2109957966,5.1303378569,0.2573568687
 C,0,0.364809662,3.8409644681,0.3580900012
 C,0,-1.4161153748,0.7687731414,0.3948337818
 H,0,-3.5350511879,4.3428598565,0.0531025779
 H,0,-1.9956198067,6.298698622,0.0736442334
 H,0,0.4430540923,5.9948166175,0.259999858
 N,0,-2.4444579761,1.6602790704,0.275084173
 C,0,-3.0229376021,-1.1312272918,0.3377135736
 C,0,-1.6609952786,-0.6455629259,0.4482291391
 C,0,-0.5721477273,-1.5254824981,0.6012206967
 C,0,-0.7488831387,-2.8957498124,0.6613800097
 C,0,-2.0748956974,-3.3752528545,0.5443231987
 C,0,-3.1918735153,-2.5681495697,0.3816813747
 H,0,0.4206455452,-1.0941585139,0.6754940385
 H,0,-2.2270264266,-4.4444494858,0.5841178903
 C,0,0.4604177169,-3.8235893074,0.8379325192
 C,0,-4.5954480758,-3.1742748594,0.2389310614
 O,0,-4.0204015325,-0.3203014357,0.2039860577
 N,0,-0.2139666441,1.3982223254,0.4489243415
 C,0,1.7746007583,3.6759675721,0.4294381244
 H,0,2.4132828628,4.5526804875,0.4177603014
 N,0,2.3517737741,2.5075766763,0.4999425689
 C,0,3.8063721494,2.2744840266,0.5026201035
 C,0,4.3593348341,2.3247829844,-0.9306779076
 C,0,4.547169201,3.2497587185,1.4227962351
 H,0,3.9293552112,1.2609770529,0.8921007292
 C,0,5.8671490628,2.0512231471,-0.9382620944
 H,0,4.157022636,3.3203628961,-1.3423232865
 H,0,3.8299404343,1.6000750911,-1.555058424
 C,0,6.0521154006,2.9584873577,1.4116976953
 H,0,4.3866785792,4.2757245612,1.074511833
 H,0,4.1398962507,3.179606509,2.4347702995
 C,0,6.6181577112,3.0131754851,-0.0116516394
 H,0,6.2466854786,2.1253574335,-1.9611318183
 H,0,6.0452145851,1.0206791298,-0.6085390967
 H,0,6.5639939222,3.6770539914,2.058091314
 H,0,6.233139639,1.9639514635,1.836732706
 H,0,7.6854082592,2.7736254708,-0.0032097694
 H,0,6.524586627,4.0357841794,-0.3976467029
 H,0,-3.3922807416,1.2355988464,0.212032412
 H,0,1.717257911,1.6964375441,0.4886240601
 C,0,-5.5145609679,-2.649685348,1.3616034379
 H,0,-5.5939044363,-1.5651151848,1.3134506773
 H,0,-6.5141028484,-3.0860543333,1.2650130369
 H,0,-5.1159618916,-2.9273924516,2.3421976017
 C,0,-4.5818356093,-4.7085629532,0.3283220781
 H,0,-5.6027264101,-5.0841949619,0.2181421459
 H,0,-3.9724533428,-5.1574154663,-0.4609857448
 H,0,-4.1996816729,-5.0539473396,1.293020578
 C,0,-5.1847312027,-2.7883690567,-1.1344840054
 H,0,-5.1987903875,-1.7054933213,-1.2521092159
 H,0,-4.5851248543,-3.2183908702,-1.9422967315
 H,0,-6.2065708679,-3.1699051192,-1.2295226835
 C,0,1.1907519479,-3.4696476133,2.1486236768
 H,0,2.0619485546,-4.1168190878,2.2893704629
 H,0,1.5356117083,-2.4326703582,2.1389318713
 H,0,0.5259611083,-3.5955707846,3.0073460499
 C,0,1.430547275,-3.6296646882,-0.345081305
 H,0,1.7685545197,-2.5923551272,-0.4095792485
 H,0,2.3116525268,-4.268717015,-0.2303807099
 H,0,0.9425687923,-3.8865270925,-1.2894947594
 C,0,0.0589410609,-5.3048056597,0.8931837693
 H,0,-0.6011688309,-5.5139100392,1.7394063685
 H,0,-0.4524303629,-5.6152850995,-0.0217532073
 H,0,0.9536662786,-5.9229413213,1.0034220396
 Recover connectivity data from disk.
 ITRead=  0  0  0  0  0  0  0  0  0  0  0  0  0  0  0  0  0  0  0  0
 ITRead=  0  0  0  0  0  0  0  0  0  0  0  0  0  0  0  0  0  0  0  0
 ITRead=  0  0  0  0  0  0  0  0  0  0  0  0  0  0  0  0  0  0  0  0
 ITRead=  0  0  0  0  0  0  0  0  0
 MicOpt= -1 -1 -1 -1 -1 -1 -1 -1 -1 -1 -1 -1 -1 -1 -1 -1 -1 -1 -1 -1
 MicOpt= -1 -1 -1 -1 -1 -1 -1 -1 -1 -1 -1 -1 -1 -1 -1 -1 -1 -1 -1 -1
 MicOpt= -1 -1 -1 -1 -1 -1 -1 -1 -1 -1 -1 -1 -1 -1 -1 -1 -1 -1 -1 -1
 MicOpt= -1 -1 -1 -1 -1 -1 -1 -1 -1
 NAtoms=     69 NQM=       69 NQMF=       0 NMMI=      0 NMMIF=      0
                NMic=       0 NMicF=      0.
                    Isotopes and Nuclear Properties:
 (Nuclear quadrupole moments (NQMom) in fm**2, nuclear magnetic moments (NMagM)
  in nuclear magnetons)

  Atom         1           2           3           4           5           6           7           8           9          10
 IAtWgt=          12          12          12          12          12          12          12           1           1           1
 AtmWgt=  12.0000000  12.0000000  12.0000000  12.0000000  12.0000000  12.0000000  12.0000000   1.0078250   1.0078250   1.0078250
 NucSpn=           0           0           0           0           0           0           0           1           1           1
 AtZEff=   3.6000000   3.6000000   3.6000000   3.6000000   3.6000000   3.6000000   3.6000000   1.0000000   1.0000000   1.0000000
 NQMom=    0.0000000   0.0000000   0.0000000   0.0000000   0.0000000   0.0000000   0.0000000   0.0000000   0.0000000   0.0000000
 NMagM=    0.0000000   0.0000000   0.0000000   0.0000000   0.0000000   0.0000000   0.0000000   2.7928460   2.7928460   2.7928460
 AtZNuc=   6.0000000   6.0000000   6.0000000   6.0000000   6.0000000   6.0000000   6.0000000   1.0000000   1.0000000   1.0000000

  Atom        11          12          13          14          15          16          17          18          19          20
 IAtWgt=          14          12          12          12          12          12          12           1           1          12
 AtmWgt=  14.0030740  12.0000000  12.0000000  12.0000000  12.0000000  12.0000000  12.0000000   1.0078250   1.0078250  12.0000000
 NucSpn=           2           0           0           0           0           0           0           1           1           0
 AtZEff=   4.5500000   3.6000000   3.6000000   3.6000000   3.6000000   3.6000000   3.6000000   1.0000000   1.0000000   3.6000000
 NQMom=    2.0440000   0.0000000   0.0000000   0.0000000   0.0000000   0.0000000   0.0000000   0.0000000   0.0000000   0.0000000
 NMagM=    0.4037610   0.0000000   0.0000000   0.0000000   0.0000000   0.0000000   0.0000000   2.7928460   2.7928460   0.0000000
 AtZNuc=   7.0000000   6.0000000   6.0000000   6.0000000   6.0000000   6.0000000   6.0000000   1.0000000   1.0000000   6.0000000

  Atom        21          22          23          24          25          26          27          28          29          30
 IAtWgt=          12          16          14          12           1          14          12          12          12           1
 AtmWgt=  12.0000000  15.9949146  14.0030740  12.0000000   1.0078250  14.0030740  12.0000000  12.0000000  12.0000000   1.0078250
 NucSpn=           0           0           2           0           1           2           0           0           0           1
 AtZEff=   3.6000000   5.6000000   4.5500000   3.6000000   1.0000000   4.5500000   3.6000000   3.6000000   3.6000000   1.0000000
 NQMom=    0.0000000   0.0000000   2.0440000   0.0000000   0.0000000   2.0440000   0.0000000   0.0000000   0.0000000   0.0000000
 NMagM=    0.0000000   0.0000000   0.4037610   0.0000000   2.7928460   0.4037610   0.0000000   0.0000000   0.0000000   2.7928460
 AtZNuc=   6.0000000   8.0000000   7.0000000   6.0000000   1.0000000   7.0000000   6.0000000   6.0000000   6.0000000   1.0000000

  Atom        31          32          33          34          35          36          37          38          39          40
 IAtWgt=          12           1           1          12           1           1          12           1           1           1
 AtmWgt=  12.0000000   1.0078250   1.0078250  12.0000000   1.0078250   1.0078250  12.0000000   1.0078250   1.0078250   1.0078250
 NucSpn=           0           1           1           0           1           1           0           1           1           1
 AtZEff=   3.6000000   1.0000000   1.0000000   3.6000000   1.0000000   1.0000000   3.6000000   1.0000000   1.0000000   1.0000000
 NQMom=    0.0000000   0.0000000   0.0000000   0.0000000   0.0000000   0.0000000   0.0000000   0.0000000   0.0000000   0.0000000
 NMagM=    0.0000000   2.7928460   2.7928460   0.0000000   2.7928460   2.7928460   0.0000000   2.7928460   2.7928460   2.7928460
 AtZNuc=   6.0000000   1.0000000   1.0000000   6.0000000   1.0000000   1.0000000   6.0000000   1.0000000   1.0000000   1.0000000

  Atom        41          42          43          44          45          46          47          48          49          50
 IAtWgt=           1           1           1           1           1          12           1           1           1          12
 AtmWgt=   1.0078250   1.0078250   1.0078250   1.0078250   1.0078250  12.0000000   1.0078250   1.0078250   1.0078250  12.0000000
 NucSpn=           1           1           1           1           1           0           1           1           1           0
 AtZEff=   1.0000000   1.0000000   1.0000000   1.0000000   1.0000000   3.6000000   1.0000000   1.0000000   1.0000000   3.6000000
 NQMom=    0.0000000   0.0000000   0.0000000   0.0000000   0.0000000   0.0000000   0.0000000   0.0000000   0.0000000   0.0000000
 NMagM=    2.7928460   2.7928460   2.7928460   2.7928460   2.7928460   0.0000000   2.7928460   2.7928460   2.7928460   0.0000000
 AtZNuc=   1.0000000   1.0000000   1.0000000   1.0000000   1.0000000   6.0000000   1.0000000   1.0000000   1.0000000   6.0000000

  Atom        51          52          53          54          55          56          57          58          59          60
 IAtWgt=           1           1           1          12           1           1           1          12           1           1
 AtmWgt=   1.0078250   1.0078250   1.0078250  12.0000000   1.0078250   1.0078250   1.0078250  12.0000000   1.0078250   1.0078250
 NucSpn=           1           1           1           0           1           1           1           0           1           1
 AtZEff=   1.0000000   1.0000000   1.0000000   3.6000000   1.0000000   1.0000000   1.0000000   3.6000000   1.0000000   1.0000000
 NQMom=    0.0000000   0.0000000   0.0000000   0.0000000   0.0000000   0.0000000   0.0000000   0.0000000   0.0000000   0.0000000
 NMagM=    2.7928460   2.7928460   2.7928460   0.0000000   2.7928460   2.7928460   2.7928460   0.0000000   2.7928460   2.7928460
 AtZNuc=   1.0000000   1.0000000   1.0000000   6.0000000   1.0000000   1.0000000   1.0000000   6.0000000   1.0000000   1.0000000

  Atom        61          62          63          64          65          66          67          68          69
 IAtWgt=           1          12           1           1           1          12           1           1           1
 AtmWgt=   1.0078250  12.0000000   1.0078250   1.0078250   1.0078250  12.0000000   1.0078250   1.0078250   1.0078250
 NucSpn=           1           0           1           1           1           0           1           1           1
 AtZEff=   1.0000000   3.6000000   1.0000000   1.0000000   1.0000000   3.6000000   1.0000000   1.0000000   1.0000000
 NQMom=    0.0000000   0.0000000   0.0000000   0.0000000   0.0000000   0.0000000   0.0000000   0.0000000   0.0000000
 NMagM=    2.7928460   0.0000000   2.7928460   2.7928460   2.7928460   0.0000000   2.7928460   2.7928460   2.7928460
 AtZNuc=   1.0000000   6.0000000   1.0000000   1.0000000   1.0000000   6.0000000   1.0000000   1.0000000   1.0000000
 Leave Link  101 at Fri Dec 21 18:09:31 2018, MaxMem=  1342177280 cpu:               0.9 elap:               0.3
 (Enter /gpfs/apps/hpc/Apps/Restricted/Gaussian/Rev_A.03/g16/l103.exe)

 GradGradGradGradGradGradGradGradGradGradGradGradGradGradGradGradGradGrad
 Berny optimization.
 Initialization pass.
                           ----------------------------
                           !    Initial Parameters    !
                           ! (Angstroms and Degrees)  !
 --------------------------                            --------------------------
 ! Name  Definition              Value          Derivative Info.                !
 --------------------------------------------------------------------------------
 ! R1    R(1,2)                  1.4247         estimate D2E/DX2                !
 ! R2    R(1,6)                  1.416          estimate D2E/DX2                !
 ! R3    R(1,23)                 1.3641         estimate D2E/DX2                !
 ! R4    R(2,3)                  1.3862         estimate D2E/DX2                !
 ! R5    R(2,11)                 1.376          estimate D2E/DX2                !
 ! R6    R(3,4)                  1.4091         estimate D2E/DX2                !
 ! R7    R(3,8)                  1.0832         estimate D2E/DX2                !
 ! R8    R(4,5)                  1.3893         estimate D2E/DX2                !
 ! R9    R(4,9)                  1.0831         estimate D2E/DX2                !
 ! R10   R(5,6)                  1.4157         estimate D2E/DX2                !
 ! R11   R(5,10)                 1.084          estimate D2E/DX2                !
 ! R12   R(6,24)                 1.4212         estimate D2E/DX2                !
 ! R13   R(7,11)                 1.3662         estimate D2E/DX2                !
 ! R14   R(7,13)                 1.4364         estimate D2E/DX2                !
 ! R15   R(7,23)                 1.358          estimate D2E/DX2                !
 ! R16   R(11,44)                1.0405         estimate D2E/DX2                !
 ! R17   R(12,13)                1.4502         estimate D2E/DX2                !
 ! R18   R(12,17)                1.4475         estimate D2E/DX2                !
 ! R19   R(12,22)                1.2924         estimate D2E/DX2                !
 ! R20   R(13,14)                1.4083         estimate D2E/DX2                !
 ! R21   R(14,15)                1.3829         estimate D2E/DX2                !
 ! R22   R(14,18)                1.085          estimate D2E/DX2                !
 ! R23   R(15,16)                1.4149         estimate D2E/DX2                !
 ! R24   R(15,20)                1.5344         estimate D2E/DX2                !
 ! R25   R(16,17)                1.3876         estimate D2E/DX2                !
 ! R26   R(16,19)                1.0807         estimate D2E/DX2                !
 ! R27   R(17,21)                1.5355         estimate D2E/DX2                !
 ! R28   R(20,58)                1.5416         estimate D2E/DX2                !
 ! R29   R(20,62)                1.5422         estimate D2E/DX2                !
 ! R30   R(20,66)                1.5357         estimate D2E/DX2                !
 ! R31   R(21,46)                1.5428         estimate D2E/DX2                !
 ! R32   R(21,50)                1.537          estimate D2E/DX2                !
 ! R33   R(21,54)                1.5435         estimate D2E/DX2                !
 ! R34   R(24,25)                1.0847         estimate D2E/DX2                !
 ! R35   R(24,26)                1.3051         estimate D2E/DX2                !
 ! R36   R(26,27)                1.4732         estimate D2E/DX2                !
 ! R37   R(26,45)                1.0299         estimate D2E/DX2                !
 ! R38   R(27,28)                1.5371         estimate D2E/DX2                !
 ! R39   R(27,29)                1.5319         estimate D2E/DX2                !
 ! R40   R(27,30)                1.0927         estimate D2E/DX2                !
 ! R41   R(28,31)                1.5324         estimate D2E/DX2                !
 ! R42   R(28,32)                1.0962         estimate D2E/DX2                !
 ! R43   R(28,33)                1.0933         estimate D2E/DX2                !
 ! R44   R(29,34)                1.5329         estimate D2E/DX2                !
 ! R45   R(29,35)                1.0953         estimate D2E/DX2                !
 ! R46   R(29,36)                1.0931         estimate D2E/DX2                !
 ! R47   R(31,37)                1.5323         estimate D2E/DX2                !
 ! R48   R(31,38)                1.0935         estimate D2E/DX2                !
 ! R49   R(31,39)                1.0966         estimate D2E/DX2                !
 ! R50   R(34,37)                1.5327         estimate D2E/DX2                !
 ! R51   R(34,40)                1.0937         estimate D2E/DX2                !
 ! R52   R(34,41)                1.0966         estimate D2E/DX2                !
 ! R53   R(37,42)                1.0938         estimate D2E/DX2                !
 ! R54   R(37,43)                1.097          estimate D2E/DX2                !
 ! R55   R(46,47)                1.0885         estimate D2E/DX2                !
 ! R56   R(46,48)                1.0949         estimate D2E/DX2                !
 ! R57   R(46,49)                1.0943         estimate D2E/DX2                !
 ! R58   R(50,51)                1.0934         estimate D2E/DX2                !
 ! R59   R(50,52)                1.0935         estimate D2E/DX2                !
 ! R60   R(50,53)                1.0936         estimate D2E/DX2                !
 ! R61   R(54,55)                1.0893         estimate D2E/DX2                !
 ! R62   R(54,56)                1.0941         estimate D2E/DX2                !
 ! R63   R(54,57)                1.0949         estimate D2E/DX2                !
 ! R64   R(58,59)                1.0944         estimate D2E/DX2                !
 ! R65   R(58,60)                1.0929         estimate D2E/DX2                !
 ! R66   R(58,61)                1.0933         estimate D2E/DX2                !
 ! R67   R(62,63)                1.0929         estimate D2E/DX2                !
 ! R68   R(62,64)                1.0945         estimate D2E/DX2                !
 ! R69   R(62,65)                1.0936         estimate D2E/DX2                !
 ! R70   R(66,67)                1.0934         estimate D2E/DX2                !
 ! R71   R(66,68)                1.0932         estimate D2E/DX2                !
 ! R72   R(66,69)                1.0931         estimate D2E/DX2                !
 ! A1    A(2,1,6)              119.7941         estimate D2E/DX2                !
 ! A2    A(2,1,23)             110.9562         estimate D2E/DX2                !
 ! A3    A(6,1,23)             129.2485         estimate D2E/DX2                !
 ! A4    A(1,2,3)              121.8726         estimate D2E/DX2                !
 ! A5    A(1,2,11)             104.2678         estimate D2E/DX2                !
 ! A6    A(3,2,11)             133.8591         estimate D2E/DX2                !
 ! A7    A(2,3,4)              117.8057         estimate D2E/DX2                !
 ! A8    A(2,3,8)              121.3745         estimate D2E/DX2                !
 ! A9    A(4,3,8)              120.8197         estimate D2E/DX2                !
 ! A10   A(3,4,5)              121.5484         estimate D2E/DX2                !
 ! A11   A(3,4,9)              118.9899         estimate D2E/DX2                !
 ! A12   A(5,4,9)              119.4617         estimate D2E/DX2                !
 ! A13   A(4,5,6)              121.2347         estimate D2E/DX2                !
 ! A14   A(4,5,10)             120.0312         estimate D2E/DX2                !
 ! A15   A(6,5,10)             118.7337         estimate D2E/DX2                !
 ! A16   A(1,6,5)              117.741          estimate D2E/DX2                !
 ! A17   A(1,6,24)             121.4002         estimate D2E/DX2                !
 ! A18   A(5,6,24)             120.8488         estimate D2E/DX2                !
 ! A19   A(11,7,13)            121.1615         estimate D2E/DX2                !
 ! A20   A(11,7,23)            111.5507         estimate D2E/DX2                !
 ! A21   A(13,7,23)            127.2878         estimate D2E/DX2                !
 ! A22   A(2,11,7)             108.3217         estimate D2E/DX2                !
 ! A23   A(2,11,44)            136.5426         estimate D2E/DX2                !
 ! A24   A(7,11,44)            115.1261         estimate D2E/DX2                !
 ! A25   A(13,12,17)           116.0882         estimate D2E/DX2                !
 ! A26   A(13,12,22)           121.5048         estimate D2E/DX2                !
 ! A27   A(17,12,22)           122.4067         estimate D2E/DX2                !
 ! A28   A(7,13,12)            119.1466         estimate D2E/DX2                !
 ! A29   A(7,13,14)            119.1735         estimate D2E/DX2                !
 ! A30   A(12,13,14)           121.6793         estimate D2E/DX2                !
 ! A31   A(13,14,15)           121.6692         estimate D2E/DX2                !
 ! A32   A(13,14,18)           117.8089         estimate D2E/DX2                !
 ! A33   A(15,14,18)           120.5214         estimate D2E/DX2                !
 ! A34   A(14,15,16)           116.8698         estimate D2E/DX2                !
 ! A35   A(14,15,20)           120.2273         estimate D2E/DX2                !
 ! A36   A(16,15,20)           122.9016         estimate D2E/DX2                !
 ! A37   A(15,16,17)           124.5391         estimate D2E/DX2                !
 ! A38   A(15,16,19)           117.6565         estimate D2E/DX2                !
 ! A39   A(17,16,19)           117.8044         estimate D2E/DX2                !
 ! A40   A(12,17,16)           119.1444         estimate D2E/DX2                !
 ! A41   A(12,17,21)           119.717          estimate D2E/DX2                !
 ! A42   A(16,17,21)           121.1373         estimate D2E/DX2                !
 ! A43   A(15,20,58)           109.4122         estimate D2E/DX2                !
 ! A44   A(15,20,62)           109.3583         estimate D2E/DX2                !
 ! A45   A(15,20,66)           112.4169         estimate D2E/DX2                !
 ! A46   A(58,20,62)           108.9846         estimate D2E/DX2                !
 ! A47   A(58,20,66)           108.3438         estimate D2E/DX2                !
 ! A48   A(62,20,66)           108.2613         estimate D2E/DX2                !
 ! A49   A(17,21,46)           110.04           estimate D2E/DX2                !
 ! A50   A(17,21,50)           112.3679         estimate D2E/DX2                !
 ! A51   A(17,21,54)           109.4513         estimate D2E/DX2                !
 ! A52   A(46,21,50)           107.6007         estimate D2E/DX2                !
 ! A53   A(46,21,54)           109.5742         estimate D2E/DX2                !
 ! A54   A(50,21,54)           107.7411         estimate D2E/DX2                !
 ! A55   A(1,23,7)             104.9035         estimate D2E/DX2                !
 ! A56   A(6,24,25)            119.3198         estimate D2E/DX2                !
 ! A57   A(6,24,26)            123.0484         estimate D2E/DX2                !
 ! A58   A(25,24,26)           117.63           estimate D2E/DX2                !
 ! A59   A(24,26,27)           125.3403         estimate D2E/DX2                !
 ! A60   A(24,26,45)           115.5971         estimate D2E/DX2                !
 ! A61   A(27,26,45)           118.9298         estimate D2E/DX2                !
 ! A62   A(26,27,28)           110.3859         estimate D2E/DX2                !
 ! A63   A(26,27,29)           112.2006         estimate D2E/DX2                !
 ! A64   A(26,27,30)           104.9832         estimate D2E/DX2                !
 ! A65   A(28,27,29)           111.4273         estimate D2E/DX2                !
 ! A66   A(28,27,30)           108.7978         estimate D2E/DX2                !
 ! A67   A(29,27,30)           108.7823         estimate D2E/DX2                !
 ! A68   A(27,28,31)           110.6548         estimate D2E/DX2                !
 ! A69   A(27,28,32)           108.2704         estimate D2E/DX2                !
 ! A70   A(27,28,33)           109.6727         estimate D2E/DX2                !
 ! A71   A(31,28,32)           109.991          estimate D2E/DX2                !
 ! A72   A(31,28,33)           110.8104         estimate D2E/DX2                !
 ! A73   A(32,28,33)           107.3498         estimate D2E/DX2                !
 ! A74   A(27,29,34)           110.4532         estimate D2E/DX2                !
 ! A75   A(27,29,35)           109.5414         estimate D2E/DX2                !
 ! A76   A(27,29,36)           109.5765         estimate D2E/DX2                !
 ! A77   A(34,29,35)           108.6349         estimate D2E/DX2                !
 ! A78   A(34,29,36)           111.1182         estimate D2E/DX2                !
 ! A79   A(35,29,36)           107.4518         estimate D2E/DX2                !
 ! A80   A(28,31,37)           111.5417         estimate D2E/DX2                !
 ! A81   A(28,31,38)           109.5131         estimate D2E/DX2                !
 ! A82   A(28,31,39)           109.0293         estimate D2E/DX2                !
 ! A83   A(37,31,38)           110.6694         estimate D2E/DX2                !
 ! A84   A(37,31,39)           109.1818         estimate D2E/DX2                !
 ! A85   A(38,31,39)           106.7748         estimate D2E/DX2                !
 ! A86   A(29,34,37)           111.2541         estimate D2E/DX2                !
 ! A87   A(29,34,40)           109.2911         estimate D2E/DX2                !
 ! A88   A(29,34,41)           109.3651         estimate D2E/DX2                !
 ! A89   A(37,34,40)           110.6433         estimate D2E/DX2                !
 ! A90   A(37,34,41)           109.3493         estimate D2E/DX2                !
 ! A91   A(40,34,41)           106.8293         estimate D2E/DX2                !
 ! A92   A(31,37,34)           110.987          estimate D2E/DX2                !
 ! A93   A(31,37,42)           110.2054         estimate D2E/DX2                !
 ! A94   A(31,37,43)           109.3061         estimate D2E/DX2                !
 ! A95   A(34,37,42)           110.2027         estimate D2E/DX2                !
 ! A96   A(34,37,43)           109.1778         estimate D2E/DX2                !
 ! A97   A(42,37,43)           106.8628         estimate D2E/DX2                !
 ! A98   A(21,46,47)           110.488          estimate D2E/DX2                !
 ! A99   A(21,46,48)           110.129          estimate D2E/DX2                !
 ! A100  A(21,46,49)           110.4117         estimate D2E/DX2                !
 ! A101  A(47,46,48)           109.0654         estimate D2E/DX2                !
 ! A102  A(47,46,49)           108.6044         estimate D2E/DX2                !
 ! A103  A(48,46,49)           108.0848         estimate D2E/DX2                !
 ! A104  A(21,50,51)           109.1977         estimate D2E/DX2                !
 ! A105  A(21,50,52)           111.8825         estimate D2E/DX2                !
 ! A106  A(21,50,53)           111.6956         estimate D2E/DX2                !
 ! A107  A(51,50,52)           107.8525         estimate D2E/DX2                !
 ! A108  A(51,50,53)           107.8587         estimate D2E/DX2                !
 ! A109  A(52,50,53)           108.2009         estimate D2E/DX2                !
 ! A110  A(21,54,55)           110.4592         estimate D2E/DX2                !
 ! A111  A(21,54,56)           110.4555         estimate D2E/DX2                !
 ! A112  A(21,54,57)           110.2687         estimate D2E/DX2                !
 ! A113  A(55,54,56)           108.5457         estimate D2E/DX2                !
 ! A114  A(55,54,57)           108.9649         estimate D2E/DX2                !
 ! A115  A(56,54,57)           108.0852         estimate D2E/DX2                !
 ! A116  A(20,58,59)           110.5309         estimate D2E/DX2                !
 ! A117  A(20,58,60)           111.0883         estimate D2E/DX2                !
 ! A118  A(20,58,61)           110.6888         estimate D2E/DX2                !
 ! A119  A(59,58,60)           108.1233         estimate D2E/DX2                !
 ! A120  A(59,58,61)           108.3576         estimate D2E/DX2                !
 ! A121  A(60,58,61)           107.9473         estimate D2E/DX2                !
 ! A122  A(20,62,63)           111.0499         estimate D2E/DX2                !
 ! A123  A(20,62,64)           110.6472         estimate D2E/DX2                !
 ! A124  A(20,62,65)           110.6232         estimate D2E/DX2                !
 ! A125  A(63,62,64)           108.1432         estimate D2E/DX2                !
 ! A126  A(63,62,65)           108.057          estimate D2E/DX2                !
 ! A127  A(64,62,65)           108.2144         estimate D2E/DX2                !
 ! A128  A(20,66,67)           111.7241         estimate D2E/DX2                !
 ! A129  A(20,66,68)           111.4774         estimate D2E/DX2                !
 ! A130  A(20,66,69)           109.5781         estimate D2E/DX2                !
 ! A131  A(67,66,68)           108.1207         estimate D2E/DX2                !
 ! A132  A(67,66,69)           107.9369         estimate D2E/DX2                !
 ! A133  A(68,66,69)           107.8608         estimate D2E/DX2                !
 ! D1    D(6,1,2,3)             -0.204          estimate D2E/DX2                !
 ! D2    D(6,1,2,11)           179.5808         estimate D2E/DX2                !
 ! D3    D(23,1,2,3)          -179.8456         estimate D2E/DX2                !
 ! D4    D(23,1,2,11)           -0.0608         estimate D2E/DX2                !
 ! D5    D(2,1,6,5)              0.6147         estimate D2E/DX2                !
 ! D6    D(2,1,6,24)          -178.2425         estimate D2E/DX2                !
 ! D7    D(23,1,6,5)          -179.8175         estimate D2E/DX2                !
 ! D8    D(23,1,6,24)            1.3253         estimate D2E/DX2                !
 ! D9    D(2,1,23,7)             0.0178         estimate D2E/DX2                !
 ! D10   D(6,1,23,7)          -179.5806         estimate D2E/DX2                !
 ! D11   D(1,2,3,4)             -0.2622         estimate D2E/DX2                !
 ! D12   D(1,2,3,8)            179.6387         estimate D2E/DX2                !
 ! D13   D(11,2,3,4)          -179.9729         estimate D2E/DX2                !
 ! D14   D(11,2,3,8)            -0.0721         estimate D2E/DX2                !
 ! D15   D(1,2,11,7)             0.079          estimate D2E/DX2                !
 ! D16   D(1,2,11,44)         -178.6848         estimate D2E/DX2                !
 ! D17   D(3,2,11,7)           179.8255         estimate D2E/DX2                !
 ! D18   D(3,2,11,44)            1.0617         estimate D2E/DX2                !
 ! D19   D(2,3,4,5)              0.3077         estimate D2E/DX2                !
 ! D20   D(2,3,4,9)           -179.7285         estimate D2E/DX2                !
 ! D21   D(8,3,4,5)           -179.5938         estimate D2E/DX2                !
 ! D22   D(8,3,4,9)              0.37           estimate D2E/DX2                !
 ! D23   D(3,4,5,6)              0.1181         estimate D2E/DX2                !
 ! D24   D(3,4,5,10)           179.8841         estimate D2E/DX2                !
 ! D25   D(9,4,5,6)           -179.8455         estimate D2E/DX2                !
 ! D26   D(9,4,5,10)            -0.0795         estimate D2E/DX2                !
 ! D27   D(4,5,6,1)             -0.5783         estimate D2E/DX2                !
 ! D28   D(4,5,6,24)           178.2855         estimate D2E/DX2                !
 ! D29   D(10,5,6,1)           179.6527         estimate D2E/DX2                !
 ! D30   D(10,5,6,24)           -1.4835         estimate D2E/DX2                !
 ! D31   D(1,6,24,25)          179.5313         estimate D2E/DX2                !
 ! D32   D(1,6,24,26)            0.0338         estimate D2E/DX2                !
 ! D33   D(5,6,24,25)            0.7095         estimate D2E/DX2                !
 ! D34   D(5,6,24,26)         -178.788          estimate D2E/DX2                !
 ! D35   D(13,7,11,2)         -179.9964         estimate D2E/DX2                !
 ! D36   D(13,7,11,44)          -0.9356         estimate D2E/DX2                !
 ! D37   D(23,7,11,2)           -0.0742         estimate D2E/DX2                !
 ! D38   D(23,7,11,44)         178.9867         estimate D2E/DX2                !
 ! D39   D(11,7,13,12)           1.6149         estimate D2E/DX2                !
 ! D40   D(11,7,13,14)        -178.6343         estimate D2E/DX2                !
 ! D41   D(23,7,13,12)        -178.2942         estimate D2E/DX2                !
 ! D42   D(23,7,13,14)           1.4566         estimate D2E/DX2                !
 ! D43   D(11,7,23,1)            0.034          estimate D2E/DX2                !
 ! D44   D(13,7,23,1)          179.9504         estimate D2E/DX2                !
 ! D45   D(17,12,13,7)         179.1973         estimate D2E/DX2                !
 ! D46   D(17,12,13,14)         -0.547          estimate D2E/DX2                !
 ! D47   D(22,12,13,7)          -0.6004         estimate D2E/DX2                !
 ! D48   D(22,12,13,14)        179.6553         estimate D2E/DX2                !
 ! D49   D(13,12,17,16)          1.0111         estimate D2E/DX2                !
 ! D50   D(13,12,17,21)       -178.5777         estimate D2E/DX2                !
 ! D51   D(22,12,17,16)       -179.1932         estimate D2E/DX2                !
 ! D52   D(22,12,17,21)          1.218          estimate D2E/DX2                !
 ! D53   D(7,13,14,15)         179.8748         estimate D2E/DX2                !
 ! D54   D(7,13,14,18)           0.1164         estimate D2E/DX2                !
 ! D55   D(12,13,14,15)         -0.3809         estimate D2E/DX2                !
 ! D56   D(12,13,14,18)        179.8607         estimate D2E/DX2                !
 ! D57   D(13,14,15,16)          0.8062         estimate D2E/DX2                !
 ! D58   D(13,14,15,20)       -179.5957         estimate D2E/DX2                !
 ! D59   D(18,14,15,16)       -179.4419         estimate D2E/DX2                !
 ! D60   D(18,14,15,20)          0.1562         estimate D2E/DX2                !
 ! D61   D(14,15,16,17)         -0.3081         estimate D2E/DX2                !
 ! D62   D(14,15,16,19)        179.6678         estimate D2E/DX2                !
 ! D63   D(20,15,16,17)       -179.8945         estimate D2E/DX2                !
 ! D64   D(20,15,16,19)          0.0814         estimate D2E/DX2                !
 ! D65   D(14,15,20,58)         59.1101         estimate D2E/DX2                !
 ! D66   D(14,15,20,62)        -60.1911         estimate D2E/DX2                !
 ! D67   D(14,15,20,66)        179.5299         estimate D2E/DX2                !
 ! D68   D(16,15,20,58)       -121.3169         estimate D2E/DX2                !
 ! D69   D(16,15,20,62)        119.3819         estimate D2E/DX2                !
 ! D70   D(16,15,20,66)         -0.8971         estimate D2E/DX2                !
 ! D71   D(15,16,17,12)         -0.6243         estimate D2E/DX2                !
 ! D72   D(15,16,17,21)        178.9585         estimate D2E/DX2                !
 ! D73   D(19,16,17,12)        179.3999         estimate D2E/DX2                !
 ! D74   D(19,16,17,21)         -1.0174         estimate D2E/DX2                !
 ! D75   D(12,17,21,46)        -59.3636         estimate D2E/DX2                !
 ! D76   D(12,17,21,50)       -179.242          estimate D2E/DX2                !
 ! D77   D(12,17,21,54)         61.1023         estimate D2E/DX2                !
 ! D78   D(16,17,21,46)        121.056          estimate D2E/DX2                !
 ! D79   D(16,17,21,50)          1.1775         estimate D2E/DX2                !
 ! D80   D(16,17,21,54)       -118.4781         estimate D2E/DX2                !
 ! D81   D(15,20,58,59)       -179.6            estimate D2E/DX2                !
 ! D82   D(15,20,58,60)        -59.5721         estimate D2E/DX2                !
 ! D83   D(15,20,58,61)         60.3393         estimate D2E/DX2                !
 ! D84   D(62,20,58,59)        -60.0684         estimate D2E/DX2                !
 ! D85   D(62,20,58,60)         59.9595         estimate D2E/DX2                !
 ! D86   D(62,20,58,61)        179.8709         estimate D2E/DX2                !
 ! D87   D(66,20,58,59)         57.5244         estimate D2E/DX2                !
 ! D88   D(66,20,58,60)        177.5523         estimate D2E/DX2                !
 ! D89   D(66,20,58,61)        -62.5363         estimate D2E/DX2                !
 ! D90   D(15,20,62,63)         58.8071         estimate D2E/DX2                !
 ! D91   D(15,20,62,64)        178.9119         estimate D2E/DX2                !
 ! D92   D(15,20,62,65)        -61.1734         estimate D2E/DX2                !
 ! D93   D(58,20,62,63)        -60.7579         estimate D2E/DX2                !
 ! D94   D(58,20,62,64)         59.3468         estimate D2E/DX2                !
 ! D95   D(58,20,62,65)        179.2615         estimate D2E/DX2                !
 ! D96   D(66,20,62,63)       -178.4028         estimate D2E/DX2                !
 ! D97   D(66,20,62,64)        -58.2981         estimate D2E/DX2                !
 ! D98   D(66,20,62,65)         61.6167         estimate D2E/DX2                !
 ! D99   D(15,20,66,67)        -61.3114         estimate D2E/DX2                !
 ! D100  D(15,20,66,68)         59.7895         estimate D2E/DX2                !
 ! D101  D(15,20,66,69)        179.1136         estimate D2E/DX2                !
 ! D102  D(58,20,66,67)         59.7231         estimate D2E/DX2                !
 ! D103  D(58,20,66,68)       -179.176          estimate D2E/DX2                !
 ! D104  D(58,20,66,69)        -59.8519         estimate D2E/DX2                !
 ! D105  D(62,20,66,67)        177.7777         estimate D2E/DX2                !
 ! D106  D(62,20,66,68)        -61.1215         estimate D2E/DX2                !
 ! D107  D(62,20,66,69)         58.2027         estimate D2E/DX2                !
 ! D108  D(17,21,46,47)         59.8128         estimate D2E/DX2                !
 ! D109  D(17,21,46,48)       -179.634          estimate D2E/DX2                !
 ! D110  D(17,21,46,49)        -60.3485         estimate D2E/DX2                !
 ! D111  D(50,21,46,47)       -177.4568         estimate D2E/DX2                !
 ! D112  D(50,21,46,48)        -56.9036         estimate D2E/DX2                !
 ! D113  D(50,21,46,49)         62.3819         estimate D2E/DX2                !
 ! D114  D(54,21,46,47)        -60.5789         estimate D2E/DX2                !
 ! D115  D(54,21,46,48)         59.9743         estimate D2E/DX2                !
 ! D116  D(54,21,46,49)        179.2598         estimate D2E/DX2                !
 ! D117  D(17,21,50,51)       -179.8558         estimate D2E/DX2                !
 ! D118  D(17,21,50,52)        -60.5368         estimate D2E/DX2                !
 ! D119  D(17,21,50,53)         60.9338         estimate D2E/DX2                !
 ! D120  D(46,21,50,51)         58.8588         estimate D2E/DX2                !
 ! D121  D(46,21,50,52)        178.1778         estimate D2E/DX2                !
 ! D122  D(46,21,50,53)        -60.3515         estimate D2E/DX2                !
 ! D123  D(54,21,50,51)        -59.2095         estimate D2E/DX2                !
 ! D124  D(54,21,50,52)         60.1095         estimate D2E/DX2                !
 ! D125  D(54,21,50,53)       -178.4199         estimate D2E/DX2                !
 ! D126  D(17,21,54,55)        -56.5502         estimate D2E/DX2                !
 ! D127  D(17,21,54,56)         63.5476         estimate D2E/DX2                !
 ! D128  D(17,21,54,57)       -177.0502         estimate D2E/DX2                !
 ! D129  D(46,21,54,55)         64.1993         estimate D2E/DX2                !
 ! D130  D(46,21,54,56)       -175.7029         estimate D2E/DX2                !
 ! D131  D(46,21,54,57)        -56.3007         estimate D2E/DX2                !
 ! D132  D(50,21,54,55)       -179.0113         estimate D2E/DX2                !
 ! D133  D(50,21,54,56)        -58.9135         estimate D2E/DX2                !
 ! D134  D(50,21,54,57)         60.4887         estimate D2E/DX2                !
 ! D135  D(6,24,26,27)         176.5093         estimate D2E/DX2                !
 ! D136  D(6,24,26,45)           0.7648         estimate D2E/DX2                !
 ! D137  D(25,24,26,27)         -2.9961         estimate D2E/DX2                !
 ! D138  D(25,24,26,45)       -178.7407         estimate D2E/DX2                !
 ! D139  D(24,26,27,28)        -80.8142         estimate D2E/DX2                !
 ! D140  D(24,26,27,29)         44.1172         estimate D2E/DX2                !
 ! D141  D(24,26,27,30)        162.1005         estimate D2E/DX2                !
 ! D142  D(45,26,27,28)         94.8006         estimate D2E/DX2                !
 ! D143  D(45,26,27,29)       -140.268          estimate D2E/DX2                !
 ! D144  D(45,26,27,30)        -22.2847         estimate D2E/DX2                !
 ! D145  D(26,27,28,31)       -178.706          estimate D2E/DX2                !
 ! D146  D(26,27,28,32)         60.683          estimate D2E/DX2                !
 ! D147  D(26,27,28,33)        -56.1592         estimate D2E/DX2                !
 ! D148  D(29,27,28,31)         55.9231         estimate D2E/DX2                !
 ! D149  D(29,27,28,32)        -64.6879         estimate D2E/DX2                !
 ! D150  D(29,27,28,33)        178.4699         estimate D2E/DX2                !
 ! D151  D(30,27,28,31)        -64.0075         estimate D2E/DX2                !
 ! D152  D(30,27,28,32)        175.3815         estimate D2E/DX2                !
 ! D153  D(30,27,28,33)         58.5394         estimate D2E/DX2                !
 ! D154  D(26,27,29,34)        179.1426         estimate D2E/DX2                !
 ! D155  D(26,27,29,35)        -61.2367         estimate D2E/DX2                !
 ! D156  D(26,27,29,36)         56.4074         estimate D2E/DX2                !
 ! D157  D(28,27,29,34)        -56.5018         estimate D2E/DX2                !
 ! D158  D(28,27,29,35)         63.1189         estimate D2E/DX2                !
 ! D159  D(28,27,29,36)       -179.237          estimate D2E/DX2                !
 ! D160  D(30,27,29,34)         63.438          estimate D2E/DX2                !
 ! D161  D(30,27,29,35)       -176.9414         estimate D2E/DX2                !
 ! D162  D(30,27,29,36)        -59.2972         estimate D2E/DX2                !
 ! D163  D(27,28,31,37)        -55.2151         estimate D2E/DX2                !
 ! D164  D(27,28,31,38)       -178.0688         estimate D2E/DX2                !
 ! D165  D(27,28,31,39)         65.436          estimate D2E/DX2                !
 ! D166  D(32,28,31,37)         64.366          estimate D2E/DX2                !
 ! D167  D(32,28,31,38)        -58.4876         estimate D2E/DX2                !
 ! D168  D(32,28,31,39)       -174.9828         estimate D2E/DX2                !
 ! D169  D(33,28,31,37)       -177.0961         estimate D2E/DX2                !
 ! D170  D(33,28,31,38)         60.0502         estimate D2E/DX2                !
 ! D171  D(33,28,31,39)        -56.445          estimate D2E/DX2                !
 ! D172  D(27,29,34,37)         56.4044         estimate D2E/DX2                !
 ! D173  D(27,29,34,40)        178.879          estimate D2E/DX2                !
 ! D174  D(27,29,34,41)        -64.4952         estimate D2E/DX2                !
 ! D175  D(35,29,34,37)        -63.7619         estimate D2E/DX2                !
 ! D176  D(35,29,34,40)         58.7127         estimate D2E/DX2                !
 ! D177  D(35,29,34,41)        175.3385         estimate D2E/DX2                !
 ! D178  D(36,29,34,37)        178.2346         estimate D2E/DX2                !
 ! D179  D(36,29,34,40)        -59.2908         estimate D2E/DX2                !
 ! D180  D(36,29,34,41)         57.335          estimate D2E/DX2                !
 ! D181  D(28,31,37,34)         55.4037         estimate D2E/DX2                !
 ! D182  D(28,31,37,42)        177.7688         estimate D2E/DX2                !
 ! D183  D(28,31,37,43)        -65.073          estimate D2E/DX2                !
 ! D184  D(38,31,37,34)        177.594          estimate D2E/DX2                !
 ! D185  D(38,31,37,42)        -60.0408         estimate D2E/DX2                !
 ! D186  D(38,31,37,43)         57.1173         estimate D2E/DX2                !
 ! D187  D(39,31,37,34)        -65.1582         estimate D2E/DX2                !
 ! D188  D(39,31,37,42)         57.207          estimate D2E/DX2                !
 ! D189  D(39,31,37,43)        174.3651         estimate D2E/DX2                !
 ! D190  D(29,34,37,31)        -55.9398         estimate D2E/DX2                !
 ! D191  D(29,34,37,42)       -178.3065         estimate D2E/DX2                !
 ! D192  D(29,34,37,43)         64.6129         estimate D2E/DX2                !
 ! D193  D(40,34,37,31)       -177.6307         estimate D2E/DX2                !
 ! D194  D(40,34,37,42)         60.0026         estimate D2E/DX2                !
 ! D195  D(40,34,37,43)        -57.078          estimate D2E/DX2                !
 ! D196  D(41,34,37,31)         64.9691         estimate D2E/DX2                !
 ! D197  D(41,34,37,42)        -57.3976         estimate D2E/DX2                !
 ! D198  D(41,34,37,43)       -174.4782         estimate D2E/DX2                !
 --------------------------------------------------------------------------------
 Trust Radius=3.00D-01 FncErr=1.00D-07 GrdErr=1.00D-07 EigMax=2.50D+02 EigMin=1.00D-04
 Number of steps in this run=    413 maximum allowed number of steps=    414.
 GradGradGradGradGradGradGradGradGradGradGradGradGradGradGradGradGradGrad

 Leave Link  103 at Fri Dec 21 18:09:31 2018, MaxMem=  1342177280 cpu:               0.1 elap:               0.0
 (Enter /gpfs/apps/hpc/Apps/Restricted/Gaussian/Rev_A.03/g16/l202.exe)
 Symmetry turned off by external request.
 Stoichiometry    C28H37N3O
 Framework group  C1[X(C28H37N3O)]
 Deg. of freedom   201
 Full point group                 C1      NOp   1
                          Input orientation:                          
 ---------------------------------------------------------------------
 Center     Atomic      Atomic             Coordinates (Angstroms)
 Number     Number       Type             X           Y           Z
 ---------------------------------------------------------------------
      1          6           0       -0.509397    2.727036    0.360185
      2          6           0       -1.915229    2.930209    0.249577
      3          6           0       -2.465363    4.198014    0.142595
      4          6           0       -1.585990    5.299051    0.151676
      5          6           0       -0.210996    5.130338    0.257357
      6          6           0        0.364810    3.840964    0.358090
      7          6           0       -1.416115    0.768773    0.394834
      8          1           0       -3.535051    4.342860    0.053103
      9          1           0       -1.995620    6.298699    0.073644
     10          1           0        0.443054    5.994817    0.260000
     11          7           0       -2.444458    1.660279    0.275084
     12          6           0       -3.022938   -1.131227    0.337714
     13          6           0       -1.660995   -0.645563    0.448229
     14          6           0       -0.572148   -1.525482    0.601221
     15          6           0       -0.748883   -2.895750    0.661380
     16          6           0       -2.074896   -3.375253    0.544323
     17          6           0       -3.191874   -2.568150    0.381681
     18          1           0        0.420646   -1.094159    0.675494
     19          1           0       -2.227026   -4.444449    0.584118
     20          6           0        0.460418   -3.823589    0.837933
     21          6           0       -4.595448   -3.174275    0.238931
     22          8           0       -4.020402   -0.320301    0.203986
     23          7           0       -0.213967    1.398222    0.448924
     24          6           0        1.774601    3.675968    0.429438
     25          1           0        2.413283    4.552680    0.417760
     26          7           0        2.351774    2.507577    0.499943
     27          6           0        3.806372    2.274484    0.502620
     28          6           0        4.359335    2.324783   -0.930678
     29          6           0        4.547169    3.249759    1.422796
     30          1           0        3.929355    1.260977    0.892101
     31          6           0        5.867149    2.051223   -0.938262
     32          1           0        4.157023    3.320363   -1.342323
     33          1           0        3.829940    1.600075   -1.555058
     34          6           0        6.052115    2.958487    1.411698
     35          1           0        4.386679    4.275725    1.074512
     36          1           0        4.139896    3.179607    2.434770
     37          6           0        6.618158    3.013175   -0.011652
     38          1           0        6.246685    2.125357   -1.961132
     39          1           0        6.045215    1.020679   -0.608539
     40          1           0        6.563994    3.677054    2.058091
     41          1           0        6.233140    1.963951    1.836733
     42          1           0        7.685408    2.773625   -0.003210
     43          1           0        6.524587    4.035784   -0.397647
     44          1           0       -3.392281    1.235599    0.212032
     45          1           0        1.717258    1.696438    0.488624
     46          6           0       -5.514561   -2.649685    1.361603
     47          1           0       -5.593904   -1.565115    1.313451
     48          1           0       -6.514103   -3.086054    1.265013
     49          1           0       -5.115962   -2.927392    2.342198
     50          6           0       -4.581836   -4.708563    0.328322
     51          1           0       -5.602726   -5.084195    0.218142
     52          1           0       -3.972453   -5.157415   -0.460986
     53          1           0       -4.199682   -5.053947    1.293021
     54          6           0       -5.184731   -2.788369   -1.134484
     55          1           0       -5.198790   -1.705493   -1.252109
     56          1           0       -4.585125   -3.218391   -1.942297
     57          1           0       -6.206571   -3.169905   -1.229523
     58          6           0        1.190752   -3.469648    2.148624
     59          1           0        2.061949   -4.116819    2.289370
     60          1           0        1.535612   -2.432670    2.138932
     61          1           0        0.525961   -3.595571    3.007346
     62          6           0        1.430547   -3.629665   -0.345081
     63          1           0        1.768555   -2.592355   -0.409579
     64          1           0        2.311653   -4.268717   -0.230381
     65          1           0        0.942569   -3.886527   -1.289495
     66          6           0        0.058941   -5.304806    0.893184
     67          1           0       -0.601169   -5.513910    1.739406
     68          1           0       -0.452430   -5.615285   -0.021753
     69          1           0        0.953666   -5.922941    1.003422
 ---------------------------------------------------------------------
 Rotational constants (GHZ):           0.1812754           0.0736898           0.0548601
 Leave Link  202 at Fri Dec 21 18:09:31 2018, MaxMem=  1342177280 cpu:               0.0 elap:               0.0
 (Enter /gpfs/apps/hpc/Apps/Restricted/Gaussian/Rev_A.03/g16/l716.exe)
 Electric field and nuclear coordinate derivatives read from checkpoint file.
 Dipole        = 5.71670312D+00 4.24102968D+00 3.25686837D-02
 Polarizability= 6.08803350D+02 6.50659291D+01 7.16549664D+02
                 1.75743537D+01-1.68362366D+01 2.67968467D+02
 Full mass-weighted force constant matrix:
 Low frequencies ---   -0.0021    0.0009    0.0026    1.5153   10.1095   14.7139
 Low frequencies ---   22.0666   34.0851   46.8044
 Diagonal vibrational polarizability:
      108.9553426     110.1893232      85.6946435
 Harmonic frequencies (cm**-1), IR intensities (KM/Mole), Raman scattering
 activities (A**4/AMU), depolarization ratios for plane and unpolarized
 incident light, reduced masses (AMU), force constants (mDyne/A),
 and normal coordinates:
                      1                      2                      3
                      A                      A                      A
 Frequencies --     20.1792                33.7622                46.6902
 Red. masses --      4.1715                 4.3558                 4.5697
 Frc consts  --      0.0010                 0.0029                 0.0059
 IR Inten    --      0.0887                 0.4237                 3.7463
  Atom  AN      X      Y      Z        X      Y      Z        X      Y      Z
     1   6     0.02  -0.02  -0.04     0.03  -0.04   0.03    -0.00   0.00  -0.02
     2   6     0.02  -0.02  -0.06     0.03  -0.04   0.04    -0.01   0.00   0.02
     3   6     0.01  -0.03  -0.07     0.02  -0.04   0.04    -0.00   0.00  -0.04
     4   6     0.00  -0.02  -0.07     0.01  -0.04   0.03     0.01  -0.01  -0.15
     5   6     0.00  -0.02  -0.06     0.01  -0.03   0.02     0.01  -0.01  -0.19
     6   6     0.01  -0.01  -0.04     0.02  -0.03   0.01     0.00  -0.01  -0.12
     7   6     0.02  -0.02  -0.04     0.03  -0.04   0.03    -0.01   0.01   0.10
     8   1     0.01  -0.03  -0.08     0.02  -0.05   0.05    -0.00   0.01  -0.02
     9   1     0.00  -0.03  -0.09     0.00  -0.04   0.04     0.01  -0.01  -0.21
    10   1     0.00  -0.01  -0.06     0.01  -0.03   0.01     0.02  -0.01  -0.27
    11   7     0.02  -0.02  -0.05     0.03  -0.04   0.04    -0.01   0.01   0.11
    12   6     0.00  -0.01  -0.01    -0.00  -0.01   0.02    -0.02   0.01   0.13
    13   6     0.01  -0.02  -0.04     0.01  -0.04   0.03    -0.02   0.01   0.12
    14   6     0.00  -0.04  -0.07    -0.01  -0.06   0.04    -0.01   0.01   0.07
    15   6    -0.01  -0.03  -0.06    -0.04  -0.06   0.04    -0.00   0.01   0.02
    16   6    -0.03  -0.02  -0.01    -0.05  -0.03   0.01     0.00   0.00  -0.00
    17   6    -0.02  -0.00   0.03    -0.03  -0.01  -0.01    -0.00   0.00   0.04
    18   1     0.01  -0.05  -0.09    -0.00  -0.08   0.05    -0.01   0.01   0.06
    19   1    -0.04  -0.01   0.01    -0.07  -0.03  -0.00     0.01  -0.00  -0.07
    20   6    -0.02  -0.05  -0.10    -0.07  -0.09   0.06     0.01   0.01  -0.03
    21   6    -0.04   0.02   0.11    -0.04   0.02  -0.06     0.01  -0.00  -0.02
    22   8     0.01   0.00  -0.01     0.01   0.01   0.02    -0.02   0.01   0.20
    23   7     0.02  -0.02  -0.04     0.03  -0.04   0.02    -0.01   0.00   0.04
    24   6     0.01   0.00  -0.00     0.02   0.00  -0.01     0.00  -0.01  -0.13
    25   1    -0.00   0.01   0.01     0.00   0.02  -0.03     0.01  -0.02  -0.19
    26   7     0.03   0.01   0.02     0.06   0.02  -0.02    -0.00  -0.01  -0.06
    27   6     0.03   0.04   0.05     0.07   0.07  -0.03    -0.00  -0.02  -0.02
    28   6     0.06   0.05   0.06     0.05   0.07  -0.04     0.04   0.02  -0.00
    29   6    -0.01   0.06   0.06     0.04   0.12  -0.05    -0.04  -0.04   0.03
    30   1     0.04   0.04   0.06     0.11   0.08  -0.01    -0.02  -0.03  -0.05
    31   6     0.06   0.08   0.09     0.06   0.13  -0.04     0.04   0.03   0.04
    32   1     0.05   0.04   0.05     0.02   0.06  -0.05     0.06   0.03   0.01
    33   1     0.09   0.03   0.05     0.08   0.05  -0.02     0.07   0.04  -0.04
    34   6    -0.00   0.09   0.09     0.05   0.17  -0.06    -0.03  -0.03   0.07
    35   1    -0.02   0.05   0.06    -0.00   0.10  -0.07    -0.03  -0.03   0.06
    36   1    -0.02   0.05   0.05     0.05   0.12  -0.05    -0.07  -0.07   0.01
    37   6     0.03   0.10   0.10     0.04   0.17  -0.07     0.01   0.00   0.09
    38   1     0.08   0.09   0.10     0.05   0.12  -0.05     0.08   0.05   0.06
    39   1     0.08   0.09   0.10     0.11   0.14  -0.03     0.03   0.02   0.02
    40   1    -0.03   0.10   0.10     0.03   0.20  -0.08    -0.06  -0.04   0.10
    41   1     0.01   0.09   0.10     0.09   0.19  -0.04    -0.04  -0.04   0.05
    42   1     0.03   0.13   0.12     0.04   0.21  -0.07     0.01   0.00   0.12
    43   1     0.01   0.10   0.10    -0.01   0.16  -0.08     0.03   0.01   0.11
    44   1     0.02  -0.03  -0.04     0.03  -0.04   0.04    -0.02   0.01   0.14
    45   1     0.04   0.00   0.00     0.09  -0.00  -0.00    -0.01  -0.01   0.01
    46   6     0.02   0.07   0.13    -0.06   0.00  -0.08    -0.00  -0.12   0.03
    47   1     0.02   0.07   0.08    -0.03   0.01  -0.04    -0.00  -0.12   0.14
    48   1     0.02   0.07   0.21    -0.07   0.03  -0.13    -0.00  -0.11  -0.03
    49   1     0.08   0.12   0.13    -0.10  -0.04  -0.07    -0.01  -0.23   0.00
    50   6    -0.06   0.02   0.17    -0.06   0.02  -0.11     0.03  -0.01  -0.18
    51   1    -0.07   0.03   0.23    -0.06   0.04  -0.15     0.04  -0.02  -0.23
    52   1    -0.10  -0.02   0.16    -0.04   0.03  -0.10     0.05   0.08  -0.22
    53   1    -0.02   0.05   0.16    -0.10  -0.02  -0.11     0.02  -0.11  -0.21
    54   6    -0.09  -0.02   0.12     0.01   0.07  -0.07    -0.00   0.12   0.02
    55   1    -0.06  -0.03   0.08     0.03   0.07  -0.05    -0.02   0.13   0.12
    56   1    -0.14  -0.07   0.11     0.03   0.08  -0.07     0.00   0.21  -0.03
    57   1    -0.11   0.00   0.19     0.01   0.08  -0.11     0.00   0.12  -0.02
    58   6     0.01  -0.08  -0.11    -0.07  -0.09   0.06     0.03  -0.02  -0.04
    59   1     0.01  -0.08  -0.15    -0.09  -0.12   0.08     0.05  -0.02  -0.08
    60   1     0.02  -0.08  -0.11    -0.04  -0.10   0.05     0.02  -0.02  -0.02
    61   1     0.04  -0.09  -0.10    -0.08  -0.06   0.05     0.06  -0.06  -0.03
    62   6    -0.05  -0.06  -0.12    -0.06  -0.13   0.06    -0.02   0.04  -0.05
    63   1    -0.05  -0.06  -0.13    -0.03  -0.14   0.05    -0.04   0.05  -0.03
    64   1    -0.05  -0.06  -0.14    -0.08  -0.15   0.07    -0.01   0.06  -0.08
    65   1    -0.07  -0.06  -0.11    -0.06  -0.13   0.06    -0.04   0.05  -0.04
    66   6    -0.04  -0.05  -0.10    -0.11  -0.08   0.08     0.01   0.00  -0.06
    67   1    -0.02  -0.05  -0.09    -0.12  -0.05   0.07     0.03  -0.02  -0.05
    68   1    -0.08  -0.03  -0.09    -0.11  -0.08   0.08     0.00   0.02  -0.06
    69   1    -0.05  -0.06  -0.14    -0.13  -0.10   0.10     0.02   0.01  -0.09
                      4                      5                      6
                      A                      A                      A
 Frequencies --     57.0149                69.2344                72.9985
 Red. masses --      3.6878                 3.0346                 2.7687
 Frc consts  --      0.0071                 0.0086                 0.0087
 IR Inten    --      0.1060                 0.8479                 0.1457
  Atom  AN      X      Y      Z        X      Y      Z        X      Y      Z
     1   6     0.00   0.00   0.04    -0.00   0.00   0.03    -0.00  -0.00  -0.01
     2   6     0.01  -0.00  -0.03    -0.00   0.00   0.03     0.00   0.00  -0.01
     3   6     0.01  -0.01  -0.10    -0.00  -0.00  -0.00     0.00   0.00  -0.00
     4   6     0.01  -0.01  -0.13    -0.00  -0.00  -0.04     0.01   0.00   0.01
     5   6     0.00  -0.00  -0.06    -0.00   0.00  -0.04     0.01  -0.00   0.02
     6   6     0.00   0.01   0.04    -0.00   0.00  -0.01     0.00  -0.01   0.02
     7   6     0.00   0.00   0.06    -0.00   0.00   0.06    -0.01  -0.00  -0.02
     8   1     0.01  -0.01  -0.16    -0.00  -0.00  -0.01     0.01   0.01  -0.01
     9   1     0.01  -0.01  -0.20    -0.00  -0.00  -0.06     0.01   0.00   0.02
    10   1     0.00  -0.00  -0.08    -0.00   0.00  -0.07     0.01  -0.00   0.04
    11   7     0.01  -0.00  -0.01    -0.00   0.00   0.05    -0.00   0.00  -0.02
    12   6     0.01   0.00   0.03     0.00   0.00   0.04    -0.01  -0.00  -0.00
    13   6     0.00   0.00   0.05    -0.00   0.00   0.07    -0.01  -0.00  -0.02
    14   6     0.00   0.00   0.04    -0.00   0.00   0.06    -0.01   0.00  -0.02
    15   6     0.00  -0.00   0.00    -0.00   0.00   0.05    -0.01   0.00   0.02
    16   6     0.00   0.00  -0.01    -0.01   0.00   0.06    -0.01   0.00   0.03
    17   6     0.00   0.00   0.01    -0.00   0.00   0.06    -0.01  -0.00   0.00
    18   1     0.00  -0.00   0.05    -0.00  -0.00   0.05    -0.01   0.00  -0.04
    19   1     0.00   0.00  -0.04    -0.01   0.00   0.06    -0.00   0.00   0.05
    20   6     0.01  -0.01  -0.04     0.00  -0.01  -0.03     0.00   0.01  -0.00
    21   6     0.01   0.01  -0.01     0.00   0.00  -0.01    -0.00  -0.01  -0.01
    22   8     0.01   0.01   0.02     0.01   0.00  -0.01    -0.01  -0.00   0.01
    23   7     0.00   0.01   0.09    -0.00   0.01   0.06    -0.00  -0.00  -0.01
    24   6    -0.00   0.01   0.10    -0.00   0.00  -0.03     0.00  -0.01   0.03
    25   1    -0.00   0.01   0.10     0.00   0.00  -0.06    -0.00  -0.01   0.05
    26   7    -0.00   0.01   0.16    -0.00   0.00  -0.01     0.00  -0.01   0.03
    27   6    -0.00   0.01   0.13    -0.00   0.00  -0.02     0.00  -0.00   0.03
    28   6    -0.09  -0.15   0.09    -0.00   0.05  -0.02    -0.00  -0.03   0.03
    29   6     0.05   0.10  -0.02    -0.00  -0.03   0.01     0.01   0.01   0.01
    30   1     0.02   0.05   0.23    -0.01  -0.01  -0.06     0.01   0.00   0.05
    31   6    -0.08  -0.12   0.02    -0.00   0.03  -0.02    -0.00  -0.02   0.02
    32   1    -0.13  -0.19  -0.01     0.01   0.07   0.02    -0.01  -0.04   0.01
    33   1    -0.12  -0.22   0.20    -0.01   0.08  -0.05    -0.01  -0.05   0.04
    34   6     0.05   0.12  -0.09    -0.00  -0.04   0.01     0.01   0.02   0.00
    35   1     0.02   0.07  -0.10     0.00  -0.02   0.04     0.00   0.01  -0.01
    36   1     0.11   0.19   0.02    -0.01  -0.06   0.01     0.01   0.03   0.01
    37   6    -0.05  -0.00  -0.13     0.00  -0.01   0.01    -0.00  -0.00  -0.00
    38   1    -0.15  -0.21  -0.01     0.00   0.06  -0.02    -0.01  -0.04   0.02
    39   1    -0.04  -0.08   0.11    -0.02   0.02  -0.06     0.01  -0.02   0.04
    40   1     0.08   0.18  -0.18    -0.00  -0.06   0.03     0.01   0.03  -0.01
    41   1     0.09   0.16  -0.01    -0.01  -0.06  -0.02     0.01   0.03   0.02
    42   1    -0.04   0.03  -0.18     0.00  -0.02   0.01    -0.00   0.01  -0.01
    43   1    -0.11  -0.05  -0.22     0.02   0.01   0.05    -0.02  -0.01  -0.02
    44   1     0.01  -0.01  -0.02     0.00  -0.00   0.02    -0.01   0.01  -0.02
    45   1     0.00   0.01   0.15    -0.01   0.00   0.03     0.00  -0.01   0.01
    46   6    -0.00  -0.00  -0.02    -0.12   0.10  -0.15    -0.00  -0.04   0.00
    47   1     0.00  -0.00  -0.00    -0.09   0.10  -0.23     0.00  -0.04   0.04
    48   1    -0.01   0.00  -0.03    -0.11   0.10  -0.24    -0.00  -0.04  -0.01
    49   1    -0.02  -0.01  -0.02    -0.24   0.15  -0.09    -0.00  -0.07  -0.00
    50   6     0.00   0.01  -0.02    -0.02   0.01   0.14     0.01  -0.01  -0.06
    51   1     0.00   0.01  -0.03    -0.02   0.01   0.12     0.01  -0.01  -0.09
    52   1     0.01   0.01  -0.03     0.01  -0.07   0.22     0.02   0.02  -0.07
    53   1    -0.00  -0.00  -0.03    -0.07   0.10   0.19    -0.00  -0.04  -0.07
    54   6     0.02   0.02  -0.01     0.16  -0.11  -0.11    -0.01   0.03  -0.00
    55   1     0.02   0.02  -0.00     0.15  -0.12  -0.19    -0.01   0.03   0.03
    56   1     0.03   0.03  -0.01     0.26  -0.17  -0.00    -0.01   0.06  -0.01
    57   1     0.02   0.02  -0.03     0.17  -0.13  -0.20    -0.01   0.03  -0.01
    58   6     0.01  -0.06  -0.03     0.08  -0.03  -0.07     0.15   0.15  -0.12
    59   1     0.02  -0.06  -0.06     0.10  -0.02  -0.14     0.16   0.16  -0.15
    60   1     0.00  -0.05   0.01     0.07  -0.02  -0.06     0.15   0.14  -0.26
    61   1     0.02  -0.10  -0.03     0.14  -0.06  -0.02     0.24   0.24  -0.03
    62   6    -0.00   0.04  -0.03    -0.07   0.01  -0.08    -0.12  -0.11  -0.13
    63   1    -0.00   0.04  -0.00    -0.09   0.02  -0.10    -0.16  -0.10  -0.27
    64   1     0.00   0.04  -0.06    -0.05   0.02  -0.14    -0.10  -0.07  -0.15
    65   1    -0.00   0.07  -0.04    -0.12   0.01  -0.06    -0.22  -0.21  -0.05
    66   6     0.01  -0.01  -0.09    -0.00  -0.01  -0.03     0.01   0.02   0.20
    67   1     0.01  -0.04  -0.10     0.04  -0.02   0.00     0.08   0.13   0.28
    68   1     0.00   0.02  -0.10    -0.05   0.01  -0.01    -0.07  -0.09   0.28
    69   1     0.01  -0.01  -0.12     0.00  -0.01  -0.08     0.02   0.03   0.19
                      7                      8                      9
                      A                      A                      A
 Frequencies --     77.2808                91.1201               114.8459
 Red. masses --      3.7701                 4.0736                 4.6571
 Frc consts  --      0.0133                 0.0199                 0.0362
 IR Inten    --      2.5023                 1.8238                 0.5422
  Atom  AN      X      Y      Z        X      Y      Z        X      Y      Z
     1   6     0.00   0.03   0.02     0.01  -0.03   0.05    -0.01   0.00   0.13
     2   6     0.00  -0.02  -0.04     0.02   0.01  -0.04    -0.01   0.00   0.15
     3   6    -0.03  -0.04  -0.09     0.06   0.02  -0.11    -0.00  -0.00   0.07
     4   6    -0.07  -0.01  -0.08     0.09  -0.01  -0.09     0.01  -0.01  -0.08
     5   6    -0.07   0.03  -0.02     0.08  -0.04  -0.01     0.01  -0.01  -0.13
     6   6    -0.03   0.06   0.03     0.04  -0.05   0.06     0.00  -0.01  -0.02
     7   6     0.06  -0.00   0.01    -0.05  -0.01   0.02    -0.00   0.00   0.15
     8   1    -0.04  -0.08  -0.13     0.07   0.04  -0.18    -0.00  -0.00   0.08
     9   1    -0.10  -0.03  -0.13     0.12   0.00  -0.15     0.01  -0.01  -0.17
    10   1    -0.10   0.05  -0.03     0.10  -0.06  -0.01     0.02  -0.02  -0.27
    11   7     0.04  -0.03  -0.04    -0.02   0.02  -0.05    -0.01   0.00   0.20
    12   6     0.06   0.01  -0.01    -0.06  -0.01  -0.03     0.02  -0.00  -0.10
    13   6     0.07  -0.01   0.00    -0.07  -0.00   0.01     0.01  -0.00   0.02
    14   6     0.06  -0.03   0.01    -0.06   0.02   0.04     0.01  -0.01   0.00
    15   6     0.03  -0.03   0.01    -0.04   0.02   0.02     0.02  -0.01  -0.08
    16   6     0.02  -0.00  -0.00    -0.03  -0.01  -0.00     0.02  -0.01  -0.15
    17   6     0.04   0.01  -0.01    -0.04  -0.02  -0.02     0.02  -0.01  -0.14
    18   1     0.07  -0.05   0.02    -0.07   0.03   0.06     0.00  -0.01   0.09
    19   1     0.00  -0.00   0.00    -0.01  -0.01  -0.01     0.02  -0.01  -0.19
    20   6    -0.00  -0.07   0.02    -0.01   0.05   0.01     0.01   0.00  -0.01
    21   6     0.02   0.05  -0.00    -0.03  -0.05  -0.00     0.00   0.02  -0.04
    22   8     0.07   0.01  -0.01    -0.06  -0.02  -0.06     0.03  -0.00  -0.14
    23   7     0.04   0.03   0.05    -0.04  -0.04   0.09    -0.00   0.01   0.16
    24   6    -0.03   0.08   0.06     0.03  -0.07   0.08     0.00  -0.02  -0.09
    25   1    -0.03   0.08   0.05     0.03  -0.07   0.05     0.02  -0.04  -0.21
    26   7    -0.04   0.08   0.06     0.04  -0.06   0.10    -0.02  -0.03  -0.01
    27   6    -0.05   0.05   0.00     0.05  -0.02   0.01    -0.02  -0.03  -0.01
    28   6    -0.09   0.15  -0.01    -0.01   0.14  -0.01    -0.01  -0.04  -0.01
    29   6     0.02  -0.06   0.05     0.07  -0.08   0.06    -0.04  -0.02  -0.00
    30   1    -0.06   0.01  -0.09     0.10  -0.05  -0.09    -0.02  -0.03  -0.01
    31   6    -0.11   0.05  -0.08    -0.01   0.16  -0.11    -0.00  -0.00   0.01
    32   1    -0.03   0.21   0.09    -0.03   0.19   0.10    -0.03  -0.05  -0.02
    33   1    -0.16   0.25  -0.07    -0.03   0.21  -0.07     0.01  -0.06   0.00
    34   6     0.00  -0.15  -0.00     0.08  -0.05  -0.03    -0.03   0.02   0.00
    35   1     0.06  -0.02   0.13     0.03  -0.06   0.16    -0.06  -0.02   0.00
    36   1     0.04  -0.10   0.06     0.12  -0.18   0.08    -0.04  -0.04  -0.01
    37   6    -0.02  -0.09  -0.01     0.02   0.08  -0.04    -0.03   0.03   0.00
    38   1    -0.13   0.11  -0.08    -0.05   0.27  -0.12     0.00  -0.01   0.01
    39   1    -0.18   0.00  -0.18     0.02   0.13  -0.22     0.02   0.01   0.03
    40   1     0.07  -0.23   0.04     0.09  -0.10   0.01    -0.05   0.04  -0.00
    41   1    -0.06  -0.19  -0.07     0.11  -0.08  -0.11    -0.00   0.03   0.01
    42   1    -0.04  -0.19  -0.04     0.03   0.08  -0.11    -0.02   0.07  -0.00
    43   1     0.07  -0.05   0.07     0.01   0.11   0.05    -0.07   0.03  -0.01
    44   1     0.05  -0.08  -0.05    -0.03   0.07  -0.09     0.00  -0.01   0.07
    45   1    -0.05   0.08   0.07     0.06  -0.07   0.12    -0.03  -0.02   0.10
    46   6     0.06   0.04   0.03    -0.01  -0.07   0.03     0.10   0.10   0.01
    47   1     0.07   0.04   0.05    -0.03  -0.07   0.03     0.08   0.10  -0.08
    48   1     0.05   0.06   0.05    -0.01  -0.08   0.05     0.10   0.07   0.16
    49   1     0.09   0.02   0.02     0.02  -0.07   0.01     0.22   0.20  -0.01
    50   6    -0.00   0.05  -0.04     0.00  -0.05  -0.01    -0.03   0.02   0.05
    51   1    -0.01   0.07  -0.05     0.01  -0.07   0.01    -0.05   0.04   0.15
    52   1    -0.01   0.06  -0.06    -0.01  -0.04  -0.03    -0.10  -0.04   0.03
    53   1    -0.01   0.01  -0.05     0.03  -0.05  -0.02     0.04   0.07   0.04
    54   6     0.00   0.09   0.02    -0.08  -0.06   0.02    -0.10  -0.04  -0.01
    55   1     0.03   0.09   0.04    -0.10  -0.06   0.02    -0.06  -0.04  -0.07
    56   1    -0.03   0.09  -0.00    -0.10  -0.04  -0.00    -0.19  -0.11  -0.04
    57   1    -0.01   0.12   0.04    -0.07  -0.08   0.05    -0.12   0.00   0.10
    58   6     0.02  -0.08   0.01    -0.02   0.07   0.01    -0.02   0.09  -0.01
    59   1    -0.00  -0.11   0.01     0.00   0.10   0.01    -0.05   0.07   0.07
    60   1     0.05  -0.09  -0.01    -0.05   0.08   0.01     0.02   0.07  -0.09
    61   1     0.02  -0.05   0.01    -0.01   0.05   0.01    -0.05   0.18  -0.03
    62   6    -0.00  -0.13   0.01    -0.02   0.10   0.01     0.04  -0.07   0.00
    63   1     0.03  -0.14  -0.01    -0.06   0.11   0.02     0.03  -0.07  -0.04
    64   1    -0.03  -0.16   0.01     0.00   0.13   0.00     0.04  -0.06   0.06
    65   1    -0.02  -0.12   0.01    -0.01   0.09   0.01     0.06  -0.12   0.00
    66   6    -0.05  -0.06   0.04     0.04   0.04   0.00     0.01   0.00   0.08
    67   1    -0.06  -0.02   0.05     0.05   0.01   0.00    -0.03   0.07   0.06
    68   1    -0.07  -0.06   0.05     0.05   0.03  -0.00     0.06  -0.07   0.08
    69   1    -0.07  -0.08   0.05     0.06   0.07  -0.00     0.01   0.01   0.17
                     10                     11                     12
                      A                      A                      A
 Frequencies --    124.9680               125.7690               134.9014
 Red. masses --      3.6537                 4.1158                 3.7118
 Frc consts  --      0.0336                 0.0384                 0.0398
 IR Inten    --      4.1925                 0.6681                 0.8544
  Atom  AN      X      Y      Z        X      Y      Z        X      Y      Z
     1   6     0.01  -0.01  -0.02     0.01  -0.00  -0.05    -0.00  -0.06  -0.00
     2   6     0.02  -0.01  -0.04     0.01   0.01   0.00    -0.01  -0.08  -0.01
     3   6     0.03  -0.00  -0.01     0.02   0.01   0.02    -0.04  -0.09  -0.01
     4   6     0.04  -0.01   0.03     0.04   0.01  -0.02    -0.06  -0.08  -0.01
     5   6     0.04  -0.02   0.03     0.04  -0.01  -0.05    -0.06  -0.05   0.01
     6   6     0.02  -0.03  -0.01     0.02  -0.01  -0.05    -0.02  -0.04   0.01
     7   6     0.02  -0.01  -0.03     0.01   0.00  -0.04     0.01  -0.06  -0.00
     8   1     0.03   0.01  -0.01     0.02   0.03   0.07    -0.04  -0.12  -0.02
     9   1     0.04  -0.01   0.06     0.04   0.01  -0.02    -0.07  -0.08  -0.01
    10   1     0.04  -0.02   0.06     0.04  -0.01  -0.06    -0.08  -0.04   0.02
    11   7     0.02  -0.01  -0.05     0.01   0.01   0.03     0.01  -0.08  -0.00
    12   6     0.04   0.01  -0.01    -0.00   0.01   0.08     0.00  -0.03   0.03
    13   6     0.04  -0.00   0.01     0.01   0.00  -0.05    -0.00  -0.05   0.00
    14   6     0.03  -0.01   0.05     0.02  -0.00  -0.17    -0.02  -0.05  -0.02
    15   6     0.02  -0.00   0.07     0.02  -0.00  -0.15    -0.01  -0.05  -0.02
    16   6     0.01   0.00   0.06     0.01   0.00  -0.08    -0.02  -0.06  -0.02
    17   6     0.03   0.02   0.02     0.00   0.01   0.03    -0.02  -0.03   0.01
    18   1     0.03  -0.01   0.06     0.03  -0.01  -0.24    -0.02  -0.05  -0.02
    19   1    -0.00   0.00   0.08     0.02   0.00  -0.09    -0.03  -0.06  -0.03
    20   6     0.03  -0.00   0.03     0.01  -0.00  -0.04     0.06   0.04  -0.00
    21   6     0.01   0.07   0.00     0.00   0.00   0.02    -0.06   0.07  -0.00
    22   8     0.05   0.01  -0.05    -0.02   0.02   0.22     0.01  -0.02   0.05
    23   7     0.02  -0.01  -0.02     0.01  -0.00  -0.08     0.01  -0.05  -0.00
    24   6     0.00  -0.09  -0.02     0.01  -0.03   0.02    -0.02   0.00   0.02
    25   1     0.04  -0.12  -0.03     0.03  -0.04   0.01    -0.04   0.02   0.04
    26   7    -0.05  -0.12  -0.01    -0.01  -0.04   0.09     0.02   0.02   0.00
    27   6    -0.06  -0.13  -0.00    -0.02  -0.04   0.06     0.02   0.04  -0.00
    28   6    -0.07  -0.08  -0.00    -0.07   0.01   0.04     0.02   0.03  -0.00
    29   6    -0.11  -0.12   0.04    -0.00  -0.06   0.07     0.03   0.04  -0.02
    30   1    -0.05  -0.13  -0.02    -0.00  -0.05   0.03     0.03   0.04  -0.00
    31   6    -0.04   0.08  -0.02    -0.07   0.06  -0.03     0.01  -0.02   0.00
    32   1    -0.16  -0.10  -0.01    -0.11   0.01   0.07     0.05   0.04   0.01
    33   1     0.00  -0.13   0.00    -0.08   0.01   0.05     0.00   0.05  -0.01
    34   6    -0.09   0.03  -0.00     0.01  -0.01  -0.01     0.03  -0.01   0.00
    35   1    -0.20  -0.11   0.10    -0.05  -0.05   0.13     0.06   0.04  -0.04
    36   1    -0.10  -0.21   0.04     0.05  -0.12   0.09     0.03   0.07  -0.02
    37   6    -0.14   0.16  -0.02    -0.07   0.07  -0.04     0.05  -0.05   0.01
    38   1    -0.06   0.12  -0.02    -0.11   0.09  -0.04     0.02  -0.03   0.00
    39   1     0.08   0.10  -0.02    -0.01   0.06  -0.06    -0.03  -0.03  -0.01
    40   1    -0.15   0.06   0.02     0.01  -0.01  -0.01     0.05  -0.02  -0.00
    41   1     0.02   0.03  -0.05     0.06  -0.02  -0.06    -0.01  -0.01   0.02
    42   1    -0.11   0.32  -0.06    -0.05   0.12  -0.10     0.04  -0.11   0.03
    43   1    -0.31   0.16   0.01    -0.14   0.07  -0.00     0.11  -0.05   0.00
    44   1     0.03  -0.04  -0.05    -0.00   0.02   0.11     0.01  -0.11   0.02
    45   1    -0.09  -0.09   0.00    -0.02  -0.03   0.07     0.04   0.00  -0.01
    46   6     0.03   0.08   0.01    -0.06   0.02  -0.05    -0.05   0.13  -0.02
    47   1     0.06   0.09   0.02    -0.06   0.02  -0.06    -0.01   0.13  -0.04
    48   1     0.02   0.11   0.02    -0.05   0.01  -0.11    -0.07   0.16  -0.03
    49   1     0.03   0.07   0.01    -0.13   0.03  -0.02    -0.08   0.13  -0.01
    50   6    -0.04   0.07  -0.03     0.00   0.01   0.06    -0.18   0.07  -0.01
    51   1    -0.05   0.10  -0.07    -0.00   0.01   0.08    -0.20   0.14  -0.03
    52   1    -0.03   0.07  -0.03    -0.00  -0.02   0.08    -0.19   0.03   0.00
    53   1    -0.08   0.03  -0.03    -0.00   0.04   0.08    -0.22   0.04  -0.00
    54   6     0.03   0.12   0.01     0.08  -0.03  -0.03    -0.02   0.13  -0.01
    55   1     0.09   0.12   0.03     0.07  -0.03  -0.05     0.09   0.13  -0.01
    56   1     0.01   0.10   0.00     0.14  -0.03   0.02    -0.05   0.07  -0.01
    57   1     0.01   0.17   0.00     0.09  -0.04  -0.09    -0.05   0.23  -0.02
    58   6     0.07  -0.04   0.01    -0.11   0.10   0.00     0.02   0.13  -0.00
[...]
 ! A59   A(24,26,27)             0.039                   2.1                    !
 ! A60   A(24,26,45)            -0.0317                  1.7                    !
 --------------------------------------------------------------------------------
                           ----------------------------
                           ! Normal Mode   198        !
 --------------------------                            --------------------------
 ! Name  Definition              Value          Relative Weight (%)             !
 --------------------------------------------------------------------------------
 ! R4    R(2,3)                  0.0301                  1.4                    !
 ! R7    R(3,8)                 -0.6351                 29.0                    !
 ! R8    R(4,5)                 -0.0478                  2.2                    !
 ! R9    R(4,9)                  0.833                  38.0                    !
 ! R11   R(5,10)                 0.2718                 12.4                    !
 ! A7    A(2,3,4)               -0.0545                  2.5                    !
 ! A9    A(4,3,8)                0.0432                  2.0                    !
 ! A10   A(3,4,5)                0.0531                  2.4                    !
 ! A11   A(3,4,9)               -0.0416                  1.9                    !
 --------------------------------------------------------------------------------
                           ----------------------------
                           ! Normal Mode   199        !
 --------------------------                            --------------------------
 ! Name  Definition              Value          Relative Weight (%)             !
 --------------------------------------------------------------------------------
 ! R4    R(2,3)                  0.0405                  2.0                    !
 ! R6    R(3,4)                  0.0636                  3.1                    !
 ! R7    R(3,8)                 -0.8777                 43.2                    !
 ! R8    R(4,5)                  0.0324                  1.6                    !
 ! R9    R(4,9)                 -0.6197                 30.5                    !
 ! R11   R(5,10)                -0.1508                  7.4                    !
 ! R16   R(11,44)                0.0148                  0.7                    !
 ! R34   R(24,25)               -0.0136                  0.7                    !
 ! A4    A(1,2,3)                0.0221                  1.1                    !
 ! A6    A(3,2,11)              -0.0239                  1.2                    !
 ! A7    A(2,3,4)               -0.0297                  1.5                    !
 ! A8    A(2,3,8)                0.0226                  1.1                    !
 ! A12   A(5,4,9)                0.0159                  0.8                    !
 ! A14   A(4,5,10)              -0.0153                  0.8                    !
 --------------------------------------------------------------------------------
                           ----------------------------
                           ! Normal Mode   200        !
 --------------------------                            --------------------------
 ! Name  Definition              Value          Relative Weight (%)             !
 --------------------------------------------------------------------------------
 ! R23   R(15,16)                0.0406                  2.5                    !
 ! R25   R(16,17)                0.042                   2.6                    !
 ! R26   R(16,19)               -1.0801                 67.7                    !
 ! R59   R(50,52)               -0.0112                  0.7                    !
 ! R60   R(50,53)               -0.0221                  1.4                    !
 ! R70   R(66,67)               -0.0107                  0.7                    !
 ! R71   R(66,68)               -0.0194                  1.2                    !
 ! A34   A(14,15,16)             0.027                   1.7                    !
 ! A36   A(16,15,20)            -0.0282                  1.8                    !
 ! A37   A(15,16,17)            -0.0559                  3.5                    !
 ! A38   A(15,16,19)             0.0267                  1.7                    !
 ! A39   A(17,16,19)             0.0292                  1.8                    !
 ! A40   A(12,17,16)             0.0274                  1.7                    !
 ! A42   A(16,17,21)            -0.0289                  1.8                    !
 --------------------------------------------------------------------------------
                           ----------------------------
                           ! Normal Mode   201        !
 --------------------------                            --------------------------
 ! Name  Definition              Value          Relative Weight (%)             !
 --------------------------------------------------------------------------------
 ! R16   R(11,44)                0.015                   0.8                    !
 ! R34   R(24,25)                0.1422                  7.9                    !
 ! R35   R(24,26)                0.028                   1.6                    !
 ! R36   R(26,27)                0.0348                  1.9                    !
 ! R37   R(26,45)               -1.0608                 59.1                    !
 ! A57   A(6,24,26)             -0.0205                  1.1                    !
 ! A58   A(25,24,26)             0.029                   1.6                    !
 ! A59   A(24,26,27)            -0.0483                  2.7                    !
 ! A61   A(27,26,45)             0.0577                  3.2                    !
 ! A63   A(26,27,29)             0.0191                  1.1                    !
 ! A64   A(26,27,30)            -0.0242                  1.3                    !
 ! D139  D(24,26,27,28)         -0.0132                  0.7                    !
 ! D142  D(45,26,27,28)         -0.0124                  0.7                    !
 ! D145  D(26,27,28,31)          0.0261                  1.5                    !
 ! D146  D(26,27,28,32)          0.0263                  1.5                    !
 ! D147  D(26,27,28,33)          0.0265                  1.5                    !
 ! D154  D(26,27,29,34)         -0.0169                  0.9                    !
 ! D155  D(26,27,29,35)         -0.0163                  0.9                    !
 ! D156  D(26,27,29,36)         -0.0175                  1.0                    !
 --------------------------------------------------------------------------------
 -------------------------------------------------------------------
 Center     Atomic                   Forces (Hartrees/Bohr)
 Number     Number              X              Y              Z
 -------------------------------------------------------------------
      1        6          -0.000002772   -0.000000702   -0.000003903
      2        6          -0.000002766   -0.000002211   -0.000006309
      3        6          -0.000003821   -0.000002726   -0.000008443
      4        6          -0.000004910   -0.000002004   -0.000007855
      5        6          -0.000005101   -0.000000418   -0.000005236
      6        6          -0.000003834    0.000000123   -0.000003151
      7        6          -0.000001048   -0.000001452   -0.000003637
      8        1          -0.000003845   -0.000003903   -0.000010552
      9        1          -0.000005829   -0.000002279   -0.000009488
     10        1          -0.000005798    0.000000236   -0.000004805
     11        7          -0.000001410   -0.000002441   -0.000006231
     12        6           0.000000955   -0.000003121   -0.000004555
     13        6           0.000000513   -0.000001820   -0.000002845
     14        6           0.000000885   -0.000000527    0.000000013
     15        6           0.000002087   -0.000000732    0.000000676
     16        6           0.000003076   -0.000002161   -0.000001370
     17        6           0.000002316   -0.000003239   -0.000003875
     18        1           0.000000453    0.000000592    0.000001353
     19        1           0.000003883   -0.000002020   -0.000000554
     20        6           0.000002815    0.000000754    0.000003825
     21        6           0.000003179   -0.000004753   -0.000005946
     22        8           0.000000208   -0.000004570   -0.000007629
     23        7          -0.000001594   -0.000000177   -0.000001733
     24        6          -0.000003961    0.000001734   -0.000000433
     25        1          -0.000004725    0.000002245   -0.000000012
     26        7          -0.000002870    0.000002203    0.000001712
     27        6          -0.000002645    0.000003745    0.000004484
     28        6          -0.000000101    0.000003040    0.000005416
     29        6          -0.000005117    0.000005124    0.000005038
     30        1          -0.000002422    0.000004163    0.000005563
     31        6           0.000000242    0.000004477    0.000008344
     32        1          -0.000000368    0.000002384    0.000004176
     33        1           0.000001818    0.000001923    0.000005109
     34        6          -0.000004871    0.000006651    0.000007907
     35        1          -0.000005609    0.000004844    0.000003800
     36        1          -0.000006935    0.000005698    0.000004335
     37        6          -0.000002396    0.000006071    0.000008939
     38        1           0.000001995    0.000003986    0.000009045
     39        1           0.000000611    0.000004986    0.000009586
     40        1          -0.000006746    0.000007786    0.000008239
     41        1          -0.000004748    0.000007290    0.000009096
     42        1          -0.000002202    0.000007104    0.000011048
     43        1          -0.000002775    0.000005639    0.000007816
     44        1          -0.000001086   -0.000003682   -0.000007492
     45        1          -0.000002006    0.000001744    0.000001187
     46        6           0.000000812   -0.000004660   -0.000007956
     47        1          -0.000000272   -0.000004784   -0.000009086
     48        1           0.000001250   -0.000005761   -0.000009446
     49        1          -0.000000835   -0.000003466   -0.000007098
     50        6           0.000004520   -0.000004863   -0.000004552
     51        1           0.000005110   -0.000005788   -0.000006123
     52        1           0.000006506   -0.000004727   -0.000002936
     53        1           0.000003067   -0.000003469   -0.000003553
     54        6           0.000005408   -0.000006639   -0.000007316
     55        1           0.000004477   -0.000006620   -0.000008241
     56        1           0.000007172   -0.000006637   -0.000005792
     57        1           0.000005801   -0.000007687   -0.000008799
     58        6           0.000000052    0.000002646    0.000004753
     59        1           0.000000383    0.000003552    0.000006929
     60        1          -0.000000883    0.000002929    0.000004438
     61        1          -0.000001353    0.000002721    0.000003683
     62        6           0.000004690    0.000000618    0.000005355
     63        1           0.000003962    0.000000850    0.000005080
     64        1           0.000005102    0.000001483    0.000007447
     65        1           0.000006590   -0.000000473    0.000004639
     66        6           0.000004195    0.000000289    0.000004355
     67        1           0.000002871    0.000000438    0.000003360
     68        1           0.000006086   -0.000000890    0.000003731
     69        1           0.000004563    0.000001334    0.000006476
 -------------------------------------------------------------------
 Cartesian Forces:  Max     0.000011048 RMS     0.000004680
 FormGI is forming the generalized inverse of G from B-inverse, IUseBI=4.
 GSVD:  received Info=                   1 from GESDD.
 Leave Link  716 at Fri Dec 21 18:09:31 2018, MaxMem=  1342177280 cpu:               1.2 elap:               0.3
 (Enter /gpfs/apps/hpc/Apps/Restricted/Gaussian/Rev_A.03/g16/l9999.exe)

 ----------------------------------------------------------------------

 Electric dipole moment (input orientation):
 (Debye = 10**-18 statcoulomb cm , SI units = C m)
                  (au)            (Debye)         (10**-30 SI)
   Tot        0.711815D+01      0.180925D+02      0.603502D+02
   x          0.571670D+01      0.145304D+02      0.484682D+02
   y          0.424103D+01      0.107796D+02      0.359569D+02
   z          0.325687D-01      0.827813D-01      0.276129D+00

 Dipole polarizability, Alpha (input orientation).
 (esu units = cm**3 , SI units = C**2 m**2 J**-1)
 Alpha(0;0):
               (au)            (10**-24 esu)      (10**-40 SI)
   iso        0.531107D+03      0.787020D+02      0.875677D+02
   aniso      0.423059D+03      0.626909D+02      0.697530D+02
   xx         0.608803D+03      0.902153D+02      0.100378D+03
   yx         0.650659D+02      0.964178D+01      0.107279D+02
   yy         0.716550D+03      0.106182D+03      0.118143D+03
   zx         0.175744D+02      0.260425D+01      0.289762D+01
   zy        -0.168362D+02     -0.249487D+01     -0.277592D+01
   zz         0.267968D+03      0.397088D+02      0.441820D+02

 ----------------------------------------------------------------------

 Dipole orientation:
     6         -3.34585494          3.38530974          2.30040951
     6         -4.31179053          5.02352644          0.39461878
     6         -5.66271747          7.18837009          0.98620449
     6         -6.07274021          7.73203072          3.56054703
     6         -5.15120489          6.16922801          5.45829193
     6         -3.75401618          3.96195711          4.88132950
     6         -2.24909082          1.76953234         -1.28021359
     1         -6.38082502          8.42897024         -0.47491990
     1         -7.13119266          9.41013121          4.06370058
     1         -5.49094019          6.63388955          7.42427003
     7         -3.56539351          3.91937211         -1.83817964
     6         -1.53905404          0.95844728         -5.85855856
     6         -1.22269987          0.20157250         -3.24381107
     6          0.07364976         -2.02599809         -2.58068590
     6          1.09620203         -3.60906125         -4.39118670
     6          0.80853274         -2.86963372         -6.94452415
     6         -0.42665549         -0.69485588         -7.73240965
     1          0.24422329         -2.47619206         -0.58768035
     1          1.60763600         -4.08401895         -8.37888134
     6          2.48140355         -6.03013755         -3.59900291
     6         -0.61381965         -0.01141229        -10.54624776
     8         -2.74072471          2.99776487         -6.46050759
     7         -2.08461161          1.39571907          1.25342063
     6         -2.76018229          2.41102980          6.83577222
     1         -3.09959045          2.92059769          8.79207781
     7         -1.42508972          0.38439842          6.39683908
     6         -0.23543425         -1.21275419          8.34202114
     6          2.26859459         -0.03525998          9.22547506
     6         -2.00873413         -1.72384497         10.57233210
     1          0.16892451         -3.00043757          7.39092073
     6          3.54624502         -1.71820858         11.20577014
     1          1.86035183          1.82687819         10.03580418
     1          3.51043051          0.25868770          7.60067620
     6         -0.71174760         -3.42189794         12.52830254
     1         -2.51220016          0.06644067         11.48089217
     1         -3.75691580         -2.58236477          9.88399123
     6          1.78207888         -2.26201483         13.43663482
     1          5.28861703         -0.81758922         11.85640536
     1          4.09388990         -3.50900959         10.31856788
     1         -1.99331226         -3.73236840         14.11979392
     1         -0.33916506         -5.27867422         11.68695656
     1          2.70679147         -3.52489000         14.78673029
     1          1.38413222         -0.49360814         14.44265074
     1         -3.72855924          4.32457133         -3.75535753
     1         -1.10698668         -0.02289929          4.52048768
     6         -3.41155660          0.19289794        -11.34081095
     1         -4.36838508          1.64383319        -10.24051820
     1         -3.54828396          0.66812862        -13.34993182
     1         -4.38018843         -1.60929349        -11.04006335
     6          0.64076006         -1.99914976        -12.25228293
     1          0.45554607         -1.41518386        -14.22553766
     1          2.65488194         -2.20745659        -11.83963323
     1         -0.25395367         -3.85134053        -12.05282946
     6          0.72461203          2.53691170        -11.01796543
     1         -0.08109594          4.00523255         -9.82110115
     1          2.74325586          2.38124952        -10.59911071
     1          0.52109113          3.09746952        -12.99917672
     6          0.66762581         -7.73073862         -2.08075835
     1          1.62583671         -9.46420266         -1.48600833
     1         -0.01779817         -6.76309584         -0.38991793
     1         -0.97195838         -8.25306488         -3.22404435
     6          4.75848073         -5.33443433         -1.91855417
     1          4.15130013         -4.29851075         -0.23821333
     1          5.75561531         -7.03757041         -1.29984989
     1          6.09291972         -4.14574969         -2.95651346
     6          3.45925392         -7.54095665         -5.87554753
     1          1.91667930         -8.15506682         -7.10549186
     1          4.78139565         -6.42992132         -7.00912256
     1          4.45354611         -9.22576880         -5.21266098

 Electric dipole moment (dipole orientation):
 (Debye = 10**-18 statcoulomb cm , SI units = C m)
                  (au)            (Debye)         (10**-30 SI)
   Tot        0.711815D+01      0.180925D+02      0.603502D+02
   x          0.000000D+00      0.000000D+00      0.000000D+00
   y          0.000000D+00      0.000000D+00      0.000000D+00
   z          0.711815D+01      0.180925D+02      0.603502D+02

 Dipole polarizability, Alpha (dipole orientation).
 (esu units = cm**3 , SI units = C**2 m**2 J**-1)
 Alpha(0;0):
               (au)            (10**-24 esu)      (10**-40 SI)
   iso        0.531107D+03      0.787020D+02      0.875677D+02
   aniso      0.423059D+03      0.626909D+02      0.697530D+02
   xx         0.368240D+03      0.545675D+02      0.607146D+02
   yx        -0.159513D+03     -0.236375D+02     -0.263002D+02
   yy         0.515732D+03      0.764236D+02      0.850327D+02
   zx        -0.435533D+02     -0.645394D+01     -0.718097D+01
   zy         0.552442D+02      0.818635D+01      0.910854D+01
   zz         0.709350D+03      0.105115D+03      0.116956D+03

 ----------------------------------------------------------------------

 This type of calculation cannot be archived.


 TERENCE, THIS IS STUPID STUFF:
 YOU EAT YOUR VICTUALS FAST ENOUGH;
 THERE CAN'T BE MUCH AMISS, 'TIS CLEAR
 TO SEE THE RATE YOU DRINK YOUR BEER.
 BUT OH, GOOD LORD, THE VERSE YOU MAKE,
 IT GIVES A CHAP THE BELLY-ACHE.
 THE COW, THE OLD COW, SHE IS DEAD;
 IT SLEEPS WELL, THE HORNED HEAD:
 WE POOR LADS, 'TIS OUR TURN NOW
 TO HEAR SUCH TUNES AS KILLED THE COW.
 PRETTY FRIENDSHIP 'TIS TO RHYME
 YOUR FRIENDS TO DEATH BEFORE THEIR TIME.
 MOPING, MELANCHOLY MAD:
 COME PIPE A TUNE TO DANCE TO, LAD.

     -- A. E. HOUSMAN
 Job cpu time:       0 days  0 hours  0 minutes  3.7 seconds.
 Elapsed time:       0 days  0 hours  0 minutes  1.1 seconds.
 File lengths (MBytes):  RWF=     72 Int=      0 D2E=      0 Chk=     72 Scr=      8
 Normal termination of Gaussian 16 at Fri Dec 21 18:09:31 2018.
