 Entering Gaussian System, Link 0=g16
 Input=cyclohexyl-diBIP-E1PT.com
 Output=cyclohexyl-diBIP-E1PT.log
 Initial command:
 /gpfs/apps/hpc/Apps/Restricted/Gaussian/Rev_A.03/g16/l1.exe "/gpfs/scratch60/fas/hammes_schiffer/jg2487/c44n01/Gau-178447.inp" -scrdir="/gpfs/scratch60/fas/hammes_schiffer/jg2487/c44n01/"
 Entering Link 1 = /gpfs/apps/hpc/Apps/Restricted/Gaussian/Rev_A.03/g16/l1.exe PID=    178448.
  
 Copyright (c) 1988,1990,1992,1993,1995,1998,2003,2009,2016,
            Gaussian, Inc.  All Rights Reserved.
  
 This is part of the Gaussian(R) 16 program.  It is based on
 the Gaussian(R) 09 system (copyright 2009, Gaussian, Inc.),
 the Gaussian(R) 03 system (copyright 2003, Gaussian, Inc.),
 the Gaussian(R) 98 system (copyright 1998, Gaussian, Inc.),
 the Gaussian(R) 94 system (copyright 1995, Gaussian, Inc.),
 the Gaussian 92(TM) system (copyright 1992, Gaussian, Inc.),
 the Gaussian 90(TM) system (copyright 1990, Gaussian, Inc.),
 the Gaussian 88(TM) system (copyright 1988, Gaussian, Inc.),
 the Gaussian 86(TM) system (copyright 1986, Carnegie Mellon
 University), and the Gaussian 82(TM) system (copyright 1983,
 Carnegie Mellon University). Gaussian is a federally registered
 trademark of Gaussian, Inc.
  
 This software contains proprietary and confidential information,
 including trade secrets, belonging to Gaussian, Inc.
  
 This software is provided under written license and may be
 used, copied, transmitted, or stored only in accord with that
 written license.
  
 The following legend is applicable only to US Government
 contracts under FAR:
  
                    RESTRICTED RIGHTS LEGEND
  
 Use, reproduction and disclosure by the US Government is
 subject to restrictions as set forth in subparagraphs (a)
 and (c) of the Commercial Computer Software - Restricted
 Rights clause in FAR 52.227-19.
  
 Gaussian, Inc.
 340 Quinnipiac St., Bldg. 40, Wallingford CT 06492
  
  
 ---------------------------------------------------------------
 Warning -- This program may not be used in any manner that
 competes with the business of Gaussian, Inc. or will provide
 assistance to any competitor of Gaussian, Inc.  The licensee
 of this program is prohibited from giving any competitor of
 Gaussian, Inc. access to this program.  By using this program,
 the user acknowledges that Gaussian, Inc. is engaged in the
 business of creating and licensing software in the field of
 computational chemistry and represents and warrants to the
 licensee that it is not a competitor of Gaussian, Inc. and that
 it will not use this program in any manner prohibited above.
 ---------------------------------------------------------------
  

 Cite this work as:
 Gaussian 16, Revision A.03,
 M. J. Frisch, G. W. Trucks, H. B. Schlegel, G. E. Scuseria, 
 M. A. Robb, J. R. Cheeseman, G. Scalmani, V. Barone, 
 G. A. Petersson, H. Nakatsuji, X. Li, M. Caricato, A. V. Marenich, 
 J. Bloino, B. G. Janesko, R. Gomperts, B. Mennucci, H. P. Hratchian, 
 J. V. Ortiz, A. F. Izmaylov, J. L. Sonnenberg, D. Williams-Young, 
 F. Ding, F. Lipparini, F. Egidi, J. Goings, B. Peng, A. Petrone, 
 T. Henderson, D. Ranasinghe, V. G. Zakrzewski, J. Gao, N. Rega, 
 G. Zheng, W. Liang, M. Hada, M. Ehara, K. Toyota, R. Fukuda, 
 J. Hasegawa, M. Ishida, T. Nakajima, Y. Honda, O. Kitao, H. Nakai, 
 T. Vreven, K. Throssell, J. A. Montgomery, Jr., J. E. Peralta, 
 F. Ogliaro, M. J. Bearpark, J. J. Heyd, E. N. Brothers, K. N. Kudin, 
 V. N. Staroverov, T. A. Keith, R. Kobayashi, J. Normand, 
 K. Raghavachari, A. P. Rendell, J. C. Burant, S. S. Iyengar, 
 J. Tomasi, M. Cossi, J. M. Millam, M. Klene, C. Adamo, R. Cammi, 
 J. W. Ochterski, R. L. Martin, K. Morokuma, O. Farkas, 
 J. B. Foresman, and D. J. Fox, Gaussian, Inc., Wallingford CT, 2016.
 
 ******************************************
 Gaussian 16:  ES64L-G16RevA.03 25-Dec-2016
                14-Dec-2018 
 ******************************************
 %chk=cyclohexyl-diBIP-E1PT.chk
 %mem=10GB
 %nprocshared=16
 Will use up to   16 processors via shared memory.
 ----------------------------------------------------------------
 #p freq(ReadFC,InternalModes) Geom(AllCheck) NoSymm scale=0.9649
 ----------------------------------------------------------------
 1/18=20,29=7,38=1,114=964900/1,3;
 2/9=110,12=2,15=1,40=1/2;
 7/8=21,25=11,30=1/16;
 99/5=2/99;
 Leave Link    1 at Fri Dec 14 13:58:36 2018, MaxMem=  1342177280 cpu:              10.6 elap:               0.7
 (Enter /gpfs/apps/hpc/Apps/Restricted/Gaussian/Rev_A.03/g16/l101.exe)
 Structure from the checkpoint file:  "cyclohexyl-diBIP-E1PT.chk"
 ----------------------------------------------------------------------
 cyclohexylimine diBIP oxidized, first proton transferred, optimization
 ----------------------------------------------------------------------
 Charge =  1 Multiplicity = 2
 Redundant internal coordinates found in file.  (old form).
 C,0,1.557551,1.101651,0.129625
 C,0,0.326278,1.794754,0.103007
 C,0,0.315448,3.193112,0.008591
 C,0,1.541555,3.848177,-0.066277
 C,0,2.757948,3.142094,-0.044879
 C,0,2.801818,1.747034,0.054584
 C,0,-0.135851,-0.313943,0.24568
 H,0,-0.619168,3.740346,-0.009058
 H,0,1.564371,4.92871,-0.141757
 H,0,3.692171,3.689561,-0.106483
 C,0,-2.2883,-1.506974,0.280029
 C,0,-3.089379,-2.659711,0.330655
 C,0,-2.524565,-3.930243,0.450199
 C,0,-1.134677,-3.985283,0.510903
 C,0,-0.330844,-2.831985,0.450149
 C,0,-0.886505,-1.555386,0.330198
 C,0,-4.416741,-0.86465,0.143433
 H,0,-3.135227,-4.821997,0.492202
 H,0,-0.651537,-4.949558,0.606008
 H,0,0.745444,-2.941417,0.502715
 N,0,-0.715074,0.884445,0.177134
 C,0,-6.908789,-0.733943,-0.093444
 C,0,-5.608083,-0.060733,0.015706
 C,0,-5.535867,1.318231,-0.014057
 C,0,-6.695261,2.109812,-0.172205
 C,0,-7.949667,1.476076,-0.303641
 C,0,-8.092472,0.105808,-0.262025
 H,0,-4.579087,1.819257,0.084691
 H,0,-8.830796,2.095509,-0.428085
 C,0,-6.57916,3.601142,-0.208177
 H,0,-6.001701,3.965135,0.646476
 H,0,-6.043276,3.917334,-1.109831
 H,0,-7.559653,4.077103,-0.204198
 C,0,-9.419691,-0.56994,-0.371326
 H,0,-9.420525,-1.294234,-1.190487
 H,0,-9.639581,-1.132851,0.541248
 H,0,-10.213233,0.159085,-0.533196
 O,0,-7.017912,-1.98406,-0.042841
 N,0,-3.140231,-0.428963,0.170293
 N,0,-4.395148,-2.209054,0.241781
 H,0,-2.768708,0.519987,0.11376
 N,0,1.232447,-0.22848,0.222584
 H,0,1.939356,-0.955324,0.240953
 C,0,4.059499,1.007427,0.076007
 H,0,4.967018,1.615747,-0.002002
 N,0,4.090247,-0.270794,0.174107
 C,0,5.415817,-0.913841,0.165256
 C,0,6.146372,-0.691375,-1.169526
 C,0,6.295263,-0.467031,1.345175
 H,0,5.235986,-1.989462,0.274442
 C,0,7.507209,-1.395596,-1.187339
 H,0,6.290469,0.386884,-1.309056
 H,0,5.516861,-1.041492,-1.993385
 C,0,7.654452,-1.175277,1.325209
 H,0,6.449704,0.616168,1.280315
 H,0,5.770321,-0.662943,2.285098
 C,0,8.380186,-0.95654,-0.006836
 H,0,8.014693,-1.192071,-2.135637
 H,0,7.353195,-2.480661,-1.135876
 H,0,8.267333,-0.820302,2.159776
 H,0,7.502466,-2.251206,1.479222
 H,0,9.330175,-1.49978,-0.015212
 H,0,8.620772,0.10862,-0.115321
 H,0,-5.274247,-2.726107,0.216577
 Recover connectivity data from disk.
 ITRead=  0  0  0  0  0  0  0  0  0  0  0  0  0  0  0  0  0  0  0  0
 ITRead=  0  0  0  0  0  0  0  0  0  0  0  0  0  0  0  0  0  0  0  0
 ITRead=  0  0  0  0  0  0  0  0  0  0  0  0  0  0  0  0  0  0  0  0
 ITRead=  0  0  0  0
 MicOpt= -1 -1 -1 -1 -1 -1 -1 -1 -1 -1 -1 -1 -1 -1 -1 -1 -1 -1 -1 -1
 MicOpt= -1 -1 -1 -1 -1 -1 -1 -1 -1 -1 -1 -1 -1 -1 -1 -1 -1 -1 -1 -1
 MicOpt= -1 -1 -1 -1 -1 -1 -1 -1 -1 -1 -1 -1 -1 -1 -1 -1 -1 -1 -1 -1
 MicOpt= -1 -1 -1 -1
 NAtoms=     64 NQM=       64 NQMF=       0 NMMI=      0 NMMIF=      0
                NMic=       0 NMicF=      0.
                    Isotopes and Nuclear Properties:
 (Nuclear quadrupole moments (NQMom) in fm**2, nuclear magnetic moments (NMagM)
  in nuclear magnetons)

  Atom         1           2           3           4           5           6           7           8           9          10
 IAtWgt=          12          12          12          12          12          12          12           1           1           1
 AtmWgt=  12.0000000  12.0000000  12.0000000  12.0000000  12.0000000  12.0000000  12.0000000   1.0078250   1.0078250   1.0078250
 NucSpn=           0           0           0           0           0           0           0           1           1           1
 AtZEff=   3.6000000   3.6000000   3.6000000   3.6000000   3.6000000   3.6000000   3.6000000   1.0000000   1.0000000   1.0000000
 NQMom=    0.0000000   0.0000000   0.0000000   0.0000000   0.0000000   0.0000000   0.0000000   0.0000000   0.0000000   0.0000000
 NMagM=    0.0000000   0.0000000   0.0000000   0.0000000   0.0000000   0.0000000   0.0000000   2.7928460   2.7928460   2.7928460
 AtZNuc=   6.0000000   6.0000000   6.0000000   6.0000000   6.0000000   6.0000000   6.0000000   1.0000000   1.0000000   1.0000000

  Atom        11          12          13          14          15          16          17          18          19          20
 IAtWgt=          12          12          12          12          12          12          12           1           1           1
 AtmWgt=  12.0000000  12.0000000  12.0000000  12.0000000  12.0000000  12.0000000  12.0000000   1.0078250   1.0078250   1.0078250
 NucSpn=           0           0           0           0           0           0           0           1           1           1
 AtZEff=   3.6000000   3.6000000   3.6000000   3.6000000   3.6000000   3.6000000   3.6000000   1.0000000   1.0000000   1.0000000
 NQMom=    0.0000000   0.0000000   0.0000000   0.0000000   0.0000000   0.0000000   0.0000000   0.0000000   0.0000000   0.0000000
 NMagM=    0.0000000   0.0000000   0.0000000   0.0000000   0.0000000   0.0000000   0.0000000   2.7928460   2.7928460   2.7928460
 AtZNuc=   6.0000000   6.0000000   6.0000000   6.0000000   6.0000000   6.0000000   6.0000000   1.0000000   1.0000000   1.0000000

  Atom        21          22          23          24          25          26          27          28          29          30
 IAtWgt=          14          12          12          12          12          12          12           1           1          12
 AtmWgt=  14.0030740  12.0000000  12.0000000  12.0000000  12.0000000  12.0000000  12.0000000   1.0078250   1.0078250  12.0000000
 NucSpn=           2           0           0           0           0           0           0           1           1           0
 AtZEff=   4.5500000   3.6000000   3.6000000   3.6000000   3.6000000   3.6000000   3.6000000   1.0000000   1.0000000   3.6000000
 NQMom=    2.0440000   0.0000000   0.0000000   0.0000000   0.0000000   0.0000000   0.0000000   0.0000000   0.0000000   0.0000000
 NMagM=    0.4037610   0.0000000   0.0000000   0.0000000   0.0000000   0.0000000   0.0000000   2.7928460   2.7928460   0.0000000
 AtZNuc=   7.0000000   6.0000000   6.0000000   6.0000000   6.0000000   6.0000000   6.0000000   1.0000000   1.0000000   6.0000000

  Atom        31          32          33          34          35          36          37          38          39          40
 IAtWgt=           1           1           1          12           1           1           1          16          14          14
 AtmWgt=   1.0078250   1.0078250   1.0078250  12.0000000   1.0078250   1.0078250   1.0078250  15.9949146  14.0030740  14.0030740
 NucSpn=           1           1           1           0           1           1           1           0           2           2
 AtZEff=   1.0000000   1.0000000   1.0000000   3.6000000   1.0000000   1.0000000   1.0000000   5.6000000   4.5500000   4.5500000
 NQMom=    0.0000000   0.0000000   0.0000000   0.0000000   0.0000000   0.0000000   0.0000000   0.0000000   2.0440000   2.0440000
 NMagM=    2.7928460   2.7928460   2.7928460   0.0000000   2.7928460   2.7928460   2.7928460   0.0000000   0.4037610   0.4037610
 AtZNuc=   1.0000000   1.0000000   1.0000000   6.0000000   1.0000000   1.0000000   1.0000000   8.0000000   7.0000000   7.0000000

  Atom        41          42          43          44          45          46          47          48          49          50
 IAtWgt=           1          14           1          12           1          14          12          12          12           1
 AtmWgt=   1.0078250  14.0030740   1.0078250  12.0000000   1.0078250  14.0030740  12.0000000  12.0000000  12.0000000   1.0078250
 NucSpn=           1           2           1           0           1           2           0           0           0           1
 AtZEff=   1.0000000   4.5500000   1.0000000   3.6000000   1.0000000   4.5500000   3.6000000   3.6000000   3.6000000   1.0000000
 NQMom=    0.0000000   2.0440000   0.0000000   0.0000000   0.0000000   2.0440000   0.0000000   0.0000000   0.0000000   0.0000000
 NMagM=    2.7928460   0.4037610   2.7928460   0.0000000   2.7928460   0.4037610   0.0000000   0.0000000   0.0000000   2.7928460
 AtZNuc=   1.0000000   7.0000000   1.0000000   6.0000000   1.0000000   7.0000000   6.0000000   6.0000000   6.0000000   1.0000000

  Atom        51          52          53          54          55          56          57          58          59          60
 IAtWgt=          12           1           1          12           1           1          12           1           1           1
 AtmWgt=  12.0000000   1.0078250   1.0078250  12.0000000   1.0078250   1.0078250  12.0000000   1.0078250   1.0078250   1.0078250
 NucSpn=           0           1           1           0           1           1           0           1           1           1
 AtZEff=   3.6000000   1.0000000   1.0000000   3.6000000   1.0000000   1.0000000   3.6000000   1.0000000   1.0000000   1.0000000
 NQMom=    0.0000000   0.0000000   0.0000000   0.0000000   0.0000000   0.0000000   0.0000000   0.0000000   0.0000000   0.0000000
 NMagM=    0.0000000   2.7928460   2.7928460   0.0000000   2.7928460   2.7928460   0.0000000   2.7928460   2.7928460   2.7928460
 AtZNuc=   6.0000000   1.0000000   1.0000000   6.0000000   1.0000000   1.0000000   6.0000000   1.0000000   1.0000000   1.0000000

  Atom        61          62          63          64
 IAtWgt=           1           1           1           1
 AtmWgt=   1.0078250   1.0078250   1.0078250   1.0078250
 NucSpn=           1           1           1           1
 AtZEff=   1.0000000   1.0000000   1.0000000   1.0000000
 NQMom=    0.0000000   0.0000000   0.0000000   0.0000000
 NMagM=    2.7928460   2.7928460   2.7928460   2.7928460
 AtZNuc=   1.0000000   1.0000000   1.0000000   1.0000000
 Leave Link  101 at Fri Dec 14 13:58:37 2018, MaxMem=  1342177280 cpu:               7.2 elap:               0.5
 (Enter /gpfs/apps/hpc/Apps/Restricted/Gaussian/Rev_A.03/g16/l103.exe)

 GradGradGradGradGradGradGradGradGradGradGradGradGradGradGradGradGradGrad
 Berny optimization.
 Initialization pass.
                           ----------------------------
                           !    Initial Parameters    !
                           ! (Angstroms and Degrees)  !
 --------------------------                            --------------------------
 ! Name  Definition              Value          Derivative Info.                !
 --------------------------------------------------------------------------------
 ! R1    R(1,2)                  1.4132         estimate D2E/DX2                !
 ! R2    R(1,6)                  1.4037         estimate D2E/DX2                !
 ! R3    R(1,42)                 1.3724         estimate D2E/DX2                !
 ! R4    R(2,3)                  1.4016         estimate D2E/DX2                !
 ! R5    R(2,21)                 1.3851         estimate D2E/DX2                !
 ! R6    R(3,4)                  1.3921         estimate D2E/DX2                !
 ! R7    R(3,8)                  1.0832         estimate D2E/DX2                !
 ! R8    R(4,5)                  1.4066         estimate D2E/DX2                !
 ! R9    R(4,9)                  1.0834         estimate D2E/DX2                !
 ! R10   R(5,6)                  1.3993         estimate D2E/DX2                !
 ! R11   R(5,10)                 1.0846         estimate D2E/DX2                !
 ! R12   R(6,44)                 1.4592         estimate D2E/DX2                !
 ! R13   R(7,16)                 1.4532         estimate D2E/DX2                !
 ! R14   R(7,21)                 1.3328         estimate D2E/DX2                !
 ! R15   R(7,42)                 1.3712         estimate D2E/DX2                !
 ! R16   R(11,12)                1.4047         estimate D2E/DX2                !
 ! R17   R(11,16)                1.4035         estimate D2E/DX2                !
 ! R18   R(11,39)                1.3784         estimate D2E/DX2                !
 ! R19   R(12,13)                1.3955         estimate D2E/DX2                !
 ! R20   R(12,40)                1.3842         estimate D2E/DX2                !
 ! R21   R(13,14)                1.3923         estimate D2E/DX2                !
 ! R22   R(13,18)                1.0816         estimate D2E/DX2                !
 ! R23   R(14,15)                1.4071         estimate D2E/DX2                !
 ! R24   R(14,19)                1.0827         estimate D2E/DX2                !
 ! R25   R(15,16)                1.3974         estimate D2E/DX2                !
 ! R26   R(15,20)                1.0831         estimate D2E/DX2                !
 ! R27   R(17,23)                1.4429         estimate D2E/DX2                !
 ! R28   R(17,39)                1.3491         estimate D2E/DX2                !
 ! R29   R(17,40)                1.3482         estimate D2E/DX2                !
 ! R30   R(22,23)                1.4687         estimate D2E/DX2                !
 ! R31   R(22,27)                1.4611         estimate D2E/DX2                !
 ! R32   R(22,38)                1.2559         estimate D2E/DX2                !
 ! R33   R(23,24)                1.3812         estimate D2E/DX2                !
 ! R34   R(24,25)                1.4127         estimate D2E/DX2                !
 ! R35   R(24,28)                1.0845         estimate D2E/DX2                !
 ! R36   R(25,26)                1.4115         estimate D2E/DX2                !
 ! R37   R(25,30)                1.4963         estimate D2E/DX2                !
 ! R38   R(26,27)                1.3783         estimate D2E/DX2                !
 ! R39   R(26,29)                1.0842         estimate D2E/DX2                !
 ! R40   R(27,34)                1.4933         estimate D2E/DX2                !
 ! R41   R(30,31)                1.0938         estimate D2E/DX2                !
 ! R42   R(30,32)                1.0955         estimate D2E/DX2                !
 ! R43   R(30,33)                1.0899         estimate D2E/DX2                !
 ! R44   R(34,35)                1.0934         estimate D2E/DX2                !
 ! R45   R(34,36)                1.0945         estimate D2E/DX2                !
 ! R46   R(34,37)                1.0897         estimate D2E/DX2                !
 ! R47   R(39,41)                1.0207         estimate D2E/DX2                !
 ! R48   R(40,64)                1.0202         estimate D2E/DX2                !
 ! R49   R(42,43)                1.0141         estimate D2E/DX2                !
 ! R50   R(44,45)                1.0953         estimate D2E/DX2                !
 ! R51   R(44,46)                1.2823         estimate D2E/DX2                !
 ! R52   R(46,47)                1.4733         estimate D2E/DX2                !
 ! R53   R(47,48)                1.5378         estimate D2E/DX2                !
 ! R54   R(47,49)                1.5379         estimate D2E/DX2                !
 ! R55   R(47,50)                1.096          estimate D2E/DX2                !
 ! R56   R(48,51)                1.5324         estimate D2E/DX2                !
 ! R57   R(48,52)                1.0968         estimate D2E/DX2                !
 ! R58   R(48,53)                1.0944         estimate D2E/DX2                !
 ! R59   R(49,54)                1.5328         estimate D2E/DX2                !
 ! R60   R(49,55)                1.0961         estimate D2E/DX2                !
 ! R61   R(49,56)                1.0943         estimate D2E/DX2                !
 ! R62   R(51,57)                1.5325         estimate D2E/DX2                !
 ! R63   R(51,58)                1.0946         estimate D2E/DX2                !
 ! R64   R(51,59)                1.0971         estimate D2E/DX2                !
 ! R65   R(54,57)                1.5326         estimate D2E/DX2                !
 ! R66   R(54,60)                1.0946         estimate D2E/DX2                !
 ! R67   R(54,61)                1.0975         estimate D2E/DX2                !
 ! R68   R(57,62)                1.0944         estimate D2E/DX2                !
 ! R69   R(57,63)                1.0974         estimate D2E/DX2                !
 ! A1    A(2,1,6)              123.0799         estimate D2E/DX2                !
 ! A2    A(2,1,42)             105.6774         estimate D2E/DX2                !
 ! A3    A(6,1,42)             131.2389         estimate D2E/DX2                !
 ! A4    A(1,2,3)              119.823          estimate D2E/DX2                !
 ! A5    A(1,2,21)             109.3716         estimate D2E/DX2                !
 ! A6    A(3,2,21)             130.805          estimate D2E/DX2                !
 ! A7    A(2,3,4)              117.7931         estimate D2E/DX2                !
 ! A8    A(2,3,8)              120.7846         estimate D2E/DX2                !
 ! A9    A(4,3,8)              121.4219         estimate D2E/DX2                !
 ! A10   A(3,4,5)              121.6415         estimate D2E/DX2                !
 ! A11   A(3,4,9)              119.4453         estimate D2E/DX2                !
 ! A12   A(5,4,9)              118.9131         estimate D2E/DX2                !
 ! A13   A(4,5,6)              121.9137         estimate D2E/DX2                !
 ! A14   A(4,5,10)             119.3823         estimate D2E/DX2                !
 ! A15   A(6,5,10)             118.704          estimate D2E/DX2                !
 ! A16   A(1,6,5)              115.7468         estimate D2E/DX2                !
 ! A17   A(1,6,44)             122.0179         estimate D2E/DX2                !
 ! A18   A(5,6,44)             122.2351         estimate D2E/DX2                !
 ! A19   A(16,7,21)            123.1363         estimate D2E/DX2                !
 ! A20   A(16,7,42)            124.7292         estimate D2E/DX2                !
 ! A21   A(21,7,42)            112.1342         estimate D2E/DX2                !
 ! A22   A(12,11,16)           122.6835         estimate D2E/DX2                !
 ! A23   A(12,11,39)           106.9899         estimate D2E/DX2                !
 ! A24   A(16,11,39)           130.3252         estimate D2E/DX2                !
 ! A25   A(11,12,13)           121.2923         estimate D2E/DX2                !
 ! A26   A(11,12,40)           105.5744         estimate D2E/DX2                !
 ! A27   A(13,12,40)           133.1332         estimate D2E/DX2                !
 ! A28   A(12,13,14)           116.3433         estimate D2E/DX2                !
 ! A29   A(12,13,18)           121.6973         estimate D2E/DX2                !
 ! A30   A(14,13,18)           121.9594         estimate D2E/DX2                !
 ! A31   A(13,14,15)           122.4114         estimate D2E/DX2                !
 ! A32   A(13,14,19)           118.979          estimate D2E/DX2                !
 ! A33   A(15,14,19)           118.6095         estimate D2E/DX2                !
 ! A34   A(14,15,16)           121.6886         estimate D2E/DX2                !
 ! A35   A(14,15,20)           118.866          estimate D2E/DX2                !
 ! A36   A(16,15,20)           119.4448         estimate D2E/DX2                !
 ! A37   A(7,16,11)            118.971          estimate D2E/DX2                !
 ! A38   A(7,16,15)            125.4507         estimate D2E/DX2                !
 ! A39   A(11,16,15)           115.5764         estimate D2E/DX2                !
 ! A40   A(23,17,39)           127.0909         estimate D2E/DX2                !
 ! A41   A(23,17,40)           125.1198         estimate D2E/DX2                !
 ! A42   A(39,17,40)           107.7847         estimate D2E/DX2                !
 ! A43   A(2,21,7)             105.4828         estimate D2E/DX2                !
 ! A44   A(23,22,27)           117.5564         estimate D2E/DX2                !
 ! A45   A(23,22,38)           122.0213         estimate D2E/DX2                !
 ! A46   A(27,22,38)           120.4221         estimate D2E/DX2                !
 ! A47   A(17,23,22)           118.8445         estimate D2E/DX2                !
 ! A48   A(17,23,24)           120.998          estimate D2E/DX2                !
 ! A49   A(22,23,24)           120.156          estimate D2E/DX2                !
 ! A50   A(23,24,25)           121.2602         estimate D2E/DX2                !
 ! A51   A(23,24,28)           120.358          estimate D2E/DX2                !
 ! A52   A(25,24,28)           118.3818         estimate D2E/DX2                !
 ! A53   A(24,25,26)           119.2209         estimate D2E/DX2                !
 ! A54   A(24,25,30)           119.8335         estimate D2E/DX2                !
 ! A55   A(26,25,30)           120.9442         estimate D2E/DX2                !
 ! A56   A(25,26,27)           122.3853         estimate D2E/DX2                !
 ! A57   A(25,26,29)           118.4502         estimate D2E/DX2                !
 ! A58   A(27,26,29)           119.1591         estimate D2E/DX2                !
 ! A59   A(22,27,26)           119.4025         estimate D2E/DX2                !
 ! A60   A(22,27,34)           117.9299         estimate D2E/DX2                !
 ! A61   A(26,27,34)           122.6656         estimate D2E/DX2                !
 ! A62   A(25,30,31)           110.7236         estimate D2E/DX2                !
 ! A63   A(25,30,32)           110.2072         estimate D2E/DX2                !
 ! A64   A(25,30,33)           111.4298         estimate D2E/DX2                !
 ! A65   A(31,30,32)           106.7863         estimate D2E/DX2                !
 ! A66   A(31,30,33)           109.0724         estimate D2E/DX2                !
 ! A67   A(32,30,33)           108.4827         estimate D2E/DX2                !
 ! A68   A(27,34,35)           110.8086         estimate D2E/DX2                !
 ! A69   A(27,34,36)           110.5022         estimate D2E/DX2                !
 ! A70   A(27,34,37)           110.8153         estimate D2E/DX2                !
 ! A71   A(35,34,36)           106.4867         estimate D2E/DX2                !
 ! A72   A(35,34,37)           109.349          estimate D2E/DX2                !
 ! A73   A(36,34,37)           108.7614         estimate D2E/DX2                !
 ! A74   A(11,39,17)           109.5013         estimate D2E/DX2                !
 ! A75   A(11,39,41)           120.4358         estimate D2E/DX2                !
 ! A76   A(17,39,41)           130.0596         estimate D2E/DX2                !
 ! A77   A(12,40,17)           110.1485         estimate D2E/DX2                !
 ! A78   A(12,40,64)           130.5002         estimate D2E/DX2                !
 ! A79   A(17,40,64)           119.3274         estimate D2E/DX2                !
 ! A80   A(1,42,7)             107.3336         estimate D2E/DX2                !
 ! A81   A(1,42,43)            122.0566         estimate D2E/DX2                !
 ! A82   A(7,42,43)            130.5913         estimate D2E/DX2                !
 ! A83   A(6,44,45)            115.5676         estimate D2E/DX2                !
 ! A84   A(6,44,46)            121.8043         estimate D2E/DX2                !
 ! A85   A(45,44,46)           122.6274         estimate D2E/DX2                !
 ! A86   A(44,46,47)           117.1399         estimate D2E/DX2                !
 ! A87   A(46,47,48)           111.6843         estimate D2E/DX2                !
 ! A88   A(46,47,49)           112.524          estimate D2E/DX2                !
 ! A89   A(46,47,50)           106.2673         estimate D2E/DX2                !
 ! A90   A(48,47,49)           110.6239         estimate D2E/DX2                !
 ! A91   A(48,47,50)           107.8419         estimate D2E/DX2                !
 ! A92   A(49,47,50)           107.6088         estimate D2E/DX2                !
 ! A93   A(47,48,51)           111.4381         estimate D2E/DX2                !
 ! A94   A(47,48,52)           108.3648         estimate D2E/DX2                !
 ! A95   A(47,48,53)           109.5046         estimate D2E/DX2                !
 ! A96   A(51,48,52)           109.491          estimate D2E/DX2                !
 ! A97   A(51,48,53)           110.7976         estimate D2E/DX2                !
 ! A98   A(52,48,53)           107.1178         estimate D2E/DX2                !
 ! A99   A(47,49,54)           111.2745         estimate D2E/DX2                !
 ! A100  A(47,49,55)           108.8012         estimate D2E/DX2                !
 ! A101  A(47,49,56)           109.4304         estimate D2E/DX2                !
 ! A102  A(54,49,55)           109.3248         estimate D2E/DX2                !
 ! A103  A(54,49,56)           110.7234         estimate D2E/DX2                !
 ! A104  A(55,49,56)           107.1789         estimate D2E/DX2                !
 ! A105  A(48,51,57)           111.4242         estimate D2E/DX2                !
 ! A106  A(48,51,58)           109.654          estimate D2E/DX2                !
 ! A107  A(48,51,59)           109.2261         estimate D2E/DX2                !
 ! A108  A(57,51,58)           110.4861         estimate D2E/DX2                !
 ! A109  A(57,51,59)           109.0978         estimate D2E/DX2                !
 ! A110  A(58,51,59)           106.8338         estimate D2E/DX2                !
 ! A111  A(49,54,57)           111.4246         estimate D2E/DX2                !
 ! A112  A(49,54,60)           109.6776         estimate D2E/DX2                !
 ! A113  A(49,54,61)           109.1696         estimate D2E/DX2                !
 ! A114  A(57,54,60)           110.5637         estimate D2E/DX2                !
 ! A115  A(57,54,61)           109.1152         estimate D2E/DX2                !
 ! A116  A(60,54,61)           106.7668         estimate D2E/DX2                !
 ! A117  A(51,57,54)           111.0316         estimate D2E/DX2                !
 ! A118  A(51,57,62)           110.2663         estimate D2E/DX2                !
 ! A119  A(51,57,63)           109.0765         estimate D2E/DX2                !
 ! A120  A(54,57,62)           110.2954         estimate D2E/DX2                !
 ! A121  A(54,57,63)           109.1639         estimate D2E/DX2                !
 ! A122  A(62,57,63)           106.903          estimate D2E/DX2                !
 ! D1    D(6,1,2,3)             -0.5298         estimate D2E/DX2                !
 ! D2    D(6,1,2,21)           179.2693         estimate D2E/DX2                !
 ! D3    D(42,1,2,3)          -179.8974         estimate D2E/DX2                !
 ! D4    D(42,1,2,21)           -0.0984         estimate D2E/DX2                !
 ! D5    D(2,1,6,5)              0.2396         estimate D2E/DX2                !
 ! D6    D(2,1,6,44)          -179.6232         estimate D2E/DX2                !
 ! D7    D(42,1,6,5)           179.4299         estimate D2E/DX2                !
 ! D8    D(42,1,6,44)           -0.4328         estimate D2E/DX2                !
 ! D9    D(2,1,42,7)             0.1689         estimate D2E/DX2                !
 ! D10   D(2,1,42,43)          178.7596         estimate D2E/DX2                !
 ! D11   D(6,1,42,7)          -179.1265         estimate D2E/DX2                !
 ! D12   D(6,1,42,43)           -0.5358         estimate D2E/DX2                !
 ! D13   D(1,2,3,4)              0.4814         estimate D2E/DX2                !
 ! D14   D(1,2,3,8)           -179.7552         estimate D2E/DX2                !
 ! D15   D(21,2,3,4)          -179.2682         estimate D2E/DX2                !
 ! D16   D(21,2,3,8)             0.4952         estimate D2E/DX2                !
 ! D17   D(1,2,21,7)            -0.0137         estimate D2E/DX2                !
 ! D18   D(3,2,21,7)           179.756          estimate D2E/DX2                !
 ! D19   D(2,3,4,5)             -0.1841         estimate D2E/DX2                !
 ! D20   D(2,3,4,9)            179.8942         estimate D2E/DX2                !
 ! D21   D(8,3,4,5)           -179.9459         estimate D2E/DX2                !
 ! D22   D(8,3,4,9)              0.1324         estimate D2E/DX2                !
 ! D23   D(3,4,5,6)             -0.0989         estimate D2E/DX2                !
 ! D24   D(3,4,5,10)           179.9306         estimate D2E/DX2                !
 ! D25   D(9,4,5,6)            179.8232         estimate D2E/DX2                !
 ! D26   D(9,4,5,10)            -0.1473         estimate D2E/DX2                !
 ! D27   D(4,5,6,1)              0.0733         estimate D2E/DX2                !
 ! D28   D(4,5,6,44)           179.9357         estimate D2E/DX2                !
 ! D29   D(10,5,6,1)          -179.9561         estimate D2E/DX2                !
 ! D30   D(10,5,6,44)           -0.0937         estimate D2E/DX2                !
 ! D31   D(1,6,44,45)          179.21           estimate D2E/DX2                !
 ! D32   D(1,6,44,46)           -0.4989         estimate D2E/DX2                !
 ! D33   D(5,6,44,45)           -0.6439         estimate D2E/DX2                !
 ! D34   D(5,6,44,46)          179.6473         estimate D2E/DX2                !
 ! D35   D(21,7,16,11)           2.8506         estimate D2E/DX2                !
 ! D36   D(21,7,16,15)        -177.6727         estimate D2E/DX2                !
 ! D37   D(42,7,16,11)        -176.9409         estimate D2E/DX2                !
 ! D38   D(42,7,16,15)           2.5358         estimate D2E/DX2                !
 ! D39   D(16,7,21,2)         -179.6897         estimate D2E/DX2                !
 ! D40   D(42,7,21,2)            0.1253         estimate D2E/DX2                !
 ! D41   D(16,7,42,1)          179.6206         estimate D2E/DX2                !
 ! D42   D(16,7,42,43)           1.1936         estimate D2E/DX2                !
 ! D43   D(21,7,42,1)           -0.1909         estimate D2E/DX2                !
 ! D44   D(21,7,42,43)        -178.6179         estimate D2E/DX2                !
 ! D45   D(16,11,12,13)          0.7326         estimate D2E/DX2                !
 ! D46   D(16,11,12,40)       -179.3616         estimate D2E/DX2                !
 ! D47   D(39,11,12,13)       -179.6491         estimate D2E/DX2                !
 ! D48   D(39,11,12,40)          0.2567         estimate D2E/DX2                !
 ! D49   D(12,11,16,7)         178.8204         estimate D2E/DX2                !
 ! D50   D(12,11,16,15)         -0.7069         estimate D2E/DX2                !
 ! D51   D(39,11,16,7)          -0.7008         estimate D2E/DX2                !
 ! D52   D(39,11,16,15)        179.7718         estimate D2E/DX2                !
 ! D53   D(12,11,39,17)         -0.3615         estimate D2E/DX2                !
 ! D54   D(12,11,39,41)       -179.764          estimate D2E/DX2                !
 ! D55   D(16,11,39,17)        179.2172         estimate D2E/DX2                !
 ! D56   D(16,11,39,41)         -0.1853         estimate D2E/DX2                !
 ! D57   D(11,12,13,14)         -0.2102         estimate D2E/DX2                !
 ! D58   D(11,12,13,18)        179.8486         estimate D2E/DX2                !
 ! D59   D(40,12,13,14)        179.9142         estimate D2E/DX2                !
 ! D60   D(40,12,13,18)         -0.027          estimate D2E/DX2                !
 ! D61   D(11,12,40,17)         -0.0669         estimate D2E/DX2                !
 ! D62   D(11,12,40,64)        178.1059         estimate D2E/DX2                !
 ! D63   D(13,12,40,17)        179.8228         estimate D2E/DX2                !
 ! D64   D(13,12,40,64)         -2.0044         estimate D2E/DX2                !
 ! D65   D(12,13,14,15)         -0.2776         estimate D2E/DX2                !
 ! D66   D(12,13,14,19)        179.8697         estimate D2E/DX2                !
 ! D67   D(18,13,14,15)        179.6634         estimate D2E/DX2                !
 ! D68   D(18,13,14,19)         -0.1893         estimate D2E/DX2                !
 ! D69   D(13,14,15,16)          0.2783         estimate D2E/DX2                !
 ! D70   D(13,14,15,20)        179.9907         estimate D2E/DX2                !
 ! D71   D(19,14,15,16)       -179.8686         estimate D2E/DX2                !
 ! D72   D(19,14,15,20)         -0.1561         estimate D2E/DX2                !
 ! D73   D(14,15,16,7)        -179.2795         estimate D2E/DX2                !
 ! D74   D(14,15,16,11)          0.2129         estimate D2E/DX2                !
 ! D75   D(20,15,16,7)           1.0097         estimate D2E/DX2                !
 ! D76   D(20,15,16,11)       -179.4979         estimate D2E/DX2                !
 ! D77   D(39,17,23,22)        175.5088         estimate D2E/DX2                !
 ! D78   D(39,17,23,24)         -4.0282         estimate D2E/DX2                !
 ! D79   D(40,17,23,22)         -3.6254         estimate D2E/DX2                !
 ! D80   D(40,17,23,24)        176.8376         estimate D2E/DX2                !
 ! D81   D(23,17,39,11)       -178.9349         estimate D2E/DX2                !
 ! D82   D(23,17,39,41)          0.3921         estimate D2E/DX2                !
 ! D83   D(40,17,39,11)          0.3214         estimate D2E/DX2                !
 ! D84   D(40,17,39,41)        179.6484         estimate D2E/DX2                !
 ! D85   D(23,17,40,12)        179.1204         estimate D2E/DX2                !
 ! D86   D(23,17,40,64)          0.714          estimate D2E/DX2                !
 ! D87   D(39,17,40,12)         -0.1543         estimate D2E/DX2                !
 ! D88   D(39,17,40,64)       -178.5608         estimate D2E/DX2                !
 ! D89   D(27,22,23,17)       -178.2            estimate D2E/DX2                !
 ! D90   D(27,22,23,24)          1.341          estimate D2E/DX2                !
 ! D91   D(38,22,23,17)          1.9521         estimate D2E/DX2                !
 ! D92   D(38,22,23,24)       -178.5069         estimate D2E/DX2                !
 ! D93   D(23,22,27,26)         -0.3891         estimate D2E/DX2                !
 ! D94   D(23,22,27,34)       -179.8876         estimate D2E/DX2                !
 ! D95   D(38,22,27,26)        179.4613         estimate D2E/DX2                !
 ! D96   D(38,22,27,34)         -0.0371         estimate D2E/DX2                !
 ! D97   D(17,23,24,25)        178.4124         estimate D2E/DX2                !
 ! D98   D(17,23,24,28)         -1.603          estimate D2E/DX2                !
 ! D99   D(22,23,24,25)         -1.1186         estimate D2E/DX2                !
 ! D100  D(22,23,24,28)        178.8661         estimate D2E/DX2                !
 ! D101  D(23,24,25,26)         -0.0766         estimate D2E/DX2                !
 ! D102  D(23,24,25,30)       -179.6386         estimate D2E/DX2                !
 ! D103  D(28,24,25,26)        179.9384         estimate D2E/DX2                !
 ! D104  D(28,24,25,30)          0.3765         estimate D2E/DX2                !
 ! D105  D(24,25,26,27)          1.0761         estimate D2E/DX2                !
 ! D106  D(24,25,26,29)       -179.7746         estimate D2E/DX2                !
 ! D107  D(30,25,26,27)       -179.3669         estimate D2E/DX2                !
 ! D108  D(30,25,26,29)         -0.2176         estimate D2E/DX2                !
 ! D109  D(24,25,30,31)        -51.0257         estimate D2E/DX2                !
 ! D110  D(24,25,30,32)         66.8976         estimate D2E/DX2                !
 ! D111  D(24,25,30,33)       -172.6139         estimate D2E/DX2                !
 ! D112  D(26,25,30,31)        129.42           estimate D2E/DX2                !
 ! D113  D(26,25,30,32)       -112.6566         estimate D2E/DX2                !
 ! D114  D(26,25,30,33)          7.8319         estimate D2E/DX2                !
 ! D115  D(25,26,27,22)         -0.808          estimate D2E/DX2                !
 ! D116  D(25,26,27,34)        178.6657         estimate D2E/DX2                !
 ! D117  D(29,26,27,22)       -179.9514         estimate D2E/DX2                !
 ! D118  D(29,26,27,34)         -0.4778         estimate D2E/DX2                !
 ! D119  D(22,27,34,35)        -56.149          estimate D2E/DX2                !
 ! D120  D(22,27,34,36)         61.6411         estimate D2E/DX2                !
 ! D121  D(22,27,34,37)       -177.7276         estimate D2E/DX2                !
 ! D122  D(26,27,34,35)        124.3701         estimate D2E/DX2                !
 ! D123  D(26,27,34,36)       -117.8399         estimate D2E/DX2                !
 ! D124  D(26,27,34,37)          2.7914         estimate D2E/DX2                !
 ! D125  D(6,44,46,47)         179.0914         estimate D2E/DX2                !
 ! D126  D(45,44,46,47)         -0.5967         estimate D2E/DX2                !
 ! D127  D(44,46,47,48)        -63.5939         estimate D2E/DX2                !
 ! D128  D(44,46,47,49)         61.5239         estimate D2E/DX2                !
 ! D129  D(44,46,47,50)        179.051          estimate D2E/DX2                !
 ! D130  D(46,47,48,51)       -178.3903         estimate D2E/DX2                !
 ! D131  D(46,47,48,52)         61.0758         estimate D2E/DX2                !
 ! D132  D(46,47,48,53)        -55.45           estimate D2E/DX2                !
 ! D133  D(49,47,48,51)         55.4441         estimate D2E/DX2                !
 ! D134  D(49,47,48,52)        -65.0898         estimate D2E/DX2                !
 ! D135  D(49,47,48,53)        178.3844         estimate D2E/DX2                !
 ! D136  D(50,47,48,51)        -61.9882         estimate D2E/DX2                !
 ! D137  D(50,47,48,52)        177.4778         estimate D2E/DX2                !
 ! D138  D(50,47,48,53)         60.9521         estimate D2E/DX2                !
 ! D139  D(46,47,49,54)        178.7688         estimate D2E/DX2                !
 ! D140  D(46,47,49,55)        -60.7204         estimate D2E/DX2                !
 ! D141  D(46,47,49,56)         56.0838         estimate D2E/DX2                !
 ! D142  D(48,47,49,54)        -55.5363         estimate D2E/DX2                !
 ! D143  D(48,47,49,55)         64.9746         estimate D2E/DX2                !
 ! D144  D(48,47,49,56)       -178.2212         estimate D2E/DX2                !
 ! D145  D(50,47,49,54)         62.0392         estimate D2E/DX2                !
 ! D146  D(50,47,49,55)       -177.45           estimate D2E/DX2                !
 ! D147  D(50,47,49,56)        -60.6458         estimate D2E/DX2                !
 ! D148  D(47,48,51,57)        -55.558          estimate D2E/DX2                !
 ! D149  D(47,48,51,58)       -178.1977         estimate D2E/DX2                !
 ! D150  D(47,48,51,59)         65.0439         estimate D2E/DX2                !
 ! D151  D(52,48,51,57)         64.3124         estimate D2E/DX2                !
 ! D152  D(52,48,51,58)        -58.3273         estimate D2E/DX2                !
 ! D153  D(52,48,51,59)       -175.0857         estimate D2E/DX2                !
 ! D154  D(53,48,51,57)       -177.7556         estimate D2E/DX2                !
 ! D155  D(53,48,51,58)         59.6048         estimate D2E/DX2                !
 ! D156  D(53,48,51,59)        -57.1537         estimate D2E/DX2                !
 ! D157  D(47,49,54,57)         55.8389         estimate D2E/DX2                !
 ! D158  D(47,49,54,60)        178.5937         estimate D2E/DX2                !
 ! D159  D(47,49,54,61)        -64.7477         estimate D2E/DX2                !
 ! D160  D(55,49,54,57)        -64.363          estimate D2E/DX2                !
 ! D161  D(55,49,54,60)         58.3918         estimate D2E/DX2                !
 ! D162  D(55,49,54,61)        175.0504         estimate D2E/DX2                !
 ! D163  D(56,49,54,57)        177.7766         estimate D2E/DX2                !
 ! D164  D(56,49,54,60)        -59.4685         estimate D2E/DX2                !
 ! D165  D(56,49,54,61)         57.1901         estimate D2E/DX2                !
 ! D166  D(48,51,57,54)         55.1805         estimate D2E/DX2                !
 ! D167  D(48,51,57,62)        177.7358         estimate D2E/DX2                !
 ! D168  D(48,51,57,63)        -65.1579         estimate D2E/DX2                !
 ! D169  D(58,51,57,54)        177.3412         estimate D2E/DX2                !
 ! D170  D(58,51,57,62)        -60.1036         estimate D2E/DX2                !
 ! D171  D(58,51,57,63)         57.0028         estimate D2E/DX2                !
 ! D172  D(59,51,57,54)        -65.4967         estimate D2E/DX2                !
 ! D173  D(59,51,57,62)         57.0586         estimate D2E/DX2                !
 ! D174  D(59,51,57,63)        174.1649         estimate D2E/DX2                !
 ! D175  D(49,54,57,51)        -55.366          estimate D2E/DX2                !
 ! D176  D(49,54,57,62)       -177.9044         estimate D2E/DX2                !
 ! D177  D(49,54,57,63)         64.9206         estimate D2E/DX2                !
 ! D178  D(60,54,57,51)       -177.6112         estimate D2E/DX2                !
 ! D179  D(60,54,57,62)         59.8503         estimate D2E/DX2                !
 ! D180  D(60,54,57,63)        -57.3247         estimate D2E/DX2                !
 ! D181  D(61,54,57,51)         65.2525         estimate D2E/DX2                !
 ! D182  D(61,54,57,62)        -57.286          estimate D2E/DX2                !
 ! D183  D(61,54,57,63)       -174.461          estimate D2E/DX2                !
 --------------------------------------------------------------------------------
 Trust Radius=3.00D-01 FncErr=1.00D-07 GrdErr=1.00D-07 EigMax=2.50D+02 EigMin=1.00D-04
 Number of steps in this run=    384 maximum allowed number of steps=    384.
 GradGradGradGradGradGradGradGradGradGradGradGradGradGradGradGradGradGrad

 Leave Link  103 at Fri Dec 14 13:58:37 2018, MaxMem=  1342177280 cpu:               0.6 elap:               0.1
 (Enter /gpfs/apps/hpc/Apps/Restricted/Gaussian/Rev_A.03/g16/l202.exe)
 Symmetry turned off by external request.
 Stoichiometry    C29H29N5O(1+,2)
 Framework group  C1[X(C29H29N5O)]
 Deg. of freedom   186
 Full point group                 C1      NOp   1
                          Input orientation:                          
 ---------------------------------------------------------------------
 Center     Atomic      Atomic             Coordinates (Angstroms)
 Number     Number       Type             X           Y           Z
 ---------------------------------------------------------------------
      1          6           0        1.557551    1.101651    0.129625
      2          6           0        0.326278    1.794754    0.103007
      3          6           0        0.315448    3.193112    0.008591
      4          6           0        1.541555    3.848177   -0.066277
      5          6           0        2.757948    3.142094   -0.044879
      6          6           0        2.801818    1.747034    0.054584
      7          6           0       -0.135851   -0.313943    0.245680
      8          1           0       -0.619168    3.740346   -0.009058
      9          1           0        1.564371    4.928710   -0.141757
     10          1           0        3.692171    3.689561   -0.106483
     11          6           0       -2.288300   -1.506974    0.280029
     12          6           0       -3.089379   -2.659711    0.330655
     13          6           0       -2.524565   -3.930243    0.450199
     14          6           0       -1.134677   -3.985283    0.510903
     15          6           0       -0.330844   -2.831985    0.450149
     16          6           0       -0.886505   -1.555386    0.330198
     17          6           0       -4.416741   -0.864650    0.143433
     18          1           0       -3.135227   -4.821997    0.492202
     19          1           0       -0.651537   -4.949558    0.606008
     20          1           0        0.745444   -2.941417    0.502715
     21          7           0       -0.715074    0.884445    0.177134
     22          6           0       -6.908789   -0.733943   -0.093444
     23          6           0       -5.608083   -0.060733    0.015706
     24          6           0       -5.535867    1.318231   -0.014057
     25          6           0       -6.695261    2.109812   -0.172205
     26          6           0       -7.949667    1.476076   -0.303641
     27          6           0       -8.092472    0.105808   -0.262025
     28          1           0       -4.579087    1.819257    0.084691
     29          1           0       -8.830796    2.095509   -0.428085
     30          6           0       -6.579160    3.601142   -0.208177
     31          1           0       -6.001701    3.965135    0.646476
     32          1           0       -6.043276    3.917334   -1.109831
     33          1           0       -7.559653    4.077103   -0.204198
     34          6           0       -9.419691   -0.569940   -0.371326
     35          1           0       -9.420525   -1.294234   -1.190487
     36          1           0       -9.639581   -1.132851    0.541248
     37          1           0      -10.213233    0.159085   -0.533196
     38          8           0       -7.017912   -1.984060   -0.042841
     39          7           0       -3.140231   -0.428963    0.170293
     40          7           0       -4.395148   -2.209054    0.241781
     41          1           0       -2.768708    0.519987    0.113760
     42          7           0        1.232447   -0.228480    0.222584
     43          1           0        1.939356   -0.955324    0.240953
     44          6           0        4.059499    1.007427    0.076007
     45          1           0        4.967018    1.615747   -0.002002
     46          7           0        4.090247   -0.270794    0.174107
     47          6           0        5.415817   -0.913841    0.165256
     48          6           0        6.146372   -0.691375   -1.169526
     49          6           0        6.295263   -0.467031    1.345175
     50          1           0        5.235986   -1.989462    0.274442
     51          6           0        7.507209   -1.395596   -1.187339
     52          1           0        6.290469    0.386884   -1.309056
     53          1           0        5.516861   -1.041492   -1.993385
     54          6           0        7.654452   -1.175277    1.325209
     55          1           0        6.449704    0.616168    1.280315
     56          1           0        5.770321   -0.662943    2.285098
     57          6           0        8.380186   -0.956540   -0.006836
     58          1           0        8.014693   -1.192071   -2.135637
     59          1           0        7.353195   -2.480661   -1.135876
     60          1           0        8.267333   -0.820302    2.159776
     61          1           0        7.502466   -2.251206    1.479222
     62          1           0        9.330175   -1.499780   -0.015212
     63          1           0        8.620772    0.108620   -0.115321
     64          1           0       -5.274247   -2.726107    0.216577
 ---------------------------------------------------------------------
 Rotational constants (GHZ):           0.2607158           0.0422299           0.0369535
 Leave Link  202 at Fri Dec 14 13:58:37 2018, MaxMem=  1342177280 cpu:               1.1 elap:               0.1
 (Enter /gpfs/apps/hpc/Apps/Restricted/Gaussian/Rev_A.03/g16/l716.exe)
 Electric field and nuclear coordinate derivatives read from checkpoint file.
 Dipole        =-5.65314873D+00-2.71409703D-02 9.01231167D-02
 Polarizability= 7.72703599D+02-4.66991203D+01 6.92907922D+02
                 2.20872242D+01-3.35689897D+01 2.15155730D+02
 Full mass-weighted force constant matrix:
 Low frequencies ---  -17.4083   -7.0520   -0.0029    0.0014    0.0024    3.1937
 Low frequencies ---   19.4786   29.3610   35.3521
 Diagonal vibrational polarizability:
      166.2923802      33.0456005     151.7848980
 Harmonic frequencies (cm**-1), IR intensities (KM/Mole), Raman scattering
 activities (A**4/AMU), depolarization ratios for plane and unpolarized
 incident light, reduced masses (AMU), force constants (mDyne/A),
 and normal coordinates:
                      1                      2                      3
                      A                      A                      A
 Frequencies --     13.8251                26.4763                32.8804
 Red. masses --      5.5830                 4.7619                 5.2886
 Frc consts  --      0.0006                 0.0020                 0.0034
 IR Inten    --      0.1774                 1.5041                 0.6889
  Atom  AN      X      Y      Z        X      Y      Z        X      Y      Z
     1   6    -0.00  -0.01  -0.10     0.02   0.04  -0.01     0.03   0.06  -0.01
     2   6    -0.01  -0.01  -0.12     0.03   0.06  -0.02     0.03   0.07  -0.01
     3   6    -0.01  -0.01  -0.13     0.05   0.05  -0.07     0.06   0.08   0.07
     4   6    -0.01  -0.01  -0.11     0.06   0.03  -0.12     0.07   0.07   0.14
     5   6    -0.01  -0.00  -0.08     0.05   0.02  -0.10     0.06   0.05   0.13
     6   6    -0.01  -0.00  -0.07     0.03   0.02  -0.05     0.04   0.04   0.05
     7   6     0.00  -0.02  -0.12     0.01   0.07   0.03     0.01   0.07  -0.08
     8   1    -0.01  -0.02  -0.15     0.06   0.07  -0.09     0.07   0.10   0.08
     9   1    -0.02  -0.01  -0.11     0.08   0.03  -0.16     0.09   0.07   0.20
    10   1    -0.01   0.00  -0.05     0.06   0.00  -0.14     0.07   0.04   0.19
    11   6     0.00  -0.02  -0.08     0.01   0.06   0.03     0.02   0.05  -0.06
    12   6     0.00  -0.01  -0.07     0.03   0.04   0.01     0.04   0.04  -0.02
    13   6     0.00  -0.02  -0.10     0.04   0.05  -0.01     0.06   0.05  -0.00
    14   6     0.00  -0.02  -0.13     0.04   0.06   0.01     0.06   0.07  -0.03
    15   6     0.00  -0.02  -0.14     0.02   0.07   0.03     0.04   0.08  -0.07
    16   6     0.00  -0.02  -0.11     0.01   0.07   0.04     0.02   0.07  -0.08
    17   6     0.00  -0.01  -0.01     0.00   0.02   0.02     0.00   0.01  -0.01
    18   1     0.00  -0.02  -0.09     0.05   0.04  -0.03     0.07   0.04   0.03
    19   1     0.00  -0.02  -0.16     0.05   0.07   0.00     0.07   0.08  -0.02
    20   1     0.00  -0.02  -0.16     0.02   0.08   0.03     0.04   0.10  -0.09
    21   7    -0.00  -0.02  -0.13     0.02   0.07   0.01     0.02   0.08  -0.06
    22   6    -0.01   0.01   0.08     0.01  -0.04  -0.06    -0.01  -0.05   0.08
    23   6     0.00   0.00   0.04    -0.02  -0.00   0.02    -0.02  -0.02  -0.00
    24   6     0.01   0.00   0.04    -0.06  -0.00   0.10    -0.05  -0.02  -0.07
    25   6     0.01   0.01   0.09    -0.08  -0.03   0.12    -0.07  -0.05  -0.09
    26   6     0.00   0.02   0.12    -0.06  -0.06   0.05    -0.06  -0.08  -0.02
    27   6    -0.01   0.02   0.12    -0.01  -0.07  -0.05    -0.03  -0.08   0.06
    28   1     0.02  -0.01   0.01    -0.08   0.02   0.15    -0.05   0.01  -0.12
    29   1     0.00   0.03   0.15    -0.08  -0.08   0.07    -0.07  -0.10  -0.04
    30   6     0.02   0.01   0.10    -0.13  -0.02   0.22    -0.09  -0.05  -0.17
    31   1     0.01   0.00   0.11    -0.18  -0.06   0.27    -0.06   0.01  -0.21
    32   1     0.03   0.02   0.11    -0.10   0.05   0.27    -0.13  -0.09  -0.21
    33   1     0.02   0.01   0.09    -0.15  -0.05   0.21    -0.10  -0.06  -0.15
    34   6    -0.02   0.03   0.16     0.01  -0.11  -0.14    -0.02  -0.10   0.13
    35   1    -0.06   0.06   0.14     0.12  -0.15  -0.10    -0.06  -0.08   0.11
    36   1     0.02   0.00   0.15    -0.06  -0.06  -0.13     0.05  -0.13   0.12
    37   1    -0.02   0.04   0.22     0.01  -0.14  -0.26    -0.05  -0.12   0.20
    38   8    -0.01   0.01   0.09     0.04  -0.05  -0.15     0.01  -0.04   0.16
    39   7     0.00  -0.01  -0.04    -0.01   0.04   0.04    -0.00   0.04  -0.06
    40   7    -0.00  -0.01  -0.03     0.02   0.02  -0.00     0.03   0.02   0.01
    41   1     0.01  -0.01  -0.05    -0.03   0.05   0.05    -0.03   0.05  -0.08
    42   7     0.00  -0.01  -0.10     0.01   0.05   0.02     0.01   0.06  -0.07
    43   1     0.01  -0.00  -0.08     0.01   0.05   0.02     0.01   0.06  -0.08
    44   6    -0.00   0.00  -0.02     0.02  -0.00  -0.04     0.02   0.01   0.05
    45   1    -0.00   0.01   0.02     0.03  -0.03  -0.05     0.04  -0.01   0.09
    46   7    -0.00   0.00  -0.02    -0.01  -0.00  -0.01    -0.02   0.01   0.01
    47   6     0.00   0.01   0.05    -0.03  -0.04   0.00    -0.04  -0.04   0.02
    48   6     0.07   0.00   0.09    -0.01  -0.07   0.01    -0.04  -0.07   0.01
    49   6    -0.06   0.02   0.09    -0.03  -0.04   0.01    -0.01  -0.06   0.01
    50   1     0.00   0.01   0.05    -0.05  -0.03   0.01    -0.07  -0.03   0.02
    51   6     0.07   0.01   0.16    -0.02  -0.10   0.03    -0.06  -0.10  -0.00
    52   1     0.07   0.00   0.08     0.02  -0.07  -0.00    -0.02  -0.07   0.00
    53   1     0.11  -0.01   0.06    -0.00  -0.07   0.01    -0.06  -0.05   0.02
    54   6    -0.06   0.02   0.17    -0.04  -0.07   0.03    -0.03  -0.10  -0.00
    55   1    -0.06   0.02   0.09    -0.00  -0.05  -0.00     0.02  -0.07   0.01
    56   1    -0.10   0.03   0.06    -0.04  -0.02   0.00    -0.01  -0.04   0.01
    57   6     0.01   0.02   0.20    -0.02  -0.10   0.04    -0.04  -0.12  -0.01
    58   1     0.12  -0.00   0.19    -0.01  -0.12   0.04    -0.07  -0.12  -0.01
    59   1     0.07   0.01   0.16    -0.04  -0.09   0.05    -0.09  -0.10   0.01
    60   1    -0.10   0.03   0.20    -0.05  -0.08   0.04    -0.02  -0.11  -0.01
    61   1    -0.06   0.02   0.17    -0.07  -0.07   0.04    -0.06  -0.10   0.00
    62   1     0.02   0.02   0.25    -0.03  -0.12   0.05    -0.06  -0.15  -0.02
    63   1     0.01   0.02   0.21    -0.00  -0.11   0.03    -0.01  -0.13  -0.02
    64   1    -0.00  -0.00  -0.00     0.03   0.01  -0.05     0.03   0.00   0.07
                      4                      5                      6
                      A                      A                      A
 Frequencies --     41.8037                49.8039                64.2713
 Red. masses --      4.7472                 5.3845                 4.9079
 Frc consts  --      0.0049                 0.0079                 0.0119
 IR Inten    --      0.2409                 6.9585                 1.9244
  Atom  AN      X      Y      Z        X      Y      Z        X      Y      Z
     1   6    -0.00   0.01   0.06    -0.04   0.06   0.01     0.01   0.01   0.09
     2   6    -0.00  -0.00  -0.08    -0.06   0.03   0.03     0.01   0.02   0.11
     3   6    -0.01  -0.01  -0.19    -0.10   0.03   0.02     0.02   0.01   0.03
     4   6    -0.00  -0.01  -0.13    -0.11   0.05  -0.01     0.02  -0.00  -0.10
     5   6     0.00   0.00   0.03    -0.09   0.09  -0.04     0.02  -0.01  -0.13
     6   6     0.00   0.01   0.12    -0.06   0.09  -0.03     0.01  -0.01  -0.03
     7   6     0.00  -0.00  -0.02     0.01   0.01   0.03     0.00   0.02   0.17
     8   1    -0.01  -0.02  -0.31    -0.11   0.00   0.04     0.02   0.02   0.05
     9   1    -0.01  -0.01  -0.20    -0.14   0.05  -0.02     0.03  -0.01  -0.17
    10   1     0.00   0.01   0.06    -0.11   0.11  -0.07     0.02  -0.03  -0.24
    11   6     0.01  -0.01  -0.05     0.05  -0.04   0.02    -0.00   0.01  -0.01
    12   6     0.01  -0.01  -0.05     0.06  -0.05  -0.01     0.01   0.00  -0.12
    13   6     0.01  -0.01  -0.03     0.08  -0.04  -0.03     0.01   0.00  -0.14
    14   6     0.00  -0.00   0.01     0.09  -0.02  -0.02     0.00   0.01  -0.02
    15   6     0.00  -0.00   0.01     0.07  -0.01  -0.00    -0.00   0.02   0.11
    16   6     0.00  -0.00  -0.02     0.05  -0.01   0.02    -0.01   0.02   0.10
    17   6     0.01  -0.01  -0.06     0.06  -0.05   0.01    -0.00  -0.00  -0.11
    18   1     0.01  -0.01  -0.03     0.10  -0.05  -0.05     0.01  -0.00  -0.23
    19   1     0.00   0.00   0.03     0.10  -0.01  -0.04     0.00   0.01  -0.02
    20   1     0.00  -0.00   0.05     0.07   0.01  -0.00    -0.01   0.03   0.20
    21   7    -0.00  -0.01  -0.12    -0.03  -0.01   0.04     0.01   0.03   0.17
    22   6     0.00   0.00  -0.01     0.06   0.00  -0.01    -0.01  -0.01  -0.02
    23   6     0.01  -0.00  -0.03     0.07  -0.03   0.00    -0.01  -0.01  -0.08
    24   6     0.01  -0.00  -0.01     0.11  -0.03   0.01    -0.01  -0.01  -0.09
    25   6     0.01   0.00   0.03     0.13  -0.00  -0.00    -0.02  -0.01  -0.04
    26   6     0.00   0.01   0.05     0.12   0.02  -0.00    -0.03  -0.01   0.06
    27   6     0.00   0.01   0.03     0.08   0.03  -0.00    -0.03  -0.01   0.09
    28   1     0.01  -0.01  -0.02     0.12  -0.05   0.01    -0.01  -0.00  -0.13
    29   1     0.00   0.01   0.08     0.13   0.04  -0.00    -0.04  -0.01   0.12
    30   6     0.01   0.00   0.06     0.16  -0.01  -0.00    -0.02  -0.01  -0.07
    31   1    -0.01  -0.01   0.08     0.17  -0.02  -0.00    -0.00   0.01  -0.10
    32   1     0.03   0.02   0.08     0.17  -0.02  -0.00    -0.05  -0.03  -0.09
    33   1     0.01   0.00   0.06     0.18   0.02  -0.01    -0.03  -0.01  -0.06
    34   6    -0.00   0.01   0.06     0.07   0.06   0.00    -0.04  -0.01   0.23
    35   1    -0.03   0.03   0.04     0.04   0.07  -0.00    -0.17   0.09   0.14
    36   1     0.02  -0.01   0.05     0.06   0.05  -0.00     0.11  -0.11   0.20
    37   1    -0.01   0.02   0.10     0.08   0.08   0.02    -0.08   0.01   0.44
    38   8    -0.00   0.00  -0.02     0.04   0.00  -0.02    -0.01  -0.01  -0.04
    39   7     0.01  -0.01  -0.06     0.05  -0.04   0.02    -0.01   0.01  -0.03
    40   7     0.01  -0.01  -0.06     0.06  -0.05  -0.01     0.01  -0.01  -0.19
    41   1     0.01  -0.01  -0.07     0.07  -0.05   0.04    -0.02   0.02   0.04
    42   7     0.00   0.01   0.09     0.00   0.05   0.01     0.00   0.01   0.14
    43   1     0.01   0.02   0.16     0.04   0.09   0.00    -0.01   0.00   0.11
    44   6     0.00   0.01   0.19    -0.06   0.08  -0.04     0.01  -0.01  -0.07
    45   1     0.00   0.01   0.19    -0.05   0.06  -0.06     0.01  -0.02  -0.15
    46   7     0.00   0.01   0.20    -0.09   0.08  -0.01     0.01  -0.01  -0.01
    47   6    -0.00   0.01   0.14    -0.13   0.02  -0.00     0.01  -0.01  -0.02
    48   6    -0.13  -0.02   0.07    -0.12  -0.04  -0.01     0.03  -0.02  -0.01
    49   6     0.11   0.03   0.05    -0.11   0.01  -0.01    -0.00  -0.00  -0.01
    50   1     0.00   0.01   0.18    -0.17   0.03   0.02     0.01  -0.01  -0.01
    51   6    -0.13  -0.02  -0.06    -0.15  -0.10   0.02     0.03  -0.02   0.01
    52   1    -0.14  -0.02   0.04    -0.07  -0.05  -0.03     0.03  -0.02  -0.02
    53   1    -0.21  -0.02   0.13    -0.13  -0.03  -0.00     0.04  -0.02  -0.02
    54   6     0.10   0.02  -0.08    -0.15  -0.06   0.01    -0.00   0.00   0.01
    55   1     0.11   0.02   0.02    -0.06   0.00  -0.04    -0.00  -0.00  -0.02
    56   1     0.20   0.04   0.10    -0.13   0.06  -0.01    -0.01   0.01  -0.02
    57   6    -0.02  -0.01  -0.15    -0.13  -0.12   0.01     0.01  -0.01   0.02
    58   1    -0.22  -0.03  -0.11    -0.14  -0.15   0.01     0.04  -0.02   0.02
    59   1    -0.13  -0.02  -0.03    -0.21  -0.10   0.04     0.03  -0.02   0.02
    60   1     0.19   0.02  -0.14    -0.13  -0.07   0.01    -0.01   0.01   0.02
    61   1     0.11   0.02  -0.05    -0.20  -0.05   0.04    -0.00   0.00   0.02
    62   1    -0.02  -0.01  -0.23    -0.16  -0.17   0.02     0.02  -0.01   0.04
    63   1    -0.02  -0.01  -0.18    -0.08  -0.14  -0.01     0.02  -0.01   0.02
    64   1     0.01  -0.01  -0.05     0.06  -0.05  -0.03     0.01  -0.01  -0.21
                      7                      8                      9
                      A                      A                      A
 Frequencies --     75.9422                81.9812               108.0422
 Red. masses --      4.0830                 3.4767                 3.9253
 Frc consts  --      0.0139                 0.0138                 0.0270
 IR Inten    --      3.8268                 0.6585                 0.9809
  Atom  AN      X      Y      Z        X      Y      Z        X      Y      Z
     1   6    -0.00   0.01  -0.02    -0.00  -0.01  -0.06    -0.00   0.00   0.04
     2   6    -0.00   0.01  -0.06    -0.00  -0.01   0.01    -0.02  -0.02   0.01
     3   6     0.00   0.01  -0.03    -0.01  -0.00   0.11    -0.06  -0.02  -0.01
     4   6     0.01   0.01   0.04    -0.01   0.01   0.12    -0.08   0.01  -0.01
     5   6     0.01   0.01   0.07    -0.01   0.01   0.04    -0.06   0.04   0.01
     6   6    -0.00   0.01   0.03    -0.00  -0.00  -0.05    -0.02   0.04   0.02
     7   6    -0.00   0.01  -0.05    -0.00  -0.01  -0.05     0.01  -0.03   0.02
     8   1     0.00   0.01  -0.06    -0.01  -0.00   0.17    -0.08  -0.06  -0.03
     9   1     0.01   0.01   0.07    -0.02   0.01   0.20    -0.10   0.01  -0.03
    10   1     0.01   0.01   0.12    -0.01   0.01   0.06    -0.07   0.06  -0.01
    11   6     0.01  -0.01  -0.04    -0.01  -0.01  -0.03    -0.00  -0.01  -0.05
    12   6     0.01  -0.01   0.03    -0.01  -0.00   0.00    -0.01  -0.00  -0.05
    13   6     0.02   0.01   0.16    -0.01   0.00   0.07    -0.03  -0.00  -0.00
    14   6     0.02   0.02   0.21    -0.01  -0.00   0.08    -0.03  -0.02   0.06
    15   6     0.01   0.02   0.12    -0.01  -0.00   0.03    -0.02  -0.03   0.06
    16   6     0.00   0.01  -0.00    -0.01  -0.01  -0.03    -0.00  -0.02   0.00
    17   6     0.01  -0.02  -0.10    -0.01  -0.01  -0.06     0.00   0.01  -0.07
    18   1     0.02   0.01   0.23    -0.02   0.00   0.11    -0.04   0.00   0.00
    19   1     0.02   0.04   0.32    -0.02   0.00   0.14    -0.05  -0.02   0.11
    20   1     0.01   0.04   0.15    -0.01  -0.00   0.03    -0.02  -0.03   0.11
    21   7    -0.01   0.01  -0.09    -0.00  -0.01   0.00    -0.00  -0.03  -0.00
    22   6     0.00  -0.01  -0.07    -0.01   0.00  -0.05    -0.01   0.01   0.05
    23   6     0.01  -0.02  -0.10    -0.00  -0.01  -0.06    -0.00   0.01  -0.03
    24   6     0.02  -0.02  -0.07    -0.00  -0.00  -0.03    -0.01   0.01  -0.04
    25   6     0.02  -0.00   0.02    -0.00   0.00   0.03    -0.02   0.01   0.00
    26   6     0.01   0.01   0.07    -0.01   0.01   0.05    -0.01  -0.00  -0.03
    27   6     0.00   0.01   0.03    -0.01   0.01   0.02    -0.01  -0.00  -0.03
    28   1     0.03  -0.03  -0.09     0.00  -0.01  -0.04    -0.01   0.02  -0.07
    29   1     0.01   0.02   0.14    -0.01   0.02   0.11    -0.02  -0.01  -0.05
    30   6     0.03  -0.00   0.08    -0.00   0.00   0.08    -0.05   0.01   0.09
    31   1    -0.01  -0.04   0.13    -0.04  -0.03   0.12    -0.13  -0.03   0.16
    32   1     0.07   0.04   0.13     0.03   0.04   0.11     0.03   0.08   0.16
    33   1     0.03   0.00   0.07    -0.00   0.00   0.07    -0.06  -0.01   0.03
    34   6    -0.01   0.02   0.10    -0.02   0.02   0.05     0.01  -0.02  -0.09
    35   1    -0.10   0.09   0.04    -0.06   0.05   0.02     0.10  -0.12   0.01
    36   1     0.07  -0.05   0.08     0.03  -0.02   0.04    -0.11   0.11  -0.04
    37   1    -0.03   0.04   0.24    -0.03   0.03   0.13     0.03  -0.04  -0.28
    38   8     0.00  -0.01  -0.11    -0.01  -0.00  -0.10    -0.02   0.02   0.21
    39   7     0.01  -0.02  -0.12    -0.00  -0.01  -0.07     0.01  -0.00  -0.08
    40   7     0.01  -0.02  -0.02    -0.01  -0.01  -0.02    -0.01   0.01  -0.07
    41   1     0.00  -0.02  -0.15    -0.01  -0.01  -0.07     0.01  -0.01  -0.07
    42   7    -0.00   0.01  -0.02    -0.00  -0.01  -0.09     0.01  -0.01   0.05
    43   1    -0.01   0.01  -0.01    -0.01  -0.02  -0.09     0.02  -0.00   0.05
    44   6    -0.01  -0.00   0.03     0.01   0.02  -0.06     0.02   0.09  -0.00
    45   1    -0.00  -0.01   0.09    -0.00   0.03  -0.08    -0.00   0.12  -0.01
    46   7    -0.02  -0.01  -0.06     0.03   0.02  -0.01     0.06   0.09  -0.02
    47   6    -0.02  -0.02  -0.07     0.03   0.03   0.04     0.06   0.09  -0.04
    48   6     0.03   0.09  -0.02     0.00  -0.13  -0.00     0.10   0.10  -0.02
    49   6    -0.08  -0.12   0.00     0.07   0.18  -0.04     0.08   0.04  -0.03
    50   1    -0.03  -0.03  -0.16     0.04   0.04   0.17     0.05   0.09  -0.06
    51   6     0.04   0.11  -0.03    -0.02  -0.16   0.05     0.03  -0.04  -0.01
    52   1     0.02   0.10   0.06     0.02  -0.14  -0.12     0.19   0.09   0.02
    53   1     0.06   0.15  -0.08    -0.02  -0.21   0.05     0.09   0.18  -0.05
    54   6    -0.07  -0.10  -0.00     0.05   0.14   0.02     0.00  -0.10   0.01
    55   1    -0.08  -0.11   0.11     0.09   0.16  -0.18     0.18   0.03  -0.06
    56   1    -0.11  -0.21  -0.03     0.08   0.31  -0.00     0.04   0.12  -0.04
    57   6    -0.02   0.01   0.05     0.02  -0.04  -0.02     0.06  -0.19   0.02
    58   1     0.07   0.19   0.01    -0.03  -0.29   0.02     0.07  -0.06   0.01
    59   1     0.05   0.10  -0.13    -0.04  -0.15   0.19    -0.09  -0.03  -0.05
    60   1    -0.10  -0.16   0.05     0.08   0.22  -0.03     0.02  -0.15   0.02
    61   1    -0.06  -0.12  -0.09     0.02   0.16   0.15    -0.12  -0.08   0.03
    62   1    -0.01   0.02   0.04     0.01  -0.06   0.02    -0.02  -0.34   0.04
    63   1    -0.02   0.03   0.14     0.04  -0.06  -0.15     0.23  -0.23   0.05
    64   1     0.01  -0.02  -0.01    -0.01  -0.01  -0.03    -0.02   0.02   0.00
                     10                     11                     12
                      A                      A                      A
 Frequencies --    109.3466               121.7339               136.0009
 Red. masses --      4.0015                 4.8998                 1.1521
 Frc consts  --      0.0282                 0.0428                 0.0126
 IR Inten    --      1.9531                 2.8491                 1.4950
  Atom  AN      X      Y      Z        X      Y      Z        X      Y      Z
     1   6     0.00   0.00   0.01     0.02  -0.04  -0.00    -0.00   0.00  -0.00
     2   6     0.01   0.02   0.03     0.00  -0.07   0.01     0.00   0.00   0.00
     3   6     0.05   0.02   0.04    -0.04  -0.07   0.02     0.00   0.00   0.00
     4   6     0.06  -0.00   0.02    -0.06  -0.03   0.02     0.00   0.00  -0.01
     5   6     0.05  -0.03  -0.02    -0.04  -0.00   0.00     0.00  -0.00  -0.02
     6   6     0.01  -0.03  -0.02    -0.01   0.00  -0.01     0.00  -0.00  -0.01
     7   6    -0.01   0.03   0.01     0.06  -0.08  -0.00    -0.00   0.00   0.00
     8   1     0.06   0.05   0.06    -0.06  -0.10   0.03     0.00   0.01   0.01
     9   1     0.08  -0.00   0.02    -0.09  -0.03   0.03     0.01   0.00  -0.01
    10   1     0.06  -0.05  -0.04    -0.06   0.02  -0.00     0.00  -0.00  -0.02
    11   6     0.01  -0.01  -0.07     0.05   0.01  -0.01    -0.00   0.00   0.01
    12   6     0.02  -0.01  -0.07    -0.00   0.06  -0.00    -0.00  -0.00   0.01
    13   6     0.03  -0.00  -0.01    -0.08   0.03   0.01     0.00  -0.00   0.01
    14   6     0.03   0.02   0.06    -0.08  -0.05   0.01     0.00   0.00  -0.01
    15   6     0.02   0.03   0.06    -0.02  -0.09   0.00     0.00   0.00  -0.01
    16   6     0.00   0.02  -0.00     0.05  -0.07  -0.00    -0.00   0.00  -0.00
    17   6     0.00  -0.02  -0.08     0.09   0.12  -0.03    -0.00  -0.00   0.01
    18   1     0.05  -0.01  -0.01    -0.13   0.06   0.02     0.01  -0.00   0.01
    19   1     0.04   0.04   0.12    -0.13  -0.08   0.01     0.01   0.00  -0.02
    20   1     0.02   0.06   0.12    -0.02  -0.15  -0.01     0.00   0.01  -0.02
    21   7    -0.00   0.03   0.02     0.03  -0.09   0.01    -0.00   0.01   0.01
    22   6    -0.01  -0.00   0.06     0.11   0.05  -0.00    -0.01  -0.00   0.00
    23   6     0.01  -0.02  -0.04     0.08   0.11  -0.04    -0.00  -0.00  -0.01
    24   6     0.02  -0.02  -0.04     0.00   0.12  -0.05     0.00  -0.01  -0.01
    25   6     0.02  -0.00   0.01    -0.06   0.05  -0.02     0.01  -0.00  -0.02
    26   6     0.02   0.01  -0.03    -0.02  -0.03   0.01     0.01  -0.00  -0.04
    27   6     0.01   0.01  -0.04     0.06  -0.04   0.01    -0.00  -0.00  -0.03
    28   1     0.03  -0.03  -0.07    -0.02   0.17  -0.08     0.00  -0.01   0.00
    29   1     0.03   0.01  -0.06    -0.07  -0.08   0.04     0.01  -0.00  -0.05
    30   6     0.03  -0.00   0.12    -0.18   0.06   0.01    -0.00  -0.00   0.05
    31   1    -0.06  -0.07   0.21    -0.25   0.09   0.05    -0.07  -0.04   0.11
    32   1     0.13   0.07   0.21    -0.17   0.12   0.05     0.07   0.05   0.11
    33   1     0.03  -0.00   0.06    -0.22  -0.03  -0.02    -0.00  -0.01  -0.00
    34   6     0.01   0.02  -0.12     0.12  -0.15   0.04    -0.00   0.00  -0.03
    35   1     0.12  -0.12   0.01     0.14  -0.09  -0.01    -0.18   0.41  -0.39
    36   1    -0.15   0.19  -0.05     0.22  -0.23   0.01     0.24  -0.45  -0.26
    37   1     0.05   0.01  -0.36     0.04  -0.21   0.13    -0.07   0.05   0.50
    38   8    -0.03   0.01   0.24     0.16   0.04   0.02    -0.01   0.00   0.05
    39   7    -0.00  -0.02  -0.10     0.10   0.06  -0.03    -0.01  -0.00   0.00
    40   7     0.01  -0.03  -0.09     0.03   0.12  -0.01    -0.00  -0.00   0.02
    41   1    -0.01  -0.01  -0.07     0.17   0.04  -0.02    -0.01  -0.00  -0.00
    42   7    -0.01   0.01   0.01     0.06  -0.05  -0.00    -0.00   0.00  -0.00
    43   1    -0.02   0.00  -0.01     0.09  -0.02  -0.00    -0.00   0.00  -0.00
    44   6    -0.02  -0.07  -0.03    -0.01   0.00  -0.01     0.00  -0.00  -0.01
    45   1    -0.00  -0.10  -0.05    -0.00  -0.02  -0.02    -0.00  -0.00  -0.02
    46   7    -0.05  -0.07  -0.01    -0.04   0.00  -0.00     0.00   0.00   0.01
    47   6    -0.05  -0.08   0.01    -0.06  -0.02   0.00     0.00   0.00   0.01
    48   6    -0.07  -0.09  -0.00    -0.07  -0.03  -0.00    -0.00   0.00   0.00
    49   6    -0.07  -0.02   0.00    -0.07  -0.02   0.01     0.01  -0.00   0.00
    50   1    -0.04  -0.07   0.04    -0.07  -0.02   0.01     0.00   0.00   0.00
    51   6    -0.01   0.02   0.01    -0.05   0.02   0.00    -0.00   0.00  -0.00
    52   1    -0.15  -0.09  -0.05    -0.10  -0.03  -0.02     0.00   0.00   0.01
    53   1    -0.05  -0.17   0.02    -0.06  -0.06   0.01    -0.00   0.00   0.01
    54   6    -0.01   0.10  -0.00    -0.05   0.03  -0.00     0.01  -0.00  -0.00
    55   1    -0.16  -0.01   0.01    -0.11  -0.01   0.03     0.01  -0.00   0.00
    56   1    -0.05  -0.07   0.01    -0.07  -0.05   0.01     0.01  -0.00   0.01
    57   6    -0.05   0.16  -0.01    -0.07   0.07  -0.00     0.00  -0.00  -0.00
    58   1    -0.04   0.02  -0.00    -0.06   0.02  -0.00    -0.00   0.00  -0.00
    59   1     0.08   0.01   0.06    -0.01   0.01   0.02    -0.00   0.00  -0.00
    60   1    -0.04   0.16  -0.01    -0.06   0.04   0.00     0.01  -0.01  -0.00
    61   1     0.09   0.09  -0.01    -0.01   0.02  -0.01     0.00  -0.00  -0.00
    62   1     0.02   0.29  -0.01    -0.03   0.13  -0.00     0.00  -0.01  -0.01
    63   1    -0.19   0.19  -0.04    -0.13   0.08  -0.01     0.01  -0.00  -0.00
    64   1     0.01  -0.03  -0.01    -0.01   0.17  -0.01    -0.00  -0.01   0.03
                     13                     14                     15
                      A                      A                      A
 Frequencies --    143.6559               161.5626               175.7514
 Red. masses --      4.1222                 2.3832                 4.7067
 Frc consts  --      0.0501                 0.0367                 0.0857
 IR Inten    --      3.6478                 0.9790                 1.2450
  Atom  AN      X      Y      Z        X      Y      Z        X      Y      Z
     1   6     0.00  -0.00  -0.09    -0.00  -0.01  -0.05    -0.02  -0.02  -0.20
     2   6     0.00   0.00   0.06    -0.00  -0.01  -0.03    -0.01  -0.01  -0.15
     3   6    -0.00   0.01   0.14    -0.00  -0.00   0.02    -0.01  -0.00  -0.05
     4   6    -0.01   0.00  -0.01    -0.01  -0.00   0.03     0.00   0.00   0.09
     5   6    -0.01  -0.00  -0.17    -0.01  -0.00  -0.01    -0.00  -0.00   0.09
     6   6    -0.00  -0.00  -0.15    -0.00  -0.00  -0.04    -0.01  -0.01  -0.07
     7   6     0.01  -0.00  -0.03    -0.00  -0.00  -0.02    -0.02   0.01   0.00
     8   1    -0.00   0.01   0.29    -0.00  -0.00   0.05    -0.00   0.01  -0.01
     9   1    -0.01   0.01   0.02    -0.01   0.00   0.07     0.01   0.01   0.22
    10   1    -0.01  -0.00  -0.25    -0.01   0.00   0.01     0.00   0.01   0.24
    11   6    -0.00  -0.00  -0.01     0.00  -0.00  -0.05    -0.01   0.01   0.15
    12   6    -0.00   0.00   0.03     0.00  -0.00  -0.08     0.00  -0.00  -0.05
    13   6    -0.00   0.00   0.06    -0.00  -0.00  -0.03     0.01  -0.01  -0.14
    14   6     0.00  -0.00   0.01    -0.01   0.01   0.09     0.00   0.01   0.03
    15   6     0.00  -0.00  -0.05    -0.00   0.01   0.10    -0.00   0.02   0.17
    16   6     0.00  -0.00  -0.04    -0.00  -0.00   0.01    -0.01   0.01   0.16
    17   6    -0.00  -0.00  -0.02     0.00   0.00  -0.02     0.01   0.01   0.02
    18   1    -0.00   0.01   0.10    -0.00  -0.00  -0.04     0.02  -0.03  -0.32
    19   1     0.00   0.00   0.01    -0.01   0.01   0.17     0.00   0.00  -0.00
    20   1     0.00  -0.00  -0.08    -0.01   0.01   0.16    -0.00   0.03   0.20
    21   7     0.01   0.00   0.10    -0.00  -0.00  -0.01    -0.02   0.00  -0.04
    22   6    -0.01  -0.00  -0.01     0.00   0.01   0.05     0.01   0.00  -0.01
    23   6    -0.00  -0.01  -0.03    -0.00   0.01   0.07     0.01   0.01  -0.01
    24   6     0.00  -0.01  -0.05    -0.01   0.01   0.12     0.01   0.01  -0.00
    25   6    -0.00  -0.00  -0.02    -0.01   0.01   0.10     0.01   0.00  -0.06
    26   6    -0.00   0.00  -0.00    -0.01   0.01   0.11     0.02  -0.01  -0.11
    27   6    -0.01   0.00  -0.00     0.00   0.00   0.05     0.01  -0.01  -0.04
    28   1     0.00  -0.01  -0.06    -0.01   0.01   0.10    -0.00   0.01   0.05
    29   1    -0.00   0.00   0.02    -0.01   0.01   0.10     0.02  -0.02  -0.15
    30   6    -0.00  -0.00   0.03     0.01  -0.00  -0.11    -0.02   0.01   0.05
    31   1    -0.06  -0.03   0.09     0.33   0.12  -0.38    -0.22  -0.04   0.21
    32   1     0.06   0.03   0.08    -0.31  -0.16  -0.36     0.18   0.09   0.20
    33   1    -0.00  -0.00  -0.01     0.03   0.03   0.15    -0.03  -0.02  -0.13
    34   6    -0.01   0.01   0.03     0.03  -0.02  -0.12     0.00  -0.00   0.08
    35   1     0.01  -0.11   0.13     0.08   0.16  -0.28    -0.05  -0.08   0.14
    36   1    -0.07   0.14   0.10     0.03  -0.23  -0.25     0.05   0.08   0.14
    37   1     0.01   0.00  -0.11     0.00  -0.02   0.02     0.00  -0.01   0.06
    38   8    -0.01  -0.00  -0.00     0.01   0.01   0.01     0.01   0.00   0.03
    39   7    -0.00  -0.00  -0.04     0.00   0.00  -0.02    -0.00   0.02   0.21
    40   7    -0.00  -0.00   0.03     0.00  -0.00  -0.09     0.01  -0.01  -0.15
    41   1    -0.01  -0.00  -0.04     0.00   0.00   0.03     0.01   0.01   0.23
    42   7     0.00  -0.01  -0.14    -0.00  -0.01  -0.05    -0.02  -0.01  -0.15
    43   1     0.00  -0.01  -0.13    -0.01  -0.01  -0.03    -0.03  -0.02  -0.07
    44   6     0.01   0.01  -0.11    -0.00  -0.00  -0.03    -0.01  -0.01   0.03
    45   1    -0.00  -0.01  -0.33    -0.00  -0.00  -0.06    -0.01   0.01   0.14
    46   7     0.01   0.03   0.19     0.00   0.00   0.03    -0.00  -0.01  -0.01
    47   6     0.01   0.01   0.12     0.00   0.00   0.02     0.01   0.00   0.03
    48   6    -0.05   0.09   0.10    -0.01   0.02   0.02    -0.01   0.02   0.03
    49   6     0.07  -0.08   0.11     0.01  -0.01   0.02     0.02  -0.01   0.03
    50   1    -0.01   0.01   0.07     0.00   0.00   0.02     0.01   0.00   0.03
    51   6    -0.06   0.09  -0.03    -0.01   0.01  -0.00    -0.01   0.02  -0.01
    52   1    -0.04   0.10   0.16    -0.01   0.02   0.03    -0.01   0.02   0.05
    53   1    -0.10   0.16   0.12    -0.02   0.03   0.02    -0.03   0.04   0.03
    54   6     0.06  -0.10  -0.02     0.01  -0.01  -0.00     0.02  -0.02  -0.01
    55   1     0.06  -0.08   0.17     0.01  -0.01   0.03     0.03  -0.01   0.04
[...]
 ! R8    R(4,5)                 -0.0422                  1.9                    !
 ! R9    R(4,9)                  0.8366                 38.5                    !
 ! R11   R(5,10)                 0.202                   9.3                    !
 ! R35   R(24,28)               -0.0752                  3.5                    !
 ! A4    A(1,2,3)               -0.0169                  0.8                    !
 ! A6    A(3,2,21)               0.0187                  0.9                    !
 ! A8    A(2,3,8)               -0.0175                  0.8                    !
 ! A10   A(3,4,5)                0.0226                  1.0                    !
 ! A12   A(5,4,9)               -0.019                   0.9                    !
 ! A14   A(4,5,10)               0.02                    0.9                    !
 --------------------------------------------------------------------------------
                           ----------------------------
                           ! Normal Mode   182        !
 --------------------------                            --------------------------
 ! Name  Definition              Value          Relative Weight (%)             !
 --------------------------------------------------------------------------------
 ! R22   R(13,18)               -0.4767                 20.9                    !
 ! R23   R(14,15)               -0.0571                  2.5                    !
 ! R24   R(14,19)                0.6576                 28.8                    !
 ! R25   R(15,16)               -0.0302                  1.3                    !
 ! R26   R(15,20)                0.7173                 31.4                    !
 ! A28   A(12,13,14)            -0.0426                  1.9                    !
 ! A30   A(14,13,18)             0.0337                  1.5                    !
 ! A31   A(13,14,15)             0.029                   1.3                    !
 ! A32   A(13,14,19)            -0.0331                  1.4                    !
 --------------------------------------------------------------------------------
                           ----------------------------
                           ! Normal Mode   183        !
 --------------------------                            --------------------------
 ! Name  Definition              Value          Relative Weight (%)             !
 --------------------------------------------------------------------------------
 ! R19   R(12,13)                0.0442                  2.2                    !
 ! R21   R(13,14)                0.0641                  3.2                    !
 ! R22   R(13,18)               -0.9528                 47.6                    !
 ! R23   R(14,15)                0.0263                  1.3                    !
 ! R24   R(14,19)               -0.4843                 24.2                    !
 ! R26   R(15,20)               -0.1892                  9.4                    !
 ! A27   A(13,12,40)            -0.0268                  1.3                    !
 ! A28   A(12,13,14)            -0.0373                  1.9                    !
 --------------------------------------------------------------------------------
                           ----------------------------
                           ! Normal Mode   184        !
 --------------------------                            --------------------------
 ! Name  Definition              Value          Relative Weight (%)             !
 --------------------------------------------------------------------------------
 ! R18   R(11,39)               -0.0399                  2.2                    !
 ! R20   R(12,40)                0.0165                  0.9                    !
 ! R28   R(17,39)               -0.045                   2.5                    !
 ! R29   R(17,40)                0.0137                  0.8                    !
 ! R47   R(39,41)                1.0093                 55.4                    !
 ! R48   R(40,64)               -0.3577                 19.6                    !
 ! R49   R(42,43)                0.0151                  0.8                    !
 ! A23   A(12,11,39)            -0.0232                  1.3                    !
 ! A24   A(16,11,39)             0.0238                  1.3                    !
 ! A40   A(23,17,39)             0.0241                  1.3                    !
 ! A42   A(39,17,40)            -0.0147                  0.8                    !
 ! A74   A(11,39,17)             0.0466                  2.6                    !
 ! A76   A(17,39,41)            -0.0553                  3.0                    !
 ! A77   A(12,40,17)            -0.0161                  0.9                    !
 ! A78   A(12,40,64)             0.021                   1.2                    !
 --------------------------------------------------------------------------------
                           ----------------------------
                           ! Normal Mode   185        !
 --------------------------                            --------------------------
 ! Name  Definition              Value          Relative Weight (%)             !
 --------------------------------------------------------------------------------
 ! R18   R(11,39)                0.0135                  0.7                    !
 ! R20   R(12,40)                0.0446                  2.4                    !
 ! R22   R(13,18)                0.016                   0.9                    !
 ! R28   R(17,39)                0.0184                  1.0                    !
 ! R29   R(17,40)                0.0388                  2.1                    !
 ! R47   R(39,41)               -0.3583                 19.5                    !
 ! R48   R(40,64)               -1.0106                 54.9                    !
 ! A26   A(11,12,40)             0.0227                  1.2                    !
 ! A27   A(13,12,40)            -0.0231                  1.3                    !
 ! A41   A(23,17,40)            -0.0236                  1.3                    !
 ! A42   A(39,17,40)             0.0321                  1.7                    !
 ! A74   A(11,39,17)            -0.017                   0.9                    !
 ! A76   A(17,39,41)             0.0194                  1.1                    !
 ! A77   A(12,40,17)            -0.0466                  2.5                    !
 ! A78   A(12,40,64)             0.0569                  3.1                    !
 --------------------------------------------------------------------------------
                           ----------------------------
                           ! Normal Mode   186        !
 --------------------------                            --------------------------
 ! Name  Definition              Value          Relative Weight (%)             !
 --------------------------------------------------------------------------------
 ! R3    R(1,42)                 0.0436                  3.0                    !
 ! R15   R(7,42)                 0.0487                  3.4                    !
 ! R49   R(42,43)               -1.0717                 74.7                    !
 ! A2    A(2,1,42)               0.0237                  1.7                    !
 ! A3    A(6,1,42)              -0.0246                  1.7                    !
 ! A20   A(16,7,42)             -0.0238                  1.7                    !
 ! A21   A(21,7,42)              0.0228                  1.6                    !
 ! A80   A(1,42,7)              -0.0473                  3.3                    !
 ! A82   A(7,42,43)              0.0476                  3.3                    !
 --------------------------------------------------------------------------------
 -------------------------------------------------------------------
 Center     Atomic                   Forces (Hartrees/Bohr)
 Number     Number              X              Y              Z
 -------------------------------------------------------------------
      1        6          -0.000000560    0.000000995   -0.000013403
      2        6          -0.000000734    0.000000646   -0.000019920
      3        6          -0.000001680    0.000000236   -0.000035149
      4        6          -0.000001890   -0.000000615   -0.000042944
      5        6          -0.000000512    0.000000459   -0.000036323
      6        6          -0.000000931    0.000000665   -0.000021532
      7        6          -0.000000126    0.000002131    0.000003002
      8        1          -0.000000966   -0.000001168   -0.000040641
      9        1          -0.000001837   -0.000001556   -0.000054775
     10        1          -0.000001675   -0.000000460   -0.000042643
     11        6           0.000000425    0.000001788    0.000016622
     12        6           0.000000451    0.000002262    0.000029879
     13        6           0.000001915    0.000003291    0.000043328
     14        6           0.000001300    0.000004263    0.000042988
     15        6           0.000001407    0.000004590    0.000030096
     16        6           0.000001467    0.000002592    0.000016538
     17        6           0.000000169   -0.000000901    0.000011516
     18        1           0.000002033    0.000003676    0.000053155
     19        1           0.000002049    0.000005753    0.000052918
     20        1           0.000001352    0.000005238    0.000030538
     21        7           0.000000048    0.000001004   -0.000010314
     22        6           0.000000122   -0.000004829    0.000011133
     23        6           0.000000079   -0.000002021    0.000003394
     24        6          -0.000000135   -0.000002504   -0.000011322
     25        6          -0.000002294   -0.000004704   -0.000019560
     26        6           0.000000219   -0.000006832   -0.000011763
     27        6          -0.000000716   -0.000005888    0.000003201
     28        1          -0.000000570   -0.000001528   -0.000017489
     29        1          -0.000001150   -0.000008452   -0.000017890
     30        6          -0.000001158   -0.000005499   -0.000034981
     31        1          -0.000001183    0.000004296   -0.000039884
     32        1          -0.000002109   -0.000014612   -0.000039419
     33        1          -0.000001774   -0.000005300   -0.000039951
     34        6           0.000000065   -0.000007841    0.000011595
     35        1          -0.000000305   -0.000016871    0.000018743
     36        1           0.000000781    0.000001940    0.000017292
     37        1          -0.000000410   -0.000010026    0.000003837
     38        8           0.000000327   -0.000003139    0.000025024
     39        7           0.000000514    0.000000001    0.000005395
     40        7           0.000001731    0.000000450    0.000026372
     41        1          -0.000000478   -0.000000374   -0.000004175
     42        7           0.000000742    0.000002198    0.000000877
     43        1          -0.000000028    0.000003026    0.000008465
     44        6          -0.000000186    0.000001813   -0.000013723
     45        1          -0.000000526    0.000001460   -0.000021282
     46        7          -0.000000523    0.000002907    0.000000023
     47        6           0.000000501    0.000002885    0.000005321
     48        6          -0.000000235   -0.000011295    0.000002944
     49        6           0.000001503    0.000016686    0.000000596
     50        1           0.000000739    0.000004334    0.000017582
     51        6          -0.000000542   -0.000010519    0.000010015
     52        1          -0.000000911   -0.000012137   -0.000008560
     53        1          -0.000000971   -0.000019989    0.000007146
     54        6           0.000000822    0.000016785    0.000008237
     55        1           0.000000467    0.000015257   -0.000011256
     56        1           0.000001495    0.000026160    0.000002855
     57        6           0.000000938    0.000002599    0.000003901
     58        1          -0.000000739   -0.000020559    0.000006972
     59        1           0.000000153   -0.000010231    0.000021609
     60        1           0.000001396    0.000025678    0.000002923
     61        1           0.000001720    0.000017912    0.000018780
     62        1           0.000000227    0.000002838    0.000009735
     63        1          -0.000000232    0.000001103   -0.000007073
     64        1           0.000000927   -0.000000063    0.000031424
 -------------------------------------------------------------------
 Cartesian Forces:  Max     0.000054775 RMS     0.000014945
 FormGI is forming the generalized inverse of G from B-inverse, IUseBI=4.
 GSVD:  received Info=                   1 from GESDD.
 Leave Link  716 at Fri Dec 14 13:58:39 2018, MaxMem=  1342177280 cpu:              27.1 elap:               1.8
 (Enter /gpfs/apps/hpc/Apps/Restricted/Gaussian/Rev_A.03/g16/l9999.exe)

 ----------------------------------------------------------------------

 Electric dipole moment (input orientation):
 (Debye = 10**-18 statcoulomb cm , SI units = C m)
                  (au)            (Debye)         (10**-30 SI)
   Tot        0.565393D+01      0.143709D+02      0.479360D+02
   x         -0.565315D+01     -0.143689D+02     -0.479294D+02
   y         -0.271410D-01     -0.689855D-01     -0.230111D+00
   z          0.901231D-01      0.229070D+00      0.764096D+00

 Dipole polarizability, Alpha (input orientation).
 (esu units = cm**3 , SI units = C**2 m**2 J**-1)
 Alpha(0;0):
               (au)            (10**-24 esu)      (10**-40 SI)
   iso        0.560256D+03      0.830213D+02      0.923737D+02
   aniso      0.533033D+03      0.789873D+02      0.878852D+02
   xx         0.772704D+03      0.114503D+03      0.127402D+03
   yx        -0.466991D+02     -0.692010D+01     -0.769964D+01
   yy         0.692908D+03      0.102678D+03      0.114245D+03
   zx         0.220872D+02      0.327299D+01      0.364169D+01
   zy        -0.335690D+02     -0.497441D+01     -0.553478D+01
   zz         0.215156D+03      0.318828D+02      0.354744D+02

 ----------------------------------------------------------------------

 Dipole orientation:
     6          0.28206985          2.06904180         -2.94902588
     6          0.18844695          3.38953806         -0.62966874
     6         -0.00275968          6.03123197         -0.62473490
     6         -0.11308299          7.25747172         -2.94961778
     6         -0.02965607          5.91253286         -5.24089918
     6          0.17205390          3.27682193         -5.30813882
     6          0.46290847         -0.58981132          0.26693389
     1         -0.06918505          7.07351488          1.13569284
     1         -0.26465831          9.29844843         -3.00480334
     1         -0.12276156          6.93817268         -7.01290207
     6          0.47353242         -2.82473376          4.34576646
     6          0.55531539         -4.99543044          5.87135848
     6          0.80957015         -7.40029162          4.81928901
     6          0.96668542         -7.51615779          2.19547312
     6          0.86584402         -5.34451746          0.66436735
     6          0.61104218         -2.92827698          1.69907526
     6          0.14550038         -1.59318163          8.35743834
     1          0.87847417         -9.07959132          5.98246770
     1          1.16956567         -9.34178277          1.29420943
     1          0.99860872         -5.56044134         -1.36666426
     7          0.30522205          1.67931182          1.34841926
     6         -0.37840958         -1.32608704         13.05775307
     6         -0.13894918         -0.06455570         10.59729644
     6         -0.20531805          2.54033476         10.44744125
     6         -0.54617316          4.04508837         12.62613030
     6         -0.82669794          2.85753486         14.99807535
     6         -0.74014019          0.26981481         15.28158408
     1          0.00565087          3.47946903          8.63806912
     1         -1.09393980          4.03480472         16.65356948
     6         -0.62395311          6.86186686         12.39214963
     1          1.00505252          7.55229578         11.32350346
     1         -2.31425414          7.44640607         11.34958800
     1         -0.65026071          7.77007216         14.24055834
     6         -0.98066301         -0.99627721         17.79215455
     1         -2.52199723         -2.37238694         17.77562591
     1          0.74200556         -2.04975926         18.24022383
     1         -1.31695631          0.38696534         19.28003468
     8         -0.27492789         -3.68697894         13.27680163
     7          0.23086746         -0.78102399          5.94237511
     7          0.34397936         -4.13297999          8.33179719
     1          0.12678528          1.00836122          5.23008450
     7          0.45978099         -0.44073875         -2.31988725
     1          0.52230154         -1.82038822         -3.64841974
     6          0.25707280          1.86816495         -7.67712756
     1          0.13162184          3.00888726         -9.39972037
     7          0.45476848         -0.54665249         -7.72067459
     6          0.48377154         -1.77372238        -10.21972502
     6         -2.01820036         -1.37196269        -11.64230702
     6          2.73572569         -0.92654104        -11.84991842
     1          0.69425295         -3.80370941         -9.86689449
     6         -2.00452070         -2.71502822        -14.20770820
     1         -2.28711713          0.66305309        -11.92855739
     1         -3.59071585         -2.03542631        -10.47450876
     6          2.74532356         -2.27721736        -14.41223410
     1          2.60816314          1.11839479        -12.15350900
     1          4.49759085         -1.28353967        -10.82796967
     6          0.24841099         -1.88243643        -15.82559073
     1         -3.78280471         -2.34356354        -15.19699202
     1         -1.90224175         -4.76361554        -13.90531104
     1          4.33752642         -1.60432806        -15.54833210
     1          3.04134667         -4.30762837        -14.11066263
     1          0.26609112         -2.91754528        -17.61588536
     1          0.04118016          0.12724657        -16.29309965
     1          0.27445551         -5.10242658          9.99675453

 Electric dipole moment (dipole orientation):
 (Debye = 10**-18 statcoulomb cm , SI units = C m)
                  (au)            (Debye)         (10**-30 SI)
   Tot        0.565393D+01      0.143709D+02      0.479360D+02
   x          0.000000D+00      0.000000D+00      0.000000D+00
   y          0.000000D+00      0.000000D+00      0.000000D+00
   z          0.565393D+01      0.143709D+02      0.479360D+02

 Dipole polarizability, Alpha (dipole orientation).
 (esu units = cm**3 , SI units = C**2 m**2 J**-1)
 Alpha(0;0):
               (au)            (10**-24 esu)      (10**-40 SI)
   iso        0.560256D+03      0.830213D+02      0.923737D+02
   aniso      0.533033D+03      0.789873D+02      0.878852D+02
   xx         0.216338D+03      0.320579D+02      0.356693D+02
   yx        -0.367110D+02     -0.544001D+01     -0.605283D+01
   yy         0.693017D+03      0.102694D+03      0.114263D+03
   zx        -0.310167D+02     -0.459620D+01     -0.511396D+01
   zy         0.463889D+02      0.687413D+01      0.764850D+01
   zz         0.771413D+03      0.114312D+03      0.127189D+03

 ----------------------------------------------------------------------

 This type of calculation cannot be archived.


 A BIRD IN THE HAND IS SAFER THAN ONE OVERHEAD.

                       -- NEWTON'S SEVENTH LAW
 Job cpu time:       0 days  0 hours  0 minutes 47.1 seconds.
 Elapsed time:       0 days  0 hours  0 minutes  3.3 seconds.
 File lengths (MBytes):  RWF=     72 Int=      0 D2E=      0 Chk=     76 Scr=      8
 Normal termination of Gaussian 16 at Fri Dec 14 13:58:39 2018.
