 Entering Gaussian System, Link 0=g16
 Input=cyclohexyl-diBIP-E1PT.com
 Output=cyclohexyl-diBIP-E1PT.log
 Initial command:
 /gpfs/apps/hpc/Apps/Restricted/Gaussian/Rev_A.03/g16/l1.exe "/gpfs/scratch60/fas/hammes_schiffer/jg2487/c42n01/Gau-73083.inp" -scrdir="/gpfs/scratch60/fas/hammes_schiffer/jg2487/c42n01/"
 Entering Link 1 = /gpfs/apps/hpc/Apps/Restricted/Gaussian/Rev_A.03/g16/l1.exe PID=     73084.
  
 Copyright (c) 1988,1990,1992,1993,1995,1998,2003,2009,2016,
            Gaussian, Inc.  All Rights Reserved.
  
 This is part of the Gaussian(R) 16 program.  It is based on
 the Gaussian(R) 09 system (copyright 2009, Gaussian, Inc.),
 the Gaussian(R) 03 system (copyright 2003, Gaussian, Inc.),
 the Gaussian(R) 98 system (copyright 1998, Gaussian, Inc.),
 the Gaussian(R) 94 system (copyright 1995, Gaussian, Inc.),
 the Gaussian 92(TM) system (copyright 1992, Gaussian, Inc.),
 the Gaussian 90(TM) system (copyright 1990, Gaussian, Inc.),
 the Gaussian 88(TM) system (copyright 1988, Gaussian, Inc.),
 the Gaussian 86(TM) system (copyright 1986, Carnegie Mellon
 University), and the Gaussian 82(TM) system (copyright 1983,
 Carnegie Mellon University). Gaussian is a federally registered
 trademark of Gaussian, Inc.
  
 This software contains proprietary and confidential information,
 including trade secrets, belonging to Gaussian, Inc.
  
 This software is provided under written license and may be
 used, copied, transmitted, or stored only in accord with that
 written license.
  
 The following legend is applicable only to US Government
 contracts under FAR:
  
                    RESTRICTED RIGHTS LEGEND
  
 Use, reproduction and disclosure by the US Government is
 subject to restrictions as set forth in subparagraphs (a)
 and (c) of the Commercial Computer Software - Restricted
 Rights clause in FAR 52.227-19.
  
 Gaussian, Inc.
 340 Quinnipiac St., Bldg. 40, Wallingford CT 06492
  
  
 ---------------------------------------------------------------
 Warning -- This program may not be used in any manner that
 competes with the business of Gaussian, Inc. or will provide
 assistance to any competitor of Gaussian, Inc.  The licensee
 of this program is prohibited from giving any competitor of
 Gaussian, Inc. access to this program.  By using this program,
 the user acknowledges that Gaussian, Inc. is engaged in the
 business of creating and licensing software in the field of
 computational chemistry and represents and warrants to the
 licensee that it is not a competitor of Gaussian, Inc. and that
 it will not use this program in any manner prohibited above.
 ---------------------------------------------------------------
  

 Cite this work as:
 Gaussian 16, Revision A.03,
 M. J. Frisch, G. W. Trucks, H. B. Schlegel, G. E. Scuseria, 
 M. A. Robb, J. R. Cheeseman, G. Scalmani, V. Barone, 
 G. A. Petersson, H. Nakatsuji, X. Li, M. Caricato, A. V. Marenich, 
 J. Bloino, B. G. Janesko, R. Gomperts, B. Mennucci, H. P. Hratchian, 
 J. V. Ortiz, A. F. Izmaylov, J. L. Sonnenberg, D. Williams-Young, 
 F. Ding, F. Lipparini, F. Egidi, J. Goings, B. Peng, A. Petrone, 
 T. Henderson, D. Ranasinghe, V. G. Zakrzewski, J. Gao, N. Rega, 
 G. Zheng, W. Liang, M. Hada, M. Ehara, K. Toyota, R. Fukuda, 
 J. Hasegawa, M. Ishida, T. Nakajima, Y. Honda, O. Kitao, H. Nakai, 
 T. Vreven, K. Throssell, J. A. Montgomery, Jr., J. E. Peralta, 
 F. Ogliaro, M. J. Bearpark, J. J. Heyd, E. N. Brothers, K. N. Kudin, 
 V. N. Staroverov, T. A. Keith, R. Kobayashi, J. Normand, 
 K. Raghavachari, A. P. Rendell, J. C. Burant, S. S. Iyengar, 
 J. Tomasi, M. Cossi, J. M. Millam, M. Klene, C. Adamo, R. Cammi, 
 J. W. Ochterski, R. L. Martin, K. Morokuma, O. Farkas, 
 J. B. Foresman, and D. J. Fox, Gaussian, Inc., Wallingford CT, 2016.
 
 ******************************************
 Gaussian 16:  ES64L-G16RevA.03 25-Dec-2016
                21-Dec-2018 
 ******************************************
 %chk=cyclohexyl-diBIP-E1PT.chk
 %mem=10GB
 %nprocshared=16
 Will use up to   16 processors via shared memory.
 ----------------------------------------------------------------
 #p freq(ReadFC,InternalModes) Geom(AllCheck) NoSymm scale=0.9631
 ----------------------------------------------------------------
 1/18=20,29=7,38=1,114=963100/1,3;
 2/9=110,12=2,15=1,40=1/2;
 7/8=21,25=11,30=1/16;
 99/5=2/99;
 Leave Link    1 at Fri Dec 21 18:12:29 2018, MaxMem=  1342177280 cpu:               8.6 elap:               0.6
 (Enter /gpfs/apps/hpc/Apps/Restricted/Gaussian/Rev_A.03/g16/l101.exe)
 Structure from the checkpoint file:  "cyclohexyl-diBIP-E1PT.chk"
 ----------------------------------------------------------------------
 cyclohexylimine diBIP oxidized, first proton transferred, optimization
 ----------------------------------------------------------------------
 Charge =  1 Multiplicity = 2
 Redundant internal coordinates found in file.  (old form).
 C,0,1.544444,1.095848,-0.051665
 C,0,0.306818,1.773909,-0.129153
 C,0,0.283341,3.163491,-0.30952
 C,0,1.504058,3.825007,-0.414714
 C,0,2.727063,3.133936,-0.335477
 C,0,2.783196,1.748067,-0.153649
 C,0,-0.136172,-0.327905,0.12972
 H,0,-0.656922,3.69835,-0.369246
 H,0,1.517485,4.899365,-0.55549
 H,0,3.657122,3.685289,-0.419961
 C,0,-2.278139,-1.534629,0.220001
 C,0,-3.070012,-2.691845,0.296456
 C,0,-2.494973,-3.955313,0.440265
 C,0,-1.10424,-3.998364,0.498552
 C,0,-0.309799,-2.840712,0.406288
 C,0,-0.876061,-1.571531,0.261253
 C,0,-4.412252,-0.909159,0.085186
 H,0,-3.098734,-4.850629,0.503063
 H,0,-0.612829,-4.956133,0.615141
 H,0,0.767604,-2.940784,0.451601
 N,0,-0.726106,0.859064,-0.00889
 C,0,-6.909029,-0.772199,-0.154003
 C,0,-5.606002,-0.103524,-0.025275
 C,0,-5.520727,1.27242,-0.000232
 C,0,-6.673547,2.081028,-0.101259
 C,0,-7.92745,1.44985,-0.24485
 C,0,-8.098564,0.078571,-0.273781
 H,0,-4.556271,1.7517,0.112747
 H,0,-8.799574,2.078725,-0.328449
 C,0,-6.524791,3.594508,-0.016874
 C,0,-9.475988,-0.559735,-0.41991
 O,0,-6.981423,-2.027034,-0.159084
 N,0,-3.138042,-0.464939,0.095951
 N,0,-4.379568,-2.251662,0.204315
 H,0,-2.77043,0.483759,0.010548
 N,0,1.231225,-0.230038,0.114239
 H,0,1.94462,-0.947666,0.182051
 C,0,4.047556,1.024336,-0.068581
 H,0,4.949837,1.63852,-0.158411
 N,0,4.087581,-0.246382,0.097765
 C,0,5.415473,-0.878413,0.168648
 C,0,6.217129,-0.698209,-1.13158
 C,0,6.229553,-0.391763,1.379498
 H,0,5.235956,-1.951702,0.300747
 C,0,7.570612,-1.411486,-1.049254
 H,0,6.378877,0.373159,-1.301227
 H,0,5.63053,-1.072105,-1.975971
 C,0,7.582746,-1.106709,1.458285
 H,0,6.392408,0.688626,1.285396
 H,0,5.652759,-0.5513,2.295287
 C,0,8.380126,-0.933134,0.161113
 H,0,8.13081,-1.249016,-1.974941
 H,0,7.404253,-2.49291,-0.965717
 H,0,8.152511,-0.730039,2.313102
 H,0,7.4147,-2.176397,1.637091
 H,0,9.328228,-1.476161,0.222484
 H,0,8.628185,0.127906,0.030297
 H,0,-5.252851,-2.776503,0.177687
 C,0,-7.858748,4.325319,-0.216881
 H,0,-7.69262,5.402336,-0.147339
 H,0,-8.290298,4.112548,-1.198198
 H,0,-8.589063,4.050968,0.548364
 C,0,-5.52928,4.073943,-1.09498
 H,0,-4.542725,3.622441,-0.968839
 H,0,-5.894081,3.835512,-2.096744
 H,0,-5.412991,5.157927,-1.018992
 C,0,-5.96703,3.945125,1.381647
 H,0,-6.652995,3.619136,2.166971
 H,0,-4.997045,3.474413,1.557188
 H,0,-5.839563,5.027547,1.462989
 C,0,-9.515274,-1.398385,-1.717217
 H,0,-8.772271,-2.194523,-1.693536
 H,0,-10.506821,-1.845005,-1.828421
 H,0,-9.325704,-0.767566,-2.58945
 C,0,-10.588152,0.496896,-0.495892
 H,0,-10.613857,1.121144,0.400776
 H,0,-10.478054,1.148368,-1.366656
 H,0,-11.550965,-0.01179,-0.580254
 C,0,-9.768528,-1.46358,0.800807
 H,0,-10.765138,-1.899004,0.690154
 H,0,-9.039638,-2.267402,0.883948
 H,0,-9.755842,-0.877188,1.723194
 Recover connectivity data from disk.
 ITRead=  0  0  0  0  0  0  0  0  0  0  0  0  0  0  0  0  0  0  0  0
 ITRead=  0  0  0  0  0  0  0  0  0  0  0  0  0  0  0  0  0  0  0  0
 ITRead=  0  0  0  0  0  0  0  0  0  0  0  0  0  0  0  0  0  0  0  0
 ITRead=  0  0  0  0  0  0  0  0  0  0  0  0  0  0  0  0  0  0  0  0
 ITRead=  0  0
 MicOpt= -1 -1 -1 -1 -1 -1 -1 -1 -1 -1 -1 -1 -1 -1 -1 -1 -1 -1 -1 -1
 MicOpt= -1 -1 -1 -1 -1 -1 -1 -1 -1 -1 -1 -1 -1 -1 -1 -1 -1 -1 -1 -1
 MicOpt= -1 -1 -1 -1 -1 -1 -1 -1 -1 -1 -1 -1 -1 -1 -1 -1 -1 -1 -1 -1
 MicOpt= -1 -1 -1 -1 -1 -1 -1 -1 -1 -1 -1 -1 -1 -1 -1 -1 -1 -1 -1 -1
 MicOpt= -1 -1
 NAtoms=     82 NQM=       82 NQMF=       0 NMMI=      0 NMMIF=      0
                NMic=       0 NMicF=      0.
                    Isotopes and Nuclear Properties:
 (Nuclear quadrupole moments (NQMom) in fm**2, nuclear magnetic moments (NMagM)
  in nuclear magnetons)

  Atom         1           2           3           4           5           6           7           8           9          10
 IAtWgt=          12          12          12          12          12          12          12           1           1           1
 AtmWgt=  12.0000000  12.0000000  12.0000000  12.0000000  12.0000000  12.0000000  12.0000000   1.0078250   1.0078250   1.0078250
 NucSpn=           0           0           0           0           0           0           0           1           1           1
 AtZEff=   3.6000000   3.6000000   3.6000000   3.6000000   3.6000000   3.6000000   3.6000000   1.0000000   1.0000000   1.0000000
 NQMom=    0.0000000   0.0000000   0.0000000   0.0000000   0.0000000   0.0000000   0.0000000   0.0000000   0.0000000   0.0000000
 NMagM=    0.0000000   0.0000000   0.0000000   0.0000000   0.0000000   0.0000000   0.0000000   2.7928460   2.7928460   2.7928460
 AtZNuc=   6.0000000   6.0000000   6.0000000   6.0000000   6.0000000   6.0000000   6.0000000   1.0000000   1.0000000   1.0000000

  Atom        11          12          13          14          15          16          17          18          19          20
 IAtWgt=          12          12          12          12          12          12          12           1           1           1
 AtmWgt=  12.0000000  12.0000000  12.0000000  12.0000000  12.0000000  12.0000000  12.0000000   1.0078250   1.0078250   1.0078250
 NucSpn=           0           0           0           0           0           0           0           1           1           1
 AtZEff=   3.6000000   3.6000000   3.6000000   3.6000000   3.6000000   3.6000000   3.6000000   1.0000000   1.0000000   1.0000000
 NQMom=    0.0000000   0.0000000   0.0000000   0.0000000   0.0000000   0.0000000   0.0000000   0.0000000   0.0000000   0.0000000
 NMagM=    0.0000000   0.0000000   0.0000000   0.0000000   0.0000000   0.0000000   0.0000000   2.7928460   2.7928460   2.7928460
 AtZNuc=   6.0000000   6.0000000   6.0000000   6.0000000   6.0000000   6.0000000   6.0000000   1.0000000   1.0000000   1.0000000

  Atom        21          22          23          24          25          26          27          28          29          30
 IAtWgt=          14          12          12          12          12          12          12           1           1          12
 AtmWgt=  14.0030740  12.0000000  12.0000000  12.0000000  12.0000000  12.0000000  12.0000000   1.0078250   1.0078250  12.0000000
 NucSpn=           2           0           0           0           0           0           0           1           1           0
 AtZEff=   4.5500000   3.6000000   3.6000000   3.6000000   3.6000000   3.6000000   3.6000000   1.0000000   1.0000000   3.6000000
 NQMom=    2.0440000   0.0000000   0.0000000   0.0000000   0.0000000   0.0000000   0.0000000   0.0000000   0.0000000   0.0000000
 NMagM=    0.4037610   0.0000000   0.0000000   0.0000000   0.0000000   0.0000000   0.0000000   2.7928460   2.7928460   0.0000000
 AtZNuc=   7.0000000   6.0000000   6.0000000   6.0000000   6.0000000   6.0000000   6.0000000   1.0000000   1.0000000   6.0000000

  Atom        31          32          33          34          35          36          37          38          39          40
 IAtWgt=          12          16          14          14           1          14           1          12           1          14
 AtmWgt=  12.0000000  15.9949146  14.0030740  14.0030740   1.0078250  14.0030740   1.0078250  12.0000000   1.0078250  14.0030740
 NucSpn=           0           0           2           2           1           2           1           0           1           2
 AtZEff=   3.6000000   5.6000000   4.5500000   4.5500000   1.0000000   4.5500000   1.0000000   3.6000000   1.0000000   4.5500000
 NQMom=    0.0000000   0.0000000   2.0440000   2.0440000   0.0000000   2.0440000   0.0000000   0.0000000   0.0000000   2.0440000
 NMagM=    0.0000000   0.0000000   0.4037610   0.4037610   2.7928460   0.4037610   2.7928460   0.0000000   2.7928460   0.4037610
 AtZNuc=   6.0000000   8.0000000   7.0000000   7.0000000   1.0000000   7.0000000   1.0000000   6.0000000   1.0000000   7.0000000

  Atom        41          42          43          44          45          46          47          48          49          50
 IAtWgt=          12          12          12           1          12           1           1          12           1           1
 AtmWgt=  12.0000000  12.0000000  12.0000000   1.0078250  12.0000000   1.0078250   1.0078250  12.0000000   1.0078250   1.0078250
 NucSpn=           0           0           0           1           0           1           1           0           1           1
 AtZEff=   3.6000000   3.6000000   3.6000000   1.0000000   3.6000000   1.0000000   1.0000000   3.6000000   1.0000000   1.0000000
 NQMom=    0.0000000   0.0000000   0.0000000   0.0000000   0.0000000   0.0000000   0.0000000   0.0000000   0.0000000   0.0000000
 NMagM=    0.0000000   0.0000000   0.0000000   2.7928460   0.0000000   2.7928460   2.7928460   0.0000000   2.7928460   2.7928460
 AtZNuc=   6.0000000   6.0000000   6.0000000   1.0000000   6.0000000   1.0000000   1.0000000   6.0000000   1.0000000   1.0000000

  Atom        51          52          53          54          55          56          57          58          59          60
 IAtWgt=          12           1           1           1           1           1           1           1          12           1
 AtmWgt=  12.0000000   1.0078250   1.0078250   1.0078250   1.0078250   1.0078250   1.0078250   1.0078250  12.0000000   1.0078250
 NucSpn=           0           1           1           1           1           1           1           1           0           1
 AtZEff=   3.6000000   1.0000000   1.0000000   1.0000000   1.0000000   1.0000000   1.0000000   1.0000000   3.6000000   1.0000000
 NQMom=    0.0000000   0.0000000   0.0000000   0.0000000   0.0000000   0.0000000   0.0000000   0.0000000   0.0000000   0.0000000
 NMagM=    0.0000000   2.7928460   2.7928460   2.7928460   2.7928460   2.7928460   2.7928460   2.7928460   0.0000000   2.7928460
 AtZNuc=   6.0000000   1.0000000   1.0000000   1.0000000   1.0000000   1.0000000   1.0000000   1.0000000   6.0000000   1.0000000

  Atom        61          62          63          64          65          66          67          68          69          70
 IAtWgt=           1           1          12           1           1           1          12           1           1           1
 AtmWgt=   1.0078250   1.0078250  12.0000000   1.0078250   1.0078250   1.0078250  12.0000000   1.0078250   1.0078250   1.0078250
 NucSpn=           1           1           0           1           1           1           0           1           1           1
 AtZEff=   1.0000000   1.0000000   3.6000000   1.0000000   1.0000000   1.0000000   3.6000000   1.0000000   1.0000000   1.0000000
 NQMom=    0.0000000   0.0000000   0.0000000   0.0000000   0.0000000   0.0000000   0.0000000   0.0000000   0.0000000   0.0000000
 NMagM=    2.7928460   2.7928460   0.0000000   2.7928460   2.7928460   2.7928460   0.0000000   2.7928460   2.7928460   2.7928460
 AtZNuc=   1.0000000   1.0000000   6.0000000   1.0000000   1.0000000   1.0000000   6.0000000   1.0000000   1.0000000   1.0000000

  Atom        71          72          73          74          75          76          77          78          79          80
 IAtWgt=          12           1           1           1          12           1           1           1          12           1
 AtmWgt=  12.0000000   1.0078250   1.0078250   1.0078250  12.0000000   1.0078250   1.0078250   1.0078250  12.0000000   1.0078250
 NucSpn=           0           1           1           1           0           1           1           1           0           1
 AtZEff=   3.6000000   1.0000000   1.0000000   1.0000000   3.6000000   1.0000000   1.0000000   1.0000000   3.6000000   1.0000000
 NQMom=    0.0000000   0.0000000   0.0000000   0.0000000   0.0000000   0.0000000   0.0000000   0.0000000   0.0000000   0.0000000
 NMagM=    0.0000000   2.7928460   2.7928460   2.7928460   0.0000000   2.7928460   2.7928460   2.7928460   0.0000000   2.7928460
 AtZNuc=   6.0000000   1.0000000   1.0000000   1.0000000   6.0000000   1.0000000   1.0000000   1.0000000   6.0000000   1.0000000

  Atom        81          82
 IAtWgt=           1           1
 AtmWgt=   1.0078250   1.0078250
 NucSpn=           1           1
 AtZEff=   1.0000000   1.0000000
 NQMom=    0.0000000   0.0000000
 NMagM=    2.7928460   2.7928460
 AtZNuc=   1.0000000   1.0000000
 Leave Link  101 at Fri Dec 21 18:12:29 2018, MaxMem=  1342177280 cpu:               4.8 elap:               0.3
 (Enter /gpfs/apps/hpc/Apps/Restricted/Gaussian/Rev_A.03/g16/l103.exe)

 GradGradGradGradGradGradGradGradGradGradGradGradGradGradGradGradGradGrad
 Berny optimization.
 Initialization pass.
                           ----------------------------
                           !    Initial Parameters    !
                           ! (Angstroms and Degrees)  !
 --------------------------                            --------------------------
 ! Name  Definition              Value          Derivative Info.                !
 --------------------------------------------------------------------------------
 ! R1    R(1,2)                  1.4133         estimate D2E/DX2                !
 ! R2    R(1,6)                  1.4037         estimate D2E/DX2                !
 ! R3    R(1,36)                 1.3724         estimate D2E/DX2                !
 ! R4    R(2,3)                  1.4014         estimate D2E/DX2                !
 ! R5    R(2,21)                 1.385          estimate D2E/DX2                !
 ! R6    R(3,4)                  1.3924         estimate D2E/DX2                !
 ! R7    R(3,8)                  1.0834         estimate D2E/DX2                !
 ! R8    R(4,5)                  1.407          estimate D2E/DX2                !
 ! R9    R(4,9)                  1.0836         estimate D2E/DX2                !
 ! R10   R(5,6)                  1.3989         estimate D2E/DX2                !
 ! R11   R(5,10)                 1.0845         estimate D2E/DX2                !
 ! R12   R(6,38)                 1.4593         estimate D2E/DX2                !
 ! R13   R(7,16)                 1.453          estimate D2E/DX2                !
 ! R14   R(7,21)                 1.3327         estimate D2E/DX2                !
 ! R15   R(7,36)                 1.371          estimate D2E/DX2                !
 ! R16   R(11,12)                1.4043         estimate D2E/DX2                !
 ! R17   R(11,16)                1.4032         estimate D2E/DX2                !
 ! R18   R(11,33)                1.3781         estimate D2E/DX2                !
 ! R19   R(12,13)                1.3956         estimate D2E/DX2                !
 ! R20   R(12,34)                1.3846         estimate D2E/DX2                !
 ! R21   R(13,14)                1.3926         estimate D2E/DX2                !
 ! R22   R(13,18)                1.0817         estimate D2E/DX2                !
 ! R23   R(14,15)                1.4071         estimate D2E/DX2                !
 ! R24   R(14,19)                1.0828         estimate D2E/DX2                !
 ! R25   R(15,16)                1.3973         estimate D2E/DX2                !
 ! R26   R(15,20)                1.083          estimate D2E/DX2                !
 ! R27   R(17,23)                1.4444         estimate D2E/DX2                !
 ! R28   R(17,33)                1.3495         estimate D2E/DX2                !
 ! R29   R(17,34)                1.3482         estimate D2E/DX2                !
 ! R30   R(22,23)                1.4702         estimate D2E/DX2                !
 ! R31   R(22,27)                1.4674         estimate D2E/DX2                !
 ! R32   R(22,32)                1.2569         estimate D2E/DX2                !
 ! R33   R(23,24)                1.3788         estimate D2E/DX2                !
 ! R34   R(24,25)                1.4118         estimate D2E/DX2                !
 ! R35   R(24,28)                1.0829         estimate D2E/DX2                !
 ! R36   R(25,26)                1.4111         estimate D2E/DX2                !
 ! R37   R(25,30)                1.5231         estimate D2E/DX2                !
 ! R38   R(26,27)                1.3822         estimate D2E/DX2                !
 ! R39   R(26,29)                1.0785         estimate D2E/DX2                !
 ! R40   R(27,31)                1.5252         estimate D2E/DX2                !
 ! R41   R(30,59)                1.5341         estimate D2E/DX2                !
 ! R42   R(30,63)                1.5438         estimate D2E/DX2                !
 ! R43   R(30,67)                1.5459         estimate D2E/DX2                !
 ! R44   R(31,71)                1.5453         estimate D2E/DX2                !
 ! R45   R(31,75)                1.536          estimate D2E/DX2                !
 ! R46   R(31,79)                1.5468         estimate D2E/DX2                !
 ! R47   R(33,35)                1.021          estimate D2E/DX2                !
 ! R48   R(34,58)                1.0192         estimate D2E/DX2                !
 ! R49   R(36,37)                1.0142         estimate D2E/DX2                !
 ! R50   R(38,39)                1.0952         estimate D2E/DX2                !
 ! R51   R(38,40)                1.2822         estimate D2E/DX2                !
 ! R52   R(40,41)                1.4723         estimate D2E/DX2                !
 ! R53   R(41,42)                1.5381         estimate D2E/DX2                !
 ! R54   R(41,43)                1.5381         estimate D2E/DX2                !
 ! R55   R(41,44)                1.0962         estimate D2E/DX2                !
 ! R56   R(42,45)                1.5321         estimate D2E/DX2                !
 ! R57   R(42,46)                1.0967         estimate D2E/DX2                !
 ! R58   R(42,47)                1.094          estimate D2E/DX2                !
 ! R59   R(43,48)                1.5325         estimate D2E/DX2                !
 ! R60   R(43,49)                1.0966         estimate D2E/DX2                !
 ! R61   R(43,50)                1.094          estimate D2E/DX2                !
 ! R62   R(45,51)                1.5327         estimate D2E/DX2                !
 ! R63   R(45,52)                1.0941         estimate D2E/DX2                !
 ! R64   R(45,53)                1.0973         estimate D2E/DX2                !
 ! R65   R(48,51)                1.5325         estimate D2E/DX2                !
 ! R66   R(48,54)                1.0942         estimate D2E/DX2                !
 ! R67   R(48,55)                1.0975         estimate D2E/DX2                !
 ! R68   R(51,56)                1.0943         estimate D2E/DX2                !
 ! R69   R(51,57)                1.0975         estimate D2E/DX2                !
 ! R70   R(59,60)                1.092          estimate D2E/DX2                !
 ! R71   R(59,61)                1.0929         estimate D2E/DX2                !
 ! R72   R(59,62)                1.0928         estimate D2E/DX2                !
 ! R73   R(63,64)                1.0923         estimate D2E/DX2                !
 ! R74   R(63,65)                1.0925         estimate D2E/DX2                !
 ! R75   R(63,66)                1.0928         estimate D2E/DX2                !
 ! R76   R(67,68)                1.0925         estimate D2E/DX2                !
 ! R77   R(67,69)                1.0924         estimate D2E/DX2                !
 ! R78   R(67,70)                1.0929         estimate D2E/DX2                !
 ! R79   R(71,72)                1.0892         estimate D2E/DX2                !
 ! R80   R(71,73)                1.0932         estimate D2E/DX2                !
 ! R81   R(71,74)                1.093          estimate D2E/DX2                !
 ! R82   R(75,76)                1.0929         estimate D2E/DX2                !
 ! R83   R(75,77)                1.0931         estimate D2E/DX2                !
 ! R84   R(75,78)                1.0922         estimate D2E/DX2                !
 ! R85   R(79,80)                1.0932         estimate D2E/DX2                !
 ! R86   R(79,81)                1.0883         estimate D2E/DX2                !
 ! R87   R(79,82)                1.0931         estimate D2E/DX2                !
 ! A1    A(2,1,6)              123.0856         estimate D2E/DX2                !
 ! A2    A(2,1,36)             105.6801         estimate D2E/DX2                !
 ! A3    A(6,1,36)             131.2296         estimate D2E/DX2                !
 ! A4    A(1,2,3)              119.8302         estimate D2E/DX2                !
 ! A5    A(1,2,21)             109.3542         estimate D2E/DX2                !
 ! A6    A(3,2,21)             130.8146         estimate D2E/DX2                !
 ! A7    A(2,3,4)              117.7817         estimate D2E/DX2                !
 ! A8    A(2,3,8)              120.7403         estimate D2E/DX2                !
 ! A9    A(4,3,8)              121.4773         estimate D2E/DX2                !
 ! A10   A(3,4,5)              121.6313         estimate D2E/DX2                !
 ! A11   A(3,4,9)              119.4524         estimate D2E/DX2                !
 ! A12   A(5,4,9)              118.9154         estimate D2E/DX2                !
 ! A13   A(4,5,6)              121.9249         estimate D2E/DX2                !
 ! A14   A(4,5,10)             119.4299         estimate D2E/DX2                !
 ! A15   A(6,5,10)             118.645          estimate D2E/DX2                !
 ! A16   A(1,6,5)              115.7448         estimate D2E/DX2                !
 ! A17   A(1,6,38)             122.0009         estimate D2E/DX2                !
 ! A18   A(5,6,38)             122.2537         estimate D2E/DX2                !
 ! A19   A(16,7,21)            123.113          estimate D2E/DX2                !
 ! A20   A(16,7,36)            124.7492         estimate D2E/DX2                !
 ! A21   A(21,7,36)            112.1323         estimate D2E/DX2                !
 ! A22   A(12,11,16)           122.6959         estimate D2E/DX2                !
 ! A23   A(12,11,33)           107.0189         estimate D2E/DX2                !
 ! A24   A(16,11,33)           130.2834         estimate D2E/DX2                !
 ! A25   A(11,12,13)           121.2852         estimate D2E/DX2                !
 ! A26   A(11,12,34)           105.5289         estimate D2E/DX2                !
 ! A27   A(13,12,34)           133.1856         estimate D2E/DX2                !
 ! A28   A(12,13,14)           116.3452         estimate D2E/DX2                !
 ! A29   A(12,13,18)           121.6906         estimate D2E/DX2                !
 ! A30   A(14,13,18)           121.9642         estimate D2E/DX2                !
 ! A31   A(13,14,15)           122.3893         estimate D2E/DX2                !
 ! A32   A(13,14,19)           119.0178         estimate D2E/DX2                !
 ! A33   A(15,14,19)           118.5925         estimate D2E/DX2                !
 ! A34   A(14,15,16)           121.6882         estimate D2E/DX2                !
 ! A35   A(14,15,20)           118.877          estimate D2E/DX2                !
 ! A36   A(16,15,20)           119.4346         estimate D2E/DX2                !
 ! A37   A(7,16,11)            118.9229         estimate D2E/DX2                !
 ! A38   A(7,16,15)            125.4809         estimate D2E/DX2                !
 ! A39   A(11,16,15)           115.5864         estimate D2E/DX2                !
 ! A40   A(23,17,33)           126.6827         estimate D2E/DX2                !
 ! A41   A(23,17,34)           125.6063         estimate D2E/DX2                !
 ! A42   A(33,17,34)           107.7101         estimate D2E/DX2                !
 ! A43   A(2,21,7)             105.4974         estimate D2E/DX2                !
 ! A44   A(23,22,27)           117.511          estimate D2E/DX2                !
 ! A45   A(23,22,32)           120.3613         estimate D2E/DX2                !
 ! A46   A(27,22,32)           122.1277         estimate D2E/DX2                !
 ! A47   A(17,23,22)           119.045          estimate D2E/DX2                !
 ! A48   A(17,23,24)           120.2717         estimate D2E/DX2                !
 ! A49   A(22,23,24)           120.6816         estimate D2E/DX2                !
 ! A50   A(23,24,25)           121.3171         estimate D2E/DX2                !
 ! A51   A(23,24,28)           119.9108         estimate D2E/DX2                !
 ! A52   A(25,24,28)           118.7665         estimate D2E/DX2                !
 ! A53   A(24,25,26)           118.4698         estimate D2E/DX2                !
 ! A54   A(24,25,30)           119.0406         estimate D2E/DX2                !
 ! A55   A(26,25,30)           122.4715         estimate D2E/DX2                !
 ! A56   A(25,26,27)           123.7714         estimate D2E/DX2                !
 ! A57   A(25,26,29)           117.7517         estimate D2E/DX2                !
 ! A58   A(27,26,29)           118.475          estimate D2E/DX2                !
 ! A59   A(22,27,26)           118.2384         estimate D2E/DX2                !
 ! A60   A(22,27,31)           119.8219         estimate D2E/DX2                !
 ! A61   A(26,27,31)           121.9392         estimate D2E/DX2                !
 ! A62   A(25,30,59)           112.4088         estimate D2E/DX2                !
 ! A63   A(25,30,63)           109.4441         estimate D2E/DX2                !
 ! A64   A(25,30,67)           108.1028         estimate D2E/DX2                !
 ! A65   A(59,30,63)           108.7677         estimate D2E/DX2                !
 ! A66   A(59,30,67)           108.8819         estimate D2E/DX2                !
 ! A67   A(63,30,67)           109.1884         estimate D2E/DX2                !
 ! A68   A(27,31,71)           109.3014         estimate D2E/DX2                !
 ! A69   A(27,31,75)           111.7636         estimate D2E/DX2                !
 ! A70   A(27,31,79)           109.8612         estimate D2E/DX2                !
 ! A71   A(71,31,75)           108.2651         estimate D2E/DX2                !
 ! A72   A(71,31,79)           109.9138         estimate D2E/DX2                !
 ! A73   A(75,31,79)           107.7024         estimate D2E/DX2                !
 ! A74   A(11,33,17)           109.5357         estimate D2E/DX2                !
 ! A75   A(11,33,35)           120.2726         estimate D2E/DX2                !
 ! A76   A(17,33,35)           130.1784         estimate D2E/DX2                !
 ! A77   A(12,34,17)           110.2049         estimate D2E/DX2                !
 ! A78   A(12,34,58)           130.4212         estimate D2E/DX2                !
 ! A79   A(17,34,58)           119.321          estimate D2E/DX2                !
 ! A80   A(1,36,7)             107.3346         estimate D2E/DX2                !
 ! A81   A(1,36,37)            122.0831         estimate D2E/DX2                !
 ! A82   A(7,36,37)            130.5663         estimate D2E/DX2                !
 ! A83   A(6,38,39)            115.5244         estimate D2E/DX2                !
 ! A84   A(6,38,40)            121.7429         estimate D2E/DX2                !
 ! A85   A(39,38,40)           122.7326         estimate D2E/DX2                !
 ! A86   A(38,40,41)           117.3762         estimate D2E/DX2                !
 ! A87   A(40,41,42)           112.2765         estimate D2E/DX2                !
 ! A88   A(40,41,43)           112.2986         estimate D2E/DX2                !
 ! A89   A(40,41,44)           106.1651         estimate D2E/DX2                !
 ! A90   A(42,41,43)           110.6444         estimate D2E/DX2                !
 ! A91   A(42,41,44)           107.5742         estimate D2E/DX2                !
 ! A92   A(43,41,44)           107.5537         estimate D2E/DX2                !
 ! A93   A(41,42,45)           111.1285         estimate D2E/DX2                !
 ! A94   A(41,42,46)           108.7893         estimate D2E/DX2                !
 ! A95   A(41,42,47)           109.4485         estimate D2E/DX2                !
 ! A96   A(45,42,46)           109.4394         estimate D2E/DX2                !
 ! A97   A(45,42,47)           110.8565         estimate D2E/DX2                !
 ! A98   A(46,42,47)           107.0708         estimate D2E/DX2                !
 ! A99   A(41,43,48)           111.114          estimate D2E/DX2                !
 ! A100  A(41,43,49)           108.8298         estimate D2E/DX2                !
 ! A101  A(41,43,50)           109.5003         estimate D2E/DX2                !
 ! A102  A(48,43,49)           109.4448         estimate D2E/DX2                !
 ! A103  A(48,43,50)           110.762          estimate D2E/DX2                !
 ! A104  A(49,43,50)           107.0855         estimate D2E/DX2                !
 ! A105  A(42,45,51)           111.3286         estimate D2E/DX2                !
 ! A106  A(42,45,52)           109.7375         estimate D2E/DX2                !
 ! A107  A(42,45,53)           109.2056         estimate D2E/DX2                !
 ! A108  A(51,45,52)           110.5706         estimate D2E/DX2                !
 ! A109  A(51,45,53)           109.119          estimate D2E/DX2                !
 ! A110  A(52,45,53)           106.7604         estimate D2E/DX2                !
 ! A111  A(43,48,51)           111.2896         estimate D2E/DX2                !
 ! A112  A(43,48,54)           109.8383         estimate D2E/DX2                !
 ! A113  A(43,48,55)           109.1406         estimate D2E/DX2                !
 ! A114  A(51,48,54)           110.5694         estimate D2E/DX2                !
 ! A115  A(51,48,55)           109.1456         estimate D2E/DX2                !
 ! A116  A(54,48,55)           106.7373         estimate D2E/DX2                !
 ! A117  A(45,51,48)           110.9942         estimate D2E/DX2                !
 ! A118  A(45,51,56)           110.3046         estimate D2E/DX2                !
 ! A119  A(45,51,57)           109.0861         estimate D2E/DX2                !
 ! A120  A(48,51,56)           110.3109         estimate D2E/DX2                !
 ! A121  A(48,51,57)           109.1473         estimate D2E/DX2                !
 ! A122  A(56,51,57)           106.8943         estimate D2E/DX2                !
 ! A123  A(30,59,60)           109.2238         estimate D2E/DX2                !
 ! A124  A(30,59,61)           111.5712         estimate D2E/DX2                !
 ! A125  A(30,59,62)           111.7285         estimate D2E/DX2                !
 ! A126  A(60,59,61)           108.0151         estimate D2E/DX2                !
 ! A127  A(60,59,62)           107.7395         estimate D2E/DX2                !
 ! A128  A(61,59,62)           108.4206         estimate D2E/DX2                !
 ! A129  A(30,63,64)           111.9268         estimate D2E/DX2                !
 ! A130  A(30,63,65)           110.9325         estimate D2E/DX2                !
 ! A131  A(30,63,66)           109.1537         estimate D2E/DX2                !
 ! A132  A(64,63,65)           108.4991         estimate D2E/DX2                !
 ! A133  A(64,63,66)           107.8104         estimate D2E/DX2                !
 ! A134  A(65,63,66)           108.4076         estimate D2E/DX2                !
 ! A135  A(30,67,68)           110.8596         estimate D2E/DX2                !
 ! A136  A(30,67,69)           111.5935         estimate D2E/DX2                !
 ! A137  A(30,67,70)           109.5134         estimate D2E/DX2                !
 ! A138  A(68,67,69)           108.2673         estimate D2E/DX2                !
 ! A139  A(68,67,70)           108.3759         estimate D2E/DX2                !
 ! A140  A(69,67,70)           108.1343         estimate D2E/DX2                !
 ! A141  A(31,71,72)           111.1668         estimate D2E/DX2                !
 ! A142  A(31,71,73)           109.2806         estimate D2E/DX2                !
 ! A143  A(31,71,74)           110.6294         estimate D2E/DX2                !
 ! A144  A(72,71,73)           108.8029         estimate D2E/DX2                !
 ! A145  A(72,71,74)           108.7162         estimate D2E/DX2                !
 ! A146  A(73,71,74)           108.1758         estimate D2E/DX2                !
 ! A147  A(31,75,76)           111.6781         estimate D2E/DX2                !
 ! A148  A(31,75,77)           112.1164         estimate D2E/DX2                !
 ! A149  A(31,75,78)           108.7676         estimate D2E/DX2                !
 ! A150  A(76,75,77)           108.3936         estimate D2E/DX2                !
 ! A151  A(76,75,78)           107.9794         estimate D2E/DX2                !
 ! A152  A(77,75,78)           107.7492         estimate D2E/DX2                !
 ! A153  A(31,79,80)           108.9821         estimate D2E/DX2                !
 ! A154  A(31,79,81)           111.421          estimate D2E/DX2                !
 ! A155  A(31,79,82)           110.5045         estimate D2E/DX2                !
 ! A156  A(80,79,81)           108.913          estimate D2E/DX2                !
 ! A157  A(80,79,82)           108.0393         estimate D2E/DX2                !
 ! A158  A(81,79,82)           108.9052         estimate D2E/DX2                !
 ! D1    D(6,1,2,3)             -0.3188         estimate D2E/DX2                !
 ! D2    D(6,1,2,21)           179.3559         estimate D2E/DX2                !
 ! D3    D(36,1,2,3)          -179.6098         estimate D2E/DX2                !
 ! D4    D(36,1,2,21)            0.065          estimate D2E/DX2                !
 ! D5    D(2,1,6,5)              0.2026         estimate D2E/DX2                !
 ! D6    D(2,1,6,38)           179.921          estimate D2E/DX2                !
 ! D7    D(36,1,6,5)           179.2948         estimate D2E/DX2                !
 ! D8    D(36,1,6,38)           -0.9867         estimate D2E/DX2                !
 ! D9    D(2,1,36,7)             0.1668         estimate D2E/DX2                !
 ! D10   D(2,1,36,37)          178.8527         estimate D2E/DX2                !
 ! D11   D(6,1,36,7)          -179.0433         estimate D2E/DX2                !
 ! D12   D(6,1,36,37)           -0.3573         estimate D2E/DX2                !
 ! D13   D(1,2,3,4)              0.4039         estimate D2E/DX2                !
 ! D14   D(1,2,3,8)           -179.8959         estimate D2E/DX2                !
 ! D15   D(21,2,3,4)          -179.1906         estimate D2E/DX2                !
 ! D16   D(21,2,3,8)             0.5096         estimate D2E/DX2                !
 ! D17   D(1,2,21,7)            -0.2746         estimate D2E/DX2                !
 ! D18   D(3,2,21,7)           179.3526         estimate D2E/DX2                !
 ! D19   D(2,3,4,5)             -0.4051         estimate D2E/DX2                !
 ! D20   D(2,3,4,9)            179.9501         estimate D2E/DX2                !
 ! D21   D(8,3,4,5)            179.897          estimate D2E/DX2                !
 ! D22   D(8,3,4,9)              0.2522         estimate D2E/DX2                !
 ! D23   D(3,4,5,6)              0.3099         estimate D2E/DX2                !
 ! D24   D(3,4,5,10)          -179.8726         estimate D2E/DX2                !
 ! D25   D(9,4,5,6)            179.9565         estimate D2E/DX2                !
 ! D26   D(9,4,5,10)            -0.226          estimate D2E/DX2                !
 ! D27   D(4,5,6,1)             -0.1936         estimate D2E/DX2                !
 ! D28   D(4,5,6,38)          -179.9112         estimate D2E/DX2                !
 ! D29   D(10,5,6,1)           179.9875         estimate D2E/DX2                !
 ! D30   D(10,5,6,38)            0.2699         estimate D2E/DX2                !
 ! D31   D(1,6,38,39)         -179.8051         estimate D2E/DX2                !
 ! D32   D(1,6,38,40)            0.3241         estimate D2E/DX2                !
 ! D33   D(5,6,38,39)           -0.105          estimate D2E/DX2                !
 ! D34   D(5,6,38,40)         -179.9757         estimate D2E/DX2                !
 ! D35   D(21,7,16,11)           1.0659         estimate D2E/DX2                !
 ! D36   D(21,7,16,15)         179.8737         estimate D2E/DX2                !
 ! D37   D(36,7,16,11)        -178.0075         estimate D2E/DX2                !
 ! D38   D(36,7,16,15)           0.8003         estimate D2E/DX2                !
 ! D39   D(16,7,21,2)         -178.787          estimate D2E/DX2                !
 ! D40   D(36,7,21,2)            0.3911         estimate D2E/DX2                !
 ! D41   D(16,7,36,1)          178.8021         estimate D2E/DX2                !
 ! D42   D(16,7,36,37)           0.2678         estimate D2E/DX2                !
 ! D43   D(21,7,36,1)           -0.36           estimate D2E/DX2                !
 ! D44   D(21,7,36,37)        -178.8944         estimate D2E/DX2                !
 ! D45   D(16,11,12,13)          1.0138         estimate D2E/DX2                !
 ! D46   D(16,11,12,34)       -179.1762         estimate D2E/DX2                !
 ! D47   D(33,11,12,13)       -179.4231         estimate D2E/DX2                !
 ! D48   D(33,11,12,34)          0.3868         estimate D2E/DX2                !
 ! D49   D(12,11,16,7)         177.9198         estimate D2E/DX2                !
 ! D50   D(12,11,16,15)         -1.0038         estimate D2E/DX2                !
 ! D51   D(33,11,16,7)          -1.5325         estimate D2E/DX2                !
 ! D52   D(33,11,16,15)        179.5439         estimate D2E/DX2                !
 ! D53   D(12,11,33,17)         -0.34           estimate D2E/DX2                !
 ! D54   D(12,11,33,35)       -179.1408         estimate D2E/DX2                !
 ! D55   D(16,11,33,17)        179.178          estimate D2E/DX2                !
 ! D56   D(16,11,33,35)          0.3772         estimate D2E/DX2                !
 ! D57   D(11,12,13,14)         -0.1862         estimate D2E/DX2                !
 ! D58   D(11,12,13,18)        179.7973         estimate D2E/DX2                !
 ! D59   D(34,12,13,14)       -179.9351         estimate D2E/DX2                !
 ! D60   D(34,12,13,18)          0.0484         estimate D2E/DX2                !
 ! D61   D(11,12,34,17)         -0.3069         estimate D2E/DX2                !
 ! D62   D(11,12,34,58)        176.9734         estimate D2E/DX2                !
 ! D63   D(13,12,34,17)        179.4704         estimate D2E/DX2                !
 ! D64   D(13,12,34,58)         -3.2493         estimate D2E/DX2                !
 ! D65   D(12,13,14,15)         -0.573          estimate D2E/DX2                !
 ! D66   D(12,13,14,19)        179.6741         estimate D2E/DX2                !
 ! D67   D(18,13,14,15)        179.4435         estimate D2E/DX2                !
 ! D68   D(18,13,14,19)         -0.3093         estimate D2E/DX2                !
 ! D69   D(13,14,15,16)          0.5568         estimate D2E/DX2                !
 ! D70   D(13,14,15,20)       -179.5841         estimate D2E/DX2                !
 ! D71   D(19,14,15,16)       -179.6893         estimate D2E/DX2                !
 ! D72   D(19,14,15,20)          0.1698         estimate D2E/DX2                !
 ! D73   D(14,15,16,7)        -178.6057         estimate D2E/DX2                !
 ! D74   D(14,15,16,11)          0.2373         estimate D2E/DX2                !
 ! D75   D(20,15,16,7)           1.536          estimate D2E/DX2                !
 ! D76   D(20,15,16,11)       -179.621          estimate D2E/DX2                !
 ! D77   D(33,17,23,22)        173.9806         estimate D2E/DX2                !
 ! D78   D(33,17,23,24)         -6.4793         estimate D2E/DX2                !
 ! D79   D(34,17,23,22)         -6.4164         estimate D2E/DX2                !
 ! D80   D(34,17,23,24)        173.1238         estimate D2E/DX2                !
 ! D81   D(23,17,33,11)        179.812          estimate D2E/DX2                !
 ! D82   D(23,17,33,35)         -1.5436         estimate D2E/DX2                !
 ! D83   D(34,17,33,11)          0.1508         estimate D2E/DX2                !
 ! D84   D(34,17,33,35)        178.7953         estimate D2E/DX2                !
 ! D85   D(23,17,34,12)       -179.5623         estimate D2E/DX2                !
 ! D86   D(23,17,34,58)          2.8122         estimate D2E/DX2                !
 ! D87   D(33,17,34,12)          0.1035         estimate D2E/DX2                !
 ! D88   D(33,17,34,58)       -177.522          estimate D2E/DX2                !
 ! D89   D(27,22,23,17)       -179.5635         estimate D2E/DX2                !
 ! D90   D(27,22,23,24)          0.8982         estimate D2E/DX2                !
 ! D91   D(32,22,23,17)          0.4462         estimate D2E/DX2                !
 ! D92   D(32,22,23,24)       -179.092          estimate D2E/DX2                !
 ! D93   D(23,22,27,26)         -0.6561         estimate D2E/DX2                !
 ! D94   D(23,22,27,31)        179.5715         estimate D2E/DX2                !
 ! D95   D(32,22,27,26)        179.3339         estimate D2E/DX2                !
 ! D96   D(32,22,27,31)         -0.4385         estimate D2E/DX2                !
 ! D97   D(17,23,24,25)       -179.7504         estimate D2E/DX2                !
 ! D98   D(17,23,24,28)         -0.6202         estimate D2E/DX2                !
 ! D99   D(22,23,24,25)         -0.2178         estimate D2E/DX2                !
 ! D100  D(22,23,24,28)        178.9124         estimate D2E/DX2                !
 ! D101  D(23,24,25,26)         -0.6997         estimate D2E/DX2                !
 ! D102  D(23,24,25,30)        177.7917         estimate D2E/DX2                !
 ! D103  D(28,24,25,26)       -179.8396         estimate D2E/DX2                !
 ! D104  D(28,24,25,30)         -1.3482         estimate D2E/DX2                !
 ! D105  D(24,25,26,27)          0.959          estimate D2E/DX2                !
 ! D106  D(24,25,26,29)       -179.5491         estimate D2E/DX2                !
 ! D107  D(30,25,26,27)       -177.4776         estimate D2E/DX2                !
 ! D108  D(30,25,26,29)          2.0143         estimate D2E/DX2                !
 ! D109  D(24,25,30,59)        177.03           estimate D2E/DX2                !
 ! D110  D(24,25,30,63)         56.0574         estimate D2E/DX2                !
 ! D111  D(24,25,30,67)        -62.7659         estimate D2E/DX2                !
 ! D112  D(26,25,30,59)         -4.542          estimate D2E/DX2                !
 ! D113  D(26,25,30,63)       -125.5145         estimate D2E/DX2                !
 ! D114  D(26,25,30,67)        115.6621         estimate D2E/DX2                !
 ! D115  D(25,26,27,22)         -0.2604         estimate D2E/DX2                !
 ! D116  D(25,26,27,31)        179.5069         estimate D2E/DX2                !
 ! D117  D(29,26,27,22)       -179.7489         estimate D2E/DX2                !
 ! D118  D(29,26,27,31)          0.0184         estimate D2E/DX2                !
 ! D119  D(22,27,31,71)        -61.5635         estimate D2E/DX2                !
 ! D120  D(22,27,31,75)        178.6092         estimate D2E/DX2                !
 ! D121  D(22,27,31,79)         59.1153         estimate D2E/DX2                !
 ! D122  D(26,27,31,71)        118.6727         estimate D2E/DX2                !
 ! D123  D(26,27,31,75)         -1.1545         estimate D2E/DX2                !
 ! D124  D(26,27,31,79)       -120.6485         estimate D2E/DX2                !
 ! D125  D(25,30,59,60)       -179.9546         estimate D2E/DX2                !
 ! D126  D(25,30,59,61)        -60.6103         estimate D2E/DX2                !
 ! D127  D(25,30,59,62)         60.9458         estimate D2E/DX2                !
 ! D128  D(63,30,59,60)        -58.5946         estimate D2E/DX2                !
 ! D129  D(63,30,59,61)         60.7497         estimate D2E/DX2                !
 ! D130  D(63,30,59,62)       -177.6942         estimate D2E/DX2                !
 ! D131  D(67,30,59,60)         60.293          estimate D2E/DX2                !
 ! D132  D(67,30,59,61)        179.6373         estimate D2E/DX2                !
 ! D133  D(67,30,59,62)        -58.8066         estimate D2E/DX2                !
 ! D134  D(25,30,63,64)        -59.7679         estimate D2E/DX2                !
 ! D135  D(25,30,63,65)         61.5762         estimate D2E/DX2                !
 ! D136  D(25,30,63,66)       -179.0333         estimate D2E/DX2                !
 ! D137  D(59,30,63,64)        177.0757         estimate D2E/DX2                !
 ! D138  D(59,30,63,65)        -61.5802         estimate D2E/DX2                !
 ! D139  D(59,30,63,66)         57.8103         estimate D2E/DX2                !
 ! D140  D(67,30,63,64)         58.3804         estimate D2E/DX2                !
 ! D141  D(67,30,63,65)        179.7245         estimate D2E/DX2                !
 ! D142  D(67,30,63,66)        -60.885          estimate D2E/DX2                !
 ! D143  D(25,30,67,68)        -61.1449         estimate D2E/DX2                !
 ! D144  D(25,30,67,69)         59.6239         estimate D2E/DX2                !
 ! D145  D(25,30,67,70)        179.3199         estimate D2E/DX2                !
 ! D146  D(59,30,67,68)         61.2454         estimate D2E/DX2                !
 ! D147  D(59,30,67,69)       -177.9858         estimate D2E/DX2                !
 ! D148  D(59,30,67,70)        -58.2898         estimate D2E/DX2                !
 ! D149  D(63,30,67,68)        179.8694         estimate D2E/DX2                !
 ! D150  D(63,30,67,69)        -59.3618         estimate D2E/DX2                !
 ! D151  D(63,30,67,70)         60.3342         estimate D2E/DX2                !
 ! D152  D(27,31,71,72)         60.6345         estimate D2E/DX2                !
 ! D153  D(27,31,71,73)       -179.2582         estimate D2E/DX2                !
 ! D154  D(27,31,71,74)        -60.2586         estimate D2E/DX2                !
 ! D155  D(75,31,71,72)       -177.4078         estimate D2E/DX2                !
 ! D156  D(75,31,71,73)        -57.3006         estimate D2E/DX2                !
 ! D157  D(75,31,71,74)         61.699          estimate D2E/DX2                !
 ! D158  D(79,31,71,72)        -60.0121         estimate D2E/DX2                !
 ! D159  D(79,31,71,73)         60.0952         estimate D2E/DX2                !
 ! D160  D(79,31,71,74)        179.0947         estimate D2E/DX2                !
 ! D161  D(27,31,75,76)        -59.8563         estimate D2E/DX2                !
 ! D162  D(27,31,75,77)         62.0188         estimate D2E/DX2                !
 ! D163  D(27,31,75,78)       -178.9273         estimate D2E/DX2                !
 ! D164  D(71,31,75,76)        179.7092         estimate D2E/DX2                !
 ! D165  D(71,31,75,77)        -58.4157         estimate D2E/DX2                !
 ! D166  D(71,31,75,78)         60.6382         estimate D2E/DX2                !
 ! D167  D(79,31,75,76)         60.9028         estimate D2E/DX2                !
 ! D168  D(79,31,75,77)       -177.222          estimate D2E/DX2                !
 ! D169  D(79,31,75,78)        -58.1681         estimate D2E/DX2                !
 ! D170  D(27,31,79,80)        178.9926         estimate D2E/DX2                !
 ! D171  D(27,31,79,81)        -60.7983         estimate D2E/DX2                !
 ! D172  D(27,31,79,82)         60.4203         estimate D2E/DX2                !
 ! D173  D(71,31,79,80)        -60.6991         estimate D2E/DX2                !
 ! D174  D(71,31,79,81)         59.51           estimate D2E/DX2                !
 ! D175  D(71,31,79,82)       -179.2714         estimate D2E/DX2                !
 ! D176  D(75,31,79,80)         57.0465         estimate D2E/DX2                !
 ! D177  D(75,31,79,81)        177.2555         estimate D2E/DX2                !
 ! D178  D(75,31,79,82)        -61.5259         estimate D2E/DX2                !
 ! D179  D(6,38,40,41)         179.9277         estimate D2E/DX2                !
 ! D180  D(39,38,40,41)          0.0664         estimate D2E/DX2                !
 ! D181  D(38,40,41,42)        -62.154          estimate D2E/DX2                !
 ! D182  D(38,40,41,43)         63.2822         estimate D2E/DX2                !
 ! D183  D(38,40,41,44)       -179.4423         estimate D2E/DX2                !
 ! D184  D(40,41,42,45)       -177.7868         estimate D2E/DX2                !
 ! D185  D(40,41,42,46)         61.6589         estimate D2E/DX2                !
 ! D186  D(40,41,42,47)        -55.0189         estimate D2E/DX2                !
 ! D187  D(43,41,42,45)         55.8776         estimate D2E/DX2                !
 ! D188  D(43,41,42,46)        -64.6767         estimate D2E/DX2                !
 ! D189  D(43,41,42,47)        178.6455         estimate D2E/DX2                !
 ! D190  D(44,41,42,45)        -61.342          estimate D2E/DX2                !
 ! D191  D(44,41,42,46)        178.1038         estimate D2E/DX2                !
 ! D192  D(44,41,42,47)         61.4259         estimate D2E/DX2                !
 ! D193  D(40,41,43,48)        177.7524         estimate D2E/DX2                !
 ! D194  D(40,41,43,49)        -61.6695         estimate D2E/DX2                !
 ! D195  D(40,41,43,50)         55.078          estimate D2E/DX2                !
 ! D196  D(42,41,43,48)        -55.9243         estimate D2E/DX2                !
 ! D197  D(42,41,43,49)         64.6538         estimate D2E/DX2                !
 ! D198  D(42,41,43,50)       -178.5987         estimate D2E/DX2                !
 ! D199  D(44,41,43,48)         61.3078         estimate D2E/DX2                !
 ! D200  D(44,41,43,49)       -178.114          estimate D2E/DX2                !
 ! D201  D(44,41,43,50)        -61.3666         estimate D2E/DX2                !
 ! D202  D(41,42,45,51)        -55.9237         estimate D2E/DX2                !
 ! D203  D(41,42,45,52)       -178.6639         estimate D2E/DX2                !
 ! D204  D(41,42,45,53)         64.6303         estimate D2E/DX2                !
 ! D205  D(46,42,45,51)         64.2459         estimate D2E/DX2                !
 ! D206  D(46,42,45,52)        -58.4943         estimate D2E/DX2                !
 ! D207  D(46,42,45,53)       -175.2001         estimate D2E/DX2                !
 ! D208  D(47,42,45,51)       -177.8761         estimate D2E/DX2                !
 ! D209  D(47,42,45,52)         59.3837         estimate D2E/DX2                !
 ! D210  D(47,42,45,53)        -57.3221         estimate D2E/DX2                !
 ! D211  D(41,43,48,51)         56.0109         estimate D2E/DX2                !
 ! D212  D(41,43,48,54)        178.7933         estimate D2E/DX2                !
 ! D213  D(41,43,48,55)        -64.5088         estimate D2E/DX2                !
 ! D214  D(49,43,48,51)        -64.2034         estimate D2E/DX2                !
 ! D215  D(49,43,48,54)         58.579          estimate D2E/DX2                !
 ! D216  D(49,43,48,55)        175.2768         estimate D2E/DX2                !
 ! D217  D(50,43,48,51)        177.954          estimate D2E/DX2                !
 ! D218  D(50,43,48,54)        -59.2637         estimate D2E/DX2                !
 ! D219  D(50,43,48,55)         57.4342         estimate D2E/DX2                !
 ! D220  D(42,45,51,48)         55.568          estimate D2E/DX2                !
 ! D221  D(42,45,51,56)        178.1439         estimate D2E/DX2                !
 ! D222  D(42,45,51,57)        -64.7326         estimate D2E/DX2                !
 ! D223  D(52,45,51,48)        177.8283         estimate D2E/DX2                !
 ! D224  D(52,45,51,56)        -59.5958         estimate D2E/DX2                !
 ! D225  D(52,45,51,57)         57.5277         estimate D2E/DX2                !
 ! D226  D(53,45,51,48)        -65.037          estimate D2E/DX2                !
 ! D227  D(53,45,51,56)         57.5389         estimate D2E/DX2                !
 ! D228  D(53,45,51,57)        174.6624         estimate D2E/DX2                !
 ! D229  D(43,48,51,45)        -55.601          estimate D2E/DX2                !
 ! D230  D(43,48,51,56)       -178.1732         estimate D2E/DX2                !
 ! D231  D(43,48,51,57)         64.6633         estimate D2E/DX2                !
 ! D232  D(54,48,51,45)       -177.9622         estimate D2E/DX2                !
 ! D233  D(54,48,51,56)         59.4655         estimate D2E/DX2                !
 ! D234  D(54,48,51,57)        -57.698          estimate D2E/DX2                !
 ! D235  D(55,48,51,45)         64.9158         estimate D2E/DX2                !
 ! D236  D(55,48,51,56)        -57.6565         estimate D2E/DX2                !
 ! D237  D(55,48,51,57)       -174.8199         estimate D2E/DX2                !
 --------------------------------------------------------------------------------
 Trust Radius=3.00D-01 FncErr=1.00D-07 GrdErr=1.00D-07 EigMax=2.50D+02 EigMin=1.00D-04
 Number of steps in this run=    492 maximum allowed number of steps=    492.
 GradGradGradGradGradGradGradGradGradGradGradGradGradGradGradGradGradGrad

 Leave Link  103 at Fri Dec 21 18:12:29 2018, MaxMem=  1342177280 cpu:               0.2 elap:               0.0
 (Enter /gpfs/apps/hpc/Apps/Restricted/Gaussian/Rev_A.03/g16/l202.exe)
 Symmetry turned off by external request.
 Stoichiometry    C35H41N5O(1+,2)
 Framework group  C1[X(C35H41N5O)]
 Deg. of freedom   240
 Full point group                 C1      NOp   1
                          Input orientation:                          
 ---------------------------------------------------------------------
 Center     Atomic      Atomic             Coordinates (Angstroms)
 Number     Number       Type             X           Y           Z
 ---------------------------------------------------------------------
      1          6           0        1.544444    1.095848   -0.051665
      2          6           0        0.306818    1.773909   -0.129153
      3          6           0        0.283341    3.163491   -0.309520
      4          6           0        1.504058    3.825007   -0.414714
      5          6           0        2.727063    3.133936   -0.335477
      6          6           0        2.783196    1.748067   -0.153649
      7          6           0       -0.136172   -0.327905    0.129720
      8          1           0       -0.656922    3.698350   -0.369246
      9          1           0        1.517485    4.899365   -0.555490
     10          1           0        3.657122    3.685289   -0.419961
     11          6           0       -2.278139   -1.534629    0.220001
     12          6           0       -3.070012   -2.691845    0.296456
     13          6           0       -2.494973   -3.955313    0.440265
     14          6           0       -1.104240   -3.998364    0.498552
     15          6           0       -0.309799   -2.840712    0.406288
     16          6           0       -0.876061   -1.571531    0.261253
     17          6           0       -4.412252   -0.909159    0.085186
     18          1           0       -3.098734   -4.850629    0.503063
     19          1           0       -0.612829   -4.956133    0.615141
     20          1           0        0.767604   -2.940784    0.451601
     21          7           0       -0.726106    0.859064   -0.008890
     22          6           0       -6.909029   -0.772199   -0.154003
     23          6           0       -5.606002   -0.103524   -0.025275
     24          6           0       -5.520727    1.272420   -0.000232
     25          6           0       -6.673547    2.081028   -0.101259
     26          6           0       -7.927450    1.449850   -0.244850
     27          6           0       -8.098564    0.078571   -0.273781
     28          1           0       -4.556271    1.751700    0.112747
     29          1           0       -8.799574    2.078725   -0.328449
     30          6           0       -6.524791    3.594508   -0.016874
     31          6           0       -9.475988   -0.559735   -0.419910
     32          8           0       -6.981423   -2.027034   -0.159084
     33          7           0       -3.138042   -0.464939    0.095951
     34          7           0       -4.379568   -2.251662    0.204315
     35          1           0       -2.770430    0.483759    0.010548
     36          7           0        1.231225   -0.230038    0.114239
     37          1           0        1.944620   -0.947666    0.182051
     38          6           0        4.047556    1.024336   -0.068581
     39          1           0        4.949837    1.638520   -0.158411
     40          7           0        4.087581   -0.246382    0.097765
     41          6           0        5.415473   -0.878413    0.168648
     42          6           0        6.217129   -0.698209   -1.131580
     43          6           0        6.229553   -0.391763    1.379498
     44          1           0        5.235956   -1.951702    0.300747
     45          6           0        7.570612   -1.411486   -1.049254
     46          1           0        6.378877    0.373159   -1.301227
     47          1           0        5.630530   -1.072105   -1.975971
     48          6           0        7.582746   -1.106709    1.458285
     49          1           0        6.392408    0.688626    1.285396
     50          1           0        5.652759   -0.551300    2.295287
     51          6           0        8.380126   -0.933134    0.161113
     52          1           0        8.130810   -1.249016   -1.974941
     53          1           0        7.404253   -2.492910   -0.965717
     54          1           0        8.152511   -0.730039    2.313102
     55          1           0        7.414700   -2.176397    1.637091
     56          1           0        9.328228   -1.476161    0.222484
     57          1           0        8.628185    0.127906    0.030297
     58          1           0       -5.252851   -2.776503    0.177687
     59          6           0       -7.858748    4.325319   -0.216881
     60          1           0       -7.692620    5.402336   -0.147339
     61          1           0       -8.290298    4.112548   -1.198198
     62          1           0       -8.589063    4.050968    0.548364
     63          6           0       -5.529280    4.073943   -1.094980
     64          1           0       -4.542725    3.622441   -0.968839
     65          1           0       -5.894081    3.835512   -2.096744
     66          1           0       -5.412991    5.157927   -1.018992
     67          6           0       -5.967030    3.945125    1.381647
     68          1           0       -6.652995    3.619136    2.166971
     69          1           0       -4.997045    3.474413    1.557188
     70          1           0       -5.839563    5.027547    1.462989
     71          6           0       -9.515274   -1.398385   -1.717217
     72          1           0       -8.772271   -2.194523   -1.693536
     73          1           0      -10.506821   -1.845005   -1.828421
     74          1           0       -9.325704   -0.767566   -2.589450
     75          6           0      -10.588152    0.496896   -0.495892
     76          1           0      -10.613857    1.121144    0.400776
     77          1           0      -10.478054    1.148368   -1.366656
     78          1           0      -11.550965   -0.011790   -0.580254
     79          6           0       -9.768528   -1.463580    0.800807
     80          1           0      -10.765138   -1.899004    0.690154
     81          1           0       -9.039638   -2.267402    0.883948
     82          1           0       -9.755842   -0.877188    1.723194
 ---------------------------------------------------------------------
 Rotational constants (GHZ):           0.1791792           0.0307665           0.0269107
 Leave Link  202 at Fri Dec 21 18:12:29 2018, MaxMem=  1342177280 cpu:               0.5 elap:               0.1
 (Enter /gpfs/apps/hpc/Apps/Restricted/Gaussian/Rev_A.03/g16/l716.exe)
 Electric field and nuclear coordinate derivatives read from checkpoint file.
 Dipole        =-5.71240757D+00 2.48405028D-02 1.82666288D-01
 Polarizability= 8.70032550D+02-4.10593320D+01 7.87581307D+02
                 2.13615597D+01-3.88627777D+01 3.05251262D+02
 Full mass-weighted force constant matrix:
 Low frequencies ---  -10.2530   -1.3540   -0.0034   -0.0011    0.0037    4.7535
 Low frequencies ---   15.1199   22.0145   28.8369
 Diagonal vibrational polarizability:
      152.7899642      39.7049283     162.1115416
 Harmonic frequencies (cm**-1), IR intensities (KM/Mole), Raman scattering
 activities (A**4/AMU), depolarization ratios for plane and unpolarized
 incident light, reduced masses (AMU), force constants (mDyne/A),
 and normal coordinates:
                      1                      2                      3
                      A                      A                      A
 Frequencies --     14.1649                16.6163                28.4721
 Red. masses --      5.2823                 4.4059                 5.1270
 Frc consts  --      0.0006                 0.0007                 0.0024
 IR Inten    --      0.5731                 0.4447                 0.6482
  Atom  AN      X      Y      Z        X      Y      Z        X      Y      Z
     1   6     0.02   0.02   0.10    -0.01  -0.00   0.01    -0.05  -0.04   0.04
     2   6     0.02   0.03   0.15    -0.01  -0.01   0.01    -0.06  -0.06   0.04
     3   6     0.03   0.04   0.20    -0.01  -0.00   0.04    -0.10  -0.06   0.03
     4   6     0.04   0.03   0.19    -0.02   0.01   0.07    -0.11  -0.04   0.01
     5   6     0.03   0.01   0.13    -0.01   0.01   0.07    -0.10  -0.01   0.01
     6   6     0.02   0.01   0.09    -0.01   0.01   0.05    -0.07  -0.01   0.02
     7   6     0.01   0.03   0.09    -0.00  -0.02  -0.04    -0.03  -0.07   0.06
     8   1     0.04   0.06   0.25    -0.02  -0.01   0.04    -0.11  -0.08   0.03
     9   1     0.05   0.03   0.22    -0.02   0.01   0.09    -0.14  -0.04   0.00
    10   1     0.04   0.00   0.11    -0.02   0.02   0.10    -0.11   0.00  -0.01
    11   6     0.00   0.03   0.04     0.00  -0.02  -0.08    -0.01  -0.07   0.05
    12   6     0.00   0.03   0.02    -0.00  -0.02  -0.10    -0.02  -0.07   0.04
    13   6     0.01   0.02   0.01     0.00  -0.02  -0.12    -0.03  -0.07   0.04
    14   6     0.00   0.03   0.02     0.00  -0.02  -0.11    -0.03  -0.07   0.05
    15   6     0.00   0.03   0.05     0.00  -0.02  -0.09    -0.02  -0.08   0.06
    16   6     0.00   0.03   0.06     0.00  -0.02  -0.08    -0.02  -0.07   0.06
    17   6    -0.00   0.02   0.02     0.00  -0.02  -0.06    -0.01  -0.05   0.02
    18   1     0.01   0.02  -0.01     0.00  -0.03  -0.13    -0.03  -0.07   0.03
    19   1     0.01   0.03   0.01    -0.00  -0.03  -0.13    -0.03  -0.07   0.06
    20   1     0.00   0.03   0.06     0.00  -0.02  -0.08    -0.02  -0.08   0.07
    21   7     0.01   0.04   0.14    -0.01  -0.02  -0.02    -0.05  -0.08   0.06
    22   6    -0.00  -0.00   0.00    -0.01  -0.00   0.01     0.00   0.00  -0.02
    23   6    -0.01   0.01   0.00     0.00  -0.01  -0.04     0.01  -0.03   0.01
    24   6    -0.02   0.01  -0.03     0.01  -0.01  -0.06     0.05  -0.03   0.01
    25   6    -0.03  -0.00  -0.05     0.02  -0.00  -0.03     0.07  -0.00  -0.00
    26   6    -0.02  -0.01  -0.05     0.01   0.00   0.03     0.06   0.03  -0.01
    27   6    -0.01  -0.02  -0.02    -0.00   0.01   0.06     0.02   0.04  -0.02
    28   1    -0.03   0.02  -0.03     0.02  -0.02  -0.10     0.06  -0.06   0.02
    29   1    -0.03  -0.02  -0.06     0.01   0.01   0.06     0.08   0.05  -0.01
    30   6    -0.04   0.00  -0.11     0.04  -0.00  -0.09     0.12  -0.01  -0.02
    31   6    -0.00  -0.03  -0.01    -0.02   0.02   0.14     0.01   0.08  -0.04
    32   8     0.01  -0.00   0.01    -0.02  -0.00   0.01    -0.03   0.01  -0.04
    33   7    -0.00   0.03   0.05     0.00  -0.02  -0.06    -0.00  -0.07   0.04
    34   7     0.00   0.02   0.01    -0.00  -0.02  -0.08    -0.02  -0.06   0.02
    35   1    -0.01   0.03   0.07     0.00  -0.02  -0.04     0.02  -0.07   0.05
    36   7     0.01   0.02   0.06    -0.00  -0.01  -0.02    -0.03  -0.04   0.05
    37   1    -0.00   0.00   0.01     0.00  -0.00  -0.03    -0.02  -0.03   0.05
    38   6     0.02  -0.01   0.03    -0.01   0.01   0.05    -0.05   0.02   0.01
    39   1     0.02  -0.02   0.02    -0.01   0.02   0.07    -0.07   0.04  -0.01
    40   7     0.01  -0.02  -0.01    -0.00   0.01   0.04    -0.01   0.02   0.01
    41   6     0.00  -0.03  -0.06    -0.00   0.02   0.04     0.00   0.06  -0.02
    42   6    -0.04  -0.02  -0.08     0.00   0.03   0.05    -0.03   0.08  -0.04
    43   6     0.05  -0.06  -0.08    -0.01   0.01   0.05     0.02   0.08  -0.04
    44   1    -0.00  -0.03  -0.07     0.00   0.01   0.04     0.04   0.05  -0.02
    45   6    -0.04  -0.02  -0.14     0.01   0.03   0.05    -0.01   0.11  -0.07
    46   1    -0.05  -0.01  -0.07     0.00   0.03   0.05    -0.06   0.09  -0.04
    47   1    -0.06  -0.01  -0.07     0.01   0.03   0.04    -0.04   0.07  -0.03
    48   6     0.05  -0.06  -0.14    -0.00   0.02   0.05     0.03   0.11  -0.07
    49   1     0.05  -0.06  -0.06    -0.01   0.01   0.05    -0.01   0.08  -0.04
    50   1     0.07  -0.08  -0.06    -0.01   0.01   0.04     0.04   0.06  -0.03
    51   6     0.00  -0.04  -0.16    -0.00   0.03   0.05     0.00   0.12  -0.08
    52   1    -0.07   0.00  -0.16     0.01   0.04   0.05    -0.03   0.13  -0.08
    53   1    -0.03  -0.02  -0.16     0.01   0.03   0.04     0.01   0.11  -0.07
    54   1     0.07  -0.08  -0.15    -0.01   0.01   0.05     0.05   0.12  -0.08
    55   1     0.05  -0.07  -0.15    -0.00   0.02   0.04     0.06   0.10  -0.07
    56   1     0.01  -0.05  -0.20     0.00   0.03   0.05     0.02   0.14  -0.11
    57   1     0.00  -0.04  -0.15    -0.00   0.03   0.06    -0.02   0.13  -0.09
    58   1     0.01   0.02  -0.01    -0.00  -0.02  -0.07    -0.02  -0.05   0.00
    59   6    -0.04  -0.01  -0.11     0.04   0.01  -0.08     0.14   0.03  -0.02
    60   1    -0.05  -0.01  -0.14     0.05   0.01  -0.12     0.17   0.03  -0.03
    61   1    -0.05  -0.04  -0.11     0.01  -0.02  -0.06     0.12   0.02  -0.01
    62   1    -0.04   0.00  -0.10     0.05   0.04  -0.05     0.14   0.06  -0.01
    63   6    -0.06  -0.03  -0.14     0.01  -0.05  -0.13     0.12  -0.05  -0.03
    64   1    -0.06  -0.04  -0.15     0.01  -0.06  -0.15     0.11  -0.08  -0.03
    65   1    -0.08  -0.06  -0.13    -0.02  -0.08  -0.11     0.11  -0.06  -0.02
    66   1    -0.05  -0.03  -0.17     0.03  -0.05  -0.17     0.15  -0.05  -0.05
    67   6    -0.02   0.06  -0.13     0.08   0.04  -0.11     0.14   0.00  -0.03
    68   1    -0.01   0.08  -0.11     0.10   0.07  -0.08     0.14   0.03  -0.01
    69   1    -0.02   0.06  -0.12     0.08   0.04  -0.12     0.13  -0.02  -0.03
    70   1    -0.02   0.06  -0.17     0.09   0.04  -0.15     0.16  -0.00  -0.04
    71   6     0.01  -0.05  -0.00    -0.10   0.01   0.15    -0.00   0.11  -0.06
    72   1     0.02  -0.04   0.01    -0.12  -0.01   0.12    -0.03   0.09  -0.07
    73   1     0.02  -0.07   0.01    -0.12   0.04   0.19    -0.01   0.14  -0.09
    74   1    -0.00  -0.06  -0.01    -0.12   0.00   0.13     0.03   0.13  -0.04
    75   6    -0.01  -0.05  -0.03    -0.01   0.03   0.20     0.04   0.11  -0.02
    76   1    -0.02  -0.03  -0.04     0.06   0.05   0.19     0.05   0.09  -0.01
    77   1    -0.02  -0.06  -0.04    -0.07   0.01   0.18     0.05   0.12  -0.01
    78   1    -0.01  -0.06  -0.02    -0.02   0.04   0.28     0.02   0.13  -0.03
    79   6     0.00  -0.02  -0.00     0.04   0.03   0.16    -0.02   0.05  -0.06
    80   1     0.01  -0.03  -0.00     0.02   0.06   0.23    -0.04   0.08  -0.08
    81   1     0.01  -0.01   0.01     0.02   0.00   0.11    -0.05   0.03  -0.08
    82   1    -0.01  -0.01  -0.01     0.12   0.02   0.16    -0.01   0.03  -0.05
                      4                      5                      6
                      A                      A                      A
 Frequencies --     44.3469                47.6346                53.3636
 Red. masses --      4.5159                 5.2343                 4.2596
 Frc consts  --      0.0052                 0.0070                 0.0071
 IR Inten    --      0.5355                 2.8198                 0.5125
  Atom  AN      X      Y      Z        X      Y      Z        X      Y      Z
     1   6    -0.01   0.02  -0.05     0.03  -0.09  -0.01    -0.01   0.02   0.02
     2   6    -0.02   0.01   0.01     0.04  -0.07  -0.01    -0.01   0.00  -0.06
     3   6    -0.03   0.02   0.07     0.05  -0.07   0.01    -0.02  -0.00  -0.07
     4   6    -0.03   0.03   0.07     0.05  -0.07   0.03    -0.02   0.01   0.01
     5   6    -0.03   0.03   0.01     0.04  -0.09   0.03    -0.01   0.03   0.10
     6   6    -0.02   0.02  -0.04     0.03  -0.09   0.01    -0.01   0.03   0.10
     7   6    -0.00  -0.00  -0.06     0.00  -0.06  -0.04    -0.00  -0.01  -0.08
     8   1    -0.03   0.02   0.12     0.05  -0.06   0.02    -0.02  -0.01  -0.14
     9   1    -0.04   0.03   0.11     0.06  -0.07   0.05    -0.02   0.01   0.01
    10   1    -0.03   0.04   0.02     0.05  -0.09   0.05    -0.01   0.04   0.16
    11   6     0.01  -0.01  -0.00    -0.04  -0.01  -0.01     0.01  -0.01  -0.05
    12   6     0.01  -0.01   0.02    -0.06   0.01   0.00     0.01  -0.01  -0.00
    13   6     0.02  -0.01  -0.04    -0.09  -0.01  -0.02     0.01  -0.01   0.01
    14   6     0.02  -0.01  -0.12    -0.09  -0.04  -0.05     0.01  -0.00  -0.01
    15   6     0.02  -0.01  -0.13    -0.07  -0.06  -0.06     0.01  -0.01  -0.05
    16   6     0.01  -0.01  -0.07    -0.04  -0.04  -0.04     0.01  -0.01  -0.07
    17   6     0.01  -0.01   0.10    -0.04   0.03   0.03     0.01  -0.01  -0.01
    18   1     0.02  -0.01  -0.02    -0.11   0.01  -0.01     0.01  -0.00   0.05
    19   1     0.03  -0.02  -0.17    -0.11  -0.06  -0.07     0.02  -0.00  -0.00
    20   1     0.02  -0.01  -0.19    -0.07  -0.09  -0.08     0.01  -0.01  -0.06
    21   7    -0.01   0.00  -0.00     0.02  -0.05  -0.03    -0.01  -0.01  -0.12
    22   6     0.01   0.00   0.12    -0.04   0.03   0.05     0.01   0.00   0.05
    23   6     0.01  -0.00   0.12    -0.04   0.04   0.03     0.01  -0.00   0.00
    24   6     0.01  -0.00   0.10    -0.04   0.04   0.01     0.02  -0.00  -0.03
    25   6     0.01  -0.00   0.06    -0.05   0.03   0.00     0.02   0.00  -0.03
    26   6     0.01   0.00   0.04    -0.05   0.02  -0.01     0.02   0.00  -0.04
    27   6     0.01   0.00   0.05    -0.04   0.02   0.01     0.01   0.00  -0.01
    28   1     0.01  -0.00   0.09    -0.05   0.04   0.00     0.02  -0.01  -0.04
    29   1     0.02   0.00   0.00    -0.05   0.02  -0.03     0.03   0.01  -0.07
    30   6     0.03   0.00  -0.01    -0.07   0.03  -0.01     0.02  -0.00  -0.00
    31   6     0.02  -0.00  -0.04    -0.03   0.01  -0.01     0.01   0.00  -0.01
    32   8     0.00   0.00   0.17    -0.04   0.03   0.10    -0.01   0.00   0.15
    33   7     0.01  -0.01   0.06    -0.03   0.01   0.00     0.01  -0.01  -0.06
    34   7     0.01  -0.01   0.09    -0.05   0.03   0.03     0.01  -0.01   0.02
    35   1     0.01  -0.01   0.05    -0.02   0.00  -0.01     0.02  -0.02  -0.09
    36   7    -0.00   0.01  -0.10     0.01  -0.09  -0.03    -0.00   0.01   0.00
    37   1     0.01   0.01  -0.13    -0.02  -0.11  -0.03     0.01   0.03   0.05
    38   6    -0.02   0.02  -0.05     0.05  -0.06   0.01    -0.01   0.03   0.14
    39   1    -0.02   0.02  -0.02     0.03  -0.03   0.03    -0.01   0.02   0.15
    40   7    -0.03   0.02  -0.08     0.09  -0.06   0.00    -0.03   0.03   0.13
    41   6    -0.04   0.00  -0.04     0.13   0.01   0.00    -0.03   0.01   0.08
    42   6     0.02   0.01  -0.01     0.13   0.06   0.00    -0.12  -0.01   0.03
    43   6    -0.09  -0.02  -0.00     0.11   0.04   0.01     0.06   0.00   0.02
    44   1    -0.05   0.00  -0.06     0.19  -0.00  -0.01    -0.04   0.01   0.10
    45   6     0.00  -0.01   0.04     0.16   0.12  -0.00    -0.11  -0.02  -0.06
    46   1     0.03   0.01   0.01     0.08   0.07   0.02    -0.13  -0.01   0.01
    47   1     0.05   0.03  -0.03     0.14   0.05  -0.00    -0.18  -0.02   0.07
    48   6    -0.10  -0.03   0.05     0.14   0.10  -0.00     0.05  -0.01  -0.06
    49   1    -0.07  -0.02   0.02     0.06   0.04   0.02     0.06   0.00   0.01
    50   1    -0.13  -0.02  -0.03     0.12  -0.00   0.01     0.12   0.01   0.06
    51   6    -0.04  -0.03   0.08     0.14   0.15   0.00    -0.03  -0.02  -0.12
    52   1     0.04  -0.01   0.07     0.15   0.16  -0.00    -0.18  -0.02  -0.10
    53   1    -0.01  -0.00   0.03     0.21   0.11  -0.02    -0.11  -0.02  -0.05
    54   1    -0.13  -0.04   0.07     0.12   0.11   0.00     0.11  -0.01  -0.10
    55   1    -0.11  -0.03   0.03     0.19   0.09  -0.01     0.06  -0.01  -0.05
    56   1    -0.05  -0.04   0.12     0.16   0.19  -0.00    -0.03  -0.03  -0.18
    57   1    -0.02  -0.03   0.10     0.09   0.16   0.01    -0.03  -0.02  -0.14
    58   1     0.01  -0.00   0.12    -0.07   0.05   0.05     0.00  -0.00   0.08
    59   6     0.03   0.00   0.00    -0.07   0.02  -0.02     0.04   0.01  -0.05
    60   1     0.04   0.01  -0.04    -0.09   0.02  -0.02     0.04   0.00  -0.03
    61   1    -0.00  -0.03   0.02    -0.07   0.01  -0.02     0.08   0.02  -0.07
    62   1     0.06   0.03   0.04    -0.08   0.01  -0.03     0.00  -0.00  -0.09
    63   6    -0.01  -0.08  -0.09    -0.07   0.04  -0.00     0.09   0.04   0.08
    64   1    -0.02  -0.10  -0.12    -0.06   0.04   0.00     0.09   0.05   0.13
    65   1    -0.07  -0.12  -0.06    -0.06   0.04  -0.00     0.16   0.06   0.05
    66   1     0.02  -0.08  -0.15    -0.07   0.04  -0.00     0.07   0.03   0.11
    67   6     0.10   0.08  -0.06    -0.09   0.04  -0.00    -0.06  -0.05   0.04
    68   1     0.13   0.12  -0.01    -0.09   0.04  -0.01    -0.10  -0.07  -0.01
    69   1     0.11   0.08  -0.08    -0.08   0.05   0.01    -0.07  -0.06   0.09
    70   1     0.11   0.08  -0.13    -0.09   0.04  -0.01    -0.06  -0.05   0.08
    71   6     0.13  -0.02  -0.03     0.01  -0.04   0.02     0.05  -0.10   0.06
    72   1     0.15  -0.00   0.03     0.02  -0.02   0.06     0.05  -0.10   0.13
    73   1     0.15  -0.04  -0.09     0.02  -0.05   0.01     0.05  -0.12   0.08
    74   1     0.17  -0.02  -0.02     0.02  -0.06  -0.00     0.06  -0.17   0.01
    75   6     0.03  -0.01  -0.14    -0.04  -0.00  -0.08     0.02   0.00  -0.13
    76   1    -0.06  -0.00  -0.15    -0.08   0.02  -0.10    -0.02   0.06  -0.17
    77   1     0.10  -0.01  -0.13    -0.00  -0.02  -0.09     0.07  -0.05  -0.16
    78   1     0.03  -0.01  -0.23    -0.03  -0.01  -0.11     0.02   0.00  -0.15
    79   6    -0.07   0.01  -0.05    -0.07   0.04   0.01    -0.03   0.09   0.05
    80   1    -0.04  -0.02  -0.15    -0.05   0.02  -0.02    -0.02   0.07   0.03
    81   1    -0.05   0.04   0.04    -0.05   0.06   0.07    -0.02   0.11   0.14
    82   1    -0.18   0.03  -0.06    -0.12   0.08  -0.01    -0.08   0.16   0.00
                      7                      8                      9
                      A                      A                      A
 Frequencies --     56.4021                67.6001                75.4261
 Red. masses --      3.2854                 3.1568                 3.9796
 Frc consts  --      0.0062                 0.0085                 0.0133
 IR Inten    --      0.1249                 0.2286                 2.2702
  Atom  AN      X      Y      Z        X      Y      Z        X      Y      Z
     1   6     0.01   0.00   0.02    -0.00  -0.00   0.01     0.00   0.00  -0.04
[...]
 ! A27   A(13,12,34)            -0.0264                  1.3                    !
 ! A28   A(12,13,14)            -0.036                   1.8                    !
 --------------------------------------------------------------------------------
                           ----------------------------
                           ! Normal Mode   237        !
 --------------------------                            --------------------------
 ! Name  Definition              Value          Relative Weight (%)             !
 --------------------------------------------------------------------------------
 ! R36   R(25,26)                0.0415                  2.7                    !
 ! R38   R(26,27)                0.0432                  2.8                    !
 ! R39   R(26,29)               -1.0813                 69.8                    !
 ! R72   R(59,62)               -0.0151                  1.0                    !
 ! R83   R(75,77)               -0.0123                  0.8                    !
 ! A53   A(24,25,26)             0.0278                  1.8                    !
 ! A55   A(26,25,30)            -0.029                   1.9                    !
 ! A56   A(25,26,27)            -0.0569                  3.7                    !
 ! A57   A(25,26,29)             0.0271                  1.7                    !
 ! A58   A(27,26,29)             0.0298                  1.9                    !
 ! A59   A(22,27,26)             0.028                   1.8                    !
 ! A61   A(26,27,31)            -0.0295                  1.9                    !
 --------------------------------------------------------------------------------
                           ----------------------------
                           ! Normal Mode   238        !
 --------------------------                            --------------------------
 ! Name  Definition              Value          Relative Weight (%)             !
 --------------------------------------------------------------------------------
 ! R18   R(11,33)               -0.0415                  2.5                    !
 ! R28   R(17,33)               -0.0474                  2.8                    !
 ! R47   R(33,35)                1.0564                 63.3                    !
 ! R48   R(34,58)               -0.1761                 10.6                    !
 ! A23   A(12,11,33)            -0.0243                  1.5                    !
 ! A24   A(16,11,33)             0.0248                  1.5                    !
 ! A40   A(23,17,33)             0.0252                  1.5                    !
 ! A74   A(11,33,17)             0.0488                  2.9                    !
 ! A76   A(17,33,35)            -0.0602                  3.6                    !
 --------------------------------------------------------------------------------
                           ----------------------------
                           ! Normal Mode   239        !
 --------------------------                            --------------------------
 ! Name  Definition              Value          Relative Weight (%)             !
 --------------------------------------------------------------------------------
 ! R20   R(12,34)                0.0466                  2.8                    !
 ! R29   R(17,34)                0.0404                  2.4                    !
 ! R47   R(33,35)               -0.1761                 10.5                    !
 ! R48   R(34,58)               -1.0569                 63.3                    !
 ! A26   A(11,12,34)             0.0236                  1.4                    !
 ! A27   A(13,12,34)            -0.0241                  1.4                    !
 ! A41   A(23,17,34)            -0.0247                  1.5                    !
 ! A42   A(33,17,34)             0.0289                  1.7                    !
 ! A77   A(12,34,17)            -0.0485                  2.9                    !
 ! A78   A(12,34,58)             0.0584                  3.5                    !
 --------------------------------------------------------------------------------
                           ----------------------------
                           ! Normal Mode   240        !
 --------------------------                            --------------------------
 ! Name  Definition              Value          Relative Weight (%)             !
 --------------------------------------------------------------------------------
 ! R3    R(1,36)                 0.0436                  3.0                    !
 ! R15   R(7,36)                 0.0486                  3.4                    !
 ! R49   R(36,37)               -1.0716                 74.9                    !
 ! A2    A(2,1,36)               0.0237                  1.7                    !
 ! A3    A(6,1,36)              -0.0246                  1.7                    !
 ! A20   A(16,7,36)             -0.0238                  1.7                    !
 ! A21   A(21,7,36)              0.0228                  1.6                    !
 ! A80   A(1,36,7)              -0.0473                  3.3                    !
 ! A82   A(7,36,37)              0.0481                  3.4                    !
 --------------------------------------------------------------------------------
 -------------------------------------------------------------------
 Center     Atomic                   Forces (Hartrees/Bohr)
 Number     Number              X              Y              Z
 -------------------------------------------------------------------
      1        6           0.000000102    0.000000727   -0.000001282
      2        6          -0.000000196    0.000000405   -0.000004464
      3        6          -0.000000570    0.000000033   -0.000009551
      4        6          -0.000000685   -0.000000722   -0.000011470
      5        6          -0.000000896   -0.000000458   -0.000008223
      6        6          -0.000000398    0.000000723   -0.000003271
      7        6           0.000000103    0.000001364    0.000003143
      8        1          -0.000000488   -0.000001149   -0.000011851
      9        1          -0.000001013   -0.000001010   -0.000015387
     10        1          -0.000000318    0.000000279   -0.000010083
     11        6           0.000000605    0.000000542    0.000006657
     12        6           0.000000675    0.000001599    0.000010536
     13        6           0.000000132    0.000001484    0.000015725
     14        6           0.000001558    0.000001536    0.000016292
     15        6           0.000001149    0.000002215    0.000012421
     16        6           0.000000168    0.000001681    0.000007480
     17        6           0.000000078    0.000000187    0.000003406
     18        1           0.000001141    0.000001689    0.000018588
     19        1           0.000000918    0.000002953    0.000020075
     20        1           0.000000320    0.000002398    0.000013205
     21        7          -0.000000466   -0.000000268   -0.000001302
     22        6           0.000000800   -0.000002120    0.000002017
     23        6           0.000000306   -0.000001065   -0.000000018
     24        6          -0.000000256   -0.000000338   -0.000004765
     25        6          -0.000000812   -0.000002045   -0.000008607
     26        6           0.000000466   -0.000002106   -0.000006614
     27        6          -0.000000483   -0.000002256   -0.000001542
     28        1          -0.000000344   -0.000000228   -0.000006377
     29        1          -0.000000622   -0.000002667   -0.000009346
     30        6          -0.000000274   -0.000000728   -0.000014083
     31        6           0.000000655   -0.000003170   -0.000000248
     32        8           0.000000656   -0.000001795    0.000006548
     33        7          -0.000000173   -0.000000723    0.000002431
     34        7           0.000000156   -0.000000323    0.000008759
     35        1           0.000000169    0.000000584   -0.000000886
     36        7           0.000000102    0.000000927    0.000003390
     37        1           0.000000096    0.000002008    0.000006345
     38        6          -0.000000848    0.000000883    0.000000095
     39        1           0.000000104    0.000001446   -0.000001962
     40        7           0.000000246    0.000002483    0.000004550
     41        6           0.000000263    0.000002084    0.000007814
     42        6           0.000000427   -0.000001372    0.000006765
     43        6          -0.000000710    0.000007285    0.000005870
     44        1           0.000000516    0.000003109    0.000011426
     45        6           0.000001223   -0.000001700    0.000010243
     46        1           0.000000421   -0.000002970    0.000003434
     47        1           0.000001317   -0.000005260    0.000008632
     48        6          -0.000000418    0.000007680    0.000009028
     49        1          -0.000000531    0.000007064    0.000002223
     50        1          -0.000000812    0.000010415    0.000006647
     51        6           0.000000439    0.000002791    0.000009382
     52        1           0.000001042   -0.000004635    0.000010256
     53        1           0.000001064   -0.000001192    0.000014382
     54        1          -0.000000544    0.000011223    0.000008327
     55        1          -0.000000022    0.000008583    0.000013200
     56        1           0.000000176    0.000003820    0.000011392
     57        1           0.000000106    0.000003305    0.000005189
     58        1           0.000000988    0.000000203    0.000009994
     59        6          -0.000001179   -0.000001732   -0.000017002
     60        1          -0.000001212   -0.000002315   -0.000021209
     61        1          -0.000000422   -0.000005888   -0.000016544
     62        1          -0.000001070    0.000000469   -0.000016733
     63        6          -0.000000593   -0.000004652   -0.000015107
     64        1          -0.000000389   -0.000004202   -0.000013271
     65        1          -0.000000023   -0.000008668   -0.000014675
     66        1          -0.000000825   -0.000004637   -0.000019285
     67        6          -0.000001922    0.000004093   -0.000015088
     68        1          -0.000001699    0.000006933   -0.000014099
     69        1          -0.000001286    0.000004936   -0.000012904
     70        1          -0.000001794    0.000004719   -0.000019006
     71        6           0.000001504   -0.000008522    0.000003115
     72        1           0.000001088   -0.000007615    0.000006400
     73        1           0.000001272   -0.000008755    0.000004410
     74        1           0.000001288   -0.000011347    0.000001118
     75        6          -0.000000053   -0.000003822   -0.000003854
     76        1          -0.000000347   -0.000000637   -0.000006635
     77        1           0.000000474   -0.000006985   -0.000006829
     78        1           0.000000218   -0.000004468   -0.000002814
     79        6           0.000000098    0.000001323    0.000003070
     80        1           0.000000280    0.000000416    0.000004598
     81        1           0.000000336    0.000001387    0.000006538
     82        1          -0.000000551    0.000004560    0.000001272
 -------------------------------------------------------------------
 Cartesian Forces:  Max     0.000021209 RMS     0.000006297
 FormGI is forming the generalized inverse of G from B-inverse, IUseBI=4.
 GSVD:  received Info=                   1 from GESDD.
 Leave Link  716 at Fri Dec 21 18:12:30 2018, MaxMem=  1342177280 cpu:               8.2 elap:               0.5
 (Enter /gpfs/apps/hpc/Apps/Restricted/Gaussian/Rev_A.03/g16/l9999.exe)

 ----------------------------------------------------------------------

 Electric dipole moment (input orientation):
 (Debye = 10**-18 statcoulomb cm , SI units = C m)
                  (au)            (Debye)         (10**-30 SI)
   Tot        0.571538D+01      0.145270D+02      0.484570D+02
   x         -0.571241D+01     -0.145195D+02     -0.484318D+02
   y          0.248405D-01      0.631383D-01      0.210607D+00
   z          0.182666D+00      0.464291D+00      0.154871D+01

 Dipole polarizability, Alpha (input orientation).
 (esu units = cm**3 , SI units = C**2 m**2 J**-1)
 Alpha(0;0):
               (au)            (10**-24 esu)      (10**-40 SI)
   iso        0.654288D+03      0.969555D+02      0.107878D+03
   aniso      0.538671D+03      0.798228D+02      0.888149D+02
   xx         0.870033D+03      0.128926D+03      0.143449D+03
   yx        -0.410593D+02     -0.608437D+01     -0.676977D+01
   yy         0.787581D+03      0.116708D+03      0.129855D+03
   zx         0.213616D+02      0.316546D+01      0.352205D+01
   zy        -0.388628D+02     -0.575887D+01     -0.640761D+01
   zz         0.305251D+03      0.452336D+02      0.503291D+02

 ----------------------------------------------------------------------

 Dipole orientation:
     6          0.00446776          2.08352464         -2.91117753
     6         -0.21128450          3.35564223         -0.57273118
     6         -0.54231639          5.98281822         -0.52786975
     6         -0.66196932          7.24345385         -2.83441045
     6         -0.44390071          5.94662070         -5.14524271
     6         -0.10810639          3.32670891         -5.25166419
     6          0.23417030         -0.62178793          0.26233537
     1         -0.70768995          6.98654775          1.24883097
     1         -0.91850136          9.27492210         -2.85944903
     1         -0.54287888          6.99660004         -6.90245916
     6          0.26564726         -2.91990431          4.30350183
     6          0.35299198         -5.11361266          5.79425945
     6          0.64930993         -7.49778430          4.70646705
     6          0.84310019         -7.56855324          2.08289675
     6          0.72605499         -5.37387072          0.58633762
     6          0.42799729         -2.97882338          1.65752540
     6         -0.11297503         -1.75382795          8.33128731
     1          0.72431126         -9.19497389          5.84325567
     1          1.08538457         -9.37548975          1.15392293
     1          0.87595223         -5.55477765         -1.44668478
     7         -0.05383672          1.61766301          1.37794630
     6         -0.71453513         -1.51291245         13.03373576
     6         -0.38733852         -0.24001502         10.58591951
     6         -0.32394022          2.36056736         10.43767042
     6         -0.57798821          3.88024645         12.61559058
     6         -0.92999031          2.67871963         14.97003452
     6         -1.00588228          0.08630176         15.28021490
     1         -0.04845623          3.27300278          8.62682101
     1         -1.13558824          3.86084851         16.61736851
     6         -0.39757784          6.74074703         12.35215587
     6         -1.37019922         -1.12965651         17.86774642
     8         -0.73848855         -3.88469766         13.15985629
     7         -0.01210712         -0.90434161          5.92893091
     7          0.10332491         -4.29146294          8.26572433
     1         -0.14364959          0.89203066          5.23724019
     7          0.28834253         -0.42584508         -2.32045715
     1          0.45382470         -1.77682273         -3.66967531
     6          0.12321482          1.96843952         -7.64052148
     1          0.01296057          3.13697301         -9.34507927
     7          0.42971019         -0.43387338         -7.71650839
     6          0.63880833         -1.61823618        -10.22546487
     6         -1.76710958         -1.26065018        -11.81663613
     6          2.97885958         -0.70208700        -11.68592454
     1          0.86892325         -3.64893428         -9.88724026
     6         -1.53549834         -2.59843327        -14.37390360
     1         -2.06923209          0.76658487        -12.12358322
     1         -3.40037014         -1.96492934        -10.76277064
     6          3.20375575         -2.04299723        -14.24287173
     1          2.81956080          1.34158329        -11.99032571
     1          4.67242414         -1.01567254        -10.54250882
     6          0.80329870         -1.69799711        -15.82583660
     1         -3.24873726         -2.27935599        -15.48654747
     1         -1.39637412         -4.64400050        -14.06353087
     1          4.85571311         -1.33369561        -15.26428964
     1          3.52281003         -4.06718292        -13.92346237
     1          0.97218799         -2.71711281        -17.61731091
     1          0.57965167          0.31008885        -16.29354254
     1         -0.00391698         -5.28997856          9.90921249
     6         -0.85013876          8.11278584         14.86558023
     1         -0.70018514         10.14876608         14.56485304
     1         -2.73136584          7.71534121         15.61965153
     1          0.54889613          7.58225249         16.28892232
     6         -2.36986923          7.66350504         10.41071540
     1         -2.07559425          6.81711728          8.55127687
     1         -4.28588583          7.21826983         11.03726932
     1         -2.21069717          9.71220137         10.20456781
     6          2.28036392          7.39625547         11.38603428
     1          3.71959223          6.76833011         12.72639922
     1          2.66678864          6.51302919          9.56071803
     1          2.45031138          9.44204504         11.15908485
     6         -3.82952389         -2.70410374         17.85670669
     1         -3.74622912         -4.20284310         16.44825646
     1         -4.10303270         -3.55505191         19.71909949
     1         -5.46047383         -1.50337859         17.45115892
     6         -1.57251381          0.85882725         19.97242755
     1          0.12447382          2.03089439         20.08026042
     1         -3.20532748          2.09793595         19.71724030
     1         -1.79408227         -0.10939840         21.78166061
     6          0.91055295         -2.84999786         18.48658286
     1          0.63786794         -3.67983384         20.35866359
     1          1.10523839         -4.36385823         17.10831652
     1          2.65813603         -1.74937273         18.52314742

 Electric dipole moment (dipole orientation):
 (Debye = 10**-18 statcoulomb cm , SI units = C m)
                  (au)            (Debye)         (10**-30 SI)
   Tot        0.571538D+01      0.145270D+02      0.484570D+02
   x          0.000000D+00      0.000000D+00      0.000000D+00
   y          0.000000D+00      0.000000D+00      0.000000D+00
   z          0.571538D+01      0.145270D+02      0.484570D+02

 Dipole polarizability, Alpha (dipole orientation).
 (esu units = cm**3 , SI units = C**2 m**2 J**-1)
 Alpha(0;0):
               (au)            (10**-24 esu)      (10**-40 SI)
   iso        0.654288D+03      0.969555D+02      0.107878D+03
   aniso      0.538671D+03      0.798228D+02      0.888149D+02
   xx         0.306865D+03      0.454727D+02      0.505952D+02
   yx        -0.379616D+02     -0.562533D+01     -0.625903D+01
   yy         0.787565D+03      0.116705D+03      0.129852D+03
   zx        -0.393673D+02     -0.583363D+01     -0.649079D+01
   zy         0.396109D+02      0.586973D+01      0.653096D+01
   zz         0.868435D+03      0.128689D+03      0.143186D+03

 ----------------------------------------------------------------------

 This type of calculation cannot be archived.


 IF MATHEMATICALLY YOU END UP WITH THE INCORRECT ANSWER,
 TRY MULTIPLYING BY THE PAGE NUMBER.
 Job cpu time:       0 days  0 hours  0 minutes 22.7 seconds.
 Elapsed time:       0 days  0 hours  0 minutes  1.6 seconds.
 File lengths (MBytes):  RWF=     72 Int=      0 D2E=      0 Chk=    104 Scr=      8
 Normal termination of Gaussian 16 at Fri Dec 21 18:12:30 2018.
