 Entering Gaussian System, Link 0=g16
 Initial command:
 /gpfs/apps/hpc/Apps/Restricted/Gaussian/Rev_A.03/g16/l1.exe "/gpfs/scratch60/fas/hammes_schiffer/jg2487/c27n12/Gau-7318.inp" -scrdir="/gpfs/scratch60/fas/hammes_schiffer/jg2487/c27n12/"
 Entering Link 1 = /gpfs/apps/hpc/Apps/Restricted/Gaussian/Rev_A.03/g16/l1.exe PID=      7319.
  
 Copyright (c) 1988,1990,1992,1993,1995,1998,2003,2009,2016,
            Gaussian, Inc.  All Rights Reserved.
  
 This is part of the Gaussian(R) 16 program.  It is based on
 the Gaussian(R) 09 system (copyright 2009, Gaussian, Inc.),
 the Gaussian(R) 03 system (copyright 2003, Gaussian, Inc.),
 the Gaussian(R) 98 system (copyright 1998, Gaussian, Inc.),
 the Gaussian(R) 94 system (copyright 1995, Gaussian, Inc.),
 the Gaussian 92(TM) system (copyright 1992, Gaussian, Inc.),
 the Gaussian 90(TM) system (copyright 1990, Gaussian, Inc.),
 the Gaussian 88(TM) system (copyright 1988, Gaussian, Inc.),
 the Gaussian 86(TM) system (copyright 1986, Carnegie Mellon
 University), and the Gaussian 82(TM) system (copyright 1983,
 Carnegie Mellon University). Gaussian is a federally registered
 trademark of Gaussian, Inc.
  
 This software contains proprietary and confidential information,
 including trade secrets, belonging to Gaussian, Inc.
  
 This software is provided under written license and may be
 used, copied, transmitted, or stored only in accord with that
 written license.
  
 The following legend is applicable only to US Government
 contracts under FAR:
  
                    RESTRICTED RIGHTS LEGEND
  
 Use, reproduction and disclosure by the US Government is
 subject to restrictions as set forth in subparagraphs (a)
 and (c) of the Commercial Computer Software - Restricted
 Rights clause in FAR 52.227-19.
  
 Gaussian, Inc.
 340 Quinnipiac St., Bldg. 40, Wallingford CT 06492
  
  
 ---------------------------------------------------------------
 Warning -- This program may not be used in any manner that
 competes with the business of Gaussian, Inc. or will provide
 assistance to any competitor of Gaussian, Inc.  The licensee
 of this program is prohibited from giving any competitor of
 Gaussian, Inc. access to this program.  By using this program,
 the user acknowledges that Gaussian, Inc. is engaged in the
 business of creating and licensing software in the field of
 computational chemistry and represents and warrants to the
 licensee that it is not a competitor of Gaussian, Inc. and that
 it will not use this program in any manner prohibited above.
 ---------------------------------------------------------------
  

 Cite this work as:
 Gaussian 16, Revision A.03,
 M. J. Frisch, G. W. Trucks, H. B. Schlegel, G. E. Scuseria, 
 M. A. Robb, J. R. Cheeseman, G. Scalmani, V. Barone, 
 G. A. Petersson, H. Nakatsuji, X. Li, M. Caricato, A. V. Marenich, 
 J. Bloino, B. G. Janesko, R. Gomperts, B. Mennucci, H. P. Hratchian, 
 J. V. Ortiz, A. F. Izmaylov, J. L. Sonnenberg, D. Williams-Young, 
 F. Ding, F. Lipparini, F. Egidi, J. Goings, B. Peng, A. Petrone, 
 T. Henderson, D. Ranasinghe, V. G. Zakrzewski, J. Gao, N. Rega, 
 G. Zheng, W. Liang, M. Hada, M. Ehara, K. Toyota, R. Fukuda, 
 J. Hasegawa, M. Ishida, T. Nakajima, Y. Honda, O. Kitao, H. Nakai, 
 T. Vreven, K. Throssell, J. A. Montgomery, Jr., J. E. Peralta, 
 F. Ogliaro, M. J. Bearpark, J. J. Heyd, E. N. Brothers, K. N. Kudin, 
 V. N. Staroverov, T. A. Keith, R. Kobayashi, J. Normand, 
 K. Raghavachari, A. P. Rendell, J. C. Burant, S. S. Iyengar, 
 J. Tomasi, M. Cossi, J. M. Millam, M. Klene, C. Adamo, R. Cammi, 
 J. W. Ochterski, R. L. Martin, K. Morokuma, O. Farkas, 
 J. B. Foresman, and D. J. Fox, Gaussian, Inc., Wallingford CT, 2016.
 
 ******************************************
 Gaussian 16:  ES64L-G16RevA.03 25-Dec-2016
                16-Dec-2018 
 ******************************************
 %chk=cyclohexyl-triBIP-E1PT.chk
 %mem=10GB
 %nprocshared=16
 Will use up to   16 processors via shared memory.
 ----------------------------------------------------------------------
 #p opt=tight freq=internalmodes b3lyp/6-31g(d,p) scrf=(cpcm,solvent=di
 chloromethane,read) nosymm empiricaldispersion=gd3bj int=grid=ultrafin
 e
 ----------------------------------------------------------------------
 1/7=10,18=20,19=15,26=6,38=1,40=2/1,3;
 2/9=110,12=2,15=1,17=6,18=5,40=1/2;
 3/5=1,6=6,7=101,11=2,25=1,30=1,70=2103,71=1,72=9,74=-5,75=-5,124=41/1,2,3;
 4//1;
 5/5=2,38=5,53=9/2;
 6/7=2,8=2,9=2,10=2,28=1/1;
 7/30=1/1,2,3,16;
 1/7=10,18=20,19=15,26=6/3(2);
 2/9=110,15=1/2;
 99//99;
 2/9=110,15=1/2;
 3/5=1,6=6,7=101,11=2,25=1,30=1,70=2105,71=1,72=9,74=-5,75=-5,124=41/1,2,3;
 4/5=5,16=3,69=1/1;
 5/5=2,38=5,53=9/2;
 7/30=1/1,2,3,16;
 1/7=10,18=20,19=15,26=6/3(-5);
 2/9=110,15=1/2;
 6/7=2,8=2,9=2,10=2,19=2,28=1/1;
 99/9=1/99;
 Leave Link    1 at Sun Dec 16 10:37:26 2018, MaxMem=  1342177280 cpu:               8.7 elap:               0.6
 (Enter /gpfs/apps/hpc/Apps/Restricted/Gaussian/Rev_A.03/g16/l101.exe)
 ----------------------------------------------------------------------
 cyclohexylimine triBIP oxidized, first proton transferred, optimizatio
 n
 ----------------------------------------------------------------------
 Symbolic Z-matrix:
 Charge =  1 Multiplicity = 2
 C                     1.65207   0.37067   0.92819 
 C                     0.54484   1.20262   0.63953 
 C                     0.73158   2.58322   0.49613 
 C                     2.02366   3.08052   0.64755 
 C                     3.1144    2.24276   0.93871 
 C                     2.95779   0.86011   1.08874 
 C                    -0.20122  -0.8225    0.78172 
 H                    -0.10237   3.23727   0.27389 
 H                     2.19959   4.14398   0.53751 
 H                     4.1013    2.67912   1.03855 
 C                    -2.47161  -1.75935   0.55561 
 C                    -3.39926  -2.81524   0.56755 
 C                    -3.00761  -4.12989   0.8222 
 C                    -1.65195  -4.33408   1.05947 
 C                    -0.7199   -3.28032   1.04717 
 C                    -1.10405  -1.95989   0.79806 
 C                    -4.4818   -0.91163   0.10162 
 H                    -3.72219  -4.94212   0.83407 
 H                    -1.29693  -5.3365    1.26243 
 H                     0.32199  -3.50334   1.2387 
 N                    -0.60097   0.42756   0.55528 
 C                    -6.91231  -0.55222  -0.38525 
 C                    -5.55663  -0.00937  -0.22882 
 C                    -5.32588   1.34325  -0.39873 
 C                    -6.37312   2.22626  -0.73242 
 C                    -7.68445   1.7174   -0.88786 
 C                    -7.98031   0.38315  -0.73282 
 H                    -4.32498   1.74332  -0.28151 
 H                    -8.48009   2.41094  -1.13844 
 C                    -6.10082   3.6808   -0.94825 
 H                    -5.18847   3.99467  -0.43994 
 H                    -5.97332   3.8794   -2.01913 
 H                    -6.93898   4.28992  -0.60461 
 C                    -9.35795  -0.16955  -0.89818 
 H                    -9.38468  -0.89746  -1.71496 
 H                    -9.66772  -0.70481   0.00374 
 H                    -10.07325   0.62529  -1.10659 
 O                    -7.16461  -1.77247  -0.22959 
 N                    -3.17604  -0.60869   0.2671 
 N                    -4.6236   -2.23896   0.2846 
 H                    -2.70618   0.29457   0.2087 
 N                     1.14744  -0.90336   1.00888 
 H                     1.73557  -1.71017   1.18997 
 C                     4.04164  -0.05711   1.39847 
 N                     3.9064   -1.38193   1.43693 
 N                     5.32584   0.33862   1.68273 
 C                     7.41116  -0.9637    2.26585 
 C                     7.83557  -2.28689   2.43309 
 C                     6.95834  -3.37347   2.26778 
 C                     5.61861  -3.18725   1.93133 
 C                     5.16299  -1.87364   1.75774 
 C                     6.06193  -0.79477   1.92004 
 H                     8.87015  -2.47176   2.70181 
 H                     7.33616  -4.3791    2.40922 
 H                     4.94519  -4.02765   1.81341 
 H                     5.72563   1.26655   1.7673 
 C                     8.30791   0.17347   2.4626 
 H                     9.34192  -0.08117   2.70938 
 N                     7.89037   1.38029   2.36107 
 C                     8.80984   2.49921   2.57131 
 C                     10.26135   2.15692   2.92536 
 C                     8.75334   3.41282   1.33546 
 H                     8.38621   3.07119   3.40979 
 C                     11.08903   3.42914   3.14039 
 H                     10.701    1.57032   2.10935 
 H                     10.294    1.53054   3.82226 
 C                     9.5844    4.68312   1.54229 
 H                     9.13895   2.85195   0.47506 
 H                     7.7094    3.65882   1.11845 
 C                     11.03283   4.35103   1.91765 
 H                     12.12527   3.1619    3.36972 
 H                     10.70191   3.96745   4.01466 
 H                     9.5568    5.2997    0.63869 
 H                     9.13363   5.27843   2.3461 
 H                     11.59295   5.27096   2.11259 
 H                     11.52003   3.8527    1.07018 
 H                    -5.54992  -2.65783   0.19364 
 
 ITRead=  0  0  0  0  0  0  0  0  0  0  0  0  0  0  0  0  0  0  0  0
 ITRead=  0  0  0  0  0  0  0  0  0  0  0  0  0  0  0  0  0  0  0  0
 ITRead=  0  0  0  0  0  0  0  0  0  0  0  0  0  0  0  0  0  0  0  0
 ITRead=  0  0  0  0  0  0  0  0  0  0  0  0  0  0  0  0  0
 MicOpt= -1 -1 -1 -1 -1 -1 -1 -1 -1 -1 -1 -1 -1 -1 -1 -1 -1 -1 -1 -1
 MicOpt= -1 -1 -1 -1 -1 -1 -1 -1 -1 -1 -1 -1 -1 -1 -1 -1 -1 -1 -1 -1
 MicOpt= -1 -1 -1 -1 -1 -1 -1 -1 -1 -1 -1 -1 -1 -1 -1 -1 -1 -1 -1 -1
 MicOpt= -1 -1 -1 -1 -1 -1 -1 -1 -1 -1 -1 -1 -1 -1 -1 -1 -1
 NAtoms=     77 NQM=       77 NQMF=       0 NMMI=      0 NMMIF=      0
                NMic=       0 NMicF=      0.
                    Isotopes and Nuclear Properties:
 (Nuclear quadrupole moments (NQMom) in fm**2, nuclear magnetic moments (NMagM)
  in nuclear magnetons)

  Atom         1           2           3           4           5           6           7           8           9          10
 IAtWgt=          12          12          12          12          12          12          12           1           1           1
 AtmWgt=  12.0000000  12.0000000  12.0000000  12.0000000  12.0000000  12.0000000  12.0000000   1.0078250   1.0078250   1.0078250
 NucSpn=           0           0           0           0           0           0           0           1           1           1
 AtZEff=  -0.0000000  -0.0000000  -0.0000000  -0.0000000  -0.0000000  -0.0000000  -0.0000000  -0.0000000  -0.0000000  -0.0000000
 NQMom=    0.0000000   0.0000000   0.0000000   0.0000000   0.0000000   0.0000000   0.0000000   0.0000000   0.0000000   0.0000000
 NMagM=    0.0000000   0.0000000   0.0000000   0.0000000   0.0000000   0.0000000   0.0000000   2.7928460   2.7928460   2.7928460
 AtZNuc=   6.0000000   6.0000000   6.0000000   6.0000000   6.0000000   6.0000000   6.0000000   1.0000000   1.0000000   1.0000000

  Atom        11          12          13          14          15          16          17          18          19          20
 IAtWgt=          12          12          12          12          12          12          12           1           1           1
 AtmWgt=  12.0000000  12.0000000  12.0000000  12.0000000  12.0000000  12.0000000  12.0000000   1.0078250   1.0078250   1.0078250
 NucSpn=           0           0           0           0           0           0           0           1           1           1
 AtZEff=  -0.0000000  -0.0000000  -0.0000000  -0.0000000  -0.0000000  -0.0000000  -0.0000000  -0.0000000  -0.0000000  -0.0000000
 NQMom=    0.0000000   0.0000000   0.0000000   0.0000000   0.0000000   0.0000000   0.0000000   0.0000000   0.0000000   0.0000000
 NMagM=    0.0000000   0.0000000   0.0000000   0.0000000   0.0000000   0.0000000   0.0000000   2.7928460   2.7928460   2.7928460
 AtZNuc=   6.0000000   6.0000000   6.0000000   6.0000000   6.0000000   6.0000000   6.0000000   1.0000000   1.0000000   1.0000000

  Atom        21          22          23          24          25          26          27          28          29          30
 IAtWgt=          14          12          12          12          12          12          12           1           1          12
 AtmWgt=  14.0030740  12.0000000  12.0000000  12.0000000  12.0000000  12.0000000  12.0000000   1.0078250   1.0078250  12.0000000
 NucSpn=           2           0           0           0           0           0           0           1           1           0
 AtZEff=  -0.0000000  -0.0000000  -0.0000000  -0.0000000  -0.0000000  -0.0000000  -0.0000000  -0.0000000  -0.0000000  -0.0000000
 NQMom=    2.0440000   0.0000000   0.0000000   0.0000000   0.0000000   0.0000000   0.0000000   0.0000000   0.0000000   0.0000000
 NMagM=    0.4037610   0.0000000   0.0000000   0.0000000   0.0000000   0.0000000   0.0000000   2.7928460   2.7928460   0.0000000
 AtZNuc=   7.0000000   6.0000000   6.0000000   6.0000000   6.0000000   6.0000000   6.0000000   1.0000000   1.0000000   6.0000000

  Atom        31          32          33          34          35          36          37          38          39          40
 IAtWgt=           1           1           1          12           1           1           1          16          14          14
 AtmWgt=   1.0078250   1.0078250   1.0078250  12.0000000   1.0078250   1.0078250   1.0078250  15.9949146  14.0030740  14.0030740
 NucSpn=           1           1           1           0           1           1           1           0           2           2
 AtZEff=  -0.0000000  -0.0000000  -0.0000000  -0.0000000  -0.0000000  -0.0000000  -0.0000000  -0.0000000  -0.0000000  -0.0000000
 NQMom=    0.0000000   0.0000000   0.0000000   0.0000000   0.0000000   0.0000000   0.0000000   0.0000000   2.0440000   2.0440000
 NMagM=    2.7928460   2.7928460   2.7928460   0.0000000   2.7928460   2.7928460   2.7928460   0.0000000   0.4037610   0.4037610
 AtZNuc=   1.0000000   1.0000000   1.0000000   6.0000000   1.0000000   1.0000000   1.0000000   8.0000000   7.0000000   7.0000000

  Atom        41          42          43          44          45          46          47          48          49          50
 IAtWgt=           1          14           1          12          14          14          12          12          12          12
 AtmWgt=   1.0078250  14.0030740   1.0078250  12.0000000  14.0030740  14.0030740  12.0000000  12.0000000  12.0000000  12.0000000
 NucSpn=           1           2           1           0           2           2           0           0           0           0
 AtZEff=  -0.0000000  -0.0000000  -0.0000000  -0.0000000  -0.0000000  -0.0000000  -0.0000000  -0.0000000  -0.0000000  -0.0000000
 NQMom=    0.0000000   2.0440000   0.0000000   0.0000000   2.0440000   2.0440000   0.0000000   0.0000000   0.0000000   0.0000000
 NMagM=    2.7928460   0.4037610   2.7928460   0.0000000   0.4037610   0.4037610   0.0000000   0.0000000   0.0000000   0.0000000
 AtZNuc=   1.0000000   7.0000000   1.0000000   6.0000000   7.0000000   7.0000000   6.0000000   6.0000000   6.0000000   6.0000000

  Atom        51          52          53          54          55          56          57          58          59          60
 IAtWgt=          12          12           1           1           1           1          12           1          14          12
 AtmWgt=  12.0000000  12.0000000   1.0078250   1.0078250   1.0078250   1.0078250  12.0000000   1.0078250  14.0030740  12.0000000
 NucSpn=           0           0           1           1           1           1           0           1           2           0
 AtZEff=  -0.0000000  -0.0000000  -0.0000000  -0.0000000  -0.0000000  -0.0000000  -0.0000000  -0.0000000  -0.0000000  -0.0000000
 NQMom=    0.0000000   0.0000000   0.0000000   0.0000000   0.0000000   0.0000000   0.0000000   0.0000000   2.0440000   0.0000000
 NMagM=    0.0000000   0.0000000   2.7928460   2.7928460   2.7928460   2.7928460   0.0000000   2.7928460   0.4037610   0.0000000
 AtZNuc=   6.0000000   6.0000000   1.0000000   1.0000000   1.0000000   1.0000000   6.0000000   1.0000000   7.0000000   6.0000000

  Atom        61          62          63          64          65          66          67          68          69          70
 IAtWgt=          12          12           1          12           1           1          12           1           1          12
 AtmWgt=  12.0000000  12.0000000   1.0078250  12.0000000   1.0078250   1.0078250  12.0000000   1.0078250   1.0078250  12.0000000
 NucSpn=           0           0           1           0           1           1           0           1           1           0
 AtZEff=  -0.0000000  -0.0000000  -0.0000000  -0.0000000  -0.0000000  -0.0000000  -0.0000000  -0.0000000  -0.0000000  -0.0000000
 NQMom=    0.0000000   0.0000000   0.0000000   0.0000000   0.0000000   0.0000000   0.0000000   0.0000000   0.0000000   0.0000000
 NMagM=    0.0000000   0.0000000   2.7928460   0.0000000   2.7928460   2.7928460   0.0000000   2.7928460   2.7928460   0.0000000
 AtZNuc=   6.0000000   6.0000000   1.0000000   6.0000000   1.0000000   1.0000000   6.0000000   1.0000000   1.0000000   6.0000000

  Atom        71          72          73          74          75          76          77
 IAtWgt=           1           1           1           1           1           1           1
 AtmWgt=   1.0078250   1.0078250   1.0078250   1.0078250   1.0078250   1.0078250   1.0078250
 NucSpn=           1           1           1           1           1           1           1
 AtZEff=  -0.0000000  -0.0000000  -0.0000000  -0.0000000  -0.0000000  -0.0000000  -0.0000000
 NQMom=    0.0000000   0.0000000   0.0000000   0.0000000   0.0000000   0.0000000   0.0000000
 NMagM=    2.7928460   2.7928460   2.7928460   2.7928460   2.7928460   2.7928460   2.7928460
 AtZNuc=   1.0000000   1.0000000   1.0000000   1.0000000   1.0000000   1.0000000   1.0000000
 Leave Link  101 at Sun Dec 16 10:37:26 2018, MaxMem=  1342177280 cpu:               5.9 elap:               0.4
 (Enter /gpfs/apps/hpc/Apps/Restricted/Gaussian/Rev_A.03/g16/l103.exe)

 GradGradGradGradGradGradGradGradGradGradGradGradGradGradGradGradGradGrad
 Berny optimization.
 Initialization pass.
                           ----------------------------
                           !    Initial Parameters    !
                           ! (Angstroms and Degrees)  !
 --------------------------                            --------------------------
 ! Name  Definition              Value          Derivative Info.                !
 --------------------------------------------------------------------------------
 ! R1    R(1,2)                  1.4147         estimate D2E/DX2                !
 ! R2    R(1,6)                  1.4037         estimate D2E/DX2                !
 ! R3    R(1,42)                 1.3727         estimate D2E/DX2                !
 ! R4    R(2,3)                  1.4005         estimate D2E/DX2                !
 ! R5    R(2,21)                 1.3859         estimate D2E/DX2                !
 ! R6    R(3,4)                  1.3927         estimate D2E/DX2                !
 ! R7    R(3,8)                  1.0829         estimate D2E/DX2                !
 ! R8    R(4,5)                  1.4058         estimate D2E/DX2                !
 ! R9    R(4,9)                  1.0835         estimate D2E/DX2                !
 ! R10   R(5,6)                  1.3996         estimate D2E/DX2                !
 ! R11   R(5,10)                 1.0837         estimate D2E/DX2                !
 ! R12   R(6,44)                 1.4533         estimate D2E/DX2                !
 ! R13   R(7,16)                 1.4522         estimate D2E/DX2                !
 ! R14   R(7,21)                 1.3318         estimate D2E/DX2                !
 ! R15   R(7,42)                 1.37           estimate D2E/DX2                !
 ! R16   R(11,12)                1.4055         estimate D2E/DX2                !
 ! R17   R(11,16)                1.4033         estimate D2E/DX2                !
 ! R18   R(11,39)                1.3797         estimate D2E/DX2                !
 ! R19   R(12,13)                1.3952         estimate D2E/DX2                !
 ! R20   R(12,40)                1.3825         estimate D2E/DX2                !
 ! R21   R(13,14)                1.3913         estimate D2E/DX2                !
 ! R22   R(13,18)                1.0819         estimate D2E/DX2                !
 ! R23   R(14,15)                1.4069         estimate D2E/DX2                !
 ! R24   R(14,19)                1.0826         estimate D2E/DX2                !
 ! R25   R(15,16)                1.3976         estimate D2E/DX2                !
 ! R26   R(15,20)                1.0826         estimate D2E/DX2                !
 ! R27   R(17,23)                1.4417         estimate D2E/DX2                !
 ! R28   R(17,39)                1.3506         estimate D2E/DX2                !
 ! R29   R(17,40)                1.3474         estimate D2E/DX2                !
 ! R30   R(22,23)                1.4687         estimate D2E/DX2                !
 ! R31   R(22,27)                1.4616         estimate D2E/DX2                !
 ! R32   R(22,38)                1.2557         estimate D2E/DX2                !
 ! R33   R(23,24)                1.3826         estimate D2E/DX2                !
 ! R34   R(24,25)                1.4099         estimate D2E/DX2                !
 ! R35   R(24,28)                1.0842         estimate D2E/DX2                !
 ! R36   R(25,26)                1.4152         estimate D2E/DX2                !
 ! R37   R(25,30)                1.4955         estimate D2E/DX2                !
 ! R38   R(26,27)                1.3754         estimate D2E/DX2                !
 ! R39   R(26,29)                1.0848         estimate D2E/DX2                !
 ! R40   R(27,34)                1.4936         estimate D2E/DX2                !
 ! R41   R(30,31)                1.0905         estimate D2E/DX2                !
 ! R42   R(30,32)                1.0966         estimate D2E/DX2                !
 ! R43   R(30,33)                1.0916         estimate D2E/DX2                !
 ! R44   R(34,35)                1.0944         estimate D2E/DX2                !
 ! R45   R(34,36)                1.0936         estimate D2E/DX2                !
 ! R46   R(34,37)                1.0894         estimate D2E/DX2                !
 ! R47   R(39,41)                1.0198         estimate D2E/DX2                !
 ! R48   R(40,77)                1.0207         estimate D2E/DX2                !
 ! R49   R(42,43)                1.0147         estimate D2E/DX2                !
 ! R50   R(44,45)                1.3323         estimate D2E/DX2                !
 ! R51   R(44,46)                1.3735         estimate D2E/DX2                !
 ! R52   R(45,51)                1.387          estimate D2E/DX2                !
 ! R53   R(46,52)                1.3721         estimate D2E/DX2                !
 ! R54   R(46,56)                1.0139         estimate D2E/DX2                !
 ! R55   R(47,48)                1.3996         estimate D2E/DX2                !
 ! R56   R(47,52)                1.403          estimate D2E/DX2                !
 ! R57   R(47,57)                1.4615         estimate D2E/DX2                !
 ! R58   R(48,49)                1.4062         estimate D2E/DX2                !
 ! R59   R(48,53)                1.0848         estimate D2E/DX2                !
 ! R60   R(49,50)                1.3938         estimate D2E/DX2                !
 ! R61   R(49,54)                1.0835         estimate D2E/DX2                !
 ! R62   R(50,51)                1.4012         estimate D2E/DX2                !
 ! R63   R(50,55)                1.0834         estimate D2E/DX2                !
 ! R64   R(51,52)                1.4136         estimate D2E/DX2                !
 ! R65   R(57,58)                1.0931         estimate D2E/DX2                !
 ! R66   R(57,59)                1.281          estimate D2E/DX2                !
 ! R67   R(59,60)                1.4634         estimate D2E/DX2                !
 ! R68   R(60,61)                1.5328         estimate D2E/DX2                !
 ! R69   R(60,62)                1.5379         estimate D2E/DX2                !
 ! R70   R(60,63)                1.0999         estimate D2E/DX2                !
 ! R71   R(61,64)                1.5329         estimate D2E/DX2                !
 ! R72   R(61,65)                1.0969         estimate D2E/DX2                !
 ! R73   R(61,66)                1.0945         estimate D2E/DX2                !
 ! R74   R(62,67)                1.532          estimate D2E/DX2                !
 ! R75   R(62,68)                1.0971         estimate D2E/DX2                !
 ! R76   R(62,69)                1.0943         estimate D2E/DX2                !
 ! R77   R(64,70)                1.5324         estimate D2E/DX2                !
 ! R78   R(64,71)                1.0944         estimate D2E/DX2                !
 ! R79   R(64,72)                1.0973         estimate D2E/DX2                !
 ! R80   R(67,70)                1.5327         estimate D2E/DX2                !
 ! R81   R(67,73)                1.0943         estimate D2E/DX2                !
 ! R82   R(67,74)                1.0971         estimate D2E/DX2                !
 ! R83   R(70,75)                1.0945         estimate D2E/DX2                !
 ! R84   R(70,76)                1.0972         estimate D2E/DX2                !
 ! A1    A(2,1,6)              123.1159         estimate D2E/DX2                !
 ! A2    A(2,1,42)             105.6687         estimate D2E/DX2                !
 ! A3    A(6,1,42)             131.2137         estimate D2E/DX2                !
 ! A4    A(1,2,3)              119.7511         estimate D2E/DX2                !
 ! A5    A(1,2,21)             109.3049         estimate D2E/DX2                !
 ! A6    A(3,2,21)             130.943          estimate D2E/DX2                !
 ! A7    A(2,3,4)              117.6814         estimate D2E/DX2                !
 ! A8    A(2,3,8)              120.9117         estimate D2E/DX2                !
 ! A9    A(4,3,8)              121.4069         estimate D2E/DX2                !
 ! A10   A(3,4,5)              121.9738         estimate D2E/DX2                !
 ! A11   A(3,4,9)              119.3439         estimate D2E/DX2                !
 ! A12   A(5,4,9)              118.6822         estimate D2E/DX2                !
 ! A13   A(4,5,6)              121.6085         estimate D2E/DX2                !
 ! A14   A(4,5,10)             119.0587         estimate D2E/DX2                !
 ! A15   A(6,5,10)             119.3295         estimate D2E/DX2                !
 ! A16   A(1,6,5)              115.8684         estimate D2E/DX2                !
 ! A17   A(1,6,44)             119.8727         estimate D2E/DX2                !
 ! A18   A(5,6,44)             124.258          estimate D2E/DX2                !
 ! A19   A(16,7,21)            123.3966         estimate D2E/DX2                !
 ! A20   A(16,7,42)            124.3246         estimate D2E/DX2                !
 ! A21   A(21,7,42)            112.2755         estimate D2E/DX2                !
 ! A22   A(12,11,16)           122.3009         estimate D2E/DX2                !
 ! A23   A(12,11,39)           106.9379         estimate D2E/DX2                !
 ! A24   A(16,11,39)           130.7599         estimate D2E/DX2                !
 ! A25   A(11,12,13)           121.6109         estimate D2E/DX2                !
 ! A26   A(11,12,40)           105.6417         estimate D2E/DX2                !
 ! A27   A(13,12,40)           132.7463         estimate D2E/DX2                !
 ! A28   A(12,13,14)           116.291          estimate D2E/DX2                !
 ! A29   A(12,13,18)           121.6019         estimate D2E/DX2                !
 ! A30   A(14,13,18)           122.1071         estimate D2E/DX2                !
 ! A31   A(13,14,15)           122.2828         estimate D2E/DX2                !
 ! A32   A(13,14,19)           119.168          estimate D2E/DX2                !
 ! A33   A(15,14,19)           118.5491         estimate D2E/DX2                !
 ! A34   A(14,15,16)           121.8116         estimate D2E/DX2                !
 ! A35   A(14,15,20)           118.8001         estimate D2E/DX2                !
 ! A36   A(16,15,20)           119.3881         estimate D2E/DX2                !
 ! A37   A(7,16,11)            119.4711         estimate D2E/DX2                !
 ! A38   A(7,16,15)            124.8265         estimate D2E/DX2                !
 ! A39   A(11,16,15)           115.7019         estimate D2E/DX2                !
 ! A40   A(23,17,39)           127.4797         estimate D2E/DX2                !
 ! A41   A(23,17,40)           124.6931         estimate D2E/DX2                !
 ! A42   A(39,17,40)           107.8227         estimate D2E/DX2                !
 ! A43   A(2,21,7)             105.452          estimate D2E/DX2                !
 ! A44   A(23,22,27)           117.5981         estimate D2E/DX2                !
 ! A45   A(23,22,38)           122.1021         estimate D2E/DX2                !
 ! A46   A(27,22,38)           120.2998         estimate D2E/DX2                !
 ! A47   A(17,23,22)           118.7679         estimate D2E/DX2                !
 ! A48   A(17,23,24)           121.0627         estimate D2E/DX2                !
 ! A49   A(22,23,24)           120.1693         estimate D2E/DX2                !
 ! A50   A(23,24,25)           121.1861         estimate D2E/DX2                !
 ! A51   A(23,24,28)           120.1159         estimate D2E/DX2                !
 ! A52   A(25,24,28)           118.6971         estimate D2E/DX2                !
 ! A53   A(24,25,26)           119.28           estimate D2E/DX2                !
 ! A54   A(24,25,30)           120.5353         estimate D2E/DX2                !
 ! A55   A(26,25,30)           120.1729         estimate D2E/DX2                !
 ! A56   A(25,26,27)           122.3953         estimate D2E/DX2                !
 ! A57   A(25,26,29)           118.3662         estimate D2E/DX2                !
 ! A58   A(27,26,29)           119.2385         estimate D2E/DX2                !
 ! A59   A(22,27,26)           119.3682         estimate D2E/DX2                !
 ! A60   A(22,27,34)           117.613          estimate D2E/DX2                !
 ! A61   A(26,27,34)           123.0184         estimate D2E/DX2                !
 ! A62   A(25,30,31)           111.4074         estimate D2E/DX2                !
 ! A63   A(25,30,32)           109.7716         estimate D2E/DX2                !
 ! A64   A(25,30,33)           110.9459         estimate D2E/DX2                !
 ! A65   A(31,30,32)           107.8063         estimate D2E/DX2                !
 ! A66   A(31,30,33)           109.5736         estimate D2E/DX2                !
 ! A67   A(32,30,33)           107.1955         estimate D2E/DX2                !
 ! A68   A(27,34,35)           110.5664         estimate D2E/DX2                !
 ! A69   A(27,34,36)           110.5542         estimate D2E/DX2                !
 ! A70   A(27,34,37)           110.9045         estimate D2E/DX2                !
 ! A71   A(35,34,36)           106.443          estimate D2E/DX2                !
 ! A72   A(35,34,37)           109.0535         estimate D2E/DX2                !
 ! A73   A(36,34,37)           109.2022         estimate D2E/DX2                !
 ! A74   A(11,39,17)           109.4008         estimate D2E/DX2                !
 ! A75   A(11,39,41)           121.0257         estimate D2E/DX2                !
 ! A76   A(17,39,41)           129.5733         estimate D2E/DX2                !
 ! A77   A(12,40,17)           110.1964         estimate D2E/DX2                !
 ! A78   A(12,40,77)           130.6116         estimate D2E/DX2                !
 ! A79   A(17,40,77)           119.189          estimate D2E/DX2                !
 ! A80   A(1,42,7)             107.2986         estimate D2E/DX2                !
 ! A81   A(1,42,43)            122.3693         estimate D2E/DX2                !
 ! A82   A(7,42,43)            130.322          estimate D2E/DX2                !
 ! A83   A(6,44,45)            123.9229         estimate D2E/DX2                !
 ! A84   A(6,44,46)            124.0258         estimate D2E/DX2                !
 ! A85   A(45,44,46)           112.0512         estimate D2E/DX2                !
 ! A86   A(44,45,51)           105.501          estimate D2E/DX2                !
 ! A87   A(44,46,52)           107.4203         estimate D2E/DX2                !
 ! A88   A(44,46,56)           130.5115         estimate D2E/DX2                !
 ! A89   A(52,46,56)           122.0056         estimate D2E/DX2                !
 ! A90   A(48,47,52)           115.7778         estimate D2E/DX2                !
 ! A91   A(48,47,57)           122.2383         estimate D2E/DX2                !
 ! A92   A(52,47,57)           121.9744         estimate D2E/DX2                !
 ! A93   A(47,48,49)           121.822          estimate D2E/DX2                !
 ! A94   A(47,48,53)           118.6804         estimate D2E/DX2                !
 ! A95   A(49,48,53)           119.497          estimate D2E/DX2                !
 ! A96   A(48,49,50)           121.6508         estimate D2E/DX2                !
 ! A97   A(48,49,54)           118.9648         estimate D2E/DX2                !
 ! A98   A(50,49,54)           119.3842         estimate D2E/DX2                !
 ! A99   A(49,50,51)           117.8859         estimate D2E/DX2                !
 ! A100  A(49,50,55)           121.3395         estimate D2E/DX2                !
 ! A101  A(51,50,55)           120.7732         estimate D2E/DX2                !
 ! A102  A(45,51,50)           130.9669         estimate D2E/DX2                !
 ! A103  A(45,51,52)           109.3972         estimate D2E/DX2                !
 ! A104  A(50,51,52)           119.6356         estimate D2E/DX2                !
 ! A105  A(46,52,47)           131.1447         estimate D2E/DX2                !
 ! A106  A(46,52,51)           105.6287         estimate D2E/DX2                !
 ! A107  A(47,52,51)           123.2246         estimate D2E/DX2                !
 ! A108  A(47,57,58)           115.4384         estimate D2E/DX2                !
 ! A109  A(47,57,59)           121.4893         estimate D2E/DX2                !
 ! A110  A(58,57,59)           123.0692         estimate D2E/DX2                !
 ! A111  A(57,59,60)           120.273          estimate D2E/DX2                !
 ! A112  A(59,60,61)           117.2215         estimate D2E/DX2                !
 ! A113  A(59,60,62)           108.4021         estimate D2E/DX2                !
 ! A114  A(59,60,63)           105.3757         estimate D2E/DX2                !
 ! A115  A(61,60,62)           110.6749         estimate D2E/DX2                !
 ! A116  A(61,60,63)           107.7456         estimate D2E/DX2                !
 ! A117  A(62,60,63)           106.8298         estimate D2E/DX2                !
 ! A118  A(60,61,64)           111.0006         estimate D2E/DX2                !
 ! A119  A(60,61,65)           109.0954         estimate D2E/DX2                !
 ! A120  A(60,61,66)           110.2029         estimate D2E/DX2                !
 ! A121  A(64,61,65)           109.3759         estimate D2E/DX2                !
 ! A122  A(64,61,66)           110.1162         estimate D2E/DX2                !
 ! A123  A(65,61,66)           106.954          estimate D2E/DX2                !
 ! A124  A(60,62,67)           111.3556         estimate D2E/DX2                !
 ! A125  A(60,62,68)           108.2768         estimate D2E/DX2                !
 ! A126  A(60,62,69)           109.145          estimate D2E/DX2                !
 ! A127  A(67,62,68)           109.8227         estimate D2E/DX2                !
 ! A128  A(67,62,69)           110.97           estimate D2E/DX2                !
 ! A129  A(68,62,69)           107.1413         estimate D2E/DX2                !
 ! A130  A(61,64,70)           111.5655         estimate D2E/DX2                !
 ! A131  A(61,64,71)           109.7528         estimate D2E/DX2                !
 ! A132  A(61,64,72)           109.1741         estimate D2E/DX2                !
 ! A133  A(70,64,71)           110.4156         estimate D2E/DX2                !
 ! A134  A(70,64,72)           109.1287         estimate D2E/DX2                !
 ! A135  A(71,64,72)           106.6714         estimate D2E/DX2                !
 ! A136  A(62,67,70)           111.4717         estimate D2E/DX2                !
 ! A137  A(62,67,73)           110.0015         estimate D2E/DX2                !
 ! A138  A(62,67,74)           109.0229         estimate D2E/DX2                !
 ! A139  A(70,67,73)           110.3741         estimate D2E/DX2                !
 ! A140  A(70,67,74)           109.051          estimate D2E/DX2                !
 ! A141  A(73,67,74)           106.7916         estimate D2E/DX2                !
 ! A142  A(64,70,67)           111.1265         estimate D2E/DX2                !
 ! A143  A(64,70,75)           110.1673         estimate D2E/DX2                !
 ! A144  A(64,70,76)           109.0745         estimate D2E/DX2                !
 ! A145  A(67,70,75)           110.1888         estimate D2E/DX2                !
 ! A146  A(67,70,76)           109.1998         estimate D2E/DX2                !
 ! A147  A(75,70,76)           106.9812         estimate D2E/DX2                !
 ! D1    D(6,1,2,3)              0.2797         estimate D2E/DX2                !
 ! D2    D(6,1,2,21)          -179.3835         estimate D2E/DX2                !
 ! D3    D(42,1,2,3)           179.8533         estimate D2E/DX2                !
 ! D4    D(42,1,2,21)            0.1901         estimate D2E/DX2                !
 ! D5    D(2,1,6,5)             -0.3279         estimate D2E/DX2                !
 ! D6    D(2,1,6,44)           179.3511         estimate D2E/DX2                !
 ! D7    D(42,1,6,5)          -179.7821         estimate D2E/DX2                !
 ! D8    D(42,1,6,44)           -0.1031         estimate D2E/DX2                !
 ! D9    D(2,1,42,7)            -0.2029         estimate D2E/DX2                !
 ! D10   D(2,1,42,43)          178.751          estimate D2E/DX2                !
 ! D11   D(6,1,42,7)           179.3223         estimate D2E/DX2                !
 ! D12   D(6,1,42,43)           -1.7238         estimate D2E/DX2                !
 ! D13   D(1,2,3,4)              0.0005         estimate D2E/DX2                !
 ! D14   D(1,2,3,8)            179.9181         estimate D2E/DX2                !
 ! D15   D(21,2,3,4)           179.5797         estimate D2E/DX2                !
 ! D16   D(21,2,3,8)            -0.5027         estimate D2E/DX2                !
 ! D17   D(1,2,21,7)            -0.0994         estimate D2E/DX2                !
 ! D18   D(3,2,21,7)          -179.7122         estimate D2E/DX2                !
 ! D19   D(2,3,4,5)             -0.2119         estimate D2E/DX2                !
 ! D20   D(2,3,4,9)            179.7088         estimate D2E/DX2                !
 ! D21   D(8,3,4,5)            179.871          estimate D2E/DX2                !
 ! D22   D(8,3,4,9)             -0.2084         estimate D2E/DX2                !
 ! D23   D(3,4,5,6)              0.1578         estimate D2E/DX2                !
 ! D24   D(3,4,5,10)           179.4983         estimate D2E/DX2                !
 ! D25   D(9,4,5,6)           -179.7633         estimate D2E/DX2                !
 ! D26   D(9,4,5,10)            -0.4228         estimate D2E/DX2                !
 ! D27   D(4,5,6,1)              0.1107         estimate D2E/DX2                !
 ! D28   D(4,5,6,44)          -179.5525         estimate D2E/DX2                !
 ! D29   D(10,5,6,1)          -179.228          estimate D2E/DX2                !
 ! D30   D(10,5,6,44)            1.1088         estimate D2E/DX2                !
 ! D31   D(1,6,44,45)            5.8219         estimate D2E/DX2                !
 ! D32   D(1,6,44,46)         -174.3389         estimate D2E/DX2                !
 ! D33   D(5,6,44,45)         -174.5276         estimate D2E/DX2                !
 ! D34   D(5,6,44,46)            5.3116         estimate D2E/DX2                !
 ! D35   D(21,7,16,11)           0.5011         estimate D2E/DX2                !
 ! D36   D(21,7,16,15)        -179.2347         estimate D2E/DX2                !
 ! D37   D(42,7,16,11)         179.7869         estimate D2E/DX2                !
 ! D38   D(42,7,16,15)           0.0511         estimate D2E/DX2                !
 ! D39   D(16,7,21,2)          179.3308         estimate D2E/DX2                !
 ! D40   D(42,7,21,2)           -0.0319         estimate D2E/DX2                !
 ! D41   D(16,7,42,1)         -179.2024         estimate D2E/DX2                !
 ! D42   D(16,7,42,43)           1.9565         estimate D2E/DX2                !
 ! D43   D(21,7,42,1)            0.1533         estimate D2E/DX2                !
 ! D44   D(21,7,42,43)        -178.6878         estimate D2E/DX2                !
 ! D45   D(16,11,12,13)         -0.0395         estimate D2E/DX2                !
 ! D46   D(16,11,12,40)       -179.6978         estimate D2E/DX2                !
 ! D47   D(39,11,12,13)        179.5947         estimate D2E/DX2                !
 ! D48   D(39,11,12,40)         -0.0636         estimate D2E/DX2                !
 ! D49   D(12,11,16,7)        -179.4893         estimate D2E/DX2                !
 ! D50   D(12,11,16,15)          0.27           estimate D2E/DX2                !
 ! D51   D(39,11,16,7)           0.9727         estimate D2E/DX2                !
 ! D52   D(39,11,16,15)       -179.268          estimate D2E/DX2                !
 ! D53   D(12,11,39,17)         -0.0851         estimate D2E/DX2                !
 ! D54   D(12,11,39,41)        179.7572         estimate D2E/DX2                !
 ! D55   D(16,11,39,17)        179.5066         estimate D2E/DX2                !
 ! D56   D(16,11,39,41)         -0.6511         estimate D2E/DX2                !
 ! D57   D(11,12,13,14)         -0.1365         estimate D2E/DX2                !
 ! D58   D(11,12,13,18)        179.8279         estimate D2E/DX2                !
 ! D59   D(40,12,13,14)        179.4154         estimate D2E/DX2                !
 ! D60   D(40,12,13,18)         -0.6203         estimate D2E/DX2                !
 ! D61   D(11,12,40,17)          0.1924         estimate D2E/DX2                !
 ! D62   D(11,12,40,77)        179.5299         estimate D2E/DX2                !
 ! D63   D(13,12,40,17)       -179.4113         estimate D2E/DX2                !
 ! D64   D(13,12,40,77)         -0.0738         estimate D2E/DX2                !
 ! D65   D(12,13,14,15)          0.0738         estimate D2E/DX2                !
 ! D66   D(12,13,14,19)        179.9897         estimate D2E/DX2                !
 ! D67   D(18,13,14,15)       -179.8903         estimate D2E/DX2                !
 ! D68   D(18,13,14,19)          0.0255         estimate D2E/DX2                !
 ! D69   D(13,14,15,16)          0.1698         estimate D2E/DX2                !
 ! D70   D(13,14,15,20)       -179.9686         estimate D2E/DX2                !
 ! D71   D(19,14,15,16)       -179.7465         estimate D2E/DX2                !
 ! D72   D(19,14,15,20)          0.1151         estimate D2E/DX2                !
 ! D73   D(14,15,16,7)         179.4129         estimate D2E/DX2                !
 ! D74   D(14,15,16,11)         -0.3318         estimate D2E/DX2                !
 ! D75   D(20,15,16,7)          -0.4479         estimate D2E/DX2                !
 ! D76   D(20,15,16,11)        179.8074         estimate D2E/DX2                !
 ! D77   D(39,17,23,22)        178.9981         estimate D2E/DX2                !
 ! D78   D(39,17,23,24)         -0.9389         estimate D2E/DX2                !
 ! D79   D(40,17,23,22)         -0.1278         estimate D2E/DX2                !
 ! D80   D(40,17,23,24)        179.9353         estimate D2E/DX2                !
 ! D81   D(23,17,39,11)       -179.0404         estimate D2E/DX2                !
 ! D82   D(23,17,39,41)          1.1349         estimate D2E/DX2                !
 ! D83   D(40,17,39,11)          0.2046         estimate D2E/DX2                !
 ! D84   D(40,17,39,41)       -179.62           estimate D2E/DX2                !
 ! D85   D(23,17,40,12)        179.023          estimate D2E/DX2                !
 ! D86   D(23,17,40,77)         -0.401          estimate D2E/DX2                !
 ! D87   D(39,17,40,12)         -0.2484         estimate D2E/DX2                !
 ! D88   D(39,17,40,77)       -179.6723         estimate D2E/DX2                !
 ! D89   D(27,22,23,17)       -179.4313         estimate D2E/DX2                !
 ! D90   D(27,22,23,24)          0.5062         estimate D2E/DX2                !
 ! D91   D(38,22,23,17)          0.5986         estimate D2E/DX2                !
 ! D92   D(38,22,23,24)       -179.4639         estimate D2E/DX2                !
 ! D93   D(23,22,27,26)         -0.5071         estimate D2E/DX2                !
 ! D94   D(23,22,27,34)        179.7241         estimate D2E/DX2                !
 ! D95   D(38,22,27,26)        179.4635         estimate D2E/DX2                !
 ! D96   D(38,22,27,34)         -0.3052         estimate D2E/DX2                !
 ! D97   D(17,23,24,25)        179.4859         estimate D2E/DX2                !
 ! D98   D(17,23,24,28)         -0.1598         estimate D2E/DX2                !
 ! D99   D(22,23,24,25)         -0.4501         estimate D2E/DX2                !
 ! D100  D(22,23,24,28)        179.9041         estimate D2E/DX2                !
 ! D101  D(23,24,25,26)          0.3772         estimate D2E/DX2                !
 ! D102  D(23,24,25,30)       -178.3741         estimate D2E/DX2                !
 ! D103  D(28,24,25,26)       -179.9722         estimate D2E/DX2                !
 ! D104  D(28,24,25,30)          1.2766         estimate D2E/DX2                !
 ! D105  D(24,25,26,27)         -0.3874         estimate D2E/DX2                !
 ! D106  D(24,25,26,29)        179.6142         estimate D2E/DX2                !
 ! D107  D(30,25,26,27)        178.3685         estimate D2E/DX2                !
 ! D108  D(30,25,26,29)         -1.6299         estimate D2E/DX2                !
 ! D109  D(24,25,30,31)        -23.2235         estimate D2E/DX2                !
 ! D110  D(24,25,30,32)         96.1147         estimate D2E/DX2                !
 ! D111  D(24,25,30,33)       -145.5926         estimate D2E/DX2                !
 ! D112  D(26,25,30,31)        158.0364         estimate D2E/DX2                !
 ! D113  D(26,25,30,32)        -82.6255         estimate D2E/DX2                !
 ! D114  D(26,25,30,33)         35.6673         estimate D2E/DX2                !
 ! D115  D(25,26,27,22)          0.4616         estimate D2E/DX2                !
 ! D116  D(25,26,27,34)       -179.7828         estimate D2E/DX2                !
 ! D117  D(29,26,27,22)       -179.54           estimate D2E/DX2                !
 ! D118  D(29,26,27,34)          0.2157         estimate D2E/DX2                !
 ! D119  D(22,27,34,35)        -61.7134         estimate D2E/DX2                !
 ! D120  D(22,27,34,36)         55.9045         estimate D2E/DX2                !
 ! D121  D(22,27,34,37)        177.1854         estimate D2E/DX2                !
 ! D122  D(26,27,34,35)        118.5269         estimate D2E/DX2                !
 ! D123  D(26,27,34,36)       -123.8552         estimate D2E/DX2                !
 ! D124  D(26,27,34,37)         -2.5743         estimate D2E/DX2                !
 ! D125  D(6,44,45,51)         179.6816         estimate D2E/DX2                !
 ! D126  D(46,44,45,51)         -0.1747         estimate D2E/DX2                !
 ! D127  D(6,44,46,52)        -179.9354         estimate D2E/DX2                !
 ! D128  D(6,44,46,56)           2.9595         estimate D2E/DX2                !
 ! D129  D(45,44,46,52)         -0.0793         estimate D2E/DX2                !
 ! D130  D(45,44,46,56)       -177.1844         estimate D2E/DX2                !
 ! D131  D(44,45,51,50)       -179.8488         estimate D2E/DX2                !
 ! D132  D(44,45,51,52)          0.3589         estimate D2E/DX2                !
 ! D133  D(44,46,52,47)       -179.2002         estimate D2E/DX2                !
 ! D134  D(44,46,52,51)          0.2927         estimate D2E/DX2                !
 ! D135  D(56,46,52,47)         -1.7954         estimate D2E/DX2                !
 ! D136  D(56,46,52,51)        177.6975         estimate D2E/DX2                !
 ! D137  D(52,47,48,49)         -0.2071         estimate D2E/DX2                !
 ! D138  D(52,47,48,53)       -179.9412         estimate D2E/DX2                !
 ! D139  D(57,47,48,49)        178.6957         estimate D2E/DX2                !
 ! D140  D(57,47,48,53)         -1.0384         estimate D2E/DX2                !
 ! D141  D(48,47,52,46)       -179.9615         estimate D2E/DX2                !
 ! D142  D(48,47,52,51)          0.6224         estimate D2E/DX2                !
 ! D143  D(57,47,52,46)          1.1326         estimate D2E/DX2                !
 ! D144  D(57,47,52,51)       -178.2836         estimate D2E/DX2                !
 ! D145  D(48,47,57,58)          2.3768         estimate D2E/DX2                !
 ! D146  D(48,47,57,59)       -177.0015         estimate D2E/DX2                !
 ! D147  D(52,47,57,58)       -178.7879         estimate D2E/DX2                !
 ! D148  D(52,47,57,59)          1.8337         estimate D2E/DX2                !
 ! D149  D(47,48,49,50)         -0.1461         estimate D2E/DX2                !
 ! D150  D(47,48,49,54)       -179.9598         estimate D2E/DX2                !
 ! D151  D(53,48,49,50)        179.5859         estimate D2E/DX2                !
 ! D152  D(53,48,49,54)         -0.2279         estimate D2E/DX2                !
 ! D153  D(48,49,50,51)          0.1021         estimate D2E/DX2                !
 ! D154  D(48,49,50,55)       -179.4779         estimate D2E/DX2                !
 ! D155  D(54,49,50,51)        179.9151         estimate D2E/DX2                !
 ! D156  D(54,49,50,55)          0.3351         estimate D2E/DX2                !
 ! D157  D(49,50,51,45)       -179.4814         estimate D2E/DX2                !
 ! D158  D(49,50,51,52)          0.2932         estimate D2E/DX2                !
 ! D159  D(55,50,51,45)          0.101          estimate D2E/DX2                !
 ! D160  D(55,50,51,52)        179.8757         estimate D2E/DX2                !
 ! D161  D(45,51,52,46)         -0.4078         estimate D2E/DX2                !
 ! D162  D(45,51,52,47)        179.1357         estimate D2E/DX2                !
 ! D163  D(50,51,52,46)        179.7726         estimate D2E/DX2                !
 ! D164  D(50,51,52,47)         -0.6839         estimate D2E/DX2                !
 ! D165  D(47,57,59,60)        179.636          estimate D2E/DX2                !
 ! D166  D(58,57,59,60)          0.3059         estimate D2E/DX2                !
 ! D167  D(57,59,60,61)         -0.6025         estimate D2E/DX2                !
 ! D168  D(57,59,60,62)        125.5244         estimate D2E/DX2                !
 ! D169  D(57,59,60,63)       -120.3997         estimate D2E/DX2                !
 ! D170  D(59,60,61,64)       -178.8881         estimate D2E/DX2                !
 ! D171  D(59,60,61,65)         60.5175         estimate D2E/DX2                !
 ! D172  D(59,60,61,66)        -56.6251         estimate D2E/DX2                !
 ! D173  D(62,60,61,64)         56.1132         estimate D2E/DX2                !
 ! D174  D(62,60,61,65)        -64.4811         estimate D2E/DX2                !
 ! D175  D(62,60,61,66)        178.3763         estimate D2E/DX2                !
 ! D176  D(63,60,61,64)        -60.3538         estimate D2E/DX2                !
 ! D177  D(63,60,61,65)        179.0518         estimate D2E/DX2                !
 ! D178  D(63,60,61,66)         61.9092         estimate D2E/DX2                !
 ! D179  D(59,60,62,67)        174.2292         estimate D2E/DX2                !
 ! D180  D(59,60,62,68)        -64.9341         estimate D2E/DX2                !
 ! D181  D(59,60,62,69)         51.3751         estimate D2E/DX2                !
 ! D182  D(61,60,62,67)        -55.9182         estimate D2E/DX2                !
 ! D183  D(61,60,62,68)         64.9185         estimate D2E/DX2                !
 ! D184  D(61,60,62,69)       -178.7723         estimate D2E/DX2                !
 ! D185  D(63,60,62,67)         61.1144         estimate D2E/DX2                !
 ! D186  D(63,60,62,68)       -178.049          estimate D2E/DX2                !
 ! D187  D(63,60,62,69)        -61.7397         estimate D2E/DX2                !
 ! D188  D(60,61,64,70)        -56.0311         estimate D2E/DX2                !
 ! D189  D(60,61,64,71)       -178.7459         estimate D2E/DX2                !
 ! D190  D(60,61,64,72)         64.6651         estimate D2E/DX2                !
 ! D191  D(65,61,64,70)         64.3972         estimate D2E/DX2                !
 ! D192  D(65,61,64,71)        -58.3176         estimate D2E/DX2                !
 ! D193  D(65,61,64,72)       -174.9066         estimate D2E/DX2                !
 ! D194  D(66,61,64,70)       -178.3444         estimate D2E/DX2                !
 ! D195  D(66,61,64,71)         58.9407         estimate D2E/DX2                !
 ! D196  D(66,61,64,72)        -57.6483         estimate D2E/DX2                !
 ! D197  D(60,62,67,70)         55.2892         estimate D2E/DX2                !
 ! D198  D(60,62,67,73)        178.0615         estimate D2E/DX2                !
 ! D199  D(60,62,67,74)        -65.1504         estimate D2E/DX2                !
 ! D200  D(68,62,67,70)        -64.6369         estimate D2E/DX2                !
 ! D201  D(68,62,67,73)         58.1355         estimate D2E/DX2                !
 ! D202  D(68,62,67,74)        174.9236         estimate D2E/DX2                !
 ! D203  D(69,62,67,70)        177.0903         estimate D2E/DX2                !
 ! D204  D(69,62,67,73)        -60.1373         estimate D2E/DX2                !
 ! D205  D(69,62,67,74)         56.6508         estimate D2E/DX2                !
 ! D206  D(61,64,70,67)         55.0247         estimate D2E/DX2                !
 ! D207  D(61,64,70,75)        177.4409         estimate D2E/DX2                !
 ! D208  D(61,64,70,76)        -65.4165         estimate D2E/DX2                !
 ! D209  D(71,64,70,67)        177.3594         estimate D2E/DX2                !
 ! D210  D(71,64,70,75)        -60.2244         estimate D2E/DX2                !
 ! D211  D(71,64,70,76)         56.9183         estimate D2E/DX2                !
 ! D212  D(72,64,70,67)        -65.698          estimate D2E/DX2                !
 ! D213  D(72,64,70,75)         56.7181         estimate D2E/DX2                !
 ! D214  D(72,64,70,76)        173.8608         estimate D2E/DX2                !
 ! D215  D(62,67,70,64)        -54.5752         estimate D2E/DX2                !
 ! D216  D(62,67,70,75)       -176.9789         estimate D2E/DX2                !
 ! D217  D(62,67,70,76)         65.7918         estimate D2E/DX2                !
 ! D218  D(73,67,70,64)       -177.1339         estimate D2E/DX2                !
 ! D219  D(73,67,70,75)         60.4624         estimate D2E/DX2                !
 ! D220  D(73,67,70,76)        -56.7668         estimate D2E/DX2                !
 ! D221  D(74,67,70,64)         65.8478         estimate D2E/DX2                !
 ! D222  D(74,67,70,75)        -56.5559         estimate D2E/DX2                !
 ! D223  D(74,67,70,76)       -173.7851         estimate D2E/DX2                !
 --------------------------------------------------------------------------------
 Trust Radius=3.00D-01 FncErr=5.00D-06 GrdErr=5.00D-06 EigMax=2.50D+02 EigMin=1.00D-04
 Number of steps in this run=    462 maximum allowed number of steps=    462.
 GradGradGradGradGradGradGradGradGradGradGradGradGradGradGradGradGradGrad

 Leave Link  103 at Sun Dec 16 10:37:26 2018, MaxMem=  1342177280 cpu:               0.3 elap:               0.0
 (Enter /gpfs/apps/hpc/Apps/Restricted/Gaussian/Rev_A.03/g16/l202.exe)
 Symmetry turned off by external request.
 Stoichiometry    C36H33N7O(1+,2)
 Framework group  C1[X(C36H33N7O)]
 Deg. of freedom   225
 Full point group                 C1      NOp   1
                          Input orientation:                          
 ---------------------------------------------------------------------
 Center     Atomic      Atomic             Coordinates (Angstroms)
 Number     Number       Type             X           Y           Z
 ---------------------------------------------------------------------
      1          6           0        1.652067    0.370672    0.928188
      2          6           0        0.544838    1.202620    0.639525
      3          6           0        0.731582    2.583223    0.496126
      4          6           0        2.023660    3.080522    0.647550
      5          6           0        3.114395    2.242757    0.938706
      6          6           0        2.957788    0.860110    1.088741
      7          6           0       -0.201220   -0.822497    0.781721
      8          1           0       -0.102370    3.237271    0.273887
      9          1           0        2.199591    4.143984    0.537507
     10          1           0        4.101302    2.679120    1.038547
     11          6           0       -2.471613   -1.759353    0.555610
     12          6           0       -3.399259   -2.815238    0.567549
     13          6           0       -3.007614   -4.129888    0.822204
     14          6           0       -1.651951   -4.334081    1.059470
     15          6           0       -0.719896   -3.280318    1.047170
     16          6           0       -1.104049   -1.959888    0.798057
     17          6           0       -4.481799   -0.911627    0.101621
     18          1           0       -3.722187   -4.942120    0.834066
     19          1           0       -1.296934   -5.336504    1.262429
     20          1           0        0.321989   -3.503338    1.238696
     21          7           0       -0.600967    0.427558    0.555277
     22          6           0       -6.912306   -0.552224   -0.385253
     23          6           0       -5.556632   -0.009374   -0.228821
     24          6           0       -5.325876    1.343250   -0.398732
     25          6           0       -6.373117    2.226260   -0.732419
     26          6           0       -7.684452    1.717395   -0.887856
     27          6           0       -7.980313    0.383146   -0.732822
     28          1           0       -4.324978    1.743319   -0.281513
     29          1           0       -8.480094    2.410936   -1.138444
     30          6           0       -6.100816    3.680796   -0.948254
     31          1           0       -5.188474    3.994668   -0.439936
     32          1           0       -5.973323    3.879402   -2.019135
     33          1           0       -6.938982    4.289922   -0.604608
     34          6           0       -9.357950   -0.169550   -0.898176
     35          1           0       -9.384684   -0.897456   -1.714959
     36          1           0       -9.667717   -0.704813    0.003742
     37          1           0      -10.073249    0.625294   -1.106594
     38          8           0       -7.164612   -1.772467   -0.229592
     39          7           0       -3.176041   -0.608688    0.267103
     40          7           0       -4.623602   -2.238964    0.284595
     41          1           0       -2.706178    0.294571    0.208696
     42          7           0        1.147438   -0.903362    1.008876
     43          1           0        1.735571   -1.710168    1.189971
     44          6           0        4.041635   -0.057114    1.398465
     45          7           0        3.906403   -1.381933    1.436929
     46          7           0        5.325839    0.338621    1.682728
     47          6           0        7.411157   -0.963700    2.265845
     48          6           0        7.835572   -2.286887    2.433087
     49          6           0        6.958342   -3.373469    2.267783
     50          6           0        5.618609   -3.187247    1.931331
     51          6           0        5.162986   -1.873642    1.757736
     52          6           0        6.061931   -0.794773    1.920037
     53          1           0        8.870153   -2.471761    2.701807
     54          1           0        7.336157   -4.379097    2.409216
     55          1           0        4.945191   -4.027648    1.813408
     56          1           0        5.725632    1.266550    1.767301
     57          6           0        8.307908    0.173468    2.462596
     58          1           0        9.341916   -0.081167    2.709382
     59          7           0        7.890367    1.380290    2.361074
     60          6           0        8.809836    2.499209    2.571311
     61          6           0       10.261352    2.156920    2.925358
     62          6           0        8.753337    3.412819    1.335460
     63          1           0        8.386207    3.071190    3.409792
     64          6           0       11.089028    3.429138    3.140391
     65          1           0       10.701002    1.570321    2.109351
     66          1           0       10.294002    1.530537    3.822257
     67          6           0        9.584395    4.683119    1.542286
     68          1           0        9.138954    2.851948    0.475060
     69          1           0        7.709399    3.658818    1.118449
     70          6           0       11.032834    4.351026    1.917649
     71          1           0       12.125267    3.161896    3.369723
     72          1           0       10.701907    3.967452    4.014655
     73          1           0        9.556800    5.299698    0.638686
     74          1           0        9.133633    5.278427    2.346095
     75          1           0       11.592949    5.270958    2.112585
     76          1           0       11.520029    3.852697    1.070177
     77          1           0       -5.549925   -2.657834    0.193638
 ---------------------------------------------------------------------
 Rotational constants (GHZ):           0.1688011           0.0231782           0.0204516
 Leave Link  202 at Sun Dec 16 10:37:26 2018, MaxMem=  1342177280 cpu:               0.6 elap:               0.1
 (Enter /gpfs/apps/hpc/Apps/Restricted/Gaussian/Rev_A.03/g16/l301.exe)
 Standard basis: 6-31G(d,p) (6D, 7F)
 Ernie: Thresh=  0.10000D-02 Tol=  0.10000D-05 Strict=F.
   825 basis functions,  1463 primitive gaussians,   825 cartesian basis functions
   153 alpha electrons      152 beta electrons
       nuclear repulsion energy      4587.8691026614 Hartrees.
 IExCor=  402 DFT=T Ex+Corr=B3LYP ExCW=0 ScaHFX=  0.200000
 ScaDFX=  0.800000  0.720000  1.000000  0.810000 ScalE2=  1.000000  1.000000
 IRadAn=      5 IRanWt=     -1 IRanGd=            0 ICorTp=0 IEmpDi=141
 NAtoms=   77 NActive=   77 NUniq=   77 SFac= 1.00D+00 NAtFMM=   60 NAOKFM=T Big=T
 Integral buffers will be    131072 words long.
 Raffenetti 2 integral format.
 Two-electron integral symmetry is turned off.
 R6Disp:  Grimme-D3(BJ) Dispersion energy=       -0.1789567174 Hartrees.
 Nuclear repulsion after empirical dispersion term =     4587.6901459441 Hartrees.
 Using the following non-standard input for PCM:
 radii=bondi
 dis
 rep
 cav
 --- end of non-standard input.
 ------------------------------------------------------------------------------
 Polarizable Continuum Model (PCM)
 =================================
 Model                : C-PCM.
 Atomic radii         : Bondi.
 Polarization charges : Total charges.
 Charge compensation  : None.
 Solution method      : On-the-fly selection.
 Cavity type          : Scaled VdW (van der Waals Surface) (Alpha=1.100).
 Cavity algorithm     : GePol (No added spheres)
                        Default sphere list used, NSphG=   77.
                        Lebedev-Laikov grids with approx.  5.0 points / Ang**2.
                        Smoothing algorithm: York/Karplus (Gamma=1.0000).
                        Polarization charges: spherical gaussians, with
                                              point-specific exponents (IZeta= 3).
                        Self-potential: point-specific (ISelfS= 7).
                        Self-field    : sphere-specific E.n sum rule (ISelfD= 2).
 1st derivatives      : Analytical E(r).r(x)/FMM algorithm (CHGder, D1EAlg=3).
                        Cavity 1st derivative terms included.
 Solvent              : Dichloromethane, Eps=   8.930000 Eps(inf)=   2.028346
 ------------------------------------------------------------------------------
 GePol: Number of generator spheres                  =      77
 GePol: Total number of spheres                      =      77
 GePol: Number of exposed spheres                    =      77 (100.00%)
 GePol: Number of points                             =    5360
 GePol: Average weight of points                     =       0.12
 GePol: Minimum weight of points                     =   0.13D-11
 GePol: Maximum weight of points                     =    0.21770
 GePol: Number of points with low weight             =     369
 GePol: Fraction of low-weight points (<1% of avg)   =       6.88%
 GePol: Cavity surface area                          =    625.563 Ang**2
 GePol: Cavity volume                                =    608.711 Ang**3
 PCM non-electrostatic energy =         0.0212998595 Hartrees.
 Nuclear repulsion after PCM non-electrostatic terms =     4587.7114458035 Hartrees.
 Leave Link  301 at Sun Dec 16 10:37:27 2018, MaxMem=  1342177280 cpu:               4.9 elap:               0.3
 (Enter /gpfs/apps/hpc/Apps/Restricted/Gaussian/Rev_A.03/g16/l302.exe)
 NPDir=0 NMtPBC=     1 NCelOv=     1 NCel=       1 NClECP=     1 NCelD=      1
         NCelK=      1 NCelE2=     1 NClLst=     1 CellRange=     0.0.
 One-electron integrals computed using PRISM.
 NBasis=   825 RedAO= T EigKep=  2.71D-04  NBF=   825
 NBsUse=   825 1.00D-06 EigRej= -1.00D+00 NBFU=   825
 Precomputing XC quadrature grid using
 IXCGrd= 4 IRadAn=           5 IRanWt=          -1 IRanGd=           0 AccXCQ= 0.00D+00.
 Generated NRdTot=       0 NPtTot=           0 NUsed=           0 NTot=          32
 NSgBfM=   718   716   716   717   718 MxSgAt=    77 MxSgA2=    77.
 Leave Link  302 at Sun Dec 16 10:37:29 2018, MaxMem=  1342177280 cpu:              33.9 elap:               2.2
 (Enter /gpfs/apps/hpc/Apps/Restricted/Gaussian/Rev_A.03/g16/l303.exe)
 DipDrv:  MaxL=1.
 Leave Link  303 at Sun Dec 16 10:37:29 2018, MaxMem=  1342177280 cpu:               2.2 elap:               0.2
 (Enter /gpfs/apps/hpc/Apps/Restricted/Gaussian/Rev_A.03/g16/l401.exe)
 ExpMin= 1.61D-01 ExpMax= 5.48D+03 ExpMxC= 8.25D+02 IAcc=3 IRadAn=         5 AccDes= 0.00D+00
 Harris functional with IExCor=  402 and IRadAn=       5 diagonalized for initial guess.
 HarFok:  IExCor=  402 AccDes= 0.00D+00 IRadAn=         5 IDoV= 1 UseB2=F ITyADJ=14
 ICtDFT=  3500011 ScaDFX=  1.000000  1.000000  1.000000  1.000000
 FoFCou: FMM=F IPFlag=           0 FMFlag=      100000 FMFlg1=        2001
         NFxFlg=           0 DoJE=T BraDBF=F KetDBF=T FulRan=T
         wScrn=  0.000000 ICntrl=       500 IOpCl=  0 I1Cent=   200000004 NGrid=           0
         NMat0=    1 NMatS0=      1 NMatT0=    0 NMatD0=    1 NMtDS0=    0 NMtDT0=    0
 Symmetry not used in FoFCou.
 Harris En= -1850.18951943778    
 JPrj=0 DoOrth=F DoCkMO=F.
 Initial guess <Sx>= 0.0000 <Sy>= 0.0000 <Sz>= 0.5000 <S**2>= 0.7500 S= 0.5000
 Leave Link  401 at Sun Dec 16 10:37:36 2018, MaxMem=  1342177280 cpu:             105.3 elap:               6.7
 (Enter /gpfs/apps/hpc/Apps/Restricted/Gaussian/Rev_A.03/g16/l502.exe)
 Two-electron integral symmetry not used.
 UHF open shell SCF:
 Using DIIS extrapolation, IDIIS=  1040.
 NGot=  1342177280 LenX=  1340796146 LenY=  1340114696
 Requested convergence on RMS density matrix=1.00D-08 within 128 cycles.
 Requested convergence on MAX density matrix=1.00D-06.
 Requested convergence on             energy=1.00D-06.
 No special actions if energy rises.
 Fock matrices will be formed incrementally for  20 cycles.

 Cycle   1  Pass 1  IDiag  1:
 FoFJK:  IHMeth= 1 ICntrl=       0 DoSepK=F KAlg= 0 I1Cent=           0 FoldK=F
 IRaf= 580000000 NMat=       1 IRICut=       1 DoRegI=T DoRafI=F ISym2E= 0 IDoP0=0 IntGTp=1.
 FoFCou: FMM=T IPFlag=           0 FMFlag=      100000 FMFlg1=        2001
         NFxFlg=           0 DoJE=F BraDBF=F KetDBF=F FulRan=T
         wScrn=  0.000000 ICntrl=         0 IOpCl=  1 I1Cent=           0 NGrid=           0
         NMat0=    1 NMatS0=      1 NMatT0=    0 NMatD0=    1 NMtDS0=    0 NMtDT0=    0
 Symmetry not used in FoFCou.
 FMM levels:  10  Number of levels for PrismC:   9
 Inv3:  Mode=1 IEnd=    86188800.
 Iteration    1 A*A^-1 deviation from unit magnitude is 1.89D-14 for    302.
 Iteration    1 A*A^-1 deviation from orthogonality  is 5.49D-15 for   3845    991.
 Iteration    1 A^-1*A deviation from unit magnitude is 1.89D-14 for    302.
 Iteration    1 A^-1*A deviation from orthogonality  is 3.58D-15 for   3887    995.
 E= -1849.50321366638    
 DIIS: error= 1.98D-02 at cycle   1 NSaved=   1.
 NSaved= 1 IEnMin= 1 EnMin= -1849.50321366638     IErMin= 1 ErrMin= 1.98D-02
 ErrMax= 1.98D-02  0.00D+00 EMaxC= 1.00D-01 BMatC= 3.36D+00 BMatP= 3.36D+00
 IDIUse=3 WtCom= 8.02D-01 WtEn= 1.98D-01
 Coeff-Com:  0.100D+01
 Coeff-En:   0.100D+01
 Coeff:      0.100D+01
 Gap=     0.155 Goal=   None    Shift=    0.000
 Gap=     0.049 Goal=   None    Shift=    0.000
 GapD=    0.049 DampG=0.250 DampE=0.500 DampFc=0.2500 IDamp=-1.
 Damping current iteration by 2.50D-01
 RMSDP=2.86D-03 MaxDP=1.81D-01              OVMax= 2.97D-01

 Cycle   2  Pass 1  IDiag  1:
 RMSU=  6.91D-04    CP:  9.84D-01
 E= -1849.81198526433     Delta-E=       -0.308771597947 Rises=F Damp=T
 DIIS: error= 1.28D-02 at cycle   2 NSaved=   2.
 NSaved= 2 IEnMin= 2 EnMin= -1849.81198526433     IErMin= 2 ErrMin= 1.28D-02
 ErrMax= 1.28D-02  0.00D+00 EMaxC= 1.00D-01 BMatC= 9.34D-01 BMatP= 3.36D+00
 IDIUse=3 WtCom= 8.72D-01 WtEn= 1.28D-01
 Coeff-Com: -0.840D+00 0.184D+01
 Coeff-En:   0.000D+00 0.100D+01
 Coeff:     -0.733D+00 0.173D+01
 Gap=     0.155 Goal=   None    Shift=    0.000
 Gap=     0.062 Goal=   None    Shift=    0.000
 RMSDP=1.19D-03 MaxDP=7.72D-02 DE=-3.09D-01 OVMax= 1.98D-01

 Cycle   3  Pass 1  IDiag  1:
 RMSU=  8.44D-04    CP:  9.48D-01  2.05D+00
 E= -1850.32423151865     Delta-E=       -0.512246254319 Rises=F Damp=F
 DIIS: error= 1.08D-02 at cycle   3 NSaved=   3.
 NSaved= 3 IEnMin= 3 EnMin= -1850.32423151865     IErMin= 3 ErrMin= 1.08D-02
 ErrMax= 1.08D-02  0.00D+00 EMaxC= 1.00D-01 BMatC= 2.06D-01 BMatP= 9.34D-01
 IDIUse=3 WtCom= 8.92D-01 WtEn= 1.08D-01
 Coeff-Com: -0.428D+00 0.865D+00 0.563D+00
 Coeff-En:   0.000D+00 0.000D+00 0.100D+01
 Coeff:     -0.382D+00 0.771D+00 0.610D+00
 Gap=     0.129 Goal=   None    Shift=    0.000
 Gap=     0.053 Goal=   None    Shift=    0.000
 RMSDP=4.54D-04 MaxDP=7.29D-02 DE=-5.12D-01 OVMax= 9.16D-02

 Cycle   4  Pass 1  IDiag  1:
 RMSU=  3.40D-04    CP:  9.52D-01  2.16D+00  6.59D-01
 E= -1850.35772179256     Delta-E=       -0.033490273908 Rises=F Damp=F
 DIIS: error= 8.47D-03 at cycle   4 NSaved=   4.
 NSaved= 4 IEnMin= 4 EnMin= -1850.35772179256     IErMin= 4 ErrMin= 8.47D-03
 ErrMax= 8.47D-03  0.00D+00 EMaxC= 1.00D-01 BMatC= 7.57D-02 BMatP= 2.06D-01
 IDIUse=3 WtCom= 9.15D-01 WtEn= 8.47D-02
 Coeff-Com: -0.933D-01 0.190D+00 0.381D+00 0.522D+00
 Coeff-En:   0.000D+00 0.000D+00 0.266D+00 0.734D+00
 Coeff:     -0.854D-01 0.174D+00 0.371D+00 0.540D+00
 Gap=     0.129 Goal=   None    Shift=    0.000
 Gap=     0.052 Goal=   None    Shift=    0.000
 RMSDP=2.12D-04 MaxDP=3.58D-02 DE=-3.35D-02 OVMax= 4.09D-02

 Cycle   5  Pass 1  IDiag  1:
 RMSU=  1.14D-04    CP:  9.51D-01  2.09D+00  7.68D-01  5.70D-01
 E= -1850.37250447297     Delta-E=       -0.014782680412 Rises=F Damp=F
 DIIS: error= 2.23D-03 at cycle   5 NSaved=   5.
 NSaved= 5 IEnMin= 5 EnMin= -1850.37250447297     IErMin= 5 ErrMin= 2.23D-03
 ErrMax= 2.23D-03  0.00D+00 EMaxC= 1.00D-01 BMatC= 6.58D-03 BMatP= 7.57D-02
 IDIUse=3 WtCom= 9.78D-01 WtEn= 2.23D-02
 Coeff-Com: -0.929D-02 0.196D-01 0.164D+00 0.320D+00 0.506D+00
 Coeff-En:   0.000D+00 0.000D+00 0.000D+00 0.000D+00 0.100D+01
 Coeff:     -0.908D-02 0.191D-01 0.161D+00 0.313D+00 0.517D+00
 Gap=     0.129 Goal=   None    Shift=    0.000
 Gap=     0.053 Goal=   None    Shift=    0.000
 RMSDP=6.50D-05 MaxDP=1.31D-02 DE=-1.48D-02 OVMax= 2.07D-02

 Cycle   6  Pass 1  IDiag  1:
 RMSU=  3.80D-05    CP:  9.51D-01  2.10D+00  7.75D-01  6.35D-01  5.84D-01
 E= -1850.37394839788     Delta-E=       -0.001443924910 Rises=F Damp=F
 DIIS: error= 6.82D-04 at cycle   6 NSaved=   6.
 NSaved= 6 IEnMin= 6 EnMin= -1850.37394839788     IErMin= 6 ErrMin= 6.82D-04
 ErrMax= 6.82D-04  0.00D+00 EMaxC= 1.00D-01 BMatC= 5.97D-04 BMatP= 6.58D-03
 IDIUse=3 WtCom= 9.93D-01 WtEn= 6.82D-03
 Coeff-Com:  0.278D-02-0.517D-02 0.518D-01 0.113D+00 0.286D+00 0.551D+00
 Coeff-En:   0.000D+00 0.000D+00 0.000D+00 0.000D+00 0.000D+00 0.100D+01
 Coeff:      0.276D-02-0.514D-02 0.515D-01 0.113D+00 0.284D+00 0.554D+00
 Gap=     0.129 Goal=   None    Shift=    0.000
 Gap=     0.054 Goal=   None    Shift=    0.000
 RMSDP=1.98D-05 MaxDP=3.32D-03 DE=-1.44D-03 OVMax= 6.70D-03

 Cycle   7  Pass 1  IDiag  1:
 RMSU=  1.60D-05    CP:  9.51D-01  2.10D+00  7.77D-01  6.35D-01  6.76D-01
                    CP:  8.70D-01
 E= -1850.37411507457     Delta-E=       -0.000166676688 Rises=F Damp=F
 DIIS: error= 2.70D-04 at cycle   7 NSaved=   7.
 NSaved= 7 IEnMin= 7 EnMin= -1850.37411507457     IErMin= 7 ErrMin= 2.70D-04
 ErrMax= 2.70D-04  0.00D+00 EMaxC= 1.00D-01 BMatC= 7.37D-05 BMatP= 5.97D-04
 IDIUse=3 WtCom= 9.97D-01 WtEn= 2.70D-03
 Coeff-Com:  0.285D-02-0.563D-02-0.838D-02-0.161D-01 0.313D-01 0.236D+00
 Coeff-Com:  0.760D+00
 Coeff-En:   0.000D+00 0.000D+00 0.000D+00 0.000D+00 0.000D+00 0.000D+00
 Coeff-En:   0.100D+01
 Coeff:      0.284D-02-0.561D-02-0.836D-02-0.161D-01 0.313D-01 0.235D+00
 Coeff:      0.761D+00
 Gap=     0.129 Goal=   None    Shift=    0.000
 Gap=     0.054 Goal=   None    Shift=    0.000
 RMSDP=1.10D-05 MaxDP=2.39D-03 DE=-1.67D-04 OVMax= 5.25D-03

 Cycle   8  Pass 1  IDiag  1:
 RMSU=  8.13D-06    CP:  9.51D-01  2.10D+00  7.78D-01  6.38D-01  7.06D-01
                    CP:  1.04D+00  1.01D+00
 E= -1850.37416270716     Delta-E=       -0.000047632597 Rises=F Damp=F
 DIIS: error= 1.55D-04 at cycle   8 NSaved=   8.
 NSaved= 8 IEnMin= 8 EnMin= -1850.37416270716     IErMin= 8 ErrMin= 1.55D-04
 ErrMax= 1.55D-04  0.00D+00 EMaxC= 1.00D-01 BMatC= 2.68D-05 BMatP= 7.37D-05
 IDIUse=3 WtCom= 9.98D-01 WtEn= 1.55D-03
 Coeff-Com:  0.606D-03-0.102D-02-0.194D-01-0.457D-01-0.739D-01-0.964D-01
 Coeff-Com:  0.353D+00 0.883D+00
 Coeff-En:   0.000D+00 0.000D+00 0.000D+00 0.000D+00 0.000D+00 0.000D+00
 Coeff-En:   0.000D+00 0.100D+01
 Coeff:      0.605D-03-0.101D-02-0.194D-01-0.456D-01-0.737D-01-0.963D-01
 Coeff:      0.352D+00 0.883D+00
 Gap=     0.129 Goal=   None    Shift=    0.000
 Gap=     0.055 Goal=   None    Shift=    0.000
 RMSDP=9.17D-06 MaxDP=1.59D-03 DE=-4.76D-05 OVMax= 4.09D-03

 Cycle   9  Pass 1  IDiag  1:
 RMSU=  4.80D-06    CP:  9.51D-01  2.10D+00  7.79D-01  6.39D-01  7.30D-01
                    CP:  1.14D+00  1.38D+00  1.18D+00
 E= -1850.37418189157     Delta-E=       -0.000019184404 Rises=F Damp=F
 DIIS: error= 5.55D-05 at cycle   9 NSaved=   9.
 NSaved= 9 IEnMin= 9 EnMin= -1850.37418189157     IErMin= 9 ErrMin= 5.55D-05
 ErrMax= 5.55D-05  0.00D+00 EMaxC= 1.00D-01 BMatC= 1.17D-05 BMatP= 2.68D-05
 IDIUse=1 WtCom= 1.00D+00 WtEn= 0.00D+00
 Coeff-Com: -0.224D-03 0.701D-03-0.105D-01-0.268D-01-0.576D-01-0.142D+00
 Coeff-Com:  0.230D-01 0.593D+00 0.621D+00
 Coeff:     -0.224D-03 0.701D-03-0.105D-01-0.268D-01-0.576D-01-0.142D+00
 Coeff:      0.230D-01 0.593D+00 0.621D+00
 Gap=     0.130 Goal=   None    Shift=    0.000
 Gap=     0.055 Goal=   None    Shift=    0.000
 RMSDP=4.47D-06 MaxDP=7.71D-04 DE=-1.92D-05 OVMax= 1.89D-03

 Cycle  10  Pass 1  IDiag  1:
 RMSU=  2.11D-06    CP:  9.51D-01  2.10D+00  7.80D-01  6.38D-01  7.44D-01
                    CP:  1.19D+00  1.49D+00  1.48D+00  8.02D-01
 E= -1850.37418743794     Delta-E=       -0.000005546379 Rises=F Damp=F
 DIIS: error= 2.18D-05 at cycle  10 NSaved=  10.
 NSaved=10 IEnMin=10 EnMin= -1850.37418743794     IErMin=10 ErrMin= 2.18D-05
 ErrMax= 2.18D-05  0.00D+00 EMaxC= 1.00D-01 BMatC= 1.06D-06 BMatP= 1.17D-05
 IDIUse=1 WtCom= 1.00D+00 WtEn= 0.00D+00
 Coeff-Com: -0.692D-04 0.246D-03 0.434D-04-0.877D-03-0.523D-02-0.369D-01
 Coeff-Com: -0.536D-01 0.389D-01 0.240D+00 0.818D+00
 Coeff:     -0.692D-04 0.246D-03 0.434D-04-0.877D-03-0.523D-02-0.369D-01
 Coeff:     -0.536D-01 0.389D-01 0.240D+00 0.818D+00
 Gap=     0.130 Goal=   None    Shift=    0.000
 Gap=     0.055 Goal=   None    Shift=    0.000
 RMSDP=1.61D-06 MaxDP=3.18D-04 DE=-5.55D-06 OVMax= 6.22D-04

 Cycle  11  Pass 1  IDiag  1:
 RMSU=  9.31D-07    CP:  9.51D-01  2.10D+00  7.80D-01  6.38D-01  7.46D-01
                    CP:  1.20D+00  1.53D+00  1.55D+00  9.73D-01  1.08D+00
 E= -1850.37418802990     Delta-E=       -0.000000591951 Rises=F Damp=F
 DIIS: error= 1.42D-05 at cycle  11 NSaved=  11.
 NSaved=11 IEnMin=11 EnMin= -1850.37418802990     IErMin=11 ErrMin= 1.42D-05
 ErrMax= 1.42D-05  0.00D+00 EMaxC= 1.00D-01 BMatC= 3.18D-07 BMatP= 1.06D-06
 IDIUse=1 WtCom= 1.00D+00 WtEn= 0.00D+00
 Coeff-Com: -0.164D-04 0.475D-04 0.190D-02 0.431D-02 0.764D-02 0.441D-02
 Coeff-Com: -0.310D-01-0.843D-01 0.228D-01 0.450D+00 0.624D+00
 Coeff:     -0.164D-04 0.475D-04 0.190D-02 0.431D-02 0.764D-02 0.441D-02
 Coeff:     -0.310D-01-0.843D-01 0.228D-01 0.450D+00 0.624D+00
 Gap=     0.130 Goal=   None    Shift=    0.000
 Gap=     0.055 Goal=   None    Shift=    0.000
 RMSDP=6.27D-07 MaxDP=1.35D-04 DE=-5.92D-07 OVMax= 2.14D-04

 Cycle  12  Pass 1  IDiag  1:
 RMSU=  3.66D-07    CP:  9.51D-01  2.10D+00  7.80D-01  6.38D-01  7.47D-01
                    CP:  1.19D+00  1.54D+00  1.57D+00  1.02D+00  1.25D+00
                    CP:  8.98D-01
 E= -1850.37418816331     Delta-E=       -0.000000133412 Rises=F Damp=F
 DIIS: error= 5.36D-06 at cycle  12 NSaved=  12.
 NSaved=12 IEnMin=12 EnMin= -1850.37418816331     IErMin=12 ErrMin= 5.36D-06
 ErrMax= 5.36D-06  0.00D+00 EMaxC= 1.00D-01 BMatC= 3.54D-08 BMatP= 3.18D-07
 IDIUse=1 WtCom= 1.00D+00 WtEn= 0.00D+00
 Coeff-Com:  0.419D-05-0.317D-04 0.725D-03 0.192D-02 0.414D-02 0.906D-02
 Coeff-Com: -0.157D-02-0.412D-01-0.385D-01 0.191D-01 0.228D+00 0.819D+00
 Coeff:      0.419D-05-0.317D-04 0.725D-03 0.192D-02 0.414D-02 0.906D-02
 Coeff:     -0.157D-02-0.412D-01-0.385D-01 0.191D-01 0.228D+00 0.819D+00
 Gap=     0.130 Goal=   None    Shift=    0.000
 Gap=     0.055 Goal=   None    Shift=    0.000
 RMSDP=3.00D-07 MaxDP=5.86D-05 DE=-1.33D-07 OVMax= 1.46D-04

 Cycle  13  Pass 1  IDiag  1:
 RMSU=  1.83D-07    CP:  9.51D-01  2.10D+00  7.80D-01  6.38D-01  7.47D-01
                    CP:  1.19D+00  1.54D+00  1.58D+00  1.03D+00  1.32D+00
                    CP:  1.06D+00  9.94D-01
 E= -1850.37418818664     Delta-E=       -0.000000023337 Rises=F Damp=F
 DIIS: error= 3.60D-06 at cycle  13 NSaved=  13.
 NSaved=13 IEnMin=13 EnMin= -1850.37418818664     IErMin=13 ErrMin= 3.60D-06
 ErrMax= 3.60D-06  0.00D+00 EMaxC= 1.00D-01 BMatC= 1.88D-08 BMatP= 3.54D-08
 IDIUse=1 WtCom= 1.00D+00 WtEn= 0.00D+00
 Coeff-Com:  0.176D-05-0.248D-04 0.305D-04 0.263D-03 0.864D-03 0.477D-02
 Coeff-Com:  0.548D-02-0.707D-02-0.289D-01-0.863D-01-0.250D-02 0.506D+00
 Coeff-Com:  0.607D+00
 Coeff:      0.176D-05-0.248D-04 0.305D-04 0.263D-03 0.864D-03 0.477D-02
 Coeff:      0.548D-02-0.707D-02-0.289D-01-0.863D-01-0.250D-02 0.506D+00
[...]
 00336,-0.00000200,0.00000652,-0.00000109,0.00000087,-0.00000711,0.0000
 0239,-0.00000087,0.00002955,-0.00000360,-0.00000086,-0.00000324,-0.000
 00157,0.00000073,0.00000224,0.00000002,0.00000077,0.00000082,-0.000000
 30,-0.00002139,0.00000489,-0.00000898,-0.00006081,0.00000786,0.0000098
 5,0.00003396,-0.00008297,-0.00001238,0.00027875,0.00002190,0.00023864,
 -0.00080633,0.00004524,-0.00040221,-0.00076240,0.00237112,-0.00457874,
 -0.00190047,0.00123996,0.00030918,0.00008010,-0.00004258,-0.00000178,0
 .01477900,0.02390257,0.00520011,-0.00010744,0.00014281,0.00017471,0.00
 089800,0.00147614,0.00011372,-0.00305825,-0.00718173,-0.00240852,0.000
 21138,0.00040566,0.00012214,-0.00055271,-0.00056856,0.00023368,-0.0251
 5550,-0.04296046,-0.05688043,-0.00019244,-0.00074121,0.00099837,0.0001
 2463,-0.00080281,0.00119272,0.00029843,-0.00010414,-0.00015255,0.00018
 577,0.00050914,0.00049564,0.02861178,0.04299687,0.05985454,-0.00000005
 ,0.00000087,0.00000033,0.00000039,-0.00000010,0.00000006,0.00000062,0.
 00000025,0.,-0.00000068,0.00000079,-0.00000082,0.00000121,-0.00000052,
 -0.00000052,-0.00000048,0.00000054,-0.00000048,-0.00000064,0.00000009,
 -0.00000002,0.00000006,0.00000012,0.00000019,0.00000038,-0.00000043,0.
 00000067,-0.00000011,0.00000108,0.00000097,-0.00000021,-0.00000019,0.0
 0000006,0.00000009,-0.00000010,0.00000006,-0.00000024,-0.00000013,-0.0
 0000002,0.00000013,0.00000013,-0.00000013,-0.00000020,-0.00000034,-0.0
 0000007,0.00000041,0.00000044,0.00000009,0.00000027,0.00000042,0.00000
 034,-0.00000003,0.,0.00000002,-0.00000004,-0.00000009,0.00000008,0.000
 00006,0.00000010,0.00000012,-0.00000015,-0.00000088,-0.00000015,0.,0.0
 0000027,0.00000029,-0.00000007,0.00000002,-0.00000018,0.00000015,-0.00
 000008,0.00000006,0.,0.00000030,-0.00000013,-0.00000013,-0.00000014,0.
 00000010,0.00000018,0.00000007,-0.00000019,-0.00000003,0.00000004,0.00
 000006,0.00000002,0.00000002,0.00000003,0.00000009,-0.00000009,0.00000
 016,-0.00000006,0.00000002,0.,-0.00000002,0.,-0.00000002,0.,0.,0.,-0.0
 0000001,-0.00000003,0.00000006,-0.00000002,-0.00000003,-0.00000002,-0.
 00000004,0.00000003,0.00000001,-0.00000001,0.,0.00000002,-0.00000002,-
 0.00000033,-0.00000021,-0.00000033,-0.00000024,-0.00000024,-0.00000016
 ,-0.00000029,-0.00000016,0.00000029,0.00000033,0.00000025,-0.00000020,
 -0.00000120,-0.00000042,-0.00000022,0.00000049,0.00000050,0.00000312,0
 .00000446,0.00000151,-0.00000054,-0.00000340,-0.00000089,-0.00000672,0
 .00000367,-0.00000472,0.00000991,-0.00001788,-0.00001318,-0.00000787,0
 .00000379,-0.00000368,-0.00000472,-0.00000239,-0.00000045,0.00000070,-
 0.00000594,-0.00000001,0.00000158,0.00000080,0.00000091,0.00000488,-0.
 00000937,0.00000325,0.00000131,-0.00000009,0.00000085,-0.00000039,-0.0
 0000159,0.00000037,-0.00000028,-0.00000033,0.00000013,0.00000312,0.000
 00246,0.00000464,-0.00003669,0.00001507,-0.00000718,0.00000866,-0.0000
 0314,0.00001258,0.00003091,-0.00009751,0.00008064,-0.00006599,0.000010
 44,-0.00023682,-0.00005182,0.00017995,0.00039688,0.00155451,0.00086265
 ,0.00101025,0.00006252,0.00004706,-0.00009932,0.00049430,-0.00085130,-
 0.00203838,-0.00007910,-0.00011387,0.00000370,-0.00002921,-0.00010997,
 -0.00006696,-0.01596853,0.01576374,0.02464323,-0.00012891,-0.00065594,
 -0.00031676,0.00028290,-0.00000991,-0.00039077,-0.09629853,0.04971135,
 0.08490388,0.00051972,-0.00054582,-0.00006974,0.00111945,0.00050586,-0
 .00044105,0.00133660,-0.00030788,-0.00001506,-0.00615894,0.00132760,-0
 .00157503,0.00775235,-0.00667603,-0.01296743,0.10565145,0.00000026,-0.
 00000262,-0.00000044,-0.00000073,0.00000083,0.00000013,-0.00000054,-0.
 00000235,0.00000002,0.00000286,0.00000024,0.00000090,-0.00000180,0.000
 00123,-0.00000021,0.,-0.00000080,0.00000089,-0.00000176,0.00000084,-0.
 00000051,0.00000020,-0.00000012,-0.00000011,-0.00000035,0.00000002,-0.
 00000040,-0.00000006,0.,-0.00000048,0.00000043,0.00000022,-0.00000003,
 0.00000019,0.00000026,0.00000011,0.00000032,0.00000071,-0.00000011,0.0
 0000049,-0.00000006,0.00000027,0.,0.00000002,0.,-0.00000127,-0.0000007
 7,-0.00000011,-0.00000074,-0.00000072,-0.00000060,0.00000003,0.,0.0000
 0001,0.00000002,0.00000008,-0.00000006,-0.00000011,-0.00000018,-0.0000
 0003,0.00000153,-0.00000025,0.00000031,0.00000020,-0.00000026,-0.00000
 047,-0.00000029,0.00000012,0.00000066,0.00000014,-0.00000038,-0.000000
 04,-0.00000059,0.00000013,0.00000003,0.00000052,0.00000059,-0.00000015
 ,-0.00000051,-0.00000052,0.00000018,0.,0.00000001,-0.00000017,0.000000
 04,-0.00000006,-0.00000004,-0.00000011,-0.00000012,-0.00000008,0.00000
 008,0.,0.00000003,-0.00000003,-0.00000002,0.00000003,0.,-0.00000005,-0
 .00000003,0.00000009,0.00000019,0.,0.00000009,0.00000001,0.,0.00000003
 ,0.,-0.00000003,0.00000005,-0.00000003,0.,0.00000026,0.00000030,0.0000
 0020,0.00000113,0.00000060,0.00000035,0.00000030,0.00000065,0.00000011
 ,-0.00000110,-0.00000048,-0.00000029,0.00000284,0.00000135,0.00000063,
 -0.00000172,-0.00000036,-0.00000042,-0.00001125,-0.00000556,-0.0000031
 3,0.00000449,0.00000572,0.00000098,0.00001468,-0.00000148,0.00000410,0
 .00000467,0.00001220,0.00000588,0.00000748,-0.00000949,0.00000339,0.00
 000934,0.00000280,0.00000129,-0.00000201,0.00000841,-0.00000079,-0.000
 00173,-0.00000273,0.00000043,-0.00000409,0.00001414,-0.00000256,-0.000
 00142,-0.00000131,0.,0.00000021,0.00000215,-0.00000024,0.00000069,0.00
 000075,0.00000007,-0.00000970,-0.00000381,-0.00000206,-0.00000852,-0.0
 0001045,-0.00000450,0.00000493,0.00000010,0.00000624,-0.00000005,0.000
 07827,-0.00008585,-0.00002817,-0.00008771,0.00015513,-0.00002216,0.001
 44305,0.00037659,-0.00081082,0.00041957,0.00036080,0.00006280,-0.00011
 154,-0.00007912,-0.00920630,0.00843660,0.01666420,0.00035383,-0.000141
 51,-0.00033501,0.00024927,0.00018312,-0.00013287,0.00400639,-0.0048531
 4,-0.00588773,0.00004154,0.00039105,0.00003316,0.00002388,0.00005078,0
 .00015824,0.05049271,-0.10269882,-0.09018726,-0.00007435,0.00078702,-0
 .00082571,-0.00029412,-0.00165524,0.00376297,-0.00025121,0.00004016,0.
 00000191,0.00203423,0.00075772,0.00074622,0.01244258,-0.01203806,-0.02
 064041,-0.05902789,0.10898915,0.00000007,-0.00000258,-0.00000056,-0.00
 000048,0.00000065,0.00000015,-0.00000028,-0.00000185,0.00000005,0.0000
 0186,0.00000020,0.00000096,-0.00000093,0.00000109,0.00000028,0.0000000
 8,-0.00000015,0.00000081,-0.00000115,0.00000047,-0.00000032,0.00000015
 ,-0.00000013,-0.00000020,-0.00000012,-0.00000016,-0.00000039,-0.000000
 25,0.00000001,-0.00000091,0.00000037,0.00000009,-0.00000006,0.00000011
 ,0.00000024,0.,0.00000030,0.00000046,-0.00000007,0.00000021,-0.0000000
 8,0.00000029,-0.00000001,0.00000021,0.00000005,-0.00000083,-0.00000056
 ,-0.00000017,-0.00000037,-0.00000061,-0.00000073,0.00000003,-0.0000000
 1,0.,0.00000004,0.00000009,-0.00000011,-0.00000011,-0.00000015,-0.0000
 0014,0.00000098,-0.00000019,0.00000027,0.00000031,0.00000005,-0.000000
 70,-0.00000027,0.00000012,0.00000048,0.00000009,-0.00000039,-0.0000000
 6,-0.00000046,0.00000005,0.00000007,0.00000045,0.00000045,-0.00000024,
 -0.00000038,-0.00000043,0.00000047,0.00000001,0.,-0.00000010,0.0000000
 1,-0.00000004,-0.00000005,-0.00000009,0.,-0.00000011,0.00000005,-0.000
 00003,-0.00000002,0.00000003,-0.00000001,0.00000004,0.,-0.00000003,0.,
 0.00000003,0.00000008,-0.00000012,0.00000004,0.00000006,0.00000003,0.0
 0000005,-0.00000003,-0.00000002,0.00000005,-0.00000003,-0.00000003,0.0
 0000002,0.00000015,0.00000044,0.00000068,0.00000046,0.00000041,0.00000
 020,0.00000046,0.00000028,-0.00000069,-0.00000039,-0.00000035,0.000002
 09,0.00000120,0.00000093,-0.00000132,-0.00000040,-0.00000084,-0.000012
 31,-0.00000466,-0.00000397,0.00000538,0.00000755,0.00000188,0.00002251
 ,0.00000016,0.00000876,0.00000432,0.00001868,0.00000306,0.00001091,-0.
 00001056,0.00000576,0.00000885,0.00000470,0.00000272,-0.00000213,0.000
 00938,-0.00000055,-0.00000103,-0.00000360,-0.00000021,-0.00000539,0.00
 001506,-0.00000254,-0.00000167,-0.00000115,-0.00000180,0.00000066,0.00
 000282,-0.00000048,0.00000067,0.00000085,-0.00000022,-0.00001890,-0.00
 000323,-0.00000808,0.00004444,-0.00006853,0.00001771,-0.00000894,-0.00
 001889,-0.00001362,0.00014026,0.00011148,0.00002232,-0.00029904,0.0001
 4213,0.00004730,-0.00024401,-0.00139418,0.00091995,0.00017165,0.000282
 96,0.00033889,-0.00007335,-0.00006408,-0.00004088,0.01147442,-0.012230
 40,-0.02344322,0.00022758,0.00066133,0.00057013,-0.00032185,0.00016721
 ,0.00026540,-0.00468787,0.00432813,0.00681598,0.00033060,0.00016405,-0
 .00003822,0.00015790,0.00019309,0.00005500,0.08549386,-0.08965263,-0.1
 9848346,-0.00048155,-0.00023844,0.00115384,-0.00004546,0.00415239,-0.0
 0406232,0.00096016,-0.00010611,0.00066460,-0.00207463,0.00026524,0.000
 79278,0.00203978,-0.00263465,-0.00450501,-0.09281623,0.09590573,0.2189
 1893,0.00017122,0.00007960,0.00002063,0.00007105,-0.00002096,0.0000100
 1,-0.00003161,-0.00014619,0.00001529,0.00016997,0.00000874,0.00002746,
 -0.00001132,0.00016568,-0.00001904,-0.00009850,-0.00008281,-0.00000715
 ,-0.00032105,-0.00016920,-0.00006383,-0.00001196,0.00000691,-0.0000030
 9,0.00001007,0.00001244,-0.00000025,0.00001075,0.00000703,-0.00000019,
 -0.00120946,0.00468815,-0.00139307,-0.01235414,-0.00244602,-0.00081025
 ,0.00220107,-0.00098404,0.00052136,-0.00131126,-0.00090766,-0.00007561
 ,0.00049147,0.00095402,-0.00001806,0.00068069,-0.00066893,0.00004600,0
 .00515650,-0.01088519,0.00303079,-0.00020059,0.00002025,-0.00011524,0.
 00012933,-0.00004416,0.00001032,0.00006947,-0.00000593,0.00000546,0.00
 027464,0.00019243,0.00005084,0.00625250,0.01186457,-0.00084944,-0.0008
 2857,0.00060116,0.00020903,-0.00066931,-0.00116322,0.00010179,0.000216
 56,0.00080199,-0.00022255,-0.00007930,-0.00105767,0.00017195,-0.000630
 61,-0.00188151,-0.00000673,-0.00011058,-0.00031114,0.00002723,-0.00003
 937,-0.00032772,0.00006033,-0.00009847,-0.00026556,0.00032696,0.000012
 51,-0.00008434,-0.00004494,-0.00002632,-0.00009976,-0.00007572,-0.0000
 6406,-0.00003518,-0.00006633,-0.00017560,-0.00014018,-0.00002098,-0.00
 001405,-0.00001158,-0.00007222,-0.00008445,0.00001455,0.00007421,0.000
 10362,-0.00004626,0.00003514,-0.00424919,-0.01465632,0.00196270,0.0081
 5434,0.00564438,-0.00015091,-0.34356067,-0.14402109,-0.03296906,0.0003
 6705,-0.00095028,-0.00019192,0.00020966,0.00000977,0.00003597,-0.00007
 294,0.00002986,-0.00001729,-0.00007112,0.00001925,-0.00001740,0.000036
 60,-0.00001303,0.00000604,0.00003805,0.00000391,0.00000862,-0.00000998
 ,0.00001558,-0.00000397,0.00000382,-0.00003152,0.00000233,0.00003065,0
 .00000790,0.00000677,-0.00001317,0.00002095,-0.00000410,-0.00000166,-0
 .00000295,-0.00000083,0.00002598,0.,0.00000688,0.00000293,-0.00000091,
 0.00000074,0.00000161,-0.00000201,0.00000052,-0.00000260,0.00000035,-0
 .00000031,-0.00001390,-0.00000870,-0.00000362,-0.00001474,-0.00001659,
 -0.00000381,0.00000321,-0.00000026,0.00000063,0.00000825,0.00001405,0.
 00000229,-0.00000626,-0.00000614,-0.00000236,0.00000125,0.00000380,0.0
 0000060,0.00000138,0.00000116,0.00000240,0.00000182,0.00000190,0.00000
 113,-0.00000013,-0.00000154,-0.00000048,0.00000008,-0.00000036,0.00000
 024,-0.00000005,-0.00000012,-0.00000079,-0.00000092,-0.00000191,-0.000
 00117,-0.00000024,0.00000004,-0.00000004,0.00000122,-0.00000104,0.0000
 0043,-0.00000035,0.00000090,0.00000055,0.00000165,0.00000048,0.0000004
 4,-0.00000013,0.00000017,0.00000006,0.00000050,0.00000152,-0.00000078,
 0.00000010,0.00000033,0.00000032,0.00000089,0.00000059,0.00000013,0.00
 000002,-0.00000031,-0.00000015,0.34147617,0.00005202,0.00001825,0.0000
 0285,0.00001655,0.00013953,-0.00001188,-0.00001823,-0.00006180,0.00000
 370,0.00007541,-0.00000404,0.00001300,-0.00000267,0.00006807,-0.000007
 61,-0.00004775,-0.00000937,-0.00000830,0.00018099,-0.00040628,0.000122
 83,-0.00000335,0.00000054,-0.00000020,0.00000164,0.00000347,-0.0000003
 3,0.00000353,0.00000354,0.00000022,0.00435309,-0.00228007,0.00145562,0
 .01215686,0.01607361,-0.00109759,-0.00017328,0.00027696,-0.00035408,-0
 .00025328,-0.00016776,-0.00001991,0.00015638,0.00011843,-0.00003111,0.
 00013883,0.00106464,0.00000597,-0.03185682,-0.00758065,-0.00462198,-0.
 00049001,-0.00064580,0.00030745,0.00004533,-0.00003482,0.00002629,0.00
 002299,-0.00002194,0.00001223,-0.00022727,-0.00006422,-0.00005664,0.00
 123018,-0.00724852,0.00142235,0.00092064,0.00017728,-0.00023611,-0.000
 41062,0.00074941,-0.00023413,0.00049676,-0.00052090,0.00028602,-0.0001
 0410,0.00009853,-0.00005200,0.00027439,0.00057372,0.00015337,0.0000837
 5,0.00016272,-0.00001055,-0.00003615,0.00012309,-0.00004588,-0.0000347
 4,0.00015166,-0.00023172,-0.00000167,0.00005113,0.00003039,0.00001608,
 0.00009567,0.00003578,0.00003061,0.00007397,0.00003789,-0.00002689,-0.
 00000648,-0.00000892,-0.00004701,0.00001539,0.00002522,-0.00000488,0.0
 0000323,-0.00004151,-0.00008370,0.00002456,-0.00002287,-0.00531561,0.0
 0203345,-0.00230252,-0.00065356,-0.00651944,0.00139552,-0.13606902,-0.
 13576227,-0.00422326,-0.00071606,0.00081801,0.00013033,0.00005285,0.00
 014015,-0.00001754,-0.00004191,0.00000968,-0.00000376,-0.00002972,0.00
 001075,-0.00000721,0.00001371,-0.00001017,0.00000189,0.00001077,-0.000
 00111,0.00000255,-0.00000677,0.00000346,-0.00000193,0.00000184,-0.0000
 1082,0.00000086,0.00001069,0.00000323,0.00000242,-0.00000412,0.0000086
 0,-0.00000162,0.00000007,-0.00000188,0.00000041,0.00001016,0.00000009,
 0.00000255,0.00000090,-0.00000016,0.00000029,0.00000099,-0.00000107,0.
 00000031,-0.00000111,-0.00000032,-0.00000009,-0.00000486,-0.00000135,-
 0.00000108,-0.00000293,-0.00000219,-0.00000067,0.00000133,0.00000015,0
 .00000033,0.00000306,0.00000183,0.00000066,-0.00000098,-0.00000068,-0.
 00000027,-0.00000002,0.00000058,0.00000009,-0.00000054,0.00000050,0.00
 000035,0.00000016,0.00000021,-0.00000008,-0.00000012,-0.00000036,-0.00
 000016,0.00000009,-0.00000010,-0.00000011,0.00000003,-0.00000012,0.000
 00014,-0.00000018,-0.00000026,-0.00000007,0.00000004,-0.00000015,-0.00
 000017,0.00000069,-0.00000018,0.00000021,-0.00000024,0.00000028,0.0000
 0016,0.00000066,0.00000006,0.00000018,-0.00000011,0.00000014,-0.000000
 05,0.,0.00000013,0.00000004,0.00000001,-0.00000005,-0.00000016,0.00000
 020,0.00000025,0.00000006,0.00000011,-0.00000018,-0.00000016,0.1563058
 6,0.13826660,0.00002494,0.00000722,-0.00001117,0.00000442,-0.00002631,
 0.00002634,-0.00000145,-0.00001399,-0.00000454,0.00001603,0.00000211,-
 0.00000067,-0.00000092,0.00001749,-0.00000051,-0.00000656,-0.00001424,
 -0.00001117,-0.00011391,0.00007609,0.00022687,-0.00000223,0.00000172,0
 .00000305,0.00000146,0.00000174,0.00000040,0.00000079,0.00000102,0.000
 00294,-0.00122827,0.00148787,0.00243759,-0.00273330,-0.00343982,-0.005
 37317,0.00034475,-0.00054027,-0.00101435,-0.00016029,-0.00011811,0.000
 01255,0.00009015,0.00008970,-0.00025543,-0.00006474,-0.00010335,0.0009
 6699,0.00626094,-0.00098258,-0.00145346,-0.00004373,0.00043010,-0.0006
 3147,0.00000171,0.00001112,0.00008694,0.00000311,0.00000681,0.00003340
 ,0.00011649,0.00002519,-0.00013207,0.00089419,0.00323420,-0.00020730,0
 .00016475,-0.00040360,-0.00249521,-0.00000082,-0.00035442,-0.00020513,
 -0.00008295,0.00024972,0.00014960,0.00001378,-0.00019135,0.00000811,-0
 .00036615,-0.00021730,0.00115952,-0.00002509,-0.00008565,-0.00003397,0
 .00002453,-0.00009554,-0.00012454,0.00000062,-0.00006707,0.00009891,-0
 .00000273,-0.00002363,-0.00001164,-0.00001375,-0.00002979,-0.00001635,
 -0.00001963,-0.00001444,-0.00001881,-0.00001276,-0.00003440,-0.0000560
 2,-0.00001096,0.00000192,-0.00000676,-0.00000595,-0.00000198,0.0000361
 6,0.00003309,-0.00001136,0.00000872,0.00019013,-0.00384430,-0.00429939
 ,0.00082474,0.00247374,0.00303449,-0.03439979,-0.00571400,-0.02157443,
 -0.00019379,0.00005268,0.00222028,0.00003414,-0.00002229,-0.00003610,-
 0.00000808,0.00000531,0.00001654,-0.00000924,0.00000145,0.00000359,0.0
 0000649,-0.00000036,-0.00000164,0.00000508,0.00000058,-0.00000049,-0.0
 0000047,0.00000113,-0.00000176,0.00000033,-0.00000334,0.00000055,0.000
 00350,0.00000034,-0.00000044,-0.00000168,0.00000241,-0.00000027,-0.000
 00101,-0.00000040,-0.00000164,0.00000225,-0.00000005,0.00000173,0.0000
 0080,-0.00000018,-0.00000002,0.00000039,-0.00000040,0.00000031,-0.0000
 0048,-0.00000035,0.00000076,-0.00000176,-0.00000102,0.00000052,-0.0000
 0208,-0.00000107,-0.00000078,0.00000013,-0.00000017,0.00000022,0.00000
 159,0.00000165,-0.00000009,-0.00000104,-0.00000051,0.00000038,0.000000
 26,0.00000027,0.00000028,0.00000031,0.00000024,0.00000050,0.00000020,0
 .00000008,0.00000003,-0.00000005,0.00000009,0.00000012,0.00000020,-0.0
 0000019,-0.00000020,-0.00000010,0.00000011,-0.00000019,-0.00000015,0.,
 -0.00000001,0.00000018,-0.00000027,-0.00000037,-0.00000022,-0.00000005
 ,0.00000014,0.00000022,0.00000012,0.00000020,0.00000012,0.00000006,0.0
 0000006,-0.00000002,-0.00000012,-0.00000015,0.00000011,0.00000034,-0.0
 0000025,0.00000002,-0.00000009,-0.00000006,0.00000010,0.00000013,0.000
 00005,0.00000009,-0.00000012,-0.00000015,0.03044909,0.00817371,0.02744
 336\\-0.00000011,-0.00000017,0.00000032,0.00000054,0.00000024,-0.00000
 109,0.00000169,-0.00000003,-0.00000379,0.00000218,-0.00000095,-0.00000
 501,0.00000148,-0.00000135,-0.00000363,0.00000033,-0.00000089,-0.00000
 091,-0.00000117,0.00000125,0.00000301,0.00000217,0.00000020,-0.0000048
 8,0.00000304,-0.00000130,-0.00000712,0.00000189,-0.00000199,-0.0000046
 9,-0.00000197,0.00000281,0.00000535,-0.00000299,0.00000361,0.00000755,
 -0.00000403,0.00000370,0.00001002,-0.00000422,0.00000306,0.00001011,-0
 .00000323,0.00000222,0.00000786,-0.00000226,0.00000206,0.00000542,-0.0
 0000145,0.00000364,0.00000418,-0.00000476,0.00000440,0.00001174,-0.000
 00501,0.00000310,0.00001199,-0.00000348,0.00000168,0.00000807,-0.00000
 022,0.00000105,0.00000070,-0.00000130,0.00000458,0.00000416,-0.0000007
 3,0.00000387,0.00000253,0.00000048,0.00000340,-0.00000008,0.00000110,0
 .00000376,-0.00000159,0.00000055,0.00000453,-0.00000030,-0.00000048,0.
 00000505,0.00000227,0.00000077,0.00000277,-0.00000107,0.00000120,0.000
 00467,-0.00000145,0.00000232,0.00000302,-0.00000445,0.00000270,0.00000
 320,-0.00000524,0.00000228,0.00000081,-0.00000482,0.00000290,0.0000043
 9,-0.00000543,-0.00000101,0.00000591,0.00000379,-0.00000180,0.00000436
 ,0.00000512,-0.00000126,0.00000795,0.00000478,-0.00000037,0.00000614,0
 .00000233,-0.00000210,0.00000545,0.00000629,-0.00000115,0.00000270,0.0
 0000319,-0.00000270,0.00000414,0.00000663,-0.00000032,0.00000235,0.000
 00136,-0.00000129,0.00000060,0.00000286,-0.00000189,0.00000038,0.00000
 430,-0.00000042,-0.00000130,0.00000052,-0.00000148,-0.00000097,0.00000
 325,-0.00000008,-0.00000177,-0.00000039,-0.00000095,-0.00000252,0.0000
 0156,-0.00000213,-0.00000255,0.00000408,-0.00000309,-0.00000203,0.0000
 0643,-0.00000305,-0.00000159,0.00000632,-0.00000194,-0.00000150,0.0000
 0394,-0.00000094,-0.00000201,0.00000155,-0.00000222,-0.00000289,0.0000
 0425,-0.00000393,-0.00000217,0.00000827,-0.00000375,-0.00000121,0.0000
 0810,0.00000079,-0.00000198,-0.00000227,-0.00000006,-0.00000275,-0.000
 00056,-0.00000016,-0.00000331,-0.00000053,0.00000108,-0.00000281,-0.00
 000303,0.00000205,-0.00000313,-0.00000537,0.00000181,-0.00000359,-0.00
 000499,0.00000263,-0.00000539,-0.00000712,0.00000274,-0.00000113,-0.00
 000640,0.00000298,-0.00000397,-0.00000770,0.00000117,-0.00000564,-0.00
 000399,0.00000149,-0.00000198,-0.00000379,0.00000377,-0.00000579,-0.00
 000977,0.00000189,-0.00000745,-0.00000611,0.00000273,-0.00000496,-0.00
 000738,0.00000348,-0.00000626,-0.00000941,0.00000281,-0.00000442,-0.00
 000733,0.00000364,-0.00000195,-0.00000862,0.00000404,-0.00000750,-0.00
 001092,0.00000440,-0.00000381,-0.00001079,0.00000436,-0.00000640,-0.00
 001133,0.00000290,-0.00000836,-0.00000856,-0.00000290,0.00000475,0.000
 00772\\\@


 THE MEEK SHALL INHERIT THE EARTH.
 (THE REST OF US WILL ESCAPE TO THE STARS)
 Job cpu time:       1 days  4 hours 22 minutes 27.0 seconds.
 Elapsed time:       0 days  1 hours 46 minutes 46.1 seconds.
 File lengths (MBytes):  RWF=  10456 Int=      0 D2E=      0 Chk=    104 Scr=      8
 Normal termination of Gaussian 16 at Sun Dec 16 13:01:18 2018.
