 Entering Gaussian System, Link 0=g16
 Initial command:
 /gpfs/apps/hpc/Apps/Restricted/Gaussian/Rev_A.03/g16/l1.exe "/gpfs/scratch60/fas/hammes_schiffer/jg2487/c27n05/Gau-12746.inp" -scrdir="/gpfs/scratch60/fas/hammes_schiffer/jg2487/c27n05/"
 Entering Link 1 = /gpfs/apps/hpc/Apps/Restricted/Gaussian/Rev_A.03/g16/l1.exe PID=     12747.
  
 Copyright (c) 1988,1990,1992,1993,1995,1998,2003,2009,2016,
            Gaussian, Inc.  All Rights Reserved.
  
 This is part of the Gaussian(R) 16 program.  It is based on
 the Gaussian(R) 09 system (copyright 2009, Gaussian, Inc.),
 the Gaussian(R) 03 system (copyright 2003, Gaussian, Inc.),
 the Gaussian(R) 98 system (copyright 1998, Gaussian, Inc.),
 the Gaussian(R) 94 system (copyright 1995, Gaussian, Inc.),
 the Gaussian 92(TM) system (copyright 1992, Gaussian, Inc.),
 the Gaussian 90(TM) system (copyright 1990, Gaussian, Inc.),
 the Gaussian 88(TM) system (copyright 1988, Gaussian, Inc.),
 the Gaussian 86(TM) system (copyright 1986, Carnegie Mellon
 University), and the Gaussian 82(TM) system (copyright 1983,
 Carnegie Mellon University). Gaussian is a federally registered
 trademark of Gaussian, Inc.
  
 This software contains proprietary and confidential information,
 including trade secrets, belonging to Gaussian, Inc.
  
 This software is provided under written license and may be
 used, copied, transmitted, or stored only in accord with that
 written license.
  
 The following legend is applicable only to US Government
 contracts under FAR:
  
                    RESTRICTED RIGHTS LEGEND
  
 Use, reproduction and disclosure by the US Government is
 subject to restrictions as set forth in subparagraphs (a)
 and (c) of the Commercial Computer Software - Restricted
 Rights clause in FAR 52.227-19.
  
 Gaussian, Inc.
 340 Quinnipiac St., Bldg. 40, Wallingford CT 06492
  
  
 ---------------------------------------------------------------
 Warning -- This program may not be used in any manner that
 competes with the business of Gaussian, Inc. or will provide
 assistance to any competitor of Gaussian, Inc.  The licensee
 of this program is prohibited from giving any competitor of
 Gaussian, Inc. access to this program.  By using this program,
 the user acknowledges that Gaussian, Inc. is engaged in the
 business of creating and licensing software in the field of
 computational chemistry and represents and warrants to the
 licensee that it is not a competitor of Gaussian, Inc. and that
 it will not use this program in any manner prohibited above.
 ---------------------------------------------------------------
  

 Cite this work as:
 Gaussian 16, Revision A.03,
 M. J. Frisch, G. W. Trucks, H. B. Schlegel, G. E. Scuseria, 
 M. A. Robb, J. R. Cheeseman, G. Scalmani, V. Barone, 
 G. A. Petersson, H. Nakatsuji, X. Li, M. Caricato, A. V. Marenich, 
 J. Bloino, B. G. Janesko, R. Gomperts, B. Mennucci, H. P. Hratchian, 
 J. V. Ortiz, A. F. Izmaylov, J. L. Sonnenberg, D. Williams-Young, 
 F. Ding, F. Lipparini, F. Egidi, J. Goings, B. Peng, A. Petrone, 
 T. Henderson, D. Ranasinghe, V. G. Zakrzewski, J. Gao, N. Rega, 
 G. Zheng, W. Liang, M. Hada, M. Ehara, K. Toyota, R. Fukuda, 
 J. Hasegawa, M. Ishida, T. Nakajima, Y. Honda, O. Kitao, H. Nakai, 
 T. Vreven, K. Throssell, J. A. Montgomery, Jr., J. E. Peralta, 
 F. Ogliaro, M. J. Bearpark, J. J. Heyd, E. N. Brothers, K. N. Kudin, 
 V. N. Staroverov, T. A. Keith, R. Kobayashi, J. Normand, 
 K. Raghavachari, A. P. Rendell, J. C. Burant, S. S. Iyengar, 
 J. Tomasi, M. Cossi, J. M. Millam, M. Klene, C. Adamo, R. Cammi, 
 J. W. Ochterski, R. L. Martin, K. Morokuma, O. Farkas, 
 J. B. Foresman, and D. J. Fox, Gaussian, Inc., Wallingford CT, 2016.
 
 ******************************************
 Gaussian 16:  ES64L-G16RevA.03 25-Dec-2016
                20-Dec-2018 
 ******************************************
 %chk=cyclohexyl-triBIP-E1PT.chk
 %mem=10GB
 %nprocshared=16
 Will use up to   16 processors via shared memory.
 ----------------------------------------------------------------------
 #p opt=tight freq=internalmodes b3lyp/6-31g(d,p) scrf=(cpcm,solvent=di
 chloromethane,read) nosymm empiricaldispersion=gd3bj int=grid=ultrafin
 e
 ----------------------------------------------------------------------
 1/7=10,18=20,19=15,26=6,38=1,40=2/1,3;
 2/9=110,12=2,15=1,17=6,18=5,40=1/2;
 3/5=1,6=6,7=101,11=2,25=1,30=1,70=2103,71=1,72=9,74=-5,75=-5,124=41/1,2,3;
 4//1;
 5/5=2,38=5,53=9/2;
 6/7=2,8=2,9=2,10=2,28=1/1;
 7/30=1/1,2,3,16;
 1/7=10,18=20,19=15,26=6/3(2);
 2/9=110,15=1/2;
 99//99;
 2/9=110,15=1/2;
 3/5=1,6=6,7=101,11=2,25=1,30=1,70=2105,71=1,72=9,74=-5,75=-5,124=41/1,2,3;
 4/5=5,16=3,69=1/1;
 5/5=2,38=5,53=9/2;
 7/30=1/1,2,3,16;
 1/7=10,18=20,19=15,26=6/3(-5);
 2/9=110,15=1/2;
 6/7=2,8=2,9=2,10=2,19=2,28=1/1;
 99/9=1/99;
 Leave Link    1 at Thu Dec 20 18:29:59 2018, MaxMem=  1342177280 cpu:               8.8 elap:               0.6
 (Enter /gpfs/apps/hpc/Apps/Restricted/Gaussian/Rev_A.03/g16/l101.exe)
 ----------------------------------------------------------------------
 cyclohexylimine triBIP oxidized, first proton transferred, optimizatio
 n
 ----------------------------------------------------------------------
 Symbolic Z-matrix:
 Charge =  1 Multiplicity = 2
 C                     1.65207   0.37067   0.92819 
 C                     0.54484   1.20262   0.63953 
 C                     0.73158   2.58322   0.49613 
 C                     2.02366   3.08052   0.64755 
 C                     3.1144    2.24276   0.93871 
 C                     2.95779   0.86011   1.08874 
 C                    -0.20122  -0.8225    0.78172 
 H                    -0.10237   3.23727   0.27389 
 H                     2.19959   4.14398   0.53751 
 H                     4.1013    2.67912   1.03855 
 C                    -2.47161  -1.75935   0.55561 
 C                    -3.39926  -2.81524   0.56755 
 C                    -3.00761  -4.12989   0.8222 
 C                    -1.65195  -4.33408   1.05947 
 C                    -0.7199   -3.28032   1.04717 
 C                    -1.10405  -1.95989   0.79806 
 C                    -4.4818   -0.91163   0.10162 
 H                    -3.72219  -4.94212   0.83407 
 H                    -1.29693  -5.3365    1.26243 
 H                     0.32199  -3.50334   1.2387 
 N                    -0.60097   0.42756   0.55528 
 C                    -6.91231  -0.55222  -0.38525 
 C                    -5.55663  -0.00937  -0.22882 
 C                    -5.32588   1.34325  -0.39873 
 C                    -6.37312   2.22626  -0.73242 
 C                    -7.68445   1.7174   -0.88786 
 C                    -7.98031   0.38315  -0.73282 
 H                    -4.32498   1.74332  -0.28151 
 H                    -8.48009   2.41094  -1.13844 
 C                    -6.10082   3.6808   -0.94825 
 C                    -9.35795  -0.16955  -0.89818 
 O                    -7.16461  -1.77247  -0.22959 
 N                    -3.17604  -0.60869   0.2671 
 N                    -4.6236   -2.23896   0.2846 
 H                    -2.70618   0.29457   0.2087 
 N                     1.14744  -0.90336   1.00888 
 H                     1.73557  -1.71017   1.18997 
 C                     4.04164  -0.05711   1.39847 
 N                     3.9064   -1.38193   1.43693 
 N                     5.32584   0.33862   1.68273 
 C                     7.41116  -0.9637    2.26585 
 C                     7.83557  -2.28689   2.43309 
 C                     6.95834  -3.37347   2.26778 
 C                     5.61861  -3.18725   1.93133 
 C                     5.16299  -1.87364   1.75774 
 C                     6.06193  -0.79477   1.92004 
 H                     8.87015  -2.47176   2.70181 
 H                     7.33616  -4.3791    2.40922 
 H                     4.94519  -4.02765   1.81341 
 H                     5.72563   1.26655   1.7673 
 C                     8.30791   0.17347   2.4626 
 H                     9.34192  -0.08117   2.70938 
 N                     7.89037   1.38029   2.36107 
 C                     8.80984   2.49921   2.57131 
 C                     10.26135   2.15692   2.92536 
 C                     8.75334   3.41282   1.33546 
 H                     8.38621   3.07119   3.40979 
 C                     11.08903   3.42914   3.14039 
 H                     10.701    1.57032   2.10935 
 H                     10.294    1.53054   3.82226 
 C                     9.5844    4.68312   1.54229 
 H                     9.13895   2.85195   0.47506 
 H                     7.7094    3.65882   1.11845 
 C                     11.03283   4.35103   1.91765 
 H                     12.12527   3.1619    3.36972 
 H                     10.70191   3.96745   4.01466 
 H                     9.5568    5.2997    0.63869 
 H                     9.13363   5.27843   2.3461 
 H                     11.59295   5.27096   2.11259 
 H                     11.52003   3.8527    1.07018 
 H                    -5.54992  -2.65783   0.19364 
 C                    -9.39557  -1.19384  -2.04753 
 H                    -9.30158  -2.18195  -1.64791 
 H                    -10.32448  -1.10792  -2.57159 
 H                    -8.58678  -1.00333  -2.72167 
 C                    -10.36908   0.95402  -1.19279 
 H                    -11.35089   0.53714  -1.27743 
 H                    -10.35199   1.66734  -0.39542 
 H                    -10.1069   1.43826  -2.11022 
 C                    -9.79417  -0.92332   0.37192 
 H                    -9.50498  -1.95055   0.29407 
 H                    -9.32361  -0.4841    1.22666 
 H                    -10.857   -0.85902   0.47751 
 C                    -5.92177   3.95971  -2.45216 
 H                    -6.88118   4.09187  -2.9071 
 H                    -5.33945   4.84774  -2.58337 
 H                    -5.42028   3.13332  -2.91095 
 C                    -7.28325   4.54011  -0.46346 
 H                    -6.97922   5.56431  -0.40435 
 H                    -8.0967    4.44873  -1.15255 
 H                    -7.59538   4.20436   0.50336 
 C                    -4.81245   4.12403  -0.23043 
 H                    -4.82686   3.77001   0.7792 
 H                    -3.96311   3.71771  -0.73878 
 H                    -4.75223   5.19233  -0.23297 
 
 ITRead=  0  0  0  0  0  0  0  0  0  0  0  0  0  0  0  0  0  0  0  0
 ITRead=  0  0  0  0  0  0  0  0  0  0  0  0  0  0  0  0  0  0  0  0
 ITRead=  0  0  0  0  0  0  0  0  0  0  0  0  0  0  0  0  0  0  0  0
 ITRead=  0  0  0  0  0  0  0  0  0  0  0  0  0  0  0  0  0  0  0  0
 ITRead=  0  0  0  0  0  0  0  0  0  0  0  0  0  0  0
 MicOpt= -1 -1 -1 -1 -1 -1 -1 -1 -1 -1 -1 -1 -1 -1 -1 -1 -1 -1 -1 -1
 MicOpt= -1 -1 -1 -1 -1 -1 -1 -1 -1 -1 -1 -1 -1 -1 -1 -1 -1 -1 -1 -1
 MicOpt= -1 -1 -1 -1 -1 -1 -1 -1 -1 -1 -1 -1 -1 -1 -1 -1 -1 -1 -1 -1
 MicOpt= -1 -1 -1 -1 -1 -1 -1 -1 -1 -1 -1 -1 -1 -1 -1 -1 -1 -1 -1 -1
 MicOpt= -1 -1 -1 -1 -1 -1 -1 -1 -1 -1 -1 -1 -1 -1 -1
 NAtoms=     95 NQM=       95 NQMF=       0 NMMI=      0 NMMIF=      0
                NMic=       0 NMicF=      0.
                    Isotopes and Nuclear Properties:
 (Nuclear quadrupole moments (NQMom) in fm**2, nuclear magnetic moments (NMagM)
  in nuclear magnetons)

  Atom         1           2           3           4           5           6           7           8           9          10
 IAtWgt=          12          12          12          12          12          12          12           1           1           1
 AtmWgt=  12.0000000  12.0000000  12.0000000  12.0000000  12.0000000  12.0000000  12.0000000   1.0078250   1.0078250   1.0078250
 NucSpn=           0           0           0           0           0           0           0           1           1           1
 AtZEff=  -0.0000000  -0.0000000  -0.0000000  -0.0000000  -0.0000000  -0.0000000  -0.0000000  -0.0000000  -0.0000000  -0.0000000
 NQMom=    0.0000000   0.0000000   0.0000000   0.0000000   0.0000000   0.0000000   0.0000000   0.0000000   0.0000000   0.0000000
 NMagM=    0.0000000   0.0000000   0.0000000   0.0000000   0.0000000   0.0000000   0.0000000   2.7928460   2.7928460   2.7928460
 AtZNuc=   6.0000000   6.0000000   6.0000000   6.0000000   6.0000000   6.0000000   6.0000000   1.0000000   1.0000000   1.0000000

  Atom        11          12          13          14          15          16          17          18          19          20
 IAtWgt=          12          12          12          12          12          12          12           1           1           1
 AtmWgt=  12.0000000  12.0000000  12.0000000  12.0000000  12.0000000  12.0000000  12.0000000   1.0078250   1.0078250   1.0078250
 NucSpn=           0           0           0           0           0           0           0           1           1           1
 AtZEff=  -0.0000000  -0.0000000  -0.0000000  -0.0000000  -0.0000000  -0.0000000  -0.0000000  -0.0000000  -0.0000000  -0.0000000
 NQMom=    0.0000000   0.0000000   0.0000000   0.0000000   0.0000000   0.0000000   0.0000000   0.0000000   0.0000000   0.0000000
 NMagM=    0.0000000   0.0000000   0.0000000   0.0000000   0.0000000   0.0000000   0.0000000   2.7928460   2.7928460   2.7928460
 AtZNuc=   6.0000000   6.0000000   6.0000000   6.0000000   6.0000000   6.0000000   6.0000000   1.0000000   1.0000000   1.0000000

  Atom        21          22          23          24          25          26          27          28          29          30
 IAtWgt=          14          12          12          12          12          12          12           1           1          12
 AtmWgt=  14.0030740  12.0000000  12.0000000  12.0000000  12.0000000  12.0000000  12.0000000   1.0078250   1.0078250  12.0000000
 NucSpn=           2           0           0           0           0           0           0           1           1           0
 AtZEff=  -0.0000000  -0.0000000  -0.0000000  -0.0000000  -0.0000000  -0.0000000  -0.0000000  -0.0000000  -0.0000000  -0.0000000
 NQMom=    2.0440000   0.0000000   0.0000000   0.0000000   0.0000000   0.0000000   0.0000000   0.0000000   0.0000000   0.0000000
 NMagM=    0.4037610   0.0000000   0.0000000   0.0000000   0.0000000   0.0000000   0.0000000   2.7928460   2.7928460   0.0000000
 AtZNuc=   7.0000000   6.0000000   6.0000000   6.0000000   6.0000000   6.0000000   6.0000000   1.0000000   1.0000000   6.0000000

  Atom        31          32          33          34          35          36          37          38          39          40
 IAtWgt=          12          16          14          14           1          14           1          12          14          14
 AtmWgt=  12.0000000  15.9949146  14.0030740  14.0030740   1.0078250  14.0030740   1.0078250  12.0000000  14.0030740  14.0030740
 NucSpn=           0           0           2           2           1           2           1           0           2           2
 AtZEff=  -0.0000000  -0.0000000  -0.0000000  -0.0000000  -0.0000000  -0.0000000  -0.0000000  -0.0000000  -0.0000000  -0.0000000
 NQMom=    0.0000000   0.0000000   2.0440000   2.0440000   0.0000000   2.0440000   0.0000000   0.0000000   2.0440000   2.0440000
 NMagM=    0.0000000   0.0000000   0.4037610   0.4037610   2.7928460   0.4037610   2.7928460   0.0000000   0.4037610   0.4037610
 AtZNuc=   6.0000000   8.0000000   7.0000000   7.0000000   1.0000000   7.0000000   1.0000000   6.0000000   7.0000000   7.0000000

  Atom        41          42          43          44          45          46          47          48          49          50
 IAtWgt=          12          12          12          12          12          12           1           1           1           1
 AtmWgt=  12.0000000  12.0000000  12.0000000  12.0000000  12.0000000  12.0000000   1.0078250   1.0078250   1.0078250   1.0078250
 NucSpn=           0           0           0           0           0           0           1           1           1           1
 AtZEff=  -0.0000000  -0.0000000  -0.0000000  -0.0000000  -0.0000000  -0.0000000  -0.0000000  -0.0000000  -0.0000000  -0.0000000
 NQMom=    0.0000000   0.0000000   0.0000000   0.0000000   0.0000000   0.0000000   0.0000000   0.0000000   0.0000000   0.0000000
 NMagM=    0.0000000   0.0000000   0.0000000   0.0000000   0.0000000   0.0000000   2.7928460   2.7928460   2.7928460   2.7928460
 AtZNuc=   6.0000000   6.0000000   6.0000000   6.0000000   6.0000000   6.0000000   1.0000000   1.0000000   1.0000000   1.0000000

  Atom        51          52          53          54          55          56          57          58          59          60
 IAtWgt=          12           1          14          12          12          12           1          12           1           1
 AtmWgt=  12.0000000   1.0078250  14.0030740  12.0000000  12.0000000  12.0000000   1.0078250  12.0000000   1.0078250   1.0078250
 NucSpn=           0           1           2           0           0           0           1           0           1           1
 AtZEff=  -0.0000000  -0.0000000  -0.0000000  -0.0000000  -0.0000000  -0.0000000  -0.0000000  -0.0000000  -0.0000000  -0.0000000
 NQMom=    0.0000000   0.0000000   2.0440000   0.0000000   0.0000000   0.0000000   0.0000000   0.0000000   0.0000000   0.0000000
 NMagM=    0.0000000   2.7928460   0.4037610   0.0000000   0.0000000   0.0000000   2.7928460   0.0000000   2.7928460   2.7928460
 AtZNuc=   6.0000000   1.0000000   7.0000000   6.0000000   6.0000000   6.0000000   1.0000000   6.0000000   1.0000000   1.0000000

  Atom        61          62          63          64          65          66          67          68          69          70
 IAtWgt=          12           1           1          12           1           1           1           1           1           1
 AtmWgt=  12.0000000   1.0078250   1.0078250  12.0000000   1.0078250   1.0078250   1.0078250   1.0078250   1.0078250   1.0078250
 NucSpn=           0           1           1           0           1           1           1           1           1           1
 AtZEff=  -0.0000000  -0.0000000  -0.0000000  -0.0000000  -0.0000000  -0.0000000  -0.0000000  -0.0000000  -0.0000000  -0.0000000
 NQMom=    0.0000000   0.0000000   0.0000000   0.0000000   0.0000000   0.0000000   0.0000000   0.0000000   0.0000000   0.0000000
 NMagM=    0.0000000   2.7928460   2.7928460   0.0000000   2.7928460   2.7928460   2.7928460   2.7928460   2.7928460   2.7928460
 AtZNuc=   6.0000000   1.0000000   1.0000000   6.0000000   1.0000000   1.0000000   1.0000000   1.0000000   1.0000000   1.0000000

  Atom        71          72          73          74          75          76          77          78          79          80
 IAtWgt=           1          12           1           1           1          12           1           1           1          12
 AtmWgt=   1.0078250  12.0000000   1.0078250   1.0078250   1.0078250  12.0000000   1.0078250   1.0078250   1.0078250  12.0000000
 NucSpn=           1           0           1           1           1           0           1           1           1           0
 AtZEff=  -0.0000000  -0.0000000  -0.0000000  -0.0000000  -0.0000000  -0.0000000  -0.0000000  -0.0000000  -0.0000000  -0.0000000
 NQMom=    0.0000000   0.0000000   0.0000000   0.0000000   0.0000000   0.0000000   0.0000000   0.0000000   0.0000000   0.0000000
 NMagM=    2.7928460   0.0000000   2.7928460   2.7928460   2.7928460   0.0000000   2.7928460   2.7928460   2.7928460   0.0000000
 AtZNuc=   1.0000000   6.0000000   1.0000000   1.0000000   1.0000000   6.0000000   1.0000000   1.0000000   1.0000000   6.0000000

  Atom        81          82          83          84          85          86          87          88          89          90
 IAtWgt=           1           1           1          12           1           1           1          12           1           1
 AtmWgt=   1.0078250   1.0078250   1.0078250  12.0000000   1.0078250   1.0078250   1.0078250  12.0000000   1.0078250   1.0078250
 NucSpn=           1           1           1           0           1           1           1           0           1           1
 AtZEff=  -0.0000000  -0.0000000  -0.0000000  -0.0000000  -0.0000000  -0.0000000  -0.0000000  -0.0000000  -0.0000000  -0.0000000
 NQMom=    0.0000000   0.0000000   0.0000000   0.0000000   0.0000000   0.0000000   0.0000000   0.0000000   0.0000000   0.0000000
 NMagM=    2.7928460   2.7928460   2.7928460   0.0000000   2.7928460   2.7928460   2.7928460   0.0000000   2.7928460   2.7928460
 AtZNuc=   1.0000000   1.0000000   1.0000000   6.0000000   1.0000000   1.0000000   1.0000000   6.0000000   1.0000000   1.0000000

  Atom        91          92          93          94          95
 IAtWgt=           1          12           1           1           1
 AtmWgt=   1.0078250  12.0000000   1.0078250   1.0078250   1.0078250
 NucSpn=           1           0           1           1           1
 AtZEff=  -0.0000000  -0.0000000  -0.0000000  -0.0000000  -0.0000000
 NQMom=    0.0000000   0.0000000   0.0000000   0.0000000   0.0000000
 NMagM=    2.7928460   0.0000000   2.7928460   2.7928460   2.7928460
 AtZNuc=   1.0000000   6.0000000   1.0000000   1.0000000   1.0000000
 Leave Link  101 at Thu Dec 20 18:30:00 2018, MaxMem=  1342177280 cpu:               4.1 elap:               0.3
 (Enter /gpfs/apps/hpc/Apps/Restricted/Gaussian/Rev_A.03/g16/l103.exe)

 GradGradGradGradGradGradGradGradGradGradGradGradGradGradGradGradGradGrad
 Berny optimization.
 Initialization pass.
                           ----------------------------
                           !    Initial Parameters    !
                           ! (Angstroms and Degrees)  !
 --------------------------                            --------------------------
 ! Name  Definition              Value          Derivative Info.                !
 --------------------------------------------------------------------------------
 ! R1    R(1,2)                  1.4147         estimate D2E/DX2                !
 ! R2    R(1,6)                  1.4037         estimate D2E/DX2                !
 ! R3    R(1,36)                 1.3727         estimate D2E/DX2                !
 ! R4    R(2,3)                  1.4005         estimate D2E/DX2                !
 ! R5    R(2,21)                 1.3859         estimate D2E/DX2                !
 ! R6    R(3,4)                  1.3927         estimate D2E/DX2                !
 ! R7    R(3,8)                  1.0829         estimate D2E/DX2                !
 ! R8    R(4,5)                  1.4058         estimate D2E/DX2                !
 ! R9    R(4,9)                  1.0835         estimate D2E/DX2                !
 ! R10   R(5,6)                  1.3996         estimate D2E/DX2                !
 ! R11   R(5,10)                 1.0837         estimate D2E/DX2                !
 ! R12   R(6,38)                 1.4533         estimate D2E/DX2                !
 ! R13   R(7,16)                 1.4522         estimate D2E/DX2                !
 ! R14   R(7,21)                 1.3318         estimate D2E/DX2                !
 ! R15   R(7,36)                 1.37           estimate D2E/DX2                !
 ! R16   R(11,12)                1.4055         estimate D2E/DX2                !
 ! R17   R(11,16)                1.4033         estimate D2E/DX2                !
 ! R18   R(11,33)                1.3797         estimate D2E/DX2                !
 ! R19   R(12,13)                1.3952         estimate D2E/DX2                !
 ! R20   R(12,34)                1.3825         estimate D2E/DX2                !
 ! R21   R(13,14)                1.3913         estimate D2E/DX2                !
 ! R22   R(13,18)                1.0819         estimate D2E/DX2                !
 ! R23   R(14,15)                1.4069         estimate D2E/DX2                !
 ! R24   R(14,19)                1.0826         estimate D2E/DX2                !
 ! R25   R(15,16)                1.3976         estimate D2E/DX2                !
 ! R26   R(15,20)                1.0826         estimate D2E/DX2                !
 ! R27   R(17,23)                1.4417         estimate D2E/DX2                !
 ! R28   R(17,33)                1.3506         estimate D2E/DX2                !
 ! R29   R(17,34)                1.3474         estimate D2E/DX2                !
 ! R30   R(22,23)                1.4687         estimate D2E/DX2                !
 ! R31   R(22,27)                1.4616         estimate D2E/DX2                !
 ! R32   R(22,32)                1.2557         estimate D2E/DX2                !
 ! R33   R(23,24)                1.3826         estimate D2E/DX2                !
 ! R34   R(24,25)                1.4099         estimate D2E/DX2                !
 ! R35   R(24,28)                1.0842         estimate D2E/DX2                !
 ! R36   R(25,26)                1.4152         estimate D2E/DX2                !
 ! R37   R(25,30)                1.4955         estimate D2E/DX2                !
 ! R38   R(26,27)                1.3754         estimate D2E/DX2                !
 ! R39   R(26,29)                1.0848         estimate D2E/DX2                !
 ! R40   R(27,31)                1.4936         estimate D2E/DX2                !
 ! R41   R(30,84)                1.54           estimate D2E/DX2                !
 ! R42   R(30,88)                1.54           estimate D2E/DX2                !
 ! R43   R(30,92)                1.54           estimate D2E/DX2                !
 ! R44   R(31,72)                1.54           estimate D2E/DX2                !
 ! R45   R(31,76)                1.54           estimate D2E/DX2                !
 ! R46   R(31,80)                1.54           estimate D2E/DX2                !
 ! R47   R(33,35)                1.0198         estimate D2E/DX2                !
 ! R48   R(34,71)                1.0207         estimate D2E/DX2                !
 ! R49   R(36,37)                1.0147         estimate D2E/DX2                !
 ! R50   R(38,39)                1.3323         estimate D2E/DX2                !
 ! R51   R(38,40)                1.3735         estimate D2E/DX2                !
 ! R52   R(39,45)                1.387          estimate D2E/DX2                !
 ! R53   R(40,46)                1.3721         estimate D2E/DX2                !
 ! R54   R(40,50)                1.0139         estimate D2E/DX2                !
 ! R55   R(41,42)                1.3996         estimate D2E/DX2                !
 ! R56   R(41,46)                1.403          estimate D2E/DX2                !
 ! R57   R(41,51)                1.4615         estimate D2E/DX2                !
 ! R58   R(42,43)                1.4062         estimate D2E/DX2                !
 ! R59   R(42,47)                1.0848         estimate D2E/DX2                !
 ! R60   R(43,44)                1.3938         estimate D2E/DX2                !
 ! R61   R(43,48)                1.0835         estimate D2E/DX2                !
 ! R62   R(44,45)                1.4012         estimate D2E/DX2                !
 ! R63   R(44,49)                1.0834         estimate D2E/DX2                !
 ! R64   R(45,46)                1.4136         estimate D2E/DX2                !
 ! R65   R(51,52)                1.0931         estimate D2E/DX2                !
 ! R66   R(51,53)                1.281          estimate D2E/DX2                !
 ! R67   R(53,54)                1.4634         estimate D2E/DX2                !
 ! R68   R(54,55)                1.5328         estimate D2E/DX2                !
 ! R69   R(54,56)                1.5379         estimate D2E/DX2                !
 ! R70   R(54,57)                1.0999         estimate D2E/DX2                !
 ! R71   R(55,58)                1.5329         estimate D2E/DX2                !
 ! R72   R(55,59)                1.0969         estimate D2E/DX2                !
 ! R73   R(55,60)                1.0945         estimate D2E/DX2                !
 ! R74   R(56,61)                1.532          estimate D2E/DX2                !
 ! R75   R(56,62)                1.0971         estimate D2E/DX2                !
 ! R76   R(56,63)                1.0943         estimate D2E/DX2                !
 ! R77   R(58,64)                1.5324         estimate D2E/DX2                !
 ! R78   R(58,65)                1.0944         estimate D2E/DX2                !
 ! R79   R(58,66)                1.0973         estimate D2E/DX2                !
 ! R80   R(61,64)                1.5327         estimate D2E/DX2                !
 ! R81   R(61,67)                1.0943         estimate D2E/DX2                !
 ! R82   R(61,68)                1.0971         estimate D2E/DX2                !
 ! R83   R(64,69)                1.0945         estimate D2E/DX2                !
 ! R84   R(64,70)                1.0972         estimate D2E/DX2                !
 ! R85   R(72,73)                1.07           estimate D2E/DX2                !
 ! R86   R(72,74)                1.07           estimate D2E/DX2                !
 ! R87   R(72,75)                1.07           estimate D2E/DX2                !
 ! R88   R(76,77)                1.07           estimate D2E/DX2                !
 ! R89   R(76,78)                1.07           estimate D2E/DX2                !
 ! R90   R(76,79)                1.07           estimate D2E/DX2                !
 ! R91   R(80,81)                1.07           estimate D2E/DX2                !
 ! R92   R(80,82)                1.07           estimate D2E/DX2                !
 ! R93   R(80,83)                1.07           estimate D2E/DX2                !
 ! R94   R(84,85)                1.07           estimate D2E/DX2                !
 ! R95   R(84,86)                1.07           estimate D2E/DX2                !
 ! R96   R(84,87)                1.07           estimate D2E/DX2                !
 ! R97   R(88,89)                1.07           estimate D2E/DX2                !
 ! R98   R(88,90)                1.07           estimate D2E/DX2                !
 ! R99   R(88,91)                1.07           estimate D2E/DX2                !
 ! R100  R(92,93)                1.07           estimate D2E/DX2                !
 ! R101  R(92,94)                1.07           estimate D2E/DX2                !
 ! R102  R(92,95)                1.07           estimate D2E/DX2                !
 ! A1    A(2,1,6)              123.1159         estimate D2E/DX2                !
 ! A2    A(2,1,36)             105.6687         estimate D2E/DX2                !
 ! A3    A(6,1,36)             131.2137         estimate D2E/DX2                !
 ! A4    A(1,2,3)              119.7511         estimate D2E/DX2                !
 ! A5    A(1,2,21)             109.3049         estimate D2E/DX2                !
 ! A6    A(3,2,21)             130.943          estimate D2E/DX2                !
 ! A7    A(2,3,4)              117.6814         estimate D2E/DX2                !
 ! A8    A(2,3,8)              120.9117         estimate D2E/DX2                !
 ! A9    A(4,3,8)              121.4069         estimate D2E/DX2                !
 ! A10   A(3,4,5)              121.9738         estimate D2E/DX2                !
 ! A11   A(3,4,9)              119.3439         estimate D2E/DX2                !
 ! A12   A(5,4,9)              118.6822         estimate D2E/DX2                !
 ! A13   A(4,5,6)              121.6085         estimate D2E/DX2                !
 ! A14   A(4,5,10)             119.0587         estimate D2E/DX2                !
 ! A15   A(6,5,10)             119.3295         estimate D2E/DX2                !
 ! A16   A(1,6,5)              115.8684         estimate D2E/DX2                !
 ! A17   A(1,6,38)             119.8727         estimate D2E/DX2                !
 ! A18   A(5,6,38)             124.258          estimate D2E/DX2                !
 ! A19   A(16,7,21)            123.3966         estimate D2E/DX2                !
 ! A20   A(16,7,36)            124.3246         estimate D2E/DX2                !
 ! A21   A(21,7,36)            112.2755         estimate D2E/DX2                !
 ! A22   A(12,11,16)           122.3009         estimate D2E/DX2                !
 ! A23   A(12,11,33)           106.9379         estimate D2E/DX2                !
 ! A24   A(16,11,33)           130.7599         estimate D2E/DX2                !
 ! A25   A(11,12,13)           121.6109         estimate D2E/DX2                !
 ! A26   A(11,12,34)           105.6417         estimate D2E/DX2                !
 ! A27   A(13,12,34)           132.7463         estimate D2E/DX2                !
 ! A28   A(12,13,14)           116.291          estimate D2E/DX2                !
 ! A29   A(12,13,18)           121.6019         estimate D2E/DX2                !
 ! A30   A(14,13,18)           122.1071         estimate D2E/DX2                !
 ! A31   A(13,14,15)           122.2828         estimate D2E/DX2                !
 ! A32   A(13,14,19)           119.168          estimate D2E/DX2                !
 ! A33   A(15,14,19)           118.5491         estimate D2E/DX2                !
 ! A34   A(14,15,16)           121.8116         estimate D2E/DX2                !
 ! A35   A(14,15,20)           118.8001         estimate D2E/DX2                !
 ! A36   A(16,15,20)           119.3881         estimate D2E/DX2                !
 ! A37   A(7,16,11)            119.4711         estimate D2E/DX2                !
 ! A38   A(7,16,15)            124.8265         estimate D2E/DX2                !
 ! A39   A(11,16,15)           115.7019         estimate D2E/DX2                !
 ! A40   A(23,17,33)           127.4797         estimate D2E/DX2                !
 ! A41   A(23,17,34)           124.6931         estimate D2E/DX2                !
 ! A42   A(33,17,34)           107.8227         estimate D2E/DX2                !
 ! A43   A(2,21,7)             105.452          estimate D2E/DX2                !
 ! A44   A(23,22,27)           117.5981         estimate D2E/DX2                !
 ! A45   A(23,22,32)           122.1021         estimate D2E/DX2                !
 ! A46   A(27,22,32)           120.2998         estimate D2E/DX2                !
 ! A47   A(17,23,22)           118.7679         estimate D2E/DX2                !
 ! A48   A(17,23,24)           121.0627         estimate D2E/DX2                !
 ! A49   A(22,23,24)           120.1693         estimate D2E/DX2                !
 ! A50   A(23,24,25)           121.1861         estimate D2E/DX2                !
 ! A51   A(23,24,28)           120.1159         estimate D2E/DX2                !
 ! A52   A(25,24,28)           118.6971         estimate D2E/DX2                !
 ! A53   A(24,25,26)           119.28           estimate D2E/DX2                !
 ! A54   A(24,25,30)           120.5353         estimate D2E/DX2                !
 ! A55   A(26,25,30)           120.1729         estimate D2E/DX2                !
 ! A56   A(25,26,27)           122.3953         estimate D2E/DX2                !
 ! A57   A(25,26,29)           118.3662         estimate D2E/DX2                !
 ! A58   A(27,26,29)           119.2385         estimate D2E/DX2                !
 ! A59   A(22,27,26)           119.3682         estimate D2E/DX2                !
 ! A60   A(22,27,31)           117.613          estimate D2E/DX2                !
 ! A61   A(26,27,31)           123.0184         estimate D2E/DX2                !
 ! A62   A(25,30,84)           109.7716         estimate D2E/DX2                !
 ! A63   A(25,30,88)           110.9459         estimate D2E/DX2                !
 ! A64   A(25,30,92)           111.4074         estimate D2E/DX2                !
 ! A65   A(84,30,88)           107.1955         estimate D2E/DX2                !
 ! A66   A(84,30,92)           107.8063         estimate D2E/DX2                !
 ! A67   A(88,30,92)           109.5736         estimate D2E/DX2                !
 ! A68   A(27,31,72)           110.5664         estimate D2E/DX2                !
 ! A69   A(27,31,76)           110.9045         estimate D2E/DX2                !
 ! A70   A(27,31,80)           110.5542         estimate D2E/DX2                !
 ! A71   A(72,31,76)           109.0535         estimate D2E/DX2                !
 ! A72   A(72,31,80)           106.443          estimate D2E/DX2                !
 ! A73   A(76,31,80)           109.2022         estimate D2E/DX2                !
 ! A74   A(11,33,17)           109.4008         estimate D2E/DX2                !
 ! A75   A(11,33,35)           121.0257         estimate D2E/DX2                !
 ! A76   A(17,33,35)           129.5733         estimate D2E/DX2                !
 ! A77   A(12,34,17)           110.1964         estimate D2E/DX2                !
 ! A78   A(12,34,71)           130.6116         estimate D2E/DX2                !
 ! A79   A(17,34,71)           119.189          estimate D2E/DX2                !
 ! A80   A(1,36,7)             107.2986         estimate D2E/DX2                !
 ! A81   A(1,36,37)            122.3693         estimate D2E/DX2                !
 ! A82   A(7,36,37)            130.322          estimate D2E/DX2                !
 ! A83   A(6,38,39)            123.9229         estimate D2E/DX2                !
 ! A84   A(6,38,40)            124.0258         estimate D2E/DX2                !
 ! A85   A(39,38,40)           112.0512         estimate D2E/DX2                !
 ! A86   A(38,39,45)           105.501          estimate D2E/DX2                !
 ! A87   A(38,40,46)           107.4203         estimate D2E/DX2                !
 ! A88   A(38,40,50)           130.5115         estimate D2E/DX2                !
 ! A89   A(46,40,50)           122.0056         estimate D2E/DX2                !
 ! A90   A(42,41,46)           115.7778         estimate D2E/DX2                !
 ! A91   A(42,41,51)           122.2383         estimate D2E/DX2                !
 ! A92   A(46,41,51)           121.9744         estimate D2E/DX2                !
 ! A93   A(41,42,43)           121.822          estimate D2E/DX2                !
 ! A94   A(41,42,47)           118.6804         estimate D2E/DX2                !
 ! A95   A(43,42,47)           119.497          estimate D2E/DX2                !
 ! A96   A(42,43,44)           121.6508         estimate D2E/DX2                !
 ! A97   A(42,43,48)           118.9648         estimate D2E/DX2                !
 ! A98   A(44,43,48)           119.3842         estimate D2E/DX2                !
 ! A99   A(43,44,45)           117.8859         estimate D2E/DX2                !
 ! A100  A(43,44,49)           121.3395         estimate D2E/DX2                !
 ! A101  A(45,44,49)           120.7732         estimate D2E/DX2                !
 ! A102  A(39,45,44)           130.9669         estimate D2E/DX2                !
 ! A103  A(39,45,46)           109.3972         estimate D2E/DX2                !
 ! A104  A(44,45,46)           119.6356         estimate D2E/DX2                !
 ! A105  A(40,46,41)           131.1447         estimate D2E/DX2                !
 ! A106  A(40,46,45)           105.6287         estimate D2E/DX2                !
 ! A107  A(41,46,45)           123.2246         estimate D2E/DX2                !
 ! A108  A(41,51,52)           115.4384         estimate D2E/DX2                !
 ! A109  A(41,51,53)           121.4893         estimate D2E/DX2                !
 ! A110  A(52,51,53)           123.0692         estimate D2E/DX2                !
 ! A111  A(51,53,54)           120.273          estimate D2E/DX2                !
 ! A112  A(53,54,55)           117.2215         estimate D2E/DX2                !
 ! A113  A(53,54,56)           108.4021         estimate D2E/DX2                !
 ! A114  A(53,54,57)           105.3757         estimate D2E/DX2                !
 ! A115  A(55,54,56)           110.6749         estimate D2E/DX2                !
 ! A116  A(55,54,57)           107.7456         estimate D2E/DX2                !
 ! A117  A(56,54,57)           106.8298         estimate D2E/DX2                !
 ! A118  A(54,55,58)           111.0006         estimate D2E/DX2                !
 ! A119  A(54,55,59)           109.0954         estimate D2E/DX2                !
 ! A120  A(54,55,60)           110.2029         estimate D2E/DX2                !
 ! A121  A(58,55,59)           109.3759         estimate D2E/DX2                !
 ! A122  A(58,55,60)           110.1162         estimate D2E/DX2                !
 ! A123  A(59,55,60)           106.954          estimate D2E/DX2                !
 ! A124  A(54,56,61)           111.3556         estimate D2E/DX2                !
 ! A125  A(54,56,62)           108.2768         estimate D2E/DX2                !
 ! A126  A(54,56,63)           109.145          estimate D2E/DX2                !
 ! A127  A(61,56,62)           109.8227         estimate D2E/DX2                !
 ! A128  A(61,56,63)           110.97           estimate D2E/DX2                !
 ! A129  A(62,56,63)           107.1413         estimate D2E/DX2                !
 ! A130  A(55,58,64)           111.5655         estimate D2E/DX2                !
 ! A131  A(55,58,65)           109.7528         estimate D2E/DX2                !
 ! A132  A(55,58,66)           109.1741         estimate D2E/DX2                !
 ! A133  A(64,58,65)           110.4156         estimate D2E/DX2                !
 ! A134  A(64,58,66)           109.1287         estimate D2E/DX2                !
 ! A135  A(65,58,66)           106.6714         estimate D2E/DX2                !
 ! A136  A(56,61,64)           111.4717         estimate D2E/DX2                !
 ! A137  A(56,61,67)           110.0015         estimate D2E/DX2                !
 ! A138  A(56,61,68)           109.0229         estimate D2E/DX2                !
 ! A139  A(64,61,67)           110.3741         estimate D2E/DX2                !
 ! A140  A(64,61,68)           109.051          estimate D2E/DX2                !
 ! A141  A(67,61,68)           106.7916         estimate D2E/DX2                !
 ! A142  A(58,64,61)           111.1265         estimate D2E/DX2                !
 ! A143  A(58,64,69)           110.1673         estimate D2E/DX2                !
 ! A144  A(58,64,70)           109.0745         estimate D2E/DX2                !
 ! A145  A(61,64,69)           110.1888         estimate D2E/DX2                !
 ! A146  A(61,64,70)           109.1998         estimate D2E/DX2                !
 ! A147  A(69,64,70)           106.9812         estimate D2E/DX2                !
 ! A148  A(31,72,73)           109.4712         estimate D2E/DX2                !
 ! A149  A(31,72,74)           109.4712         estimate D2E/DX2                !
 ! A150  A(31,72,75)           109.4712         estimate D2E/DX2                !
 ! A151  A(73,72,74)           109.4713         estimate D2E/DX2                !
 ! A152  A(73,72,75)           109.4712         estimate D2E/DX2                !
 ! A153  A(74,72,75)           109.4712         estimate D2E/DX2                !
 ! A154  A(31,76,77)           109.4712         estimate D2E/DX2                !
 ! A155  A(31,76,78)           109.4712         estimate D2E/DX2                !
 ! A156  A(31,76,79)           109.4712         estimate D2E/DX2                !
 ! A157  A(77,76,78)           109.4713         estimate D2E/DX2                !
 ! A158  A(77,76,79)           109.4712         estimate D2E/DX2                !
 ! A159  A(78,76,79)           109.4712         estimate D2E/DX2                !
 ! A160  A(31,80,81)           109.4712         estimate D2E/DX2                !
 ! A161  A(31,80,82)           109.4712         estimate D2E/DX2                !
 ! A162  A(31,80,83)           109.4712         estimate D2E/DX2                !
 ! A163  A(81,80,82)           109.4713         estimate D2E/DX2                !
 ! A164  A(81,80,83)           109.4712         estimate D2E/DX2                !
 ! A165  A(82,80,83)           109.4712         estimate D2E/DX2                !
 ! A166  A(30,84,85)           109.4712         estimate D2E/DX2                !
 ! A167  A(30,84,86)           109.4712         estimate D2E/DX2                !
 ! A168  A(30,84,87)           109.4712         estimate D2E/DX2                !
 ! A169  A(85,84,86)           109.4713         estimate D2E/DX2                !
 ! A170  A(85,84,87)           109.4712         estimate D2E/DX2                !
 ! A171  A(86,84,87)           109.4712         estimate D2E/DX2                !
 ! A172  A(30,88,89)           109.4712         estimate D2E/DX2                !
 ! A173  A(30,88,90)           109.4712         estimate D2E/DX2                !
 ! A174  A(30,88,91)           109.4712         estimate D2E/DX2                !
 ! A175  A(89,88,90)           109.4713         estimate D2E/DX2                !
 ! A176  A(89,88,91)           109.4712         estimate D2E/DX2                !
 ! A177  A(90,88,91)           109.4712         estimate D2E/DX2                !
 ! A178  A(30,92,93)           109.4712         estimate D2E/DX2                !
 ! A179  A(30,92,94)           109.4712         estimate D2E/DX2                !
 ! A180  A(30,92,95)           109.4712         estimate D2E/DX2                !
 ! A181  A(93,92,94)           109.4713         estimate D2E/DX2                !
 ! A182  A(93,92,95)           109.4712         estimate D2E/DX2                !
 ! A183  A(94,92,95)           109.4712         estimate D2E/DX2                !
 ! D1    D(6,1,2,3)              0.2797         estimate D2E/DX2                !
 ! D2    D(6,1,2,21)          -179.3835         estimate D2E/DX2                !
 ! D3    D(36,1,2,3)           179.8533         estimate D2E/DX2                !
 ! D4    D(36,1,2,21)            0.1901         estimate D2E/DX2                !
 ! D5    D(2,1,6,5)             -0.3279         estimate D2E/DX2                !
 ! D6    D(2,1,6,38)           179.3511         estimate D2E/DX2                !
 ! D7    D(36,1,6,5)          -179.7821         estimate D2E/DX2                !
 ! D8    D(36,1,6,38)           -0.1031         estimate D2E/DX2                !
 ! D9    D(2,1,36,7)            -0.2029         estimate D2E/DX2                !
 ! D10   D(2,1,36,37)          178.751          estimate D2E/DX2                !
 ! D11   D(6,1,36,7)           179.3223         estimate D2E/DX2                !
 ! D12   D(6,1,36,37)           -1.7238         estimate D2E/DX2                !
 ! D13   D(1,2,3,4)              0.0005         estimate D2E/DX2                !
 ! D14   D(1,2,3,8)            179.9181         estimate D2E/DX2                !
 ! D15   D(21,2,3,4)           179.5797         estimate D2E/DX2                !
 ! D16   D(21,2,3,8)            -0.5027         estimate D2E/DX2                !
 ! D17   D(1,2,21,7)            -0.0994         estimate D2E/DX2                !
 ! D18   D(3,2,21,7)          -179.7122         estimate D2E/DX2                !
 ! D19   D(2,3,4,5)             -0.2119         estimate D2E/DX2                !
 ! D20   D(2,3,4,9)            179.7088         estimate D2E/DX2                !
 ! D21   D(8,3,4,5)            179.871          estimate D2E/DX2                !
 ! D22   D(8,3,4,9)             -0.2084         estimate D2E/DX2                !
 ! D23   D(3,4,5,6)              0.1578         estimate D2E/DX2                !
 ! D24   D(3,4,5,10)           179.4983         estimate D2E/DX2                !
 ! D25   D(9,4,5,6)           -179.7633         estimate D2E/DX2                !
 ! D26   D(9,4,5,10)            -0.4228         estimate D2E/DX2                !
 ! D27   D(4,5,6,1)              0.1107         estimate D2E/DX2                !
 ! D28   D(4,5,6,38)          -179.5525         estimate D2E/DX2                !
 ! D29   D(10,5,6,1)          -179.228          estimate D2E/DX2                !
 ! D30   D(10,5,6,38)            1.1088         estimate D2E/DX2                !
 ! D31   D(1,6,38,39)            5.8219         estimate D2E/DX2                !
 ! D32   D(1,6,38,40)         -174.3389         estimate D2E/DX2                !
 ! D33   D(5,6,38,39)         -174.5276         estimate D2E/DX2                !
 ! D34   D(5,6,38,40)            5.3116         estimate D2E/DX2                !
 ! D35   D(21,7,16,11)           0.5011         estimate D2E/DX2                !
 ! D36   D(21,7,16,15)        -179.2347         estimate D2E/DX2                !
 ! D37   D(36,7,16,11)         179.7869         estimate D2E/DX2                !
 ! D38   D(36,7,16,15)           0.0511         estimate D2E/DX2                !
 ! D39   D(16,7,21,2)          179.3308         estimate D2E/DX2                !
 ! D40   D(36,7,21,2)           -0.0319         estimate D2E/DX2                !
 ! D41   D(16,7,36,1)         -179.2024         estimate D2E/DX2                !
 ! D42   D(16,7,36,37)           1.9565         estimate D2E/DX2                !
 ! D43   D(21,7,36,1)            0.1533         estimate D2E/DX2                !
 ! D44   D(21,7,36,37)        -178.6878         estimate D2E/DX2                !
 ! D45   D(16,11,12,13)         -0.0395         estimate D2E/DX2                !
 ! D46   D(16,11,12,34)       -179.6978         estimate D2E/DX2                !
 ! D47   D(33,11,12,13)        179.5947         estimate D2E/DX2                !
 ! D48   D(33,11,12,34)         -0.0636         estimate D2E/DX2                !
 ! D49   D(12,11,16,7)        -179.4893         estimate D2E/DX2                !
 ! D50   D(12,11,16,15)          0.27           estimate D2E/DX2                !
 ! D51   D(33,11,16,7)           0.9727         estimate D2E/DX2                !
 ! D52   D(33,11,16,15)       -179.268          estimate D2E/DX2                !
 ! D53   D(12,11,33,17)         -0.0851         estimate D2E/DX2                !
 ! D54   D(12,11,33,35)        179.7572         estimate D2E/DX2                !
 ! D55   D(16,11,33,17)        179.5066         estimate D2E/DX2                !
 ! D56   D(16,11,33,35)         -0.6511         estimate D2E/DX2                !
 ! D57   D(11,12,13,14)         -0.1365         estimate D2E/DX2                !
 ! D58   D(11,12,13,18)        179.8279         estimate D2E/DX2                !
 ! D59   D(34,12,13,14)        179.4154         estimate D2E/DX2                !
 ! D60   D(34,12,13,18)         -0.6203         estimate D2E/DX2                !
 ! D61   D(11,12,34,17)          0.1924         estimate D2E/DX2                !
 ! D62   D(11,12,34,71)        179.5299         estimate D2E/DX2                !
 ! D63   D(13,12,34,17)       -179.4113         estimate D2E/DX2                !
 ! D64   D(13,12,34,71)         -0.0738         estimate D2E/DX2                !
 ! D65   D(12,13,14,15)          0.0738         estimate D2E/DX2                !
 ! D66   D(12,13,14,19)        179.9897         estimate D2E/DX2                !
 ! D67   D(18,13,14,15)       -179.8903         estimate D2E/DX2                !
 ! D68   D(18,13,14,19)          0.0255         estimate D2E/DX2                !
 ! D69   D(13,14,15,16)          0.1698         estimate D2E/DX2                !
 ! D70   D(13,14,15,20)       -179.9686         estimate D2E/DX2                !
 ! D71   D(19,14,15,16)       -179.7465         estimate D2E/DX2                !
 ! D72   D(19,14,15,20)          0.1151         estimate D2E/DX2                !
 ! D73   D(14,15,16,7)         179.4129         estimate D2E/DX2                !
 ! D74   D(14,15,16,11)         -0.3318         estimate D2E/DX2                !
 ! D75   D(20,15,16,7)          -0.4479         estimate D2E/DX2                !
 ! D76   D(20,15,16,11)        179.8074         estimate D2E/DX2                !
 ! D77   D(33,17,23,22)        178.9981         estimate D2E/DX2                !
 ! D78   D(33,17,23,24)         -0.9389         estimate D2E/DX2                !
 ! D79   D(34,17,23,22)         -0.1278         estimate D2E/DX2                !
 ! D80   D(34,17,23,24)        179.9353         estimate D2E/DX2                !
 ! D81   D(23,17,33,11)       -179.0404         estimate D2E/DX2                !
 ! D82   D(23,17,33,35)          1.1349         estimate D2E/DX2                !
 ! D83   D(34,17,33,11)          0.2046         estimate D2E/DX2                !
 ! D84   D(34,17,33,35)       -179.62           estimate D2E/DX2                !
 ! D85   D(23,17,34,12)        179.023          estimate D2E/DX2                !
 ! D86   D(23,17,34,71)         -0.401          estimate D2E/DX2                !
 ! D87   D(33,17,34,12)         -0.2484         estimate D2E/DX2                !
 ! D88   D(33,17,34,71)       -179.6723         estimate D2E/DX2                !
 ! D89   D(27,22,23,17)       -179.4313         estimate D2E/DX2                !
 ! D90   D(27,22,23,24)          0.5062         estimate D2E/DX2                !
 ! D91   D(32,22,23,17)          0.5986         estimate D2E/DX2                !
 ! D92   D(32,22,23,24)       -179.4639         estimate D2E/DX2                !
 ! D93   D(23,22,27,26)         -0.5071         estimate D2E/DX2                !
 ! D94   D(23,22,27,31)        179.7241         estimate D2E/DX2                !
 ! D95   D(32,22,27,26)        179.4635         estimate D2E/DX2                !
 ! D96   D(32,22,27,31)         -0.3052         estimate D2E/DX2                !
 ! D97   D(17,23,24,25)        179.4859         estimate D2E/DX2                !
 ! D98   D(17,23,24,28)         -0.1598         estimate D2E/DX2                !
 ! D99   D(22,23,24,25)         -0.4501         estimate D2E/DX2                !
 ! D100  D(22,23,24,28)        179.9041         estimate D2E/DX2                !
 ! D101  D(23,24,25,26)          0.3772         estimate D2E/DX2                !
 ! D102  D(23,24,25,30)       -178.3741         estimate D2E/DX2                !
 ! D103  D(28,24,25,26)       -179.9722         estimate D2E/DX2                !
 ! D104  D(28,24,25,30)          1.2766         estimate D2E/DX2                !
 ! D105  D(24,25,26,27)         -0.3874         estimate D2E/DX2                !
 ! D106  D(24,25,26,29)        179.6142         estimate D2E/DX2                !
 ! D107  D(30,25,26,27)        178.3685         estimate D2E/DX2                !
 ! D108  D(30,25,26,29)         -1.6299         estimate D2E/DX2                !
 ! D109  D(24,25,30,84)         96.1147         estimate D2E/DX2                !
 ! D110  D(24,25,30,88)       -145.5926         estimate D2E/DX2                !
 ! D111  D(24,25,30,92)        -23.2235         estimate D2E/DX2                !
 ! D112  D(26,25,30,84)        -82.6255         estimate D2E/DX2                !
 ! D113  D(26,25,30,88)         35.6673         estimate D2E/DX2                !
 ! D114  D(26,25,30,92)        158.0364         estimate D2E/DX2                !
 ! D115  D(25,26,27,22)          0.4616         estimate D2E/DX2                !
 ! D116  D(25,26,27,31)       -179.7828         estimate D2E/DX2                !
 ! D117  D(29,26,27,22)       -179.54           estimate D2E/DX2                !
 ! D118  D(29,26,27,31)          0.2157         estimate D2E/DX2                !
 ! D119  D(22,27,31,72)        -61.7134         estimate D2E/DX2                !
 ! D120  D(22,27,31,76)        177.1854         estimate D2E/DX2                !
 ! D121  D(22,27,31,80)         55.9045         estimate D2E/DX2                !
 ! D122  D(26,27,31,72)        118.5269         estimate D2E/DX2                !
 ! D123  D(26,27,31,76)         -2.5743         estimate D2E/DX2                !
 ! D124  D(26,27,31,80)       -123.8552         estimate D2E/DX2                !
 ! D125  D(25,30,84,85)         83.8843         estimate D2E/DX2                !
 ! D126  D(25,30,84,86)       -156.1157         estimate D2E/DX2                !
 ! D127  D(25,30,84,87)        -36.1157         estimate D2E/DX2                !
 ! D128  D(88,30,84,85)        -36.7061         estimate D2E/DX2                !
 ! D129  D(88,30,84,86)         83.2939         estimate D2E/DX2                !
 ! D130  D(88,30,84,87)       -156.7061         estimate D2E/DX2                !
 ! D131  D(92,30,84,85)       -154.5934         estimate D2E/DX2                !
 ! D132  D(92,30,84,86)        -34.5934         estimate D2E/DX2                !
 ! D133  D(92,30,84,87)         85.4066         estimate D2E/DX2                !
 ! D134  D(25,30,88,89)        166.3391         estimate D2E/DX2                !
 ! D135  D(25,30,88,90)        -73.6608         estimate D2E/DX2                !
 ! D136  D(25,30,88,91)         46.3391         estimate D2E/DX2                !
 ! D137  D(84,30,88,89)        -73.8187         estimate D2E/DX2                !
 ! D138  D(84,30,88,90)         46.1813         estimate D2E/DX2                !
 ! D139  D(84,30,88,91)        166.1813         estimate D2E/DX2                !
 ! D140  D(92,30,88,89)         42.9106         estimate D2E/DX2                !
 ! D141  D(92,30,88,90)        162.9106         estimate D2E/DX2                !
 ! D142  D(92,30,88,91)        -77.0894         estimate D2E/DX2                !
 ! D143  D(25,30,92,93)        -48.4579         estimate D2E/DX2                !
 ! D144  D(25,30,92,94)         71.5421         estimate D2E/DX2                !
 ! D145  D(25,30,92,95)       -168.4579         estimate D2E/DX2                !
 ! D146  D(84,30,92,93)       -168.958          estimate D2E/DX2                !
 ! D147  D(84,30,92,94)        -48.958          estimate D2E/DX2                !
 ! D148  D(84,30,92,95)         71.042          estimate D2E/DX2                !
 ! D149  D(88,30,92,93)         74.6984         estimate D2E/DX2                !
 ! D150  D(88,30,92,94)       -165.3016         estimate D2E/DX2                !
 ! D151  D(88,30,92,95)        -45.3016         estimate D2E/DX2                !
 ! D152  D(27,31,72,73)         96.6528         estimate D2E/DX2                !
 ! D153  D(27,31,72,74)       -143.3472         estimate D2E/DX2                !
 ! D154  D(27,31,72,75)        -23.3472         estimate D2E/DX2                !
 ! D155  D(76,31,72,73)       -141.1541         estimate D2E/DX2                !
 ! D156  D(76,31,72,74)        -21.1541         estimate D2E/DX2                !
 ! D157  D(76,31,72,75)         98.8459         estimate D2E/DX2                !
 ! D158  D(80,31,72,73)        -23.461          estimate D2E/DX2                !
 ! D159  D(80,31,72,74)         96.539          estimate D2E/DX2                !
 ! D160  D(80,31,72,75)       -143.461          estimate D2E/DX2                !
 ! D161  D(27,31,76,77)       -178.2957         estimate D2E/DX2                !
 ! D162  D(27,31,76,78)        -58.2957         estimate D2E/DX2                !
 ! D163  D(27,31,76,79)         61.7043         estimate D2E/DX2                !
 ! D164  D(72,31,76,77)         59.7153         estimate D2E/DX2                !
 ! D165  D(72,31,76,78)        179.7153         estimate D2E/DX2                !
 ! D166  D(72,31,76,79)        -60.2847         estimate D2E/DX2                !
 ! D167  D(80,31,76,77)        -56.2226         estimate D2E/DX2                !
 ! D168  D(80,31,76,78)         63.7774         estimate D2E/DX2                !
 ! D169  D(80,31,76,79)       -176.2226         estimate D2E/DX2                !
 ! D170  D(27,31,80,81)        -89.8047         estimate D2E/DX2                !
 ! D171  D(27,31,80,82)         30.1953         estimate D2E/DX2                !
 ! D172  D(27,31,80,83)        150.1953         estimate D2E/DX2                !
 ! D173  D(72,31,80,81)         30.3169         estimate D2E/DX2                !
 ! D174  D(72,31,80,82)        150.3169         estimate D2E/DX2                !
 ! D175  D(72,31,80,83)        -89.6831         estimate D2E/DX2                !
 ! D176  D(76,31,80,81)        147.9114         estimate D2E/DX2                !
 ! D177  D(76,31,80,82)        -92.0885         estimate D2E/DX2                !
 ! D178  D(76,31,80,83)         27.9115         estimate D2E/DX2                !
 ! D179  D(6,38,39,45)         179.6816         estimate D2E/DX2                !
 ! D180  D(40,38,39,45)         -0.1747         estimate D2E/DX2                !
 ! D181  D(6,38,40,46)        -179.9354         estimate D2E/DX2                !
 ! D182  D(6,38,40,50)           2.9595         estimate D2E/DX2                !
 ! D183  D(39,38,40,46)         -0.0793         estimate D2E/DX2                !
 ! D184  D(39,38,40,50)       -177.1844         estimate D2E/DX2                !
 ! D185  D(38,39,45,44)       -179.8488         estimate D2E/DX2                !
 ! D186  D(38,39,45,46)          0.3589         estimate D2E/DX2                !
 ! D187  D(38,40,46,41)       -179.2002         estimate D2E/DX2                !
 ! D188  D(38,40,46,45)          0.2927         estimate D2E/DX2                !
 ! D189  D(50,40,46,41)         -1.7954         estimate D2E/DX2                !
 ! D190  D(50,40,46,45)        177.6975         estimate D2E/DX2                !
 ! D191  D(46,41,42,43)         -0.2071         estimate D2E/DX2                !
 ! D192  D(46,41,42,47)       -179.9412         estimate D2E/DX2                !
 ! D193  D(51,41,42,43)        178.6957         estimate D2E/DX2                !
 ! D194  D(51,41,42,47)         -1.0384         estimate D2E/DX2                !
 ! D195  D(42,41,46,40)       -179.9615         estimate D2E/DX2                !
 ! D196  D(42,41,46,45)          0.6224         estimate D2E/DX2                !
 ! D197  D(51,41,46,40)          1.1326         estimate D2E/DX2                !
 ! D198  D(51,41,46,45)       -178.2836         estimate D2E/DX2                !
 ! D199  D(42,41,51,52)          2.3768         estimate D2E/DX2                !
 ! D200  D(42,41,51,53)       -177.0015         estimate D2E/DX2                !
 ! D201  D(46,41,51,52)       -178.7879         estimate D2E/DX2                !
 ! D202  D(46,41,51,53)          1.8337         estimate D2E/DX2                !
 ! D203  D(41,42,43,44)         -0.1461         estimate D2E/DX2                !
 ! D204  D(41,42,43,48)       -179.9598         estimate D2E/DX2                !
 ! D205  D(47,42,43,44)        179.5859         estimate D2E/DX2                !
 ! D206  D(47,42,43,48)         -0.2279         estimate D2E/DX2                !
 ! D207  D(42,43,44,45)          0.1021         estimate D2E/DX2                !
 ! D208  D(42,43,44,49)       -179.4779         estimate D2E/DX2                !
 ! D209  D(48,43,44,45)        179.9151         estimate D2E/DX2                !
 ! D210  D(48,43,44,49)          0.3351         estimate D2E/DX2                !
 ! D211  D(43,44,45,39)       -179.4814         estimate D2E/DX2                !
 ! D212  D(43,44,45,46)          0.2932         estimate D2E/DX2                !
 ! D213  D(49,44,45,39)          0.101          estimate D2E/DX2                !
 ! D214  D(49,44,45,46)        179.8757         estimate D2E/DX2                !
 ! D215  D(39,45,46,40)         -0.4078         estimate D2E/DX2                !
 ! D216  D(39,45,46,41)        179.1357         estimate D2E/DX2                !
 ! D217  D(44,45,46,40)        179.7726         estimate D2E/DX2                !
 ! D218  D(44,45,46,41)         -0.6839         estimate D2E/DX2                !
 ! D219  D(41,51,53,54)        179.636          estimate D2E/DX2                !
 ! D220  D(52,51,53,54)          0.3059         estimate D2E/DX2                !
 ! D221  D(51,53,54,55)         -0.6025         estimate D2E/DX2                !
 ! D222  D(51,53,54,56)        125.5244         estimate D2E/DX2                !
 ! D223  D(51,53,54,57)       -120.3997         estimate D2E/DX2                !
 ! D224  D(53,54,55,58)       -178.8881         estimate D2E/DX2                !
 ! D225  D(53,54,55,59)         60.5175         estimate D2E/DX2                !
 ! D226  D(53,54,55,60)        -56.6251         estimate D2E/DX2                !
 ! D227  D(56,54,55,58)         56.1132         estimate D2E/DX2                !
 ! D228  D(56,54,55,59)        -64.4811         estimate D2E/DX2                !
 ! D229  D(56,54,55,60)        178.3763         estimate D2E/DX2                !
 ! D230  D(57,54,55,58)        -60.3538         estimate D2E/DX2                !
 ! D231  D(57,54,55,59)        179.0518         estimate D2E/DX2                !
 ! D232  D(57,54,55,60)         61.9092         estimate D2E/DX2                !
 ! D233  D(53,54,56,61)        174.2292         estimate D2E/DX2                !
 ! D234  D(53,54,56,62)        -64.9341         estimate D2E/DX2                !
 ! D235  D(53,54,56,63)         51.3751         estimate D2E/DX2                !
 ! D236  D(55,54,56,61)        -55.9182         estimate D2E/DX2                !
 ! D237  D(55,54,56,62)         64.9185         estimate D2E/DX2                !
 ! D238  D(55,54,56,63)       -178.7723         estimate D2E/DX2                !
 ! D239  D(57,54,56,61)         61.1144         estimate D2E/DX2                !
 ! D240  D(57,54,56,62)       -178.049          estimate D2E/DX2                !
 ! D241  D(57,54,56,63)        -61.7397         estimate D2E/DX2                !
 ! D242  D(54,55,58,64)        -56.0311         estimate D2E/DX2                !
 ! D243  D(54,55,58,65)       -178.7459         estimate D2E/DX2                !
 ! D244  D(54,55,58,66)         64.6651         estimate D2E/DX2                !
 ! D245  D(59,55,58,64)         64.3972         estimate D2E/DX2                !
 ! D246  D(59,55,58,65)        -58.3176         estimate D2E/DX2                !
 ! D247  D(59,55,58,66)       -174.9066         estimate D2E/DX2                !
 ! D248  D(60,55,58,64)       -178.3444         estimate D2E/DX2                !
 ! D249  D(60,55,58,65)         58.9407         estimate D2E/DX2                !
 ! D250  D(60,55,58,66)        -57.6483         estimate D2E/DX2                !
 ! D251  D(54,56,61,64)         55.2892         estimate D2E/DX2                !
 ! D252  D(54,56,61,67)        178.0615         estimate D2E/DX2                !
 ! D253  D(54,56,61,68)        -65.1504         estimate D2E/DX2                !
 ! D254  D(62,56,61,64)        -64.6369         estimate D2E/DX2                !
 ! D255  D(62,56,61,67)         58.1355         estimate D2E/DX2                !
 ! D256  D(62,56,61,68)        174.9236         estimate D2E/DX2                !
 ! D257  D(63,56,61,64)        177.0903         estimate D2E/DX2                !
 ! D258  D(63,56,61,67)        -60.1373         estimate D2E/DX2                !
 ! D259  D(63,56,61,68)         56.6508         estimate D2E/DX2                !
 ! D260  D(55,58,64,61)         55.0247         estimate D2E/DX2                !
 ! D261  D(55,58,64,69)        177.4409         estimate D2E/DX2                !
 ! D262  D(55,58,64,70)        -65.4165         estimate D2E/DX2                !
 ! D263  D(65,58,64,61)        177.3594         estimate D2E/DX2                !
 ! D264  D(65,58,64,69)        -60.2244         estimate D2E/DX2                !
 ! D265  D(65,58,64,70)         56.9183         estimate D2E/DX2                !
 ! D266  D(66,58,64,61)        -65.698          estimate D2E/DX2                !
 ! D267  D(66,58,64,69)         56.7181         estimate D2E/DX2                !
 ! D268  D(66,58,64,70)        173.8608         estimate D2E/DX2                !
 ! D269  D(56,61,64,58)        -54.5752         estimate D2E/DX2                !
 ! D270  D(56,61,64,69)       -176.9789         estimate D2E/DX2                !
 ! D271  D(56,61,64,70)         65.7918         estimate D2E/DX2                !
 ! D272  D(67,61,64,58)       -177.1339         estimate D2E/DX2                !
 ! D273  D(67,61,64,69)         60.4624         estimate D2E/DX2                !
 ! D274  D(67,61,64,70)        -56.7668         estimate D2E/DX2                !
 ! D275  D(68,61,64,58)         65.8478         estimate D2E/DX2                !
 ! D276  D(68,61,64,69)        -56.5559         estimate D2E/DX2                !
 ! D277  D(68,61,64,70)       -173.7851         estimate D2E/DX2                !
 --------------------------------------------------------------------------------
 Trust Radius=3.00D-01 FncErr=5.00D-06 GrdErr=5.00D-06 EigMax=2.50D+02 EigMin=1.00D-04
 Number of steps in this run=    570 maximum allowed number of steps=    570.
 GradGradGradGradGradGradGradGradGradGradGradGradGradGradGradGradGradGrad

 Leave Link  103 at Thu Dec 20 18:30:00 2018, MaxMem=  1342177280 cpu:               0.5 elap:               0.1
 (Enter /gpfs/apps/hpc/Apps/Restricted/Gaussian/Rev_A.03/g16/l202.exe)
 Symmetry turned off by external request.
 Stoichiometry    C42H45N7O(1+,2)
 Framework group  C1[X(C42H45N7O)]
 Deg. of freedom   279
 Full point group                 C1      NOp   1
                          Input orientation:                          
 ---------------------------------------------------------------------
 Center     Atomic      Atomic             Coordinates (Angstroms)
 Number     Number       Type             X           Y           Z
 ---------------------------------------------------------------------
      1          6           0        1.652067    0.370672    0.928188
      2          6           0        0.544838    1.202620    0.639525
      3          6           0        0.731582    2.583223    0.496126
      4          6           0        2.023660    3.080522    0.647550
      5          6           0        3.114395    2.242757    0.938706
      6          6           0        2.957788    0.860110    1.088741
      7          6           0       -0.201220   -0.822497    0.781721
      8          1           0       -0.102370    3.237271    0.273887
      9          1           0        2.199591    4.143984    0.537507
     10          1           0        4.101302    2.679120    1.038547
     11          6           0       -2.471613   -1.759353    0.555610
     12          6           0       -3.399259   -2.815238    0.567549
     13          6           0       -3.007614   -4.129888    0.822204
     14          6           0       -1.651951   -4.334081    1.059470
     15          6           0       -0.719896   -3.280318    1.047170
     16          6           0       -1.104049   -1.959888    0.798057
     17          6           0       -4.481799   -0.911627    0.101621
     18          1           0       -3.722187   -4.942120    0.834066
     19          1           0       -1.296934   -5.336504    1.262429
     20          1           0        0.321989   -3.503338    1.238696
     21          7           0       -0.600967    0.427558    0.555277
     22          6           0       -6.912306   -0.552224   -0.385253
     23          6           0       -5.556632   -0.009374   -0.228821
     24          6           0       -5.325876    1.343250   -0.398732
     25          6           0       -6.373117    2.226260   -0.732419
     26          6           0       -7.684452    1.717395   -0.887856
     27          6           0       -7.980313    0.383146   -0.732822
     28          1           0       -4.324978    1.743319   -0.281513
     29          1           0       -8.480094    2.410936   -1.138444
     30          6           0       -6.100816    3.680796   -0.948254
     31          6           0       -9.357950   -0.169550   -0.898176
     32          8           0       -7.164612   -1.772467   -0.229592
     33          7           0       -3.176041   -0.608688    0.267103
     34          7           0       -4.623602   -2.238964    0.284595
     35          1           0       -2.706178    0.294571    0.208696
     36          7           0        1.147438   -0.903362    1.008876
     37          1           0        1.735571   -1.710168    1.189971
     38          6           0        4.041635   -0.057114    1.398465
     39          7           0        3.906403   -1.381933    1.436929
     40          7           0        5.325839    0.338621    1.682728
     41          6           0        7.411157   -0.963700    2.265845
     42          6           0        7.835572   -2.286887    2.433087
     43          6           0        6.958342   -3.373469    2.267783
     44          6           0        5.618609   -3.187247    1.931331
     45          6           0        5.162986   -1.873642    1.757736
     46          6           0        6.061931   -0.794773    1.920037
     47          1           0        8.870153   -2.471761    2.701807
     48          1           0        7.336157   -4.379097    2.409216
     49          1           0        4.945191   -4.027648    1.813408
     50          1           0        5.725632    1.266550    1.767301
     51          6           0        8.307908    0.173468    2.462596
     52          1           0        9.341916   -0.081167    2.709382
     53          7           0        7.890367    1.380290    2.361074
     54          6           0        8.809836    2.499209    2.571311
     55          6           0       10.261352    2.156920    2.925358
     56          6           0        8.753337    3.412819    1.335460
     57          1           0        8.386207    3.071190    3.409792
     58          6           0       11.089028    3.429138    3.140391
     59          1           0       10.701002    1.570321    2.109351
     60          1           0       10.294002    1.530537    3.822257
     61          6           0        9.584395    4.683119    1.542286
     62          1           0        9.138954    2.851948    0.475060
     63          1           0        7.709399    3.658818    1.118449
     64          6           0       11.032834    4.351026    1.917649
     65          1           0       12.125267    3.161896    3.369723
     66          1           0       10.701907    3.967452    4.014655
     67          1           0        9.556800    5.299698    0.638686
     68          1           0        9.133633    5.278427    2.346095
     69          1           0       11.592949    5.270958    2.112585
     70          1           0       11.520029    3.852697    1.070177
     71          1           0       -5.549925   -2.657834    0.193638
     72          6           0       -9.395569   -1.193839   -2.047531
     73          1           0       -9.301580   -2.181952   -1.647906
     74          1           0      -10.324483   -1.107919   -2.571589
     75          1           0       -8.586783   -1.003329   -2.721675
     76          6           0      -10.369080    0.954023   -1.192791
     77          1           0      -11.350886    0.537137   -1.277429
     78          1           0      -10.351994    1.667336   -0.395424
     79          1           0      -10.106900    1.438262   -2.110219
     80          6           0       -9.794170   -0.923317    0.371921
     81          1           0       -9.504978   -1.950550    0.294071
     82          1           0       -9.323614   -0.484105    1.226655
     83          1           0      -10.857004   -0.859017    0.477508
     84          6           0       -5.921769    3.959712   -2.452165
     85          1           0       -6.881178    4.091874   -2.907101
     86          1           0       -5.339446    4.847735   -2.583369
     87          1           0       -5.420280    3.133319   -2.910949
     88          6           0       -7.283249    4.540113   -0.463459
     89          1           0       -6.979219    5.564307   -0.404353
     90          1           0       -8.096704    4.448734   -1.152547
     91          1           0       -7.595385    4.204357    0.503360
     92          6           0       -4.812454    4.124030   -0.230434
     93          1           0       -4.826857    3.770009    0.779201
     94          1           0       -3.963109    3.717711   -0.738782
     95          1           0       -4.752235    5.192331   -0.232974
 ---------------------------------------------------------------------
 Rotational constants (GHZ):           0.1242037           0.0177257           0.0156536
 Leave Link  202 at Thu Dec 20 18:30:00 2018, MaxMem=  1342177280 cpu:               0.7 elap:               0.1
 (Enter /gpfs/apps/hpc/Apps/Restricted/Gaussian/Rev_A.03/g16/l301.exe)
 Standard basis: 6-31G(d,p) (6D, 7F)
 Ernie: Thresh=  0.10000D-02 Tol=  0.10000D-05 Strict=F.
   975 basis functions,  1715 primitive gaussians,   975 cartesian basis functions
   177 alpha electrons      176 beta electrons
       nuclear repulsion energy      5767.8267354796 Hartrees.
 IExCor=  402 DFT=T Ex+Corr=B3LYP ExCW=0 ScaHFX=  0.200000
 ScaDFX=  0.800000  0.720000  1.000000  0.810000 ScalE2=  1.000000  1.000000
 IRadAn=      5 IRanWt=     -1 IRanGd=            0 ICorTp=0 IEmpDi=141
 NAtoms=   95 NActive=   95 NUniq=   95 SFac= 1.00D+00 NAtFMM=   60 NAOKFM=T Big=T
 Integral buffers will be    131072 words long.
 Raffenetti 2 integral format.
 Two-electron integral symmetry is turned off.
 R6Disp:  Grimme-D3(BJ) Dispersion energy=       -0.2221307892 Hartrees.
 Nuclear repulsion after empirical dispersion term =     5767.6046046905 Hartrees.
 Using the following non-standard input for PCM:
 radii=bondi
 dis
 rep
 cav
 --- end of non-standard input.
 ------------------------------------------------------------------------------
 Polarizable Continuum Model (PCM)
 =================================
 Model                : C-PCM.
 Atomic radii         : Bondi.
 Polarization charges : Total charges.
 Charge compensation  : None.
 Solution method      : On-the-fly selection.
 Cavity type          : Scaled VdW (van der Waals Surface) (Alpha=1.100).
 Cavity algorithm     : GePol (No added spheres)
                        Default sphere list used, NSphG=   95.
                        Lebedev-Laikov grids with approx.  5.0 points / Ang**2.
                        Smoothing algorithm: York/Karplus (Gamma=1.0000).
                        Polarization charges: spherical gaussians, with
                                              point-specific exponents (IZeta= 3).
                        Self-potential: point-specific (ISelfS= 7).
                        Self-field    : sphere-specific E.n sum rule (ISelfD= 2).
 1st derivatives      : Analytical E(r).r(x)/FMM algorithm (CHGder, D1EAlg=3).
                        Cavity 1st derivative terms included.
 Solvent              : Dichloromethane, Eps=   8.930000 Eps(inf)=   2.028346
 ------------------------------------------------------------------------------
 GePol: Number of generator spheres                  =      95
 GePol: Total number of spheres                      =      95
 GePol: Number of exposed spheres                    =      95 (100.00%)
 GePol: Number of points                             =    6172
 GePol: Average weight of points                     =       0.12
 GePol: Minimum weight of points                     =   0.13D-11
 GePol: Maximum weight of points                     =    0.21770
 GePol: Number of points with low weight             =     431
 GePol: Fraction of low-weight points (<1% of avg)   =       6.98%
 GePol: Cavity surface area                          =    726.093 Ang**2
 GePol: Cavity volume                                =    718.603 Ang**3
 PCM non-electrostatic energy =         0.0304172524 Hartrees.
 Nuclear repulsion after PCM non-electrostatic terms =     5767.6350219429 Hartrees.
 Leave Link  301 at Thu Dec 20 18:30:00 2018, MaxMem=  1342177280 cpu:               6.0 elap:               0.4
 (Enter /gpfs/apps/hpc/Apps/Restricted/Gaussian/Rev_A.03/g16/l302.exe)
 NPDir=0 NMtPBC=     1 NCelOv=     1 NCel=       1 NClECP=     1 NCelD=      1
         NCelK=      1 NCelE2=     1 NClLst=     1 CellRange=     0.0.
 One-electron integrals computed using PRISM.
 NBasis=   975 RedAO= T EigKep=  2.71D-04  NBF=   975
 NBsUse=   975 1.00D-06 EigRej= -1.00D+00 NBFU=   975
 Precomputing XC quadrature grid using
 IXCGrd= 4 IRadAn=           5 IRanWt=          -1 IRanGd=           0 AccXCQ= 0.00D+00.
 Generated NRdTot=       0 NPtTot=           0 NUsed=           0 NTot=          32
 NSgBfM=   836   835   835   835   836 MxSgAt=    95 MxSgA2=    95.
 Leave Link  302 at Thu Dec 20 18:30:04 2018, MaxMem=  1342177280 cpu:              50.1 elap:               3.2
 (Enter /gpfs/apps/hpc/Apps/Restricted/Gaussian/Rev_A.03/g16/l303.exe)
 DipDrv:  MaxL=1.
[...]
   D248      -3.11656   0.00006   0.00093  -0.00328  -0.00235  -3.11891
   D249       1.02676   0.00002   0.00060  -0.00352  -0.00291   1.02385
   D250      -1.00914   0.00013   0.00079  -0.00369  -0.00290  -1.01204
   D251       0.95672   0.00032   0.00166   0.00297   0.00463   0.96134
   D252       3.10050   0.00024   0.00142   0.00241   0.00383   3.10434
   D253      -1.14528   0.00018   0.00169   0.00236   0.00406  -1.14122
   D254      -1.13498   0.00009   0.00134   0.00276   0.00411  -1.13087
   D255       1.00881   0.00002   0.00110   0.00221   0.00331   1.01212
   D256       3.04621  -0.00005   0.00137   0.00216   0.00353   3.04975
   D257       3.08666   0.00016   0.00064   0.00270   0.00334   3.09000
   D258      -1.05274   0.00008   0.00039   0.00215   0.00254  -1.05020
   D259       0.98467   0.00002   0.00066   0.00210   0.00276   0.98743
   D260       0.96678  -0.00000  -0.00136   0.00320   0.00184   0.96863
   D261       3.10152   0.00003  -0.00083   0.00416   0.00334   3.10485
   D262      -1.13773   0.00011  -0.00089   0.00498   0.00409  -1.13363
   D263       3.09989   0.00000  -0.00095   0.00316   0.00221   3.10211
   D264      -1.04856   0.00004  -0.00042   0.00413   0.00371  -1.04485
   D265       0.99538   0.00012  -0.00048   0.00494   0.00446   0.99985
   D266      -1.14394   0.00018  -0.00062   0.00476   0.00414  -1.13980
   D267       0.99080   0.00022  -0.00009   0.00572   0.00563   0.99643
   D268       3.03474   0.00030  -0.00015   0.00653   0.00639   3.04112
   D269      -0.95380  -0.00011   0.00019  -0.00275  -0.00257  -0.95637
   D270      -3.08801  -0.00024  -0.00024  -0.00446  -0.00470  -3.09271
   D271       1.14851  -0.00011  -0.00008  -0.00378  -0.00386   1.14465
   D272      -3.09300   0.00017   0.00022  -0.00050  -0.00028  -3.09328
   D273       1.05599   0.00004  -0.00021  -0.00221  -0.00242   1.05357
   D274      -0.99068   0.00017  -0.00005  -0.00153  -0.00157  -0.99225
   D275       1.14931  -0.00001  -0.00008  -0.00214  -0.00222   1.14710
   D276      -0.98489  -0.00014  -0.00050  -0.00385  -0.00436  -0.98924
   D277      -3.03156  -0.00001  -0.00034  -0.00317  -0.00351  -3.03507
         Item               Value     Threshold  Converged?
 Maximum Force            0.010657     0.000015     NO 
 RMS     Force            0.001239     0.000010     NO 
 Maximum Displacement     1.022238     0.000060     NO 
 RMS     Displacement     0.193373     0.000040     NO 
 Predicted change in Energy=-2.631566D-03
 Lowest energy point so far.  Saving SCF results.
 GradGradGradGradGradGradGradGradGradGradGradGradGradGradGradGradGradGrad

 Leave Link  103 at Thu Dec 20 19:12:25 2018, MaxMem=  1342177280 cpu:              10.4 elap:               0.8
 (Enter /gpfs/apps/hpc/Apps/Restricted/Gaussian/Rev_A.03/g16/l202.exe)
 Symmetry turned off by external request.
 Stoichiometry    C42H45N7O(1+,2)
 Framework group  C1[X(C42H45N7O)]
 Deg. of freedom   279
 Full point group                 C1      NOp   1
                          Input orientation:                          
 ---------------------------------------------------------------------
 Center     Atomic      Atomic             Coordinates (Angstroms)
 Number     Number       Type             X           Y           Z
 ---------------------------------------------------------------------
      1          6           0        1.641370    0.322880    0.932338
      2          6           0        0.521717    1.146260    0.667480
      3          6           0        0.690199    2.530529    0.538277
      4          6           0        1.977736    3.041379    0.682134
      5          6           0        3.081098    2.212719    0.951307
      6          6           0        2.942818    0.826382    1.085280
      7          6           0       -0.201824   -0.887170    0.798118
      8          1           0       -0.155219    3.175775    0.333226
      9          1           0        2.140330    4.108020    0.583367
     10          1           0        4.063107    2.660448    1.048998
     11          6           0       -2.466159   -1.829954    0.581871
     12          6           0       -3.394303   -2.884684    0.593113
     13          6           0       -3.000100   -4.199749    0.841715
     14          6           0       -1.642746   -4.404043    1.071222
     15          6           0       -0.710193   -3.350655    1.056915
     16          6           0       -1.097540   -2.029745    0.816229
     17          6           0       -4.475548   -0.976268    0.135905
     18          1           0       -3.712461   -5.013882    0.852762
     19          1           0       -1.286893   -5.407586    1.267283
     20          1           0        0.332858   -3.572961    1.243501
     21          7           0       -0.616037    0.360475    0.584345
     22          6           0       -6.903059   -0.586230   -0.356709
     23          6           0       -5.540480   -0.060990   -0.196247
     24          6           0       -5.274547    1.284908   -0.368803
     25          6           0       -6.298611    2.192877   -0.696537
     26          6           0       -7.611218    1.691311   -0.879036
     27          6           0       -7.955759    0.367371   -0.730896
     28          1           0       -4.263957    1.648857   -0.243661
     29          1           0       -8.383938    2.394153   -1.155409
     30          6           0       -6.011851    3.673126   -0.926109
     31          6           0       -9.389462   -0.117134   -0.935241
     32          8           0       -7.137617   -1.807805   -0.181103
     33          7           0       -3.168698   -0.677233    0.301267
     34          7           0       -4.618959   -2.304554    0.315641
     35          1           0       -2.691676    0.222765    0.243626
     36          7           0        1.150099   -0.956833    1.009668
     37          1           0        1.747455   -1.759657    1.178350
     38          6           0        4.039904   -0.080854    1.378291
     39          7           0        3.925787   -1.408152    1.386550
     40          7           0        5.316064    0.328826    1.678748
     41          6           0        7.417263   -0.952819    2.250245
     42          6           0        7.864656   -2.272739    2.378953
     43          6           0        7.009068   -3.369544    2.172227
     44          6           0        5.667095   -3.196707    1.838009
     45          6           0        5.189017   -1.886805    1.701378
     46          6           0        6.067597   -0.797465    1.900733
     47          1           0        8.901551   -2.447602    2.645156
     48          1           0        7.404783   -4.372331    2.281769
     49          1           0        5.009447   -4.044462    1.688620
     50          1           0        5.701380    1.261005    1.780201
     51          6           0        8.296610    0.193326    2.469175
     52          1           0        9.332399   -0.050834    2.718211
     53          7           0        7.858185    1.394915    2.396154
     54          6           0        8.760078    2.528580    2.608938
     55          6           0       10.215562    2.210483    2.969960
     56          6           0        8.694910    3.426639    1.360922
     57          1           0        8.324903    3.101704    3.440157
     58          6           0       11.030207    3.495026    3.162418
     59          1           0       10.664888    1.617014    2.164233
     60          1           0       10.254625    1.599232    3.877195
     61          6           0        9.518665    4.705504    1.542204
     62          1           0        9.080350    2.853955    0.508109
     63          1           0        7.648932    3.662590    1.142966
     64          6           0       10.969544    4.389357    1.919743
     65          1           0       12.067937    3.242068    3.400393
     66          1           0       10.635573    4.048746    4.023538
     67          1           0        9.483264    5.303286    0.626457
     68          1           0        9.067183    5.314187    2.335529
     69          1           0       11.525992    5.315820    2.092586
     70          1           0       11.457516    3.875152    1.082364
     71          1           0       -5.544898   -2.722170    0.226413
     72          6           0       -9.434325   -1.193281   -2.041776
     73          1           0       -8.978741   -2.121248   -1.701948
     74          1           0      -10.472788   -1.386779   -2.321708
     75          1           0       -8.902228   -0.854680   -2.933952
     76          6           0      -10.302925    1.038448   -1.356574
     77          1           0      -11.314512    0.656483   -1.509018
     78          1           0      -10.351736    1.817286   -0.591040
     79          1           0       -9.974018    1.499270   -2.291744
     80          6           0       -9.921818   -0.699970    0.388979
     81          1           0       -9.349951   -1.578477    0.685486
     82          1           0       -9.860893    0.044939    1.186647
     83          1           0      -10.970936   -0.983396    0.272935
     84          6           0       -6.031806    3.905058   -2.451629
     85          1           0       -6.991073    3.605724   -2.879548
     86          1           0       -5.874862    4.966787   -2.660997
     87          1           0       -5.238960    3.336986   -2.942002
     88          6           0       -7.092830    4.549454   -0.274695
     89          1           0       -6.872274    5.600115   -0.477638
     90          1           0       -8.088881    4.344534   -0.669328
     91          1           0       -7.112444    4.409567    0.808217
     92          6           0       -4.646531    4.098349   -0.371284
     93          1           0       -4.568935    3.900937    0.700407
     94          1           0       -3.819178    3.597737   -0.879205
     95          1           0       -4.518049    5.171773   -0.527639
 ---------------------------------------------------------------------
 Rotational constants (GHZ):           0.1228051           0.0178175           0.0157118
 Leave Link  202 at Thu Dec 20 19:12:25 2018, MaxMem=  1342177280 cpu:               0.1 elap:               0.0
 (Enter /gpfs/apps/hpc/Apps/Restricted/Gaussian/Rev_A.03/g16/l301.exe)
 Standard basis: 6-31G(d,p) (6D, 7F)
 Ernie: Thresh=  0.10000D-02 Tol=  0.10000D-05 Strict=F.
   975 basis functions,  1715 primitive gaussians,   975 cartesian basis functions
   177 alpha electrons      176 beta electrons
       nuclear repulsion energy      5762.6465646439 Hartrees.
 IExCor=  402 DFT=T Ex+Corr=B3LYP ExCW=0 ScaHFX=  0.200000
 ScaDFX=  0.800000  0.720000  1.000000  0.810000 ScalE2=  1.000000  1.000000
 IRadAn=      5 IRanWt=     -1 IRanGd=            0 ICorTp=0 IEmpDi=141
 NAtoms=   95 NActive=   95 NUniq=   95 SFac= 1.00D+00 NAtFMM=   60 NAOKFM=T Big=T
 Integral buffers will be    131072 words long.
 Raffenetti 2 integral format.
 Two-electron integral symmetry is turned off.
 R6Disp:  Grimme-D3(BJ) Dispersion energy=       -0.2211582409 Hartrees.
 Nuclear repulsion after empirical dispersion term =     5762.4254064030 Hartrees.
 ------------------------------------------------------------------------------
 Polarizable Continuum Model (PCM)
 =================================
 Model                : C-PCM.
 Atomic radii         : Bondi.
 Polarization charges : Total charges.
 Charge compensation  : None.
 Solution method      : On-the-fly selection.
 Cavity type          : Scaled VdW (van der Waals Surface) (Alpha=1.100).
 Cavity algorithm     : GePol (No added spheres)
                        Default sphere list used, NSphG=   95.
                        Lebedev-Laikov grids with approx.  5.0 points / Ang**2.
                        Smoothing algorithm: York/Karplus (Gamma=1.0000).
                        Polarization charges: spherical gaussians, with
                                              point-specific exponents (IZeta= 3).
                        Self-potential: point-specific (ISelfS= 7).
                        Self-field    : sphere-specific E.n sum rule (ISelfD= 2).
 1st derivatives      : Analytical E(r).r(x)/FMM algorithm (CHGder, D1EAlg=3).
                        Cavity 1st derivative terms included.
 Solvent              : Dichloromethane, Eps=   8.930000 Eps(inf)=   2.028346
 ------------------------------------------------------------------------------
 GePol: Number of generator spheres                  =      95
 GePol: Total number of spheres                      =      95
 GePol: Number of exposed spheres                    =      95 (100.00%)
 GePol: Number of points                             =    6219
 GePol: Average weight of points                     =       0.12
 GePol: Minimum weight of points                     =   0.59D-11
 GePol: Maximum weight of points                     =    0.21770
 GePol: Number of points with low weight             =     437
 GePol: Fraction of low-weight points (<1% of avg)   =       7.03%
 GePol: Cavity surface area                          =    734.022 Ang**2
 GePol: Cavity volume                                =    722.509 Ang**3
 PCM non-electrostatic energy =         0.0317046599 Hartrees.
 Nuclear repulsion after PCM non-electrostatic terms =     5762.4571110629 Hartrees.
 Leave Link  301 at Thu Dec 20 19:12:26 2018, MaxMem=  1342177280 cpu:               6.1 elap:               0.4
 (Enter /gpfs/apps/hpc/Apps/Restricted/Gaussian/Rev_A.03/g16/l302.exe)
 NPDir=0 NMtPBC=     1 NCelOv=     1 NCel=       1 NClECP=     1 NCelD=      1
         NCelK=      1 NCelE2=     1 NClLst=     1 CellRange=     0.0.
 One-electron integrals computed using PRISM.
 NBasis=   975 RedAO= T EigKep=  2.71D-04  NBF=   975
 NBsUse=   975 1.00D-06 EigRej= -1.00D+00 NBFU=   975
 Precomputing XC quadrature grid using
 IXCGrd= 4 IRadAn=           5 IRanWt=          -1 IRanGd=           0 AccXCQ= 0.00D+00.
 Generated NRdTot=       0 NPtTot=           0 NUsed=           0 NTot=          32
 NSgBfM=   839   835   835   835   839 MxSgAt=    95 MxSgA2=    95.
 Leave Link  302 at Thu Dec 20 19:12:29 2018, MaxMem=  1342177280 cpu:              46.9 elap:               3.0
 (Enter /gpfs/apps/hpc/Apps/Restricted/Gaussian/Rev_A.03/g16/l303.exe)
 DipDrv:  MaxL=1.
 Leave Link  303 at Thu Dec 20 19:12:29 2018, MaxMem=  1342177280 cpu:               1.8 elap:               0.1
 (Enter /gpfs/apps/hpc/Apps/Restricted/Gaussian/Rev_A.03/g16/l401.exe)
 Initial guess from the checkpoint file:  "cyclohexyl-triBIP-E1PT.chk"
 B after Tr=     0.001489   -0.018478    0.019440
         Rot=    0.999998    0.000822   -0.001801    0.000355 Ang=   0.23 deg.
 Guess basis will be translated and rotated to current coordinates.
 JPrj=2 DoOrth=T DoCkMO=T.
 Initial guess <Sx>= 0.0000 <Sy>= 0.0000 <Sz>= 0.5000 <S**2>= 0.7722 S= 0.5111
 Generating alternative initial guess.
 ExpMin= 1.61D-01 ExpMax= 5.48D+03 ExpMxC= 8.25D+02 IAcc=2 IRadAn=         4 AccDes= 0.00D+00
 Harris functional with IExCor=  402 and IRadAn=       4 diagonalized for initial guess.
 HarFok:  IExCor=  402 AccDes= 0.00D+00 IRadAn=         4 IDoV= 1 UseB2=F ITyADJ=14
 ICtDFT=  3500011 ScaDFX=  1.000000  1.000000  1.000000  1.000000
 FoFCou: FMM=F IPFlag=           0 FMFlag=      100000 FMFlg1=        2001
         NFxFlg=           0 DoJE=T BraDBF=F KetDBF=T FulRan=T
         wScrn=  0.000000 ICntrl=       500 IOpCl=  0 I1Cent=   200000004 NGrid=           0
         NMat0=    1 NMatS0=      1 NMatT0=    0 NMatD0=    1 NMtDS0=    0 NMtDT0=    0
 Symmetry not used in FoFCou.
 Harris En= -2086.16413088953    
 Leave Link  401 at Thu Dec 20 19:12:39 2018, MaxMem=  1342177280 cpu:             156.3 elap:               9.8
 (Enter /gpfs/apps/hpc/Apps/Restricted/Gaussian/Rev_A.03/g16/l502.exe)
 Two-electron integral symmetry not used.
 UHF open shell SCF:
 Using DIIS extrapolation, IDIIS=  1040.
 NGot=  1342177280 LenX=  1340252438 LenY=  1339300838
 Requested convergence on RMS density matrix=1.00D-08 within 128 cycles.
 Requested convergence on MAX density matrix=1.00D-06.
 Requested convergence on             energy=1.00D-06.
 No special actions if energy rises.
 Fock matrices will be formed incrementally for  20 cycles.

 Cycle   1  Pass 1  IDiag  1:
 FoFJK:  IHMeth= 1 ICntrl=       0 DoSepK=F KAlg= 0 I1Cent=           0 FoldK=F
 IRaf= 540000000 NMat=       1 IRICut=       1 DoRegI=T DoRafI=F ISym2E= 0 IDoP0=0 IntGTp=1.
 FoFCou: FMM=T IPFlag=           0 FMFlag=      100000 FMFlg1=        2001
         NFxFlg=           0 DoJE=F BraDBF=F KetDBF=F FulRan=T
         wScrn=  0.000000 ICntrl=         0 IOpCl=  1 I1Cent=           0 NGrid=           0
         NMat0=    1 NMatS0=      1 NMatT0=    0 NMatD0=    1 NMtDS0=    0 NMtDT0=    0
 Symmetry not used in FoFCou.
 FMM levels:  10  Number of levels for PrismC:   9
 Inv3:  Mode=1 IEnd=   116027883.
 Iteration    1 A*A^-1 deviation from unit magnitude is 3.22D-14 for   1922.
 Iteration    1 A*A^-1 deviation from orthogonality  is 1.13D-14 for   5732    363.
 Iteration    1 A^-1*A deviation from unit magnitude is 3.22D-14 for   1922.
 Iteration    1 A^-1*A deviation from orthogonality  is 5.02D-15 for   5545   1158.
 E= -2086.17038845710    
 DIIS: error= 9.31D-03 at cycle   1 NSaved=   1.
 NSaved= 1 IEnMin= 1 EnMin= -2086.17038845710     IErMin= 1 ErrMin= 9.31D-03
 ErrMax= 9.31D-03  0.00D+00 EMaxC= 1.00D-01 BMatC= 2.40D-01 BMatP= 2.40D-01
 IDIUse=3 WtCom= 9.07D-01 WtEn= 9.31D-02
 Coeff-Com:  0.100D+01
 Coeff-En:   0.100D+01
 Coeff:      0.100D+01
 Gap=     1.587 Goal=   None    Shift=    0.000
 Gap=     1.589 Goal=   None    Shift=    0.000
 GapD=    1.587 DampG=2.000 DampE=1.000 DampFc=2.0000 IDamp=-1.
 RMSDP=3.95D-04 MaxDP=3.86D-02              OVMax= 5.11D-02

 Cycle   2  Pass 1  IDiag  1:
 RMSU=  3.95D-04    CP:  9.98D-01
 E= -2086.29033140382     Delta-E=       -0.119942946720 Rises=F Damp=F
 DIIS: error= 8.35D-04 at cycle   2 NSaved=   2.
 NSaved= 2 IEnMin= 2 EnMin= -2086.29033140382     IErMin= 2 ErrMin= 8.35D-04
 ErrMax= 8.35D-04  0.00D+00 EMaxC= 1.00D-01 BMatC= 2.72D-03 BMatP= 2.40D-01
 IDIUse=3 WtCom= 9.92D-01 WtEn= 8.35D-03
 Coeff-Com: -0.811D-01 0.108D+01
 Coeff-En:   0.000D+00 0.100D+01
 Coeff:     -0.804D-01 0.108D+01
 Gap=     0.130 Goal=   None    Shift=    0.000
 Gap=     0.055 Goal=   None    Shift=    0.000
 RMSDP=6.01D-05 MaxDP=4.43D-03 DE=-1.20D-01 OVMax= 6.75D-03

 Cycle   3  Pass 1  IDiag  1:
 RMSU=  4.41D-05    CP:  9.98D-01  1.10D+00
 E= -2086.29159738304     Delta-E=       -0.001265979226 Rises=F Damp=F
 DIIS: error= 3.50D-04 at cycle   3 NSaved=   3.
 NSaved= 3 IEnMin= 3 EnMin= -2086.29159738304     IErMin= 3 ErrMin= 3.50D-04
 ErrMax= 3.50D-04  0.00D+00 EMaxC= 1.00D-01 BMatC= 1.10D-03 BMatP= 2.72D-03
 IDIUse=3 WtCom= 9.97D-01 WtEn= 3.50D-03
 Coeff-Com: -0.415D-01 0.505D+00 0.537D+00
 Coeff-En:   0.000D+00 0.000D+00 0.100D+01
 Coeff:     -0.414D-01 0.503D+00 0.538D+00
 Gap=     0.130 Goal=   None    Shift=    0.000
 Gap=     0.055 Goal=   None    Shift=    0.000
 RMSDP=2.33D-05 MaxDP=3.36D-03 DE=-1.27D-03 OVMax= 3.65D-03

 Cycle   4  Pass 1  IDiag  1:
 RMSU=  1.96D-05    CP:  9.98D-01  1.11D+00  7.23D-01
 E= -2086.29180234212     Delta-E=       -0.000204959074 Rises=F Damp=F
 DIIS: error= 2.12D-04 at cycle   4 NSaved=   4.
 NSaved= 4 IEnMin= 4 EnMin= -2086.29180234212     IErMin= 4 ErrMin= 2.12D-04
 ErrMax= 2.12D-04  0.00D+00 EMaxC= 1.00D-01 BMatC= 2.42D-04 BMatP= 1.10D-03
 IDIUse=3 WtCom= 9.98D-01 WtEn= 2.12D-03
 Coeff-Com: -0.999D-02 0.109D+00 0.322D+00 0.579D+00
 Coeff-En:   0.000D+00 0.000D+00 0.164D+00 0.836D+00
 Coeff:     -0.997D-02 0.109D+00 0.322D+00 0.580D+00
 Gap=     0.131 Goal=   None    Shift=    0.000
 Gap=     0.055 Goal=   None    Shift=    0.000
 RMSDP=1.00D-05 MaxDP=2.17D-03 DE=-2.05D-04 OVMax= 2.00D-03

 Cycle   5  Pass 1  IDiag  1:
 RMSU=  6.27D-06    CP:  9.98D-01  1.11D+00  8.29D-01  6.85D-01
