 Entering Gaussian System, Link 0=g16
 Input=cyclohexyl-monoBIP-TS1.com
 Output=cyclohexyl-monoBIP-TS1.log
 Initial command:
 /gpfs/apps/hpc/Apps/Restricted/Gaussian/Rev_A.03/g16/l1.exe "/gpfs/scratch60/fas/hammes_schiffer/jg2487/c44n02/Gau-139311.inp" -scrdir="/gpfs/scratch60/fas/hammes_schiffer/jg2487/c44n02/"
 Entering Link 1 = /gpfs/apps/hpc/Apps/Restricted/Gaussian/Rev_A.03/g16/l1.exe PID=    139312.
  
 Copyright (c) 1988,1990,1992,1993,1995,1998,2003,2009,2016,
            Gaussian, Inc.  All Rights Reserved.
  
 This is part of the Gaussian(R) 16 program.  It is based on
 the Gaussian(R) 09 system (copyright 2009, Gaussian, Inc.),
 the Gaussian(R) 03 system (copyright 2003, Gaussian, Inc.),
 the Gaussian(R) 98 system (copyright 1998, Gaussian, Inc.),
 the Gaussian(R) 94 system (copyright 1995, Gaussian, Inc.),
 the Gaussian 92(TM) system (copyright 1992, Gaussian, Inc.),
 the Gaussian 90(TM) system (copyright 1990, Gaussian, Inc.),
 the Gaussian 88(TM) system (copyright 1988, Gaussian, Inc.),
 the Gaussian 86(TM) system (copyright 1986, Carnegie Mellon
 University), and the Gaussian 82(TM) system (copyright 1983,
 Carnegie Mellon University). Gaussian is a federally registered
 trademark of Gaussian, Inc.
  
 This software contains proprietary and confidential information,
 including trade secrets, belonging to Gaussian, Inc.
  
 This software is provided under written license and may be
 used, copied, transmitted, or stored only in accord with that
 written license.
  
 The following legend is applicable only to US Government
 contracts under FAR:
  
                    RESTRICTED RIGHTS LEGEND
  
 Use, reproduction and disclosure by the US Government is
 subject to restrictions as set forth in subparagraphs (a)
 and (c) of the Commercial Computer Software - Restricted
 Rights clause in FAR 52.227-19.
  
 Gaussian, Inc.
 340 Quinnipiac St., Bldg. 40, Wallingford CT 06492
  
  
 ---------------------------------------------------------------
 Warning -- This program may not be used in any manner that
 competes with the business of Gaussian, Inc. or will provide
 assistance to any competitor of Gaussian, Inc.  The licensee
 of this program is prohibited from giving any competitor of
 Gaussian, Inc. access to this program.  By using this program,
 the user acknowledges that Gaussian, Inc. is engaged in the
 business of creating and licensing software in the field of
 computational chemistry and represents and warrants to the
 licensee that it is not a competitor of Gaussian, Inc. and that
 it will not use this program in any manner prohibited above.
 ---------------------------------------------------------------
  

 Cite this work as:
 Gaussian 16, Revision A.03,
 M. J. Frisch, G. W. Trucks, H. B. Schlegel, G. E. Scuseria, 
 M. A. Robb, J. R. Cheeseman, G. Scalmani, V. Barone, 
 G. A. Petersson, H. Nakatsuji, X. Li, M. Caricato, A. V. Marenich, 
 J. Bloino, B. G. Janesko, R. Gomperts, B. Mennucci, H. P. Hratchian, 
 J. V. Ortiz, A. F. Izmaylov, J. L. Sonnenberg, D. Williams-Young, 
 F. Ding, F. Lipparini, F. Egidi, J. Goings, B. Peng, A. Petrone, 
 T. Henderson, D. Ranasinghe, V. G. Zakrzewski, J. Gao, N. Rega, 
 G. Zheng, W. Liang, M. Hada, M. Ehara, K. Toyota, R. Fukuda, 
 J. Hasegawa, M. Ishida, T. Nakajima, Y. Honda, O. Kitao, H. Nakai, 
 T. Vreven, K. Throssell, J. A. Montgomery, Jr., J. E. Peralta, 
 F. Ogliaro, M. J. Bearpark, J. J. Heyd, E. N. Brothers, K. N. Kudin, 
 V. N. Staroverov, T. A. Keith, R. Kobayashi, J. Normand, 
 K. Raghavachari, A. P. Rendell, J. C. Burant, S. S. Iyengar, 
 J. Tomasi, M. Cossi, J. M. Millam, M. Klene, C. Adamo, R. Cammi, 
 J. W. Ochterski, R. L. Martin, K. Morokuma, O. Farkas, 
 J. B. Foresman, and D. J. Fox, Gaussian, Inc., Wallingford CT, 2016.
 
 ******************************************
 Gaussian 16:  ES64L-G16RevA.03 25-Dec-2016
                16-Dec-2018 
 ******************************************
 %chk=cyclohexyl-monoBIP-TS1.chk
 %mem=10GB
 %nprocshared=16
 Will use up to   16 processors via shared memory.
 ----------------------------------------------------------------
 #p freq(ReadFC,InternalModes) Geom(AllCheck) NoSymm scale=0.9649
 ----------------------------------------------------------------
 1/18=20,29=7,38=1,114=964900/1,3;
 2/9=110,12=2,15=1,40=1/2;
 7/8=21,25=11,30=1/16;
 99/5=2/99;
 Leave Link    1 at Sun Dec 16 14:45:51 2018, MaxMem=  1342177280 cpu:               6.9 elap:               0.5
 (Enter /gpfs/apps/hpc/Apps/Restricted/Gaussian/Rev_A.03/g16/l101.exe)
 Structure from the checkpoint file:  "cyclohexyl-monoBIP-TS1.chk"
 ----------------------------------------------------------------------
 cyclohexylimine monoBIP oxidized, optimize to transition state of firs
 t proton transferred
 ----------------------------------------------------------------------
 Charge =  1 Multiplicity = 2
 Redundant internal coordinates found in file.  (old form).
 C,0,-0.424191,2.67174,0.277732
 C,0,-1.835682,2.792786,0.23762
 C,0,-2.433932,4.058781,0.141547
 C,0,-1.58508,5.1559,0.093569
 C,0,-0.178679,5.020674,0.136079
 C,0,0.442832,3.776169,0.229386
 C,0,-1.336685,0.666036,0.369264
 H,0,-3.510066,4.168869,0.105523
 H,0,-2.007926,6.150438,0.021308
 H,0,0.4382,5.910889,0.095889
 N,0,-2.365591,1.525508,0.29775
 C,0,-2.958184,-1.189148,0.41953
 C,0,-1.566044,-0.752745,0.42968
 C,0,-0.559056,-1.702807,0.478795
 C,0,-0.866807,-3.072047,0.521013
 C,0,-2.23064,-3.484783,0.525765
 C,0,-3.273484,-2.594493,0.480952
 H,0,0.478651,-1.392386,0.479165
 H,0,-2.444521,-4.546836,0.569291
 C,0,0.214153,-4.101092,0.539564
 H,0,1.196401,-3.651878,0.680976
 H,0,0.03505,-4.837947,1.327723
 H,0,0.216654,-4.653468,-0.407084
 C,0,-4.709834,-3.009811,0.48526
 H,0,-5.246347,-2.542462,1.31532
 H,0,-5.208621,-2.690638,-0.4343
 H,0,-4.793742,-4.092576,0.573947
 O,0,-3.92255,-0.333742,0.350531
 N,0,-0.149329,1.332159,0.361478
 H,0,0.812288,0.999127,0.403774
 C,0,1.89445,3.603352,0.270844
 H,0,2.491136,4.519343,0.216736
 N,0,2.409067,2.434119,0.366008
 C,0,3.873253,2.314636,0.405526
 C,0,4.521994,2.741246,-0.921736
 C,0,4.503154,3.078759,1.581638
 H,0,4.083049,1.249059,0.550802
 C,0,6.037601,2.516367,-0.878442
 H,0,4.308768,3.803787,-1.089031
 H,0,4.068849,2.184945,-1.747731
 C,0,6.017559,2.847426,1.628849
 H,0,4.305639,4.150225,1.458179
 H,0,4.027201,2.76875,2.516512
 C,0,6.678272,3.250156,0.305078
 H,0,6.492278,2.837287,-1.820427
 H,0,6.234149,1.440867,-0.784161
 H,0,6.452761,3.408314,2.461564
 H,0,6.214318,1.78578,1.823851
 H,0,7.753399,3.04979,0.339762
 H,0,6.560505,4.331682,0.161998
 H,0,-3.455509,0.696067,0.309977
 Recover connectivity data from disk.
 ITRead=  0  0  0  0  0  0  0  0  0  0  0  0  0  0  0  0  0  0  0  0
 ITRead=  0  0  0  0  0  0  0  0  0  0  0  0  0  0  0  0  0  0  0  0
 ITRead=  0  0  0  0  0  0  0  0  0  0  0
 MicOpt= -1 -1 -1 -1 -1 -1 -1 -1 -1 -1 -1 -1 -1 -1 -1 -1 -1 -1 -1 -1
 MicOpt= -1 -1 -1 -1 -1 -1 -1 -1 -1 -1 -1 -1 -1 -1 -1 -1 -1 -1 -1 -1
 MicOpt= -1 -1 -1 -1 -1 -1 -1 -1 -1 -1 -1
 NAtoms=     51 NQM=       51 NQMF=       0 NMMI=      0 NMMIF=      0
                NMic=       0 NMicF=      0.
                    Isotopes and Nuclear Properties:
 (Nuclear quadrupole moments (NQMom) in fm**2, nuclear magnetic moments (NMagM)
  in nuclear magnetons)

  Atom         1           2           3           4           5           6           7           8           9          10
 IAtWgt=          12          12          12          12          12          12          12           1           1           1
 AtmWgt=  12.0000000  12.0000000  12.0000000  12.0000000  12.0000000  12.0000000  12.0000000   1.0078250   1.0078250   1.0078250
 NucSpn=           0           0           0           0           0           0           0           1           1           1
 AtZEff=   3.6000000   3.6000000   3.6000000   3.6000000   3.6000000   3.6000000   3.6000000   1.0000000   1.0000000   1.0000000
 NQMom=    0.0000000   0.0000000   0.0000000   0.0000000   0.0000000   0.0000000   0.0000000   0.0000000   0.0000000   0.0000000
 NMagM=    0.0000000   0.0000000   0.0000000   0.0000000   0.0000000   0.0000000   0.0000000   2.7928460   2.7928460   2.7928460
 AtZNuc=   6.0000000   6.0000000   6.0000000   6.0000000   6.0000000   6.0000000   6.0000000   1.0000000   1.0000000   1.0000000

  Atom        11          12          13          14          15          16          17          18          19          20
 IAtWgt=          14          12          12          12          12          12          12           1           1          12
 AtmWgt=  14.0030740  12.0000000  12.0000000  12.0000000  12.0000000  12.0000000  12.0000000   1.0078250   1.0078250  12.0000000
 NucSpn=           2           0           0           0           0           0           0           1           1           0
 AtZEff=   4.5500000   3.6000000   3.6000000   3.6000000   3.6000000   3.6000000   3.6000000   1.0000000   1.0000000   3.6000000
 NQMom=    2.0440000   0.0000000   0.0000000   0.0000000   0.0000000   0.0000000   0.0000000   0.0000000   0.0000000   0.0000000
 NMagM=    0.4037610   0.0000000   0.0000000   0.0000000   0.0000000   0.0000000   0.0000000   2.7928460   2.7928460   0.0000000
 AtZNuc=   7.0000000   6.0000000   6.0000000   6.0000000   6.0000000   6.0000000   6.0000000   1.0000000   1.0000000   6.0000000

  Atom        21          22          23          24          25          26          27          28          29          30
 IAtWgt=           1           1           1          12           1           1           1          16          14           1
 AtmWgt=   1.0078250   1.0078250   1.0078250  12.0000000   1.0078250   1.0078250   1.0078250  15.9949146  14.0030740   1.0078250
 NucSpn=           1           1           1           0           1           1           1           0           2           1
 AtZEff=   1.0000000   1.0000000   1.0000000   3.6000000   1.0000000   1.0000000   1.0000000   5.6000000   4.5500000   1.0000000
 NQMom=    0.0000000   0.0000000   0.0000000   0.0000000   0.0000000   0.0000000   0.0000000   0.0000000   2.0440000   0.0000000
 NMagM=    2.7928460   2.7928460   2.7928460   0.0000000   2.7928460   2.7928460   2.7928460   0.0000000   0.4037610   2.7928460
 AtZNuc=   1.0000000   1.0000000   1.0000000   6.0000000   1.0000000   1.0000000   1.0000000   8.0000000   7.0000000   1.0000000

  Atom        31          32          33          34          35          36          37          38          39          40
 IAtWgt=          12           1          14          12          12          12           1          12           1           1
 AtmWgt=  12.0000000   1.0078250  14.0030740  12.0000000  12.0000000  12.0000000   1.0078250  12.0000000   1.0078250   1.0078250
 NucSpn=           0           1           2           0           0           0           1           0           1           1
 AtZEff=   3.6000000   1.0000000   4.5500000   3.6000000   3.6000000   3.6000000   1.0000000   3.6000000   1.0000000   1.0000000
 NQMom=    0.0000000   0.0000000   2.0440000   0.0000000   0.0000000   0.0000000   0.0000000   0.0000000   0.0000000   0.0000000
 NMagM=    0.0000000   2.7928460   0.4037610   0.0000000   0.0000000   0.0000000   2.7928460   0.0000000   2.7928460   2.7928460
 AtZNuc=   6.0000000   1.0000000   7.0000000   6.0000000   6.0000000   6.0000000   1.0000000   6.0000000   1.0000000   1.0000000

  Atom        41          42          43          44          45          46          47          48          49          50
 IAtWgt=          12           1           1          12           1           1           1           1           1           1
 AtmWgt=  12.0000000   1.0078250   1.0078250  12.0000000   1.0078250   1.0078250   1.0078250   1.0078250   1.0078250   1.0078250
 NucSpn=           0           1           1           0           1           1           1           1           1           1
 AtZEff=   3.6000000   1.0000000   1.0000000   3.6000000   1.0000000   1.0000000   1.0000000   1.0000000   1.0000000   1.0000000
 NQMom=    0.0000000   0.0000000   0.0000000   0.0000000   0.0000000   0.0000000   0.0000000   0.0000000   0.0000000   0.0000000
 NMagM=    0.0000000   2.7928460   2.7928460   0.0000000   2.7928460   2.7928460   2.7928460   2.7928460   2.7928460   2.7928460
 AtZNuc=   6.0000000   1.0000000   1.0000000   6.0000000   1.0000000   1.0000000   1.0000000   1.0000000   1.0000000   1.0000000

  Atom        51
 IAtWgt=           1
 AtmWgt=   1.0078250
 NucSpn=           1
 AtZEff=   1.0000000
 NQMom=    0.0000000
 NMagM=    2.7928460
 AtZNuc=   1.0000000
 Leave Link  101 at Sun Dec 16 14:45:52 2018, MaxMem=  1342177280 cpu:               3.8 elap:               0.3
 (Enter /gpfs/apps/hpc/Apps/Restricted/Gaussian/Rev_A.03/g16/l103.exe)

 GradGradGradGradGradGradGradGradGradGradGradGradGradGradGradGradGradGrad
 Berny optimization.
 Initialization pass.
                           ----------------------------
                           !    Initial Parameters    !
                           ! (Angstroms and Degrees)  !
 --------------------------                            --------------------------
 ! Name  Definition              Value          Derivative Info.                !
 --------------------------------------------------------------------------------
 ! R1    R(1,2)                  1.4172         estimate D2E/DX2                !
 ! R2    R(1,6)                  1.4049         estimate D2E/DX2                !
 ! R3    R(1,29)                 1.3701         estimate D2E/DX2                !
 ! R4    R(2,3)                  1.4035         estimate D2E/DX2                !
 ! R5    R(2,11)                 1.3749         estimate D2E/DX2                !
 ! R6    R(3,4)                  1.388          estimate D2E/DX2                !
 ! R7    R(3,8)                  1.0823         estimate D2E/DX2                !
 ! R8    R(4,5)                  1.4135         estimate D2E/DX2                !
 ! R9    R(4,9)                  1.0831         estimate D2E/DX2                !
 ! R10   R(5,6)                  1.3942         estimate D2E/DX2                !
 ! R11   R(5,10)                 1.0838         estimate D2E/DX2                !
 ! R12   R(6,31)                 1.4625         estimate D2E/DX2                !
 ! R13   R(7,11)                 1.3426         estimate D2E/DX2                !
 ! R14   R(7,13)                 1.4385         estimate D2E/DX2                !
 ! R15   R(7,29)                 1.3615         estimate D2E/DX2                !
 ! R16   R(12,13)                1.459          estimate D2E/DX2                !
 ! R17   R(12,17)                1.4416         estimate D2E/DX2                !
 ! R18   R(12,28)                1.2909         estimate D2E/DX2                !
 ! R19   R(13,14)                1.3853         estimate D2E/DX2                !
 ! R20   R(14,15)                1.404          estimate D2E/DX2                !
 ! R21   R(14,18)                1.0831         estimate D2E/DX2                !
 ! R22   R(15,16)                1.4249         estimate D2E/DX2                !
 ! R23   R(15,20)                1.4926         estimate D2E/DX2                !
 ! R24   R(16,17)                1.3719         estimate D2E/DX2                !
 ! R25   R(16,19)                1.0842         estimate D2E/DX2                !
 ! R26   R(17,24)                1.4952         estimate D2E/DX2                !
 ! R27   R(20,21)                1.0893         estimate D2E/DX2                !
 ! R28   R(20,22)                1.0937         estimate D2E/DX2                !
 ! R29   R(20,23)                1.096          estimate D2E/DX2                !
 ! R30   R(24,25)                1.0933         estimate D2E/DX2                !
 ! R31   R(24,26)                1.0937         estimate D2E/DX2                !
 ! R32   R(24,27)                1.0896         estimate D2E/DX2                !
 ! R33   R(28,51)                1.1315         estimate D2E/DX2                !
 ! R34   R(29,30)                1.0185         estimate D2E/DX2                !
 ! R35   R(31,32)                1.0945         estimate D2E/DX2                !
 ! R36   R(31,33)                1.281          estimate D2E/DX2                !
 ! R37   R(33,34)                1.4696         estimate D2E/DX2                !
 ! R38   R(34,35)                1.5377         estimate D2E/DX2                !
 ! R39   R(34,36)                1.5375         estimate D2E/DX2                !
 ! R40   R(34,37)                1.0957         estimate D2E/DX2                !
 ! R41   R(35,38)                1.5328         estimate D2E/DX2                !
 ! R42   R(35,39)                1.0966         estimate D2E/DX2                !
 ! R43   R(35,40)                1.0941         estimate D2E/DX2                !
 ! R44   R(36,41)                1.5327         estimate D2E/DX2                !
 ! R45   R(36,42)                1.0965         estimate D2E/DX2                !
 ! R46   R(36,43)                1.0939         estimate D2E/DX2                !
 ! R47   R(38,44)                1.5328         estimate D2E/DX2                !
 ! R48   R(38,45)                1.0941         estimate D2E/DX2                !
 ! R49   R(38,46)                1.0974         estimate D2E/DX2                !
 ! R50   R(41,44)                1.5333         estimate D2E/DX2                !
 ! R51   R(41,47)                1.0943         estimate D2E/DX2                !
 ! R52   R(41,48)                1.0972         estimate D2E/DX2                !
 ! R53   R(44,49)                1.0942         estimate D2E/DX2                !
 ! R54   R(44,50)                1.0973         estimate D2E/DX2                !
 ! A1    A(2,1,6)              123.1279         estimate D2E/DX2                !
 ! A2    A(2,1,29)             106.5617         estimate D2E/DX2                !
 ! A3    A(6,1,29)             130.3098         estimate D2E/DX2                !
 ! A4    A(1,2,3)              120.2317         estimate D2E/DX2                !
 ! A5    A(1,2,11)             107.6912         estimate D2E/DX2                !
 ! A6    A(3,2,11)             132.0752         estimate D2E/DX2                !
 ! A7    A(2,3,4)              117.0436         estimate D2E/DX2                !
 ! A8    A(2,3,8)              121.1864         estimate D2E/DX2                !
 ! A9    A(4,3,8)              121.7699         estimate D2E/DX2                !
 ! A10   A(3,4,5)              122.1291         estimate D2E/DX2                !
 ! A11   A(3,4,9)              119.2977         estimate D2E/DX2                !
 ! A12   A(5,4,9)              118.5732         estimate D2E/DX2                !
 ! A13   A(4,5,6)              122.0694         estimate D2E/DX2                !
 ! A14   A(4,5,10)             119.1184         estimate D2E/DX2                !
 ! A15   A(6,5,10)             118.8122         estimate D2E/DX2                !
 ! A16   A(1,6,5)              115.398          estimate D2E/DX2                !
 ! A17   A(1,6,31)             121.2441         estimate D2E/DX2                !
 ! A18   A(5,6,31)             123.3574         estimate D2E/DX2                !
 ! A19   A(11,7,13)            120.7608         estimate D2E/DX2                !
 ! A20   A(11,7,29)            110.7841         estimate D2E/DX2                !
 ! A21   A(13,7,29)            128.4526         estimate D2E/DX2                !
 ! A22   A(2,11,7)             107.2784         estimate D2E/DX2                !
 ! A23   A(13,12,17)           119.9998         estimate D2E/DX2                !
 ! A24   A(13,12,28)           120.9963         estimate D2E/DX2                !
 ! A25   A(17,12,28)           119.0032         estimate D2E/DX2                !
 ! A26   A(7,13,12)            116.5432         estimate D2E/DX2                !
 ! A27   A(7,13,14)            124.1953         estimate D2E/DX2                !
 ! A28   A(12,13,14)           119.2564         estimate D2E/DX2                !
 ! A29   A(13,14,15)           120.7009         estimate D2E/DX2                !
 ! A30   A(13,14,18)           119.992          estimate D2E/DX2                !
 ! A31   A(15,14,18)           119.3062         estimate D2E/DX2                !
 ! A32   A(14,15,16)           119.4964         estimate D2E/DX2                !
 ! A33   A(14,15,20)           120.93           estimate D2E/DX2                !
 ! A34   A(16,15,20)           119.5667         estimate D2E/DX2                !
 ! A35   A(15,16,17)           122.6476         estimate D2E/DX2                !
 ! A36   A(15,16,19)           118.2073         estimate D2E/DX2                !
 ! A37   A(17,16,19)           119.1449         estimate D2E/DX2                !
 ! A38   A(12,17,16)           117.8891         estimate D2E/DX2                !
 ! A39   A(12,17,24)           118.7518         estimate D2E/DX2                !
 ! A40   A(16,17,24)           123.3583         estimate D2E/DX2                !
 ! A41   A(15,20,21)           111.7369         estimate D2E/DX2                !
 ! A42   A(15,20,22)           110.7842         estimate D2E/DX2                !
 ! A43   A(15,20,23)           109.7786         estimate D2E/DX2                !
 ! A44   A(21,20,22)           109.3865         estimate D2E/DX2                !
 ! A45   A(21,20,23)           108.536          estimate D2E/DX2                !
 ! A46   A(22,20,23)           106.4538         estimate D2E/DX2                !
 ! A47   A(17,24,25)           110.7856         estimate D2E/DX2                !
 ! A48   A(17,24,26)           110.7697         estimate D2E/DX2                !
 ! A49   A(17,24,27)           110.5013         estimate D2E/DX2                !
 ! A50   A(25,24,26)           106.8454         estimate D2E/DX2                !
 ! A51   A(25,24,27)           108.9775         estimate D2E/DX2                !
 ! A52   A(26,24,27)           108.8623         estimate D2E/DX2                !
 ! A53   A(12,28,51)           107.2564         estimate D2E/DX2                !
 ! A54   A(1,29,7)             107.6843         estimate D2E/DX2                !
 ! A55   A(1,29,30)            120.7738         estimate D2E/DX2                !
 ! A56   A(7,29,30)            131.5418         estimate D2E/DX2                !
 ! A57   A(6,31,32)            116.156          estimate D2E/DX2                !
 ! A58   A(6,31,33)            120.5782         estimate D2E/DX2                !
 ! A59   A(32,31,33)           123.2658         estimate D2E/DX2                !
 ! A60   A(31,33,34)           118.4543         estimate D2E/DX2                !
 ! A61   A(33,34,35)           111.9981         estimate D2E/DX2                !
 ! A62   A(33,34,36)           112.8519         estimate D2E/DX2                !
 ! A63   A(33,34,37)           105.8668         estimate D2E/DX2                !
 ! A64   A(35,34,36)           110.4593         estimate D2E/DX2                !
 ! A65   A(35,34,37)           107.6661         estimate D2E/DX2                !
 ! A66   A(36,34,37)           107.6654         estimate D2E/DX2                !
 ! A67   A(34,35,38)           110.6144         estimate D2E/DX2                !
 ! A68   A(34,35,39)           108.5709         estimate D2E/DX2                !
 ! A69   A(34,35,40)           109.6235         estimate D2E/DX2                !
 ! A70   A(38,35,39)           109.7998         estimate D2E/DX2                !
 ! A71   A(38,35,40)           110.8699         estimate D2E/DX2                !
 ! A72   A(39,35,40)           107.2753         estimate D2E/DX2                !
 ! A73   A(34,36,41)           110.6925         estimate D2E/DX2                !
 ! A74   A(34,36,42)           109.0092         estimate D2E/DX2                !
 ! A75   A(34,36,43)           109.5509         estimate D2E/DX2                !
 ! A76   A(41,36,42)           109.2044         estimate D2E/DX2                !
 ! A77   A(41,36,43)           111.1496         estimate D2E/DX2                !
 ! A78   A(42,36,43)           107.1443         estimate D2E/DX2                !
 ! A79   A(35,38,44)           111.3981         estimate D2E/DX2                !
 ! A80   A(35,38,45)           110.0937         estimate D2E/DX2                !
 ! A81   A(35,38,46)           108.8633         estimate D2E/DX2                !
 ! A82   A(44,38,45)           110.5271         estimate D2E/DX2                !
 ! A83   A(44,38,46)           109.1458         estimate D2E/DX2                !
 ! A84   A(45,38,46)           106.6791         estimate D2E/DX2                !
 ! A85   A(36,41,44)           111.0709         estimate D2E/DX2                !
 ! A86   A(36,41,47)           109.8185         estimate D2E/DX2                !
 ! A87   A(36,41,48)           109.1902         estimate D2E/DX2                !
 ! A88   A(44,41,47)           110.5471         estimate D2E/DX2                !
 ! A89   A(44,41,48)           109.2874         estimate D2E/DX2                !
 ! A90   A(47,41,48)           106.8218         estimate D2E/DX2                !
 ! A91   A(38,44,41)           111.1462         estimate D2E/DX2                !
 ! A92   A(38,44,49)           110.3341         estimate D2E/DX2                !
 ! A93   A(38,44,50)           109.0442         estimate D2E/DX2                !
 ! A94   A(41,44,49)           110.3609         estimate D2E/DX2                !
 ! A95   A(41,44,50)           108.978          estimate D2E/DX2                !
 ! A96   A(49,44,50)           106.8626         estimate D2E/DX2                !
 ! D1    D(6,1,2,3)              0.1821         estimate D2E/DX2                !
 ! D2    D(6,1,2,11)           179.7342         estimate D2E/DX2                !
 ! D3    D(29,1,2,3)          -179.5764         estimate D2E/DX2                !
 ! D4    D(29,1,2,11)           -0.0243         estimate D2E/DX2                !
 ! D5    D(2,1,6,5)             -0.0858         estimate D2E/DX2                !
 ! D6    D(2,1,6,31)          -179.8726         estimate D2E/DX2                !
 ! D7    D(29,1,6,5)           179.6107         estimate D2E/DX2                !
 ! D8    D(29,1,6,31)           -0.1761         estimate D2E/DX2                !
 ! D9    D(2,1,29,7)             0.1227         estimate D2E/DX2                !
 ! D10   D(2,1,29,30)         -179.9666         estimate D2E/DX2                !
 ! D11   D(6,1,29,7)          -179.6121         estimate D2E/DX2                !
 ! D12   D(6,1,29,30)            0.2986         estimate D2E/DX2                !
 ! D13   D(1,2,3,4)             -0.1876         estimate D2E/DX2                !
 ! D14   D(1,2,3,8)            179.7356         estimate D2E/DX2                !
 ! D15   D(11,2,3,4)          -179.6127         estimate D2E/DX2                !
 ! D16   D(11,2,3,8)             0.3105         estimate D2E/DX2                !
 ! D17   D(1,2,11,7)            -0.0847         estimate D2E/DX2                !
 ! D18   D(3,2,11,7)           179.3939         estimate D2E/DX2                !
 ! D19   D(2,3,4,5)              0.1142         estimate D2E/DX2                !
 ! D20   D(2,3,4,9)           -179.8792         estimate D2E/DX2                !
 ! D21   D(8,3,4,5)           -179.8084         estimate D2E/DX2                !
 ! D22   D(8,3,4,9)              0.1981         estimate D2E/DX2                !
 ! D23   D(3,4,5,6)             -0.0247         estimate D2E/DX2                !
 ! D24   D(3,4,5,10)          -179.971          estimate D2E/DX2                !
 ! D25   D(9,4,5,6)            179.9688         estimate D2E/DX2                !
 ! D26   D(9,4,5,10)             0.0225         estimate D2E/DX2                !
 ! D27   D(4,5,6,1)              0.0072         estimate D2E/DX2                !
 ! D28   D(4,5,6,31)           179.7889         estimate D2E/DX2                !
 ! D29   D(10,5,6,1)           179.9536         estimate D2E/DX2                !
 ! D30   D(10,5,6,31)           -0.2646         estimate D2E/DX2                !
 ! D31   D(1,6,31,32)          179.3367         estimate D2E/DX2                !
 ! D32   D(1,6,31,33)           -0.6944         estimate D2E/DX2                !
 ! D33   D(5,6,31,32)           -0.4327         estimate D2E/DX2                !
 ! D34   D(5,6,31,33)          179.5362         estimate D2E/DX2                !
 ! D35   D(13,7,11,2)         -179.3079         estimate D2E/DX2                !
 ! D36   D(29,7,11,2)            0.1663         estimate D2E/DX2                !
 ! D37   D(11,7,13,12)          -0.4724         estimate D2E/DX2                !
 ! D38   D(11,7,13,14)         178.6999         estimate D2E/DX2                !
 ! D39   D(29,7,13,12)        -179.8447         estimate D2E/DX2                !
 ! D40   D(29,7,13,14)          -0.6724         estimate D2E/DX2                !
 ! D41   D(11,7,29,1)           -0.1831         estimate D2E/DX2                !
 ! D42   D(11,7,29,30)         179.9194         estimate D2E/DX2                !
 ! D43   D(13,7,29,1)          179.24           estimate D2E/DX2                !
 ! D44   D(13,7,29,30)          -0.6575         estimate D2E/DX2                !
 ! D45   D(17,12,13,7)        -179.8399         estimate D2E/DX2                !
 ! D46   D(17,12,13,14)          0.9449         estimate D2E/DX2                !
 ! D47   D(28,12,13,7)           0.4447         estimate D2E/DX2                !
 ! D48   D(28,12,13,14)       -178.7706         estimate D2E/DX2                !
 ! D49   D(13,12,17,16)         -1.0454         estimate D2E/DX2                !
 ! D50   D(13,12,17,24)        179.2805         estimate D2E/DX2                !
 ! D51   D(28,12,17,16)        178.6757         estimate D2E/DX2                !
 ! D52   D(28,12,17,24)         -0.9984         estimate D2E/DX2                !
 ! D53   D(13,12,28,51)         -0.1761         estimate D2E/DX2                !
 ! D54   D(17,12,28,51)       -179.8943         estimate D2E/DX2                !
 ! D55   D(7,13,14,15)        -179.2677         estimate D2E/DX2                !
 ! D56   D(7,13,14,18)           0.3796         estimate D2E/DX2                !
 ! D57   D(12,13,14,15)         -0.1165         estimate D2E/DX2                !
 ! D58   D(12,13,14,18)        179.5308         estimate D2E/DX2                !
 ! D59   D(13,14,15,16)         -0.5848         estimate D2E/DX2                !
 ! D60   D(13,14,15,20)        178.4575         estimate D2E/DX2                !
 ! D61   D(18,14,15,16)        179.7654         estimate D2E/DX2                !
 ! D62   D(18,14,15,20)         -1.1922         estimate D2E/DX2                !
 ! D63   D(14,15,16,17)          0.4742         estimate D2E/DX2                !
 ! D64   D(14,15,16,19)       -179.3633         estimate D2E/DX2                !
 ! D65   D(20,15,16,17)       -178.5814         estimate D2E/DX2                !
 ! D66   D(20,15,16,19)          1.5812         estimate D2E/DX2                !
 ! D67   D(14,15,20,21)          9.3297         estimate D2E/DX2                !
 ! D68   D(14,15,20,22)        131.5751         estimate D2E/DX2                !
 ! D69   D(14,15,20,23)       -111.1386         estimate D2E/DX2                !
 ! D70   D(16,15,20,21)       -171.6286         estimate D2E/DX2                !
 ! D71   D(16,15,20,22)        -49.3832         estimate D2E/DX2                !
 ! D72   D(16,15,20,23)         67.9031         estimate D2E/DX2                !
 ! D73   D(15,16,17,12)          0.3458         estimate D2E/DX2                !
 ! D74   D(15,16,17,24)       -179.9963         estimate D2E/DX2                !
 ! D75   D(19,16,17,12)       -179.8182         estimate D2E/DX2                !
 ! D76   D(19,16,17,24)         -0.1603         estimate D2E/DX2                !
 ! D77   D(12,17,24,25)        -56.889          estimate D2E/DX2                !
 ! D78   D(12,17,24,26)         61.5007         estimate D2E/DX2                !
 ! D79   D(12,17,24,27)       -177.7718         estimate D2E/DX2                !
 ! D80   D(16,17,24,25)        123.4559         estimate D2E/DX2                !
 ! D81   D(16,17,24,26)       -118.1544         estimate D2E/DX2                !
 ! D82   D(16,17,24,27)          2.5731         estimate D2E/DX2                !
 ! D83   D(6,31,33,34)        -179.9256         estimate D2E/DX2                !
 ! D84   D(32,31,33,34)          0.0411         estimate D2E/DX2                !
 ! D85   D(31,33,34,35)        -66.402          estimate D2E/DX2                !
 ! D86   D(31,33,34,36)         59.0027         estimate D2E/DX2                !
 ! D87   D(31,33,34,37)        176.5274         estimate D2E/DX2                !
 ! D88   D(33,34,35,38)       -176.2312         estimate D2E/DX2                !
 ! D89   D(33,34,35,39)         63.2271         estimate D2E/DX2                !
 ! D90   D(33,34,35,40)        -53.6696         estimate D2E/DX2                !
 ! D91   D(36,34,35,38)         57.0591         estimate D2E/DX2                !
 ! D92   D(36,34,35,39)        -63.4826         estimate D2E/DX2                !
 ! D93   D(36,34,35,40)        179.6207         estimate D2E/DX2                !
 ! D94   D(37,34,35,38)        -60.2467         estimate D2E/DX2                !
 ! D95   D(37,34,35,39)        179.2116         estimate D2E/DX2                !
 ! D96   D(37,34,35,40)         62.3149         estimate D2E/DX2                !
 ! D97   D(33,34,36,41)        176.3426         estimate D2E/DX2                !
 ! D98   D(33,34,36,42)        -63.523          estimate D2E/DX2                !
 ! D99   D(33,34,36,43)         53.4261         estimate D2E/DX2                !
 ! D100  D(35,34,36,41)        -57.4243         estimate D2E/DX2                !
 ! D101  D(35,34,36,42)         62.7101         estimate D2E/DX2                !
 ! D102  D(35,34,36,43)        179.6591         estimate D2E/DX2                !
 ! D103  D(37,34,36,41)         59.8819         estimate D2E/DX2                !
 ! D104  D(37,34,36,42)       -179.9837         estimate D2E/DX2                !
 ! D105  D(37,34,36,43)        -63.0347         estimate D2E/DX2                !
 ! D106  D(34,35,38,44)        -56.1234         estimate D2E/DX2                !
 ! D107  D(34,35,38,45)       -179.1051         estimate D2E/DX2                !
 ! D108  D(34,35,38,46)         64.283          estimate D2E/DX2                !
 ! D109  D(39,35,38,44)         63.6828         estimate D2E/DX2                !
 ! D110  D(39,35,38,45)        -59.2988         estimate D2E/DX2                !
 ! D111  D(39,35,38,46)       -175.9108         estimate D2E/DX2                !
 ! D112  D(40,35,38,44)       -177.9548         estimate D2E/DX2                !
 ! D113  D(40,35,38,45)         59.0635         estimate D2E/DX2                !
 ! D114  D(40,35,38,46)        -57.5485         estimate D2E/DX2                !
 ! D115  D(34,36,41,44)         56.6129         estimate D2E/DX2                !
 ! D116  D(34,36,41,47)        179.2052         estimate D2E/DX2                !
 ! D117  D(34,36,41,48)        -63.9775         estimate D2E/DX2                !
 ! D118  D(42,36,41,44)        -63.4048         estimate D2E/DX2                !
 ! D119  D(42,36,41,47)         59.1876         estimate D2E/DX2                !
 ! D120  D(42,36,41,48)        176.0048         estimate D2E/DX2                !
 ! D121  D(43,36,41,44)        178.5968         estimate D2E/DX2                !
 ! D122  D(43,36,41,47)        -58.8108         estimate D2E/DX2                !
 ! D123  D(43,36,41,48)         58.0064         estimate D2E/DX2                !
 ! D124  D(35,38,44,41)         55.2665         estimate D2E/DX2                !
 ! D125  D(35,38,44,49)        178.0309         estimate D2E/DX2                !
 ! D126  D(35,38,44,50)        -64.8918         estimate D2E/DX2                !
 ! D127  D(45,38,44,41)        177.9998         estimate D2E/DX2                !
 ! D128  D(45,38,44,49)        -59.2357         estimate D2E/DX2                !
 ! D129  D(45,38,44,50)         57.8415         estimate D2E/DX2                !
 ! D130  D(46,38,44,41)        -64.9735         estimate D2E/DX2                !
 ! D131  D(46,38,44,49)         57.7909         estimate D2E/DX2                !
 ! D132  D(46,38,44,50)        174.8682         estimate D2E/DX2                !
 ! D133  D(36,41,44,38)        -55.3996         estimate D2E/DX2                !
 ! D134  D(36,41,44,49)       -178.1487         estimate D2E/DX2                !
 ! D135  D(36,41,44,50)         64.7979         estimate D2E/DX2                !
 ! D136  D(47,41,44,38)       -177.5697         estimate D2E/DX2                !
 ! D137  D(47,41,44,49)         59.6813         estimate D2E/DX2                !
 ! D138  D(47,41,44,50)        -57.3721         estimate D2E/DX2                !
 ! D139  D(48,41,44,38)         65.1333         estimate D2E/DX2                !
 ! D140  D(48,41,44,49)        -57.6157         estimate D2E/DX2                !
 ! D141  D(48,41,44,50)       -174.6691         estimate D2E/DX2                !
 --------------------------------------------------------------------------------
 Trust Radius=3.00D-01 FncErr=1.00D-07 GrdErr=1.00D-07 EigMax=2.50D+02 EigMin=1.00D-04
 Number of steps in this run=    301 maximum allowed number of steps=    306.
 GradGradGradGradGradGradGradGradGradGradGradGradGradGradGradGradGradGrad

 Leave Link  103 at Sun Dec 16 14:45:52 2018, MaxMem=  1342177280 cpu:               0.8 elap:               0.1
 (Enter /gpfs/apps/hpc/Apps/Restricted/Gaussian/Rev_A.03/g16/l202.exe)
 Symmetry turned off by external request.
 Stoichiometry    C22H25N3O(1+,2)
 Framework group  C1[X(C22H25N3O)]
 Deg. of freedom   147
 Full point group                 C1      NOp   1
                          Input orientation:                          
 ---------------------------------------------------------------------
 Center     Atomic      Atomic             Coordinates (Angstroms)
 Number     Number       Type             X           Y           Z
 ---------------------------------------------------------------------
      1          6           0       -0.424191    2.671740    0.277732
      2          6           0       -1.835682    2.792786    0.237620
      3          6           0       -2.433932    4.058781    0.141547
      4          6           0       -1.585080    5.155900    0.093569
      5          6           0       -0.178679    5.020674    0.136079
      6          6           0        0.442832    3.776169    0.229386
      7          6           0       -1.336685    0.666036    0.369264
      8          1           0       -3.510066    4.168869    0.105523
      9          1           0       -2.007926    6.150438    0.021308
     10          1           0        0.438200    5.910889    0.095889
     11          7           0       -2.365591    1.525508    0.297750
     12          6           0       -2.958184   -1.189148    0.419530
     13          6           0       -1.566044   -0.752745    0.429680
     14          6           0       -0.559056   -1.702807    0.478795
     15          6           0       -0.866807   -3.072047    0.521013
     16          6           0       -2.230640   -3.484783    0.525765
     17          6           0       -3.273484   -2.594493    0.480952
     18          1           0        0.478651   -1.392386    0.479165
     19          1           0       -2.444521   -4.546836    0.569291
     20          6           0        0.214153   -4.101092    0.539564
     21          1           0        1.196401   -3.651878    0.680976
     22          1           0        0.035050   -4.837947    1.327723
     23          1           0        0.216654   -4.653468   -0.407084
     24          6           0       -4.709834   -3.009811    0.485260
     25          1           0       -5.246347   -2.542462    1.315320
     26          1           0       -5.208621   -2.690638   -0.434300
     27          1           0       -4.793742   -4.092576    0.573947
     28          8           0       -3.922550   -0.333742    0.350531
     29          7           0       -0.149329    1.332159    0.361478
     30          1           0        0.812288    0.999127    0.403774
     31          6           0        1.894450    3.603352    0.270844
     32          1           0        2.491136    4.519343    0.216736
     33          7           0        2.409067    2.434119    0.366008
     34          6           0        3.873253    2.314636    0.405526
     35          6           0        4.521994    2.741246   -0.921736
     36          6           0        4.503154    3.078759    1.581638
     37          1           0        4.083049    1.249059    0.550802
     38          6           0        6.037601    2.516367   -0.878442
     39          1           0        4.308768    3.803787   -1.089031
     40          1           0        4.068849    2.184945   -1.747731
     41          6           0        6.017559    2.847426    1.628849
     42          1           0        4.305639    4.150225    1.458179
     43          1           0        4.027201    2.768750    2.516512
     44          6           0        6.678272    3.250156    0.305078
     45          1           0        6.492278    2.837287   -1.820427
     46          1           0        6.234149    1.440867   -0.784161
     47          1           0        6.452761    3.408314    2.461564
     48          1           0        6.214318    1.785780    1.823851
     49          1           0        7.753399    3.049790    0.339762
     50          1           0        6.560505    4.331682    0.161998
     51          1           0       -3.455509    0.696067    0.309977
 ---------------------------------------------------------------------
 Rotational constants (GHZ):           0.2915799           0.1039514           0.0791481
 Leave Link  202 at Sun Dec 16 14:45:52 2018, MaxMem=  1342177280 cpu:               0.6 elap:               0.1
 (Enter /gpfs/apps/hpc/Apps/Restricted/Gaussian/Rev_A.03/g16/l716.exe)
 Electric field and nuclear coordinate derivatives read from checkpoint file.
 Dipole        =-8.46790159D-01-2.37800935D-01 7.05305268D-01
 Polarizability= 4.68647824D+02 5.35392630D+01 8.02723818D+02
                 2.43681055D+00-2.85193176D+01 1.77569577D+02
 Full mass-weighted force constant matrix:
 Low frequencies --- -808.9927   -0.0018    0.0004    0.0023    4.9312    8.6704
 Low frequencies ---   22.0387   41.2558   48.7710
 ******    1 imaginary frequencies (negative Signs) ****** 
 Diagonal vibrational polarizability:
       79.5042233     170.4948112      45.5084431
 Harmonic frequencies (cm**-1), IR intensities (KM/Mole), Raman scattering
 activities (A**4/AMU), depolarization ratios for plane and unpolarized
 incident light, reduced masses (AMU), force constants (mDyne/A),
 and normal coordinates:
                      1                      2                      3
                      A                      A                      A
 Frequencies --   -808.9924                41.0858                46.7145
 Red. masses --      1.2022                 4.6480                 4.1214
 Frc consts  --      0.4636                 0.0046                 0.0053
 IR Inten    --    241.6937                 3.4634                 0.2155
  Atom  AN      X      Y      Z        X      Y      Z        X      Y      Z
     1   6    -0.03   0.00  -0.00     0.04  -0.07  -0.02    -0.01   0.01  -0.09
     2   6    -0.02   0.01  -0.00     0.04  -0.04  -0.02    -0.01   0.01  -0.03
     3   6    -0.01  -0.00  -0.00     0.05  -0.04  -0.00    -0.01   0.01   0.02
     4   6     0.01   0.00   0.00     0.06  -0.04   0.01    -0.02   0.01   0.03
     5   6    -0.01   0.00  -0.00     0.05  -0.06   0.01    -0.02   0.02  -0.01
     6   6    -0.01  -0.00   0.00     0.04  -0.07  -0.00    -0.01   0.01  -0.07
     7   6     0.02  -0.02   0.00    -0.00  -0.05  -0.03     0.00   0.01  -0.09
     8   1    -0.00   0.01  -0.00     0.05  -0.03  -0.00    -0.02   0.01   0.07
     9   1    -0.00  -0.00   0.00     0.07  -0.04   0.02    -0.02   0.01   0.08
    10   1    -0.00  -0.00   0.00     0.06  -0.07   0.02    -0.02   0.02   0.01
    11   7    -0.00  -0.06   0.00     0.02  -0.03  -0.03    -0.00   0.00  -0.04
    12   6    -0.03   0.03  -0.00    -0.06  -0.01   0.01     0.01   0.00   0.05
    13   6     0.00  -0.02   0.00    -0.04  -0.05  -0.03     0.01   0.01  -0.08
    14   6    -0.01   0.01  -0.00    -0.07  -0.08  -0.04     0.02   0.01  -0.15
    15   6    -0.01  -0.02   0.00    -0.11  -0.07  -0.02     0.03   0.01  -0.10
    16   6     0.01  -0.01   0.00    -0.12  -0.03   0.02     0.03   0.01   0.04
    17   6    -0.00  -0.01   0.00    -0.10   0.00   0.04     0.02   0.00   0.12
    18   1    -0.00  -0.00  -0.00    -0.06  -0.11  -0.07     0.02   0.01  -0.24
    19   1     0.01  -0.01   0.00    -0.16  -0.02   0.04     0.03   0.01   0.09
    20   6     0.00  -0.00  -0.00    -0.14  -0.10  -0.03     0.03   0.01  -0.16
    21   1    -0.00   0.00   0.00    -0.12  -0.12  -0.09     0.05   0.03  -0.34
    22   1     0.01  -0.00  -0.00    -0.13  -0.07   0.00     0.14   0.09  -0.06
    23   1     0.01   0.00  -0.00    -0.20  -0.14  -0.01    -0.11  -0.08  -0.10
    24   6     0.00  -0.00   0.00    -0.11   0.05   0.08     0.02   0.00   0.26
    25   1     0.01   0.01  -0.00    -0.07   0.08   0.09     0.10   0.02   0.30
    26   1     0.01   0.01   0.00    -0.12   0.05   0.09    -0.06  -0.01   0.30
    27   1    -0.01  -0.00   0.00    -0.14   0.05   0.10     0.03   0.00   0.28
    28   8     0.06   0.04   0.00    -0.04   0.02   0.02     0.01   0.00   0.12
    29   7    -0.02  -0.01   0.00     0.01  -0.07  -0.03     0.00   0.01  -0.13
    30   1    -0.02  -0.00   0.00    -0.00  -0.11  -0.03     0.00   0.02  -0.15
    31   6    -0.01  -0.00   0.00     0.04  -0.05   0.00    -0.01   0.01  -0.05
    32   1    -0.01  -0.00  -0.00     0.02  -0.03   0.00    -0.01   0.01  -0.00
    33   7    -0.00  -0.00   0.00     0.08  -0.03   0.00    -0.02   0.01  -0.08
    34   6    -0.00  -0.00   0.00     0.09   0.04   0.00    -0.02  -0.00  -0.01
    35   6    -0.00   0.00  -0.00     0.07   0.09   0.01     0.05  -0.01   0.02
    36   6    -0.00   0.00   0.00     0.05   0.06   0.01    -0.07  -0.01   0.02
    37   1    -0.00   0.00  -0.00     0.14   0.05  -0.01    -0.04  -0.01  -0.01
    38   6    -0.00   0.00   0.00     0.08   0.19   0.01     0.04  -0.04   0.09
    39   1    -0.00   0.00   0.00     0.00   0.08   0.02     0.07  -0.00   0.02
    40   1     0.00   0.00  -0.00     0.10   0.08   0.00     0.08   0.00  -0.00
    41   6    -0.00  -0.00  -0.00     0.06   0.15   0.01    -0.07  -0.04   0.09
    42   1    -0.00   0.00  -0.00    -0.02   0.05   0.03    -0.04  -0.01   0.01
    43   1    -0.00   0.00   0.00     0.07   0.01   0.01    -0.11  -0.01  -0.00
    44   6    -0.00   0.00   0.00     0.03   0.22   0.01     0.00  -0.06   0.12
    45   1    -0.00   0.00   0.00     0.06   0.23   0.01     0.09  -0.05   0.12
    46   1    -0.00   0.00  -0.00     0.15   0.20  -0.01     0.01  -0.04   0.10
    47   1    -0.00   0.00   0.00     0.03   0.17   0.02    -0.10  -0.04   0.11
    48   1    -0.00  -0.00   0.00     0.13   0.16  -0.01    -0.10  -0.04   0.11
    49   1    -0.00  -0.00   0.00     0.05   0.30   0.01    -0.01  -0.09   0.18
    50   1     0.00  -0.00   0.00    -0.05   0.22   0.03     0.04  -0.05   0.12
    51   1     0.66   0.74  -0.03    -0.01  -0.00  -0.00    -0.00   0.00   0.06
                      4                      5                      6
                      A                      A                      A
 Frequencies --     64.1927                74.8780                82.4402
 Red. masses --      4.7473                 4.2563                 2.9487
 Frc consts  --      0.0115                 0.0141                 0.0118
 IR Inten    --      1.0660                 1.7457                 0.2390
  Atom  AN      X      Y      Z        X      Y      Z        X      Y      Z
     1   6     0.00  -0.01   0.01    -0.00  -0.00  -0.05     0.00  -0.00  -0.01
     2   6     0.00  -0.00   0.11    -0.00   0.00   0.02     0.00  -0.01   0.02
     3   6    -0.00  -0.01   0.07    -0.01   0.01   0.16    -0.01  -0.01   0.07
     4   6    -0.00  -0.01  -0.07    -0.01   0.01   0.20    -0.02  -0.00   0.08
     5   6     0.00  -0.01  -0.17    -0.00   0.01   0.11    -0.01   0.00   0.05
     6   6     0.00  -0.01  -0.13    -0.00   0.00  -0.03    -0.01   0.00  -0.00
     7   6     0.00   0.00   0.15     0.00  -0.00  -0.07     0.00  -0.01  -0.02
     8   1    -0.00  -0.01   0.15    -0.01   0.02   0.23    -0.01  -0.01   0.11
     9   1    -0.01  -0.02  -0.11    -0.01   0.02   0.32    -0.02  -0.00   0.12
    10   1     0.00  -0.02  -0.28    -0.01   0.01   0.15    -0.02   0.01   0.06
    11   7     0.00   0.00   0.20    -0.00  -0.00  -0.01     0.00  -0.01   0.02
    12   6    -0.01   0.00   0.08     0.00  -0.00  -0.06    -0.00  -0.00  -0.02
    13   6    -0.01  -0.00   0.12     0.00  -0.00  -0.05    -0.00  -0.01  -0.02
    14   6    -0.01  -0.01   0.07    -0.00  -0.00   0.03    -0.01  -0.02  -0.02
    15   6    -0.01  -0.01  -0.03    -0.00   0.00   0.11    -0.01  -0.01  -0.02
    16   6    -0.01  -0.01  -0.11    -0.00   0.00   0.07    -0.02  -0.01  -0.02
    17   6    -0.01  -0.00  -0.06    -0.00  -0.00  -0.02    -0.01  -0.00  -0.03
    18   1    -0.01  -0.01   0.11     0.00  -0.01   0.04    -0.01  -0.02  -0.01
    19   1    -0.02  -0.01  -0.21    -0.01   0.00   0.12    -0.02  -0.01  -0.02
    20   6    -0.01  -0.01  -0.08    -0.01  -0.00   0.23    -0.02  -0.02  -0.00
    21   1    -0.03  -0.03   0.09    -0.00   0.01   0.13    -0.02  -0.02  -0.02
    22   1    -0.09  -0.13  -0.21     0.01   0.11   0.34    -0.02   0.00   0.02
    23   1     0.09   0.13  -0.16    -0.05  -0.14   0.31    -0.03  -0.04   0.01
    24   6    -0.01  -0.00  -0.14    -0.00  -0.00  -0.08    -0.01   0.00  -0.03
    25   1    -0.05  -0.04  -0.14    -0.04   0.02  -0.12    -0.02   0.01  -0.04
    26   1     0.03   0.04  -0.15     0.04  -0.03  -0.11    -0.01   0.01  -0.04
    27   1    -0.01  -0.01  -0.19    -0.00   0.00  -0.05    -0.02   0.00  -0.03
    28   8    -0.01   0.01   0.14     0.00  -0.01  -0.10    -0.00  -0.00  -0.01
    29   7     0.00  -0.00   0.05     0.00  -0.00  -0.12     0.00  -0.01  -0.04
    30   1     0.00  -0.01   0.00     0.01  -0.00  -0.16     0.00  -0.01  -0.05
    31   6     0.01  -0.01  -0.18    -0.00  -0.00  -0.08    -0.00   0.02   0.01
    32   1     0.00  -0.01  -0.25    -0.00   0.00  -0.02    -0.02   0.03   0.05
    33   7     0.01  -0.00  -0.12     0.00  -0.01  -0.17     0.01   0.03  -0.01
    34   6     0.01   0.01  -0.08     0.00  -0.00  -0.12     0.01   0.04   0.05
    35   6     0.09   0.02  -0.03     0.07   0.06  -0.06     0.03  -0.16  -0.01
    36   6    -0.07   0.01  -0.03    -0.06  -0.04  -0.05     0.00   0.20  -0.05
    37   1     0.01   0.01  -0.07     0.00  -0.01  -0.15     0.01   0.06   0.19
    38   6     0.08   0.01   0.07     0.07   0.05   0.01     0.03  -0.19   0.05
    39   1     0.10   0.02  -0.04     0.08   0.06  -0.03     0.05  -0.17  -0.15
    40   1     0.14   0.02  -0.06     0.12   0.09  -0.11     0.04  -0.26   0.06
    41   6    -0.07   0.02   0.07    -0.06  -0.05   0.03    -0.00   0.19   0.00
    42   1    -0.07   0.00  -0.05    -0.05  -0.04  -0.03     0.02   0.18  -0.20
    43   1    -0.12   0.00  -0.06    -0.11  -0.07  -0.09    -0.01   0.33  -0.02
    44   6     0.02   0.01   0.11     0.01  -0.00   0.08     0.03  -0.03  -0.05
    45   1     0.15   0.00   0.09     0.12   0.08   0.05     0.05  -0.33   0.01
    46   1     0.07   0.01   0.09     0.06   0.04  -0.02     0.00  -0.18   0.21
    47   1    -0.13   0.03   0.09    -0.11  -0.08   0.07    -0.01   0.32  -0.08
    48   1    -0.07   0.02   0.09    -0.08  -0.05   0.00    -0.02   0.22   0.17
    49   1     0.01   0.00   0.17     0.01  -0.02   0.13     0.02  -0.04  -0.00
    50   1     0.04   0.01   0.10     0.04   0.00   0.11     0.05  -0.04  -0.22
    51   1    -0.01   0.01   0.19     0.00  -0.00  -0.05    -0.00  -0.01   0.01
                      7                      8                      9
                      A                      A                      A
 Frequencies --     95.9543               101.9706               133.2741
 Red. masses --      1.0841                 3.5082                 6.0559
 Frc consts  --      0.0059                 0.0215                 0.0634
 IR Inten    --      0.5885                 2.0737                 0.6446
  Atom  AN      X      Y      Z        X      Y      Z        X      Y      Z
     1   6    -0.00  -0.00  -0.01    -0.00   0.00  -0.02     0.01  -0.01  -0.16
     2   6    -0.00  -0.00  -0.01     0.00   0.03   0.01     0.01  -0.01  -0.10
     3   6     0.00   0.00   0.00     0.05   0.06   0.03    -0.00  -0.01  -0.02
     4   6     0.00   0.00   0.02     0.09   0.03   0.04    -0.01   0.00   0.04
     5   6     0.00   0.00   0.02     0.08  -0.01   0.00    -0.01   0.01   0.03
     6   6    -0.00  -0.00   0.00     0.04  -0.04  -0.02     0.00   0.01  -0.05
     7   6    -0.00  -0.00  -0.02    -0.02   0.02  -0.01     0.01  -0.01  -0.12
     8   1     0.00   0.00   0.01     0.05   0.10   0.06    -0.00  -0.01   0.02
     9   1     0.00   0.00   0.04     0.11   0.04   0.06    -0.01   0.00   0.11
    10   1     0.00   0.00   0.04     0.11  -0.03   0.01    -0.01   0.02   0.12
    11   7    -0.00  -0.00  -0.02    -0.02   0.03   0.01     0.01  -0.01  -0.07
    12   6    -0.00  -0.00  -0.01    -0.00   0.02   0.00     0.00   0.01   0.13
    13   6    -0.00  -0.00  -0.01    -0.01   0.03  -0.01     0.01  -0.00  -0.02
    14   6    -0.00   0.00   0.01     0.01   0.05  -0.01     0.00  -0.01  -0.03
    15   6    -0.00  -0.00   0.02     0.04   0.05  -0.00    -0.00  -0.01   0.03
    16   6    -0.00  -0.00   0.02     0.04   0.03  -0.00    -0.00  -0.00  -0.06
    17   6    -0.00  -0.00   0.01     0.02   0.01  -0.01     0.00   0.00  -0.04
    18   1    -0.00   0.00   0.03     0.00   0.07  -0.02     0.01  -0.02  -0.06
    19   1    -0.00   0.00   0.04     0.06   0.02  -0.00    -0.01  -0.01  -0.15
    20   6     0.00   0.00  -0.01     0.06   0.07   0.00    -0.01  -0.01   0.13
    21   1    -0.05  -0.04   0.52     0.05   0.09  -0.00    -0.03  -0.03   0.28
    22   1    -0.26  -0.33  -0.39     0.08   0.07   0.01    -0.12  -0.05   0.06
    23   1     0.36   0.42  -0.26     0.07   0.07   0.01     0.12   0.04   0.10
    24   6    -0.00   0.00   0.04     0.03  -0.02  -0.01     0.00  -0.01  -0.21
    25   1     0.01   0.01   0.05     0.02  -0.04  -0.01    -0.10  -0.05  -0.25
    26   1    -0.02  -0.00   0.05     0.03  -0.03  -0.01     0.10   0.03  -0.25
    27   1    -0.00   0.00   0.04     0.06  -0.03  -0.02     0.00  -0.01  -0.27
    28   8    -0.00  -0.00  -0.02    -0.00   0.01   0.01    -0.01   0.02   0.40
    29   7    -0.00  -0.00  -0.02    -0.02   0.00  -0.02     0.01  -0.01  -0.21
    30   1    -0.00  -0.00  -0.02    -0.01   0.01  -0.02     0.02  -0.00  -0.17
    31   6    -0.00  -0.00   0.00     0.02  -0.12  -0.04    -0.00   0.02   0.05
    32   1    -0.00   0.00   0.02     0.07  -0.15  -0.09     0.00   0.02   0.09
    33   7     0.00  -0.00  -0.01    -0.03  -0.14   0.01    -0.00   0.02   0.07
    34   6     0.00   0.00  -0.01    -0.03  -0.15   0.02    -0.01   0.01   0.08
    35   6     0.01  -0.00  -0.00    -0.05  -0.17   0.00    -0.06   0.02   0.06
    36   6    -0.00   0.00  -0.00    -0.07  -0.10   0.02     0.05  -0.01   0.06
    37   1     0.00   0.00  -0.00    -0.02  -0.14   0.05    -0.01   0.01   0.07
    38   6     0.01  -0.00   0.00    -0.02   0.02   0.02    -0.06   0.02  -0.02
    39   1     0.01  -0.00  -0.01    -0.16  -0.21  -0.07    -0.06   0.02   0.08
    40   1     0.01  -0.00  -0.01     0.02  -0.27   0.04    -0.10   0.04   0.07
    41   6    -0.00   0.00   0.00    -0.05   0.10  -0.01     0.05  -0.03  -0.02
    42   1    -0.00   0.00  -0.01    -0.20  -0.12   0.03     0.06  -0.00   0.08
    43   1    -0.01   0.00  -0.01    -0.03  -0.16   0.02     0.09  -0.01   0.08
    44   6     0.00   0.00   0.01    -0.13   0.18  -0.02    -0.01  -0.01  -0.04
    45   1     0.01  -0.00   0.01    -0.07   0.03  -0.00    -0.10   0.04  -0.04
    46   1     0.01  -0.00   0.01     0.12   0.05   0.09    -0.05   0.01  -0.06
    47   1    -0.01   0.00   0.00    -0.11   0.16  -0.01     0.10  -0.06  -0.02
    48   1    -0.01   0.00   0.01     0.10   0.12  -0.01     0.04  -0.04  -0.05
    49   1     0.00  -0.00   0.01    -0.10   0.38  -0.03    -0.00  -0.01  -0.09
    50   1     0.00   0.00   0.00    -0.34   0.15  -0.06    -0.01  -0.01  -0.01
    51   1    -0.00  -0.00  -0.02     0.00   0.04   0.01    -0.01   0.01   0.26
                     10                     11                     12
                      A                      A                      A
 Frequencies --    141.3548               150.2642               183.9612
 Red. masses --      4.6434                 4.3333                 1.6389
 Frc consts  --      0.0547                 0.0576                 0.0327
 IR Inten    --      1.0863                 2.9882                 0.8376
  Atom  AN      X      Y      Z        X      Y      Z        X      Y      Z
     1   6     0.07   0.02  -0.03    -0.03  -0.02  -0.05    -0.00   0.00   0.04
     2   6     0.07  -0.02   0.05    -0.04   0.01   0.08    -0.00   0.00   0.03
     3   6     0.01  -0.04   0.10    -0.01   0.03   0.17    -0.00  -0.00  -0.00
     4   6    -0.05  -0.01   0.02     0.02   0.01   0.03     0.00  -0.00  -0.03
     5   6    -0.04   0.04  -0.09     0.02  -0.03  -0.15    -0.00  -0.00  -0.01
     6   6     0.01   0.07  -0.09    -0.00  -0.04  -0.14    -0.00   0.00   0.02
     7   6     0.13  -0.01  -0.00    -0.07   0.00  -0.02    -0.00   0.00  -0.01
     8   1    -0.00  -0.09   0.20    -0.01   0.07   0.32     0.00  -0.00  -0.02
     9   1    -0.09  -0.03   0.04     0.03   0.02   0.07     0.00  -0.00  -0.07
    10   1    -0.07   0.06  -0.15     0.04  -0.05  -0.24     0.00  -0.00  -0.04
    11   7     0.11  -0.02   0.06    -0.06   0.02   0.09    -0.00   0.00   0.01
    12   6     0.10   0.02  -0.04    -0.05  -0.02  -0.06    -0.00  -0.00  -0.04
    13   6     0.11  -0.02  -0.03    -0.06   0.00  -0.06     0.00  -0.00  -0.05
    14   6     0.06  -0.09  -0.01    -0.03   0.04  -0.06     0.00  -0.00  -0.05
    15   6    -0.02  -0.07  -0.00     0.01   0.03  -0.01     0.00  -0.00  -0.04
    16   6    -0.04  -0.01   0.01     0.02   0.00   0.02     0.00  -0.00  -0.12
    17   6     0.02   0.04  -0.01    -0.01  -0.03  -0.01     0.00  -0.00  -0.07
    18   1     0.08  -0.15   0.01    -0.04   0.07  -0.07    -0.00   0.00  -0.01
    19   1    -0.09  -0.00   0.03     0.05   0.00   0.08     0.00  -0.00  -0.15
    20   6    -0.09  -0.15   0.02     0.05   0.08   0.04     0.00  -0.00   0.13
    21   1    -0.06  -0.23   0.07     0.02   0.12   0.08    -0.02   0.01   0.22
    22   1    -0.18  -0.16  -0.01     0.05   0.07   0.03    -0.09   0.04   0.14
    23   1    -0.10  -0.13   0.00     0.11   0.08   0.03     0.11  -0.05   0.16
    24   6    -0.02   0.16   0.03     0.01  -0.09   0.04    -0.00   0.00   0.08
    25   1     0.04   0.24   0.03     0.01  -0.09   0.05     0.21  -0.35   0.42
    26   1    -0.01   0.17   0.03    -0.03  -0.12   0.05    -0.23   0.40   0.35
    27   1    -0.11   0.17   0.08     0.05  -0.09   0.06     0.02  -0.03  -0.34
    28   8     0.09   0.01  -0.08    -0.04  -0.01  -0.09    -0.00   0.00   0.03
    29   7     0.12   0.03  -0.05    -0.06  -0.02  -0.09    -0.00   0.00   0.02
    30   1     0.14   0.08  -0.06    -0.07  -0.06  -0.06    -0.00   0.00   0.00
    31   6     0.00   0.07  -0.09     0.00  -0.04  -0.15    -0.00   0.00   0.01
    32   1     0.04   0.04  -0.22    -0.01  -0.05  -0.44    -0.00   0.00   0.02
    33   7    -0.06   0.06   0.09     0.03  -0.00   0.19    -0.00  -0.00  -0.01
    34   6    -0.08  -0.02   0.06     0.04   0.03   0.10     0.00  -0.00  -0.01
    35   6    -0.12  -0.03   0.04    -0.02   0.07   0.08     0.00  -0.00  -0.01
    36   6    -0.05  -0.04   0.06     0.11   0.03   0.07    -0.00  -0.00  -0.01
    37   1    -0.11  -0.02   0.05     0.07   0.03   0.08    -0.00  -0.00  -0.01
    38   6    -0.12  -0.00  -0.01    -0.03   0.01  -0.01     0.01  -0.00   0.00
    39   1    -0.13  -0.03   0.03     0.02   0.08   0.13     0.00  -0.00  -0.01
    40   1    -0.15  -0.04   0.06    -0.09   0.12   0.09     0.01  -0.01  -0.01
    41   6    -0.05  -0.02  -0.00     0.11  -0.01  -0.00    -0.00   0.00  -0.00
    42   1    -0.08  -0.04   0.09     0.11   0.03   0.07    -0.00  -0.00  -0.01
    43   1    -0.02  -0.08   0.07     0.16   0.04   0.10    -0.01  -0.00  -0.01
    44   6    -0.12   0.03  -0.03     0.07  -0.05  -0.04    -0.00   0.00   0.00
    45   1    -0.15  -0.00  -0.02    -0.07   0.01  -0.03     0.01  -0.00   0.00
    46   1    -0.09   0.00   0.00    -0.06  -0.00  -0.06     0.01   0.00   0.00
    47   1    -0.02  -0.03  -0.01     0.17  -0.02  -0.03    -0.01   0.00   0.00
    48   1    -0.01  -0.02  -0.04     0.08  -0.02  -0.01    -0.00   0.00   0.00
    49   1    -0.10   0.09  -0.07     0.06  -0.12  -0.09    -0.00   0.01   0.01
    50   1    -0.18   0.02  -0.02     0.14  -0.04  -0.02    -0.00   0.00   0.00
    51   1     0.05  -0.06  -0.01    -0.02   0.03  -0.01    -0.00   0.00   0.03
                     13                     14                     15
                      A                      A                      A
 Frequencies --    191.0912               208.9149               223.6547
 Red. masses --      2.3242                 3.2243                 2.3749
 Frc consts  --      0.0500                 0.0829                 0.0700
 IR Inten    --      1.4775                 1.9825                 2.7154
  Atom  AN      X      Y      Z        X      Y      Z        X      Y      Z
     1   6     0.00  -0.01  -0.11     0.03  -0.02   0.06    -0.01   0.02   0.08
     2   6     0.00  -0.01  -0.09     0.04   0.00  -0.03    -0.01   0.00   0.02
     3   6     0.00   0.00  -0.01     0.08   0.03  -0.03    -0.03  -0.01   0.00
     4   6    -0.00   0.01   0.08     0.11   0.02   0.05    -0.04  -0.00   0.01
     5   6     0.00   0.00   0.04     0.10  -0.01   0.05    -0.03   0.01  -0.01
     6   6     0.00  -0.00  -0.06     0.04  -0.04   0.02    -0.01   0.03   0.02
     7   6     0.00  -0.00   0.02     0.01  -0.01  -0.02     0.01   0.00  -0.03
     8   1    -0.00   0.01   0.03     0.09   0.06  -0.09    -0.03  -0.03  -0.03
     9   1    -0.00   0.01   0.18     0.12   0.03   0.08    -0.05  -0.01  -0.00
    10   1    -0.00   0.01   0.12     0.14  -0.04   0.05    -0.05   0.02  -0.06
    11   7     0.00  -0.00  -0.04     0.02   0.00  -0.10     0.00  -0.01  -0.07
    12   6    -0.00   0.00   0.04     0.01  -0.00   0.01    -0.00   0.00   0.02
    13   6    -0.00   0.01   0.14     0.01  -0.01  -0.01     0.00  -0.00  -0.06
    14   6    -0.00   0.00   0.20     0.01  -0.01  -0.01     0.00  -0.01  -0.10
    15   6    -0.00   0.00   0.04     0.00  -0.01  -0.00    -0.00  -0.00   0.05
    16   6    -0.00  -0.00  -0.03     0.00  -0.00  -0.00    -0.00   0.01   0.19
    17   6    -0.00  -0.00   0.01     0.01  -0.00   0.00    -0.00   0.01   0.06
    18   1    -0.00  -0.01   0.25     0.01  -0.01  -0.03     0.00  -0.00  -0.21
    19   1    -0.00  -0.01  -0.13    -0.00  -0.00  -0.01    -0.01   0.02   0.28
    20   6    -0.00   0.00  -0.11    -0.00  -0.02   0.00    -0.02  -0.02  -0.05
    21   1     0.02   0.00  -0.24     0.00  -0.02   0.01    -0.01  -0.05  -0.07
    22   1     0.11   0.00  -0.08    -0.01  -0.02   0.00    -0.01  -0.07  -0.09
    23   1    -0.14  -0.00  -0.10     0.00  -0.02   0.00    -0.07   0.05  -0.09
    24   6    -0.00  -0.00   0.01     0.01  -0.00  -0.01     0.01  -0.02  -0.12
    25   1     0.11  -0.37   0.29     0.00  -0.01  -0.01    -0.03  -0.38   0.07
    26   1    -0.13   0.39   0.22     0.01   0.02  -0.01     0.01   0.33   0.01
    27   1     0.01  -0.04  -0.43     0.00  -0.00  -0.03     0.03  -0.06  -0.54
    28   8     0.00  -0.00  -0.07     0.01   0.01   0.04    -0.00   0.00   0.03
    29   7     0.00  -0.00  -0.06     0.01  -0.02   0.09     0.00   0.02   0.08
    30   1     0.00   0.01  -0.00     0.01  -0.03   0.14    -0.00   0.02   0.09
    31   6     0.00  -0.00  -0.03     0.01  -0.08  -0.12     0.00   0.03  -0.09
    32   1     0.00  -0.00  -0.04     0.04  -0.12  -0.40    -0.00   0.02  -0.27
    33   7     0.00   0.00   0.01    -0.02  -0.08   0.08     0.00   0.04   0.04
    34   6     0.00   0.00   0.02    -0.03   0.03  -0.04     0.01  -0.01  -0.02
    35   6    -0.01   0.01   0.02    -0.08   0.15  -0.01     0.03  -0.02  -0.01
    36   6     0.01   0.00   0.02    -0.10   0.09  -0.04     0.02  -0.05   0.00
    37   1     0.00   0.01   0.02     0.08   0.05  -0.07    -0.03  -0.02  -0.04
    38   6    -0.01   0.00  -0.00    -0.11  -0.01  -0.02     0.04  -0.03   0.02
    39   1    -0.01   0.01   0.02     0.01   0.18   0.11     0.05  -0.03  -0.04
    40   1    -0.02   0.01   0.02    -0.14   0.27  -0.06     0.05  -0.04  -0.02
    41   6     0.01  -0.00  -0.00    -0.11   0.08   0.03     0.03   0.00  -0.00
    42   1     0.01   0.01   0.02    -0.11   0.07  -0.12    -0.02  -0.06   0.04
    43   1     0.02   0.01   0.02    -0.14   0.13  -0.05     0.03  -0.10  -0.01
    44   6     0.00  -0.00  -0.00    -0.03  -0.11   0.01     0.01   0.03  -0.00
    45   1    -0.02   0.01  -0.01    -0.05  -0.02   0.01     0.05  -0.08   0.01
    46   1    -0.01   0.00  -0.01    -0.23  -0.03  -0.06     0.04  -0.02   0.09
    47   1     0.02  -0.01  -0.00    -0.12   0.17  -0.03     0.00   0.02   0.00
    48   1     0.00  -0.01  -0.01    -0.15   0.10   0.19     0.08   0.01  -0.01
    49   1     0.00  -0.01  -0.01    -0.07  -0.30   0.05     0.02   0.10  -0.00
    50   1     0.01  -0.00   0.00     0.17  -0.09  -0.03    -0.06   0.02  -0.02
    51   1     0.00  -0.00  -0.06     0.02   0.00  -0.02    -0.00  -0.00  -0.02
                     16                     17                     18
                      A                      A                      A
 Frequencies --    224.7430               248.7623               249.8225
 Red. masses --      2.9246                 2.1126                 2.9339
 Frc consts  --      0.0870                 0.0770                 0.1079
 IR Inten    --      0.7604                 7.1755                20.1952
  Atom  AN      X      Y      Z        X      Y      Z        X      Y      Z
     1   6     0.02  -0.02  -0.03    -0.00  -0.03  -0.02    -0.00  -0.06   0.02
     2   6     0.02   0.01   0.07    -0.00  -0.03   0.01    -0.00  -0.07   0.00
     3   6     0.05   0.02   0.03    -0.03  -0.05  -0.00    -0.04  -0.09   0.01
     4   6     0.07   0.00  -0.10    -0.03  -0.05  -0.02    -0.06  -0.09   0.02
     5   6     0.06  -0.02  -0.06    -0.03  -0.03   0.00    -0.05  -0.08  -0.00
     6   6     0.03  -0.02   0.01    -0.01  -0.02   0.01    -0.02  -0.06   0.00
     7   6     0.00  -0.00   0.01     0.00  -0.01   0.00     0.01  -0.03  -0.01
     8   1     0.05   0.04   0.08    -0.03  -0.06   0.00    -0.05  -0.13   0.02
     9   1     0.08   0.00  -0.18    -0.03  -0.05  -0.04    -0.06  -0.09   0.03
    10   1     0.08  -0.03  -0.06    -0.04  -0.03   0.01    -0.07  -0.06  -0.02
    11   7     0.01   0.02   0.13     0.00  -0.02   0.04     0.01  -0.04  -0.03
    12   6    -0.00   0.00  -0.01     0.01   0.02  -0.00     0.01   0.03  -0.00
    13   6    -0.00  -0.00  -0.02     0.00   0.01   0.00     0.01   0.01  -0.01
    14   6    -0.00  -0.00  -0.06     0.01   0.02   0.00     0.02   0.03  -0.01
    15   6    -0.00   0.00   0.04     0.01   0.02   0.01     0.02   0.05   0.01
    16   6     0.00   0.01   0.14     0.00   0.02   0.01     0.01   0.04   0.02
    17   6    -0.00   0.00   0.04     0.00   0.03  -0.00     0.01   0.06   0.00
    18   1    -0.00  -0.00  -0.13     0.01   0.02  -0.00     0.01   0.04  -0.03
    19   1     0.00   0.01   0.23     0.00   0.02   0.02     0.00   0.04   0.04
    20   6    -0.00  -0.00  -0.04     0.04   0.06  -0.00     0.09   0.13  -0.01
    21   1     0.00  -0.01  -0.06     0.02   0.11  -0.01     0.05   0.22  -0.02
    22   1     0.02  -0.04  -0.07     0.09   0.05  -0.00     0.18   0.11  -0.01
    23   1    -0.04   0.05  -0.07     0.06   0.06  -0.00     0.14   0.13  -0.01
    24   6     0.01  -0.03  -0.07    -0.02   0.10  -0.01    -0.04   0.22  -0.03
    25   1    -0.01  -0.29   0.06     0.02   0.12   0.00     0.03   0.25  -0.00
    26   1    -0.00   0.22   0.02     0.00   0.16  -0.00     0.01   0.35  -0.01
    27   1     0.04  -0.06  -0.37    -0.09   0.11  -0.03    -0.19   0.23  -0.09
    28   8     0.00   0.01  -0.04    -0.00   0.01  -0.01    -0.01   0.02   0.01
    29   7     0.01  -0.02  -0.10     0.01  -0.02  -0.04     0.01  -0.04   0.02
    30   1     0.01  -0.04  -0.18     0.01  -0.02  -0.05     0.01  -0.04   0.03
    31   6     0.00  -0.02   0.17    -0.01  -0.02   0.04    -0.01  -0.06  -0.02
    32   1     0.01  -0.01   0.49    -0.01  -0.02   0.11    -0.02  -0.06  -0.07
    33   7    -0.01  -0.05  -0.08     0.00  -0.03  -0.03     0.00  -0.05   0.03
    34   6    -0.02   0.02   0.02     0.01  -0.02  -0.04     0.01  -0.01   0.03
    35   6    -0.05   0.03   0.01     0.02   0.12   0.02    -0.01  -0.06  -0.00
    36   6    -0.04   0.08  -0.01    -0.01  -0.12   0.04     0.01   0.09  -0.04
    37   1     0.04   0.03   0.05     0.01  -0.03  -0.16     0.04   0.01   0.11
    38   6    -0.06   0.03  -0.03    -0.02  -0.10   0.03     0.02   0.08  -0.03
    39   1    -0.08   0.03   0.04     0.17   0.18   0.18    -0.11  -0.10  -0.08
    40   1    -0.08   0.04   0.02    -0.07   0.30  -0.06     0.04  -0.16   0.03
    41   6    -0.06  -0.00   0.01     0.04   0.11   0.00    -0.02  -0.05   0.00
    42   1     0.02   0.09  -0.06    -0.17  -0.13   0.19     0.10   0.09  -0.17
    43   1    -0.07   0.15   0.00     0.07  -0.29   0.02    -0.05   0.23  -0.02
    44   6    -0.03  -0.05   0.00     0.01  -0.01  -0.05     0.02  -0.02   0.04
    45   1    -0.07   0.10  -0.02     0.05  -0.29   0.00    -0.04   0.23  -0.00
    46   1    -0.06   0.03  -0.11    -0.18  -0.12   0.18     0.12   0.09  -0.16
    47   1    -0.02  -0.02  -0.00    -0.04   0.29  -0.08     0.02  -0.14   0.04
    48   1    -0.13  -0.01   0.02     0.20   0.17   0.16    -0.13  -0.08  -0.06
    49   1    -0.04  -0.13   0.01     0.01  -0.01  -0.03     0.01  -0.08   0.03
    50   1     0.06  -0.03   0.03     0.01  -0.02  -0.17     0.08  -0.00   0.11
    51   1     0.01   0.02   0.03    -0.01  -0.01   0.01    -0.02  -0.02  -0.00
                     19                     20                     21
                      A                      A                      A
 Frequencies --    271.6686               303.3368               307.9371
 Red. masses --      4.5785                 4.3531                 3.4026
 Frc consts  --      0.1991                 0.2360                 0.1901
 IR Inten    --      0.3427                 6.0793                46.5774
  Atom  AN      X      Y      Z        X      Y      Z        X      Y      Z
     1   6     0.15  -0.06   0.01     0.02  -0.02  -0.10     0.01  -0.02   0.00
     2   6     0.15  -0.07  -0.01     0.01  -0.02  -0.02     0.00  -0.04  -0.02
     3   6     0.08  -0.11   0.03    -0.01  -0.06  -0.22    -0.06  -0.08   0.06
     4   6    -0.00  -0.07   0.02    -0.04  -0.03  -0.01    -0.08  -0.08   0.02
     5   6    -0.01  -0.02  -0.01    -0.04   0.00   0.24    -0.07  -0.05  -0.06
     6   6     0.06   0.02  -0.01    -0.00  -0.00   0.01    -0.01  -0.03  -0.02
     7   6     0.07  -0.05  -0.00     0.02   0.01   0.14     0.03   0.00  -0.02
     8   1     0.07  -0.21   0.05    -0.01  -0.10  -0.43    -0.07  -0.12   0.13
     9   1    -0.05  -0.09   0.05    -0.04  -0.04  -0.04    -0.09  -0.08   0.06
    10   1    -0.04   0.00  -0.03    -0.06   0.03   0.47    -0.11  -0.03  -0.11
    11   7     0.11  -0.03  -0.03     0.02   0.01   0.25     0.03  -0.01  -0.06
    12   6    -0.11   0.03  -0.00    -0.01   0.03   0.01    -0.02   0.10   0.00
    13   6    -0.08  -0.00  -0.00    -0.00   0.02   0.04     0.02   0.05   0.00
    14   6    -0.08   0.03   0.00     0.01   0.02  -0.14     0.07   0.08   0.02
    15   6    -0.05   0.05  -0.01     0.01   0.03  -0.06     0.05   0.11  -0.00
    16   6    -0.05   0.04  -0.02     0.01   0.06   0.02     0.04   0.16  -0.03
    17   6    -0.08   0.01  -0.00    -0.00   0.04   0.02     0.02   0.11  -0.00
    18   1    -0.09   0.05   0.01     0.01   0.04  -0.21     0.05   0.12   0.02
    19   1    -0.03   0.03  -0.02     0.01   0.06   0.08     0.04   0.16  -0.05
    20   6     0.07   0.18   0.00    -0.04  -0.01   0.04    -0.14  -0.08  -0.00
    21   1    -0.00   0.34  -0.01    -0.03  -0.06   0.12    -0.04  -0.32   0.03
    22   1     0.19   0.17   0.02    -0.15   0.02   0.05    -0.33  -0.06  -0.02
    23   1     0.15   0.17   0.01     0.02  -0.04   0.06    -0.26  -0.08  -0.00
    24   6    -0.04  -0.17   0.02     0.02  -0.04  -0.01     0.09  -0.11   0.02
    25   1    -0.11  -0.23   0.01    -0.03  -0.11  -0.00    -0.00  -0.19   0.00
    26   1    -0.09  -0.28   0.01     0.02  -0.06  -0.01     0.03  -0.24   0.00
    27   1     0.12  -0.18   0.06     0.10  -0.05  -0.04     0.29  -0.13   0.05
    28   8    -0.07   0.08  -0.00    -0.01   0.03  -0.06    -0.03   0.09  -0.00
    29   7     0.11  -0.09   0.03     0.03  -0.01  -0.10     0.03   0.00   0.04
    30   1     0.09  -0.13   0.04     0.03  -0.00  -0.04     0.05   0.03   0.03
    31   6     0.05   0.13  -0.01     0.00  -0.01  -0.12    -0.00  -0.07   0.04
    32   1     0.04   0.14   0.01     0.01  -0.04  -0.37     0.01  -0.07   0.14
    33   7     0.02   0.13  -0.03    -0.00  -0.00   0.09    -0.01  -0.08  -0.02
    34   6    -0.02   0.05  -0.01     0.00  -0.01  -0.01     0.01  -0.05   0.01
    35   6    -0.03  -0.01  -0.02    -0.00  -0.01  -0.01    -0.00  -0.00   0.03
    36   6    -0.03  -0.01   0.03     0.00   0.00  -0.02    -0.01  -0.01  -0.01
    37   1    -0.07   0.04  -0.01     0.00  -0.01  -0.01     0.03  -0.04   0.02
    38   6    -0.05  -0.04   0.01     0.01   0.01   0.00     0.00   0.04  -0.03
    39   1    -0.01  -0.01  -0.06    -0.02  -0.02  -0.04    -0.04   0.00   0.08
    40   1    -0.06  -0.03   0.01     0.02  -0.04  -0.01    -0.00   0.03   0.01
    41   6    -0.05  -0.04   0.00    -0.00  -0.00   0.01     0.01   0.05   0.01
    42   1    -0.02   0.00   0.08    -0.00  -0.00  -0.06    -0.04  -0.02  -0.04
    43   1    -0.05  -0.05   0.00    -0.01   0.03  -0.02     0.01   0.01   0.01
    44   6    -0.10   0.02  -0.00     0.01  -0.00   0.01     0.05  -0.03  -0.00
    45   1    -0.01  -0.10   0.01     0.01   0.04   0.01    -0.04   0.13  -0.02
    46   1    -0.07  -0.04   0.08     0.02   0.02  -0.02     0.03   0.03  -0.12
    47   1    -0.01  -0.08   0.02    -0.01   0.01   0.01    -0.03   0.13  -0.03
    48   1    -0.06  -0.05  -0.06    -0.01   0.00   0.02     0.03   0.07   0.10
    49   1    -0.08   0.12  -0.02     0.01  -0.02   0.01     0.03  -0.15   0.02
    50   1    -0.20   0.01  -0.01     0.03  -0.00   0.02     0.17  -0.02  -0.01
    51   1     0.04   0.06  -0.02    -0.01   0.01   0.06    -0.04   0.03  -0.03
                     22                     23                     24
                      A                      A                      A
 Frequencies --    318.2065               340.0234               372.5651
 Red. masses --      4.6034                 2.1787                 4.4478
 Frc consts  --      0.2746                 0.1484                 0.3637
 IR Inten    --     11.3085                 8.2343                 0.9192
  Atom  AN      X      Y      Z        X      Y      Z        X      Y      Z
     1   6    -0.00  -0.02  -0.13     0.01   0.04  -0.01     0.00   0.00  -0.02
     2   6    -0.00  -0.01  -0.18     0.02   0.01  -0.02     0.00   0.00  -0.02
     3   6     0.01   0.02  -0.01    -0.01   0.00  -0.00    -0.00   0.01   0.09
     4   6     0.02   0.02   0.14    -0.04   0.03   0.01    -0.00   0.00  -0.03
     5   6     0.02  -0.01  -0.04    -0.03   0.06  -0.01    -0.00  -0.00  -0.08
     6   6     0.00  -0.03  -0.18     0.00   0.06  -0.02    -0.00   0.01   0.07
     7   6    -0.03   0.01   0.19     0.04   0.01   0.02     0.00   0.00  -0.02
     8   1     0.01   0.04   0.14    -0.02  -0.02   0.01    -0.01   0.01   0.22
     9   1     0.03   0.04   0.38    -0.06   0.02   0.03    -0.00   0.00  -0.03
    10   1     0.03  -0.02   0.02    -0.05   0.08  -0.00    -0.00  -0.00  -0.15
    11   7    -0.02   0.00  -0.02     0.04   0.00   0.00     0.00  -0.00  -0.06
    12   6     0.01  -0.01   0.05    -0.01  -0.02   0.01    -0.00   0.01   0.24
    13   6    -0.00  -0.00   0.06    -0.00  -0.01   0.00    -0.00   0.01   0.14
    14   6     0.01  -0.01  -0.20    -0.04  -0.04  -0.02    -0.00  -0.01  -0.09
    15   6     0.01  -0.01  -0.10    -0.05  -0.04  -0.01    -0.00  -0.01  -0.13
    16   6     0.01  -0.01   0.02    -0.04  -0.06   0.01    -0.00  -0.01  -0.11
    17   6     0.01  -0.01   0.05    -0.03  -0.03   0.01    -0.00   0.01   0.24
    18   1     0.00   0.01  -0.31    -0.03  -0.07  -0.02    -0.00  -0.01  -0.23
    19   1     0.01  -0.01   0.06    -0.05  -0.06   0.01    -0.00  -0.02  -0.37
    20   6     0.01  -0.02   0.06     0.04   0.05   0.01     0.01   0.00   0.06
    21   1    -0.01  -0.02   0.17    -0.01   0.17   0.01    -0.02   0.03   0.19
    22   1    -0.10   0.03   0.08     0.13   0.04   0.02    -0.10   0.07   0.10
    23   1     0.14  -0.07   0.09     0.12   0.04   0.01     0.18  -0.09   0.11
    24   6    -0.00   0.04  -0.02    -0.04  -0.03  -0.00    -0.00   0.01  -0.03
    25   1    -0.03   0.02  -0.03    -0.05  -0.04  -0.00    -0.21  -0.07  -0.13
    26   1     0.06   0.11  -0.03    -0.03  -0.03  -0.00     0.20   0.07  -0.13
    27   1    -0.05   0.04  -0.09    -0.03  -0.04  -0.01    -0.02  -0.00  -0.16
    28   8     0.01  -0.02  -0.04     0.01  -0.01  -0.00     0.01  -0.01  -0.13
    29   7    -0.03  -0.00   0.23     0.04   0.04   0.02     0.00  -0.00  -0.07
    30   1    -0.03  -0.02   0.22     0.05   0.08   0.01    -0.00  -0.00   0.03
    31   6    -0.00   0.01   0.02     0.01   0.02   0.01    -0.00   0.01   0.11
    32   1    -0.02   0.04   0.37     0.04  -0.00   0.04     0.00  -0.00  -0.04
    33   7     0.01   0.00  -0.16    -0.03  -0.01  -0.01    -0.00   0.01   0.17
    34   6     0.00   0.03   0.07    -0.02  -0.10   0.02     0.00  -0.01  -0.09
    35   6    -0.01   0.02   0.07    -0.02  -0.06   0.03     0.00   0.01  -0.10
    36   6     0.01   0.03   0.08    -0.02  -0.07  -0.00     0.00  -0.03  -0.10
    37   1     0.00   0.04   0.09    -0.07  -0.11   0.02     0.01  -0.02  -0.14
    38   6    -0.03  -0.02  -0.01     0.02   0.09  -0.06     0.02   0.00   0.03
    39   1     0.01   0.03   0.10    -0.12  -0.07   0.06     0.00   0.00  -0.14
    40   1    -0.08   0.05   0.08     0.03  -0.07   0.02     0.08  -0.03  -0.12
    41   6     0.02  -0.02  -0.02     0.01   0.11   0.03    -0.02  -0.00   0.02
    42   1     0.03   0.03   0.14    -0.13  -0.09  -0.02     0.01  -0.03  -0.14
    43   1     0.06  -0.01   0.09     0.04  -0.09   0.02    -0.07   0.01  -0.12
    44   6    -0.02   0.01  -0.04     0.10  -0.07   0.00    -0.00   0.01   0.04
    45   1    -0.06  -0.04  -0.03    -0.09   0.33  -0.03     0.09  -0.06   0.05
    46   1    -0.04  -0.02   0.01     0.13   0.09  -0.31    -0.02  -0.00   0.09
    47   1     0.09  -0.07  -0.02    -0.08   0.32  -0.06    -0.09   0.03   0.03
    48   1    -0.00  -0.03  -0.08     0.12   0.17   0.26     0.01   0.01   0.05
    49   1    -0.01   0.05  -0.06     0.05  -0.32   0.04     0.00   0.02   0.04
    50   1    -0.07   0.00  -0.04     0.36  -0.05   0.00    -0.01   0.01   0.05
    51   1     0.00  -0.00  -0.06     0.02  -0.02  -0.00     0.01  -0.01  -0.15
                     25                     26                     27
                      A                      A                      A
 Frequencies --    392.3666               394.9336               441.9586
 Red. masses --      3.0056                 4.6755                 3.7965
[...]
 ! D80   D(16,17,24,25)          0.0434                  1.9                    !
 ! D81   D(16,17,24,26)         -0.0449                  2.0                    !
 --------------------------------------------------------------------------------
                           ----------------------------
                           ! Normal Mode   141        !
 --------------------------                            --------------------------
 ! Name  Definition              Value          Relative Weight (%)             !
 --------------------------------------------------------------------------------
 ! R27   R(20,21)                1.0204                 48.1                    !
 ! R28   R(20,22)               -0.3483                 16.4                    !
 ! R29   R(20,23)               -0.2121                  10.0                   !
 ! A33   A(14,15,20)             0.0322                  1.5                    !
 ! A34   A(16,15,20)            -0.031                   1.5                    !
 ! A41   A(15,20,21)            -0.0428                  2.0                    !
 ! A42   A(15,20,22)             0.0354                  1.7                    !
 ! A45   A(21,20,23)            -0.0306                  1.4                    !
 ! A46   A(22,20,23)             0.0383                  1.8                    !
 ! D68   D(14,15,20,22)         -0.039                   1.8                    !
 ! D69   D(14,15,20,23)          0.0453                  2.1                    !
 ! D71   D(16,15,20,22)         -0.0415                  2.0                    !
 ! D72   D(16,15,20,23)          0.0428                  2.0                    !
 --------------------------------------------------------------------------------
                           ----------------------------
                           ! Normal Mode   142        !
 --------------------------                            --------------------------
 ! Name  Definition              Value          Relative Weight (%)             !
 --------------------------------------------------------------------------------
 ! R7    R(3,8)                  0.0354                  1.9                    !
 ! R8    R(4,5)                 -0.0301                  1.6                    !
 ! R9    R(4,9)                 -0.308                  16.9                    !
 ! R10   R(5,6)                 -0.044                   2.4                    !
 ! R11   R(5,10)                 1.0371                 56.9                    !
 ! A10   A(3,4,5)               -0.0438                  2.4                    !
 ! A12   A(5,4,9)                0.0381                  2.1                    !
 ! A13   A(4,5,6)                0.0628                  3.4                    !
 ! A14   A(4,5,10)              -0.0388                  2.1                    !
 ! A15   A(6,5,10)              -0.024                   1.3                    !
 ! A16   A(1,6,5)               -0.0263                  1.4                    !
 ! A18   A(5,6,31)               0.0282                  1.5                    !
 --------------------------------------------------------------------------------
                           ----------------------------
                           ! Normal Mode   143        !
 --------------------------                            --------------------------
 ! Name  Definition              Value          Relative Weight (%)             !
 --------------------------------------------------------------------------------
 ! R21   R(14,18)                0.0455                  2.7                    !
 ! R22   R(15,16)                0.043                   2.6                    !
 ! R24   R(16,17)                0.047                   2.8                    !
 ! R25   R(16,19)               -1.0796                 64.8                    !
 ! R32   R(24,27)               -0.0747                  4.5                    !
 ! A32   A(14,15,16)             0.0265                  1.6                    !
 ! A34   A(16,15,20)            -0.0297                  1.8                    !
 ! A35   A(15,16,17)            -0.0575                  3.4                    !
 ! A36   A(15,16,19)             0.0291                  1.7                    !
 ! A37   A(17,16,19)             0.0284                  1.7                    !
 ! A38   A(12,17,16)             0.0277                  1.7                    !
 ! A40   A(16,17,24)            -0.032                   1.9                    !
 --------------------------------------------------------------------------------
                           ----------------------------
                           ! Normal Mode   144        !
 --------------------------                            --------------------------
 ! Name  Definition              Value          Relative Weight (%)             !
 --------------------------------------------------------------------------------
 ! R7    R(3,8)                 -0.3761                 18.2                    !
 ! R8    R(4,5)                 -0.0519                  2.5                    !
 ! R9    R(4,9)                  0.9699                 46.9                    !
 ! R11   R(5,10)                 0.3007                 14.6                    !
 ! A7    A(2,3,4)               -0.0447                  2.2                    !
 ! A9    A(4,3,8)                0.0393                  1.9                    !
 ! A10   A(3,4,5)                0.0534                  2.6                    !
 ! A11   A(3,4,9)               -0.0376                  1.8                    !
 --------------------------------------------------------------------------------
                           ----------------------------
                           ! Normal Mode   145        !
 --------------------------                            --------------------------
 ! Name  Definition              Value          Relative Weight (%)             !
 --------------------------------------------------------------------------------
 ! R19   R(13,14)               -0.047                   3.0                    !
 ! R20   R(14,15)               -0.0458                  2.9                    !
 ! R21   R(14,18)                1.0823                 69.6                    !
 ! R25   R(16,19)                0.0453                  2.9                    !
 ! A27   A(7,13,14)              0.03                    1.9                    !
 ! A28   A(12,13,14)            -0.0278                  1.8                    !
 ! A29   A(13,14,15)             0.0571                  3.7                    !
 ! A30   A(13,14,18)            -0.0304                  2.0                    !
 ! A31   A(15,14,18)            -0.0267                  1.7                    !
 ! A32   A(14,15,16)            -0.0284                  1.8                    !
 ! A33   A(14,15,20)             0.0288                  1.9                    !
 --------------------------------------------------------------------------------
                           ----------------------------
                           ! Normal Mode   146        !
 --------------------------                            --------------------------
 ! Name  Definition              Value          Relative Weight (%)             !
 --------------------------------------------------------------------------------
 ! R4    R(2,3)                  0.0459                  2.5                    !
 ! R6    R(3,4)                  0.0629                  3.4                    !
 ! R7    R(3,8)                 -1.017                  55.2                    !
 ! R9    R(4,9)                 -0.3708                 20.1                    !
 ! R11   R(5,10)                -0.0756                  4.1                    !
 ! A4    A(1,2,3)                0.0257                  1.4                    !
 ! A6    A(3,2,11)              -0.028                   1.5                    !
 ! A7    A(2,3,4)               -0.0437                  2.4                    !
 ! A8    A(2,3,8)                0.026                   1.4                    !
 --------------------------------------------------------------------------------
                           ----------------------------
                           ! Normal Mode   147        !
 --------------------------                            --------------------------
 ! Name  Definition              Value          Relative Weight (%)             !
 --------------------------------------------------------------------------------
 ! R3    R(1,29)                -0.0423                  2.9                    !
 ! R15   R(7,29)                -0.05                    3.5                    !
 ! R34   R(29,30)                1.0713                 74.1                    !
 ! A2    A(2,1,29)              -0.0244                  1.7                    !
 ! A3    A(6,1,29)               0.025                   1.7                    !
 ! A20   A(11,7,29)             -0.0233                  1.6                    !
 ! A21   A(13,7,29)              0.0244                  1.7                    !
 ! A54   A(1,29,7)               0.0483                  3.3                    !
 ! A56   A(7,29,30)             -0.0583                  4.0                    !
 --------------------------------------------------------------------------------
 -------------------------------------------------------------------
 Center     Atomic                   Forces (Hartrees/Bohr)
 Number     Number              X              Y              Z
 -------------------------------------------------------------------
      1        6           0.000002007    0.000001971   -0.000001724
      2        6           0.000002554    0.000003368   -0.000003316
      3        6           0.000004216    0.000004573   -0.000004289
      4        6           0.000005736    0.000002916   -0.000003008
      5        6           0.000005325    0.000002044   -0.000001655
      6        6           0.000003887    0.000000039   -0.000000499
      7        6           0.000000009    0.000003332   -0.000002633
      8        1           0.000004314    0.000005800   -0.000005496
      9        1           0.000007002    0.000003962   -0.000003751
     10        1           0.000006537    0.000000398   -0.000000649
     11        7           0.000000532    0.000004550   -0.000004182
     12        6          -0.000002241    0.000004706   -0.000004672
     13        6          -0.000002828    0.000003020   -0.000002983
     14        6          -0.000003468    0.000002156   -0.000001702
     15        6          -0.000005593    0.000001690   -0.000002074
     16        6          -0.000005928    0.000004653   -0.000003814
     17        6          -0.000005240    0.000005510   -0.000004924
     18        1          -0.000003472    0.000000416   -0.000000413
     19        1          -0.000007666    0.000003914   -0.000003930
     20        6          -0.000006707    0.000001192   -0.000000403
     21        1          -0.000006919   -0.000000559    0.000000482
     22        1          -0.000008931    0.000001380   -0.000001063
     23        1          -0.000006557    0.000000781   -0.000000726
     24        6          -0.000005620    0.000007120   -0.000006998
     25        1          -0.000005958    0.000008137   -0.000007407
     26        1          -0.000003845    0.000008057   -0.000007306
     27        1          -0.000007025    0.000007535   -0.000006806
     28        8          -0.000002510    0.000006807   -0.000005940
     29        7           0.000000602    0.000000679   -0.000001328
     30        1          -0.000000475    0.000000309   -0.000000081
     31        6           0.000003146   -0.000001001    0.000001114
     32        1           0.000004615   -0.000002272    0.000001894
     33        7           0.000001916   -0.000001947    0.000001814
     34        6           0.000001899   -0.000004602    0.000003722
     35        6           0.000003741   -0.000004708    0.000004711
     36        6           0.000000752   -0.000004695    0.000004613
     37        1          -0.000000077   -0.000003775    0.000003844
     38        6           0.000003306   -0.000006886    0.000006172
     39        1           0.000005367   -0.000004473    0.000004015
     40        1           0.000004015   -0.000004219    0.000003726
     41        6           0.000001114   -0.000006520    0.000006516
     42        1           0.000002677   -0.000004357    0.000004121
     43        1          -0.000000307   -0.000003958    0.000003575
     44        6           0.000002413   -0.000007565    0.000006912
     45        1           0.000005051   -0.000007363    0.000006820
     46        1           0.000001901   -0.000007067    0.000006594
     47        1           0.000000312   -0.000007310    0.000006570
     48        1          -0.000000861   -0.000007065    0.000006504
     49        1           0.000003044   -0.000009042    0.000008421
     50        1           0.000004573   -0.000007306    0.000006925
     51        1          -0.000000338    0.000005676   -0.000005290
 -------------------------------------------------------------------
 Cartesian Forces:  Max     0.000009042 RMS     0.000004567
 FormGI is forming the generalized inverse of G from B-inverse, IUseBI=4.
 GSVD:  received Info=                   1 from GESDD.
 Leave Link  716 at Sun Dec 16 14:45:52 2018, MaxMem=  1342177280 cpu:               4.2 elap:               0.3
 (Enter /gpfs/apps/hpc/Apps/Restricted/Gaussian/Rev_A.03/g16/l9999.exe)

 ----------------------------------------------------------------------

 Electric dipole moment (input orientation):
 (Debye = 10**-18 statcoulomb cm , SI units = C m)
                  (au)            (Debye)         (10**-30 SI)
   Tot        0.112741D+01      0.286560D+01      0.955860D+01
   x         -0.846790D+00     -0.215233D+01     -0.717939D+01
   y         -0.237801D+00     -0.604430D+00     -0.201616D+01
   z          0.705305D+00      0.179271D+01      0.597983D+01

 Dipole polarizability, Alpha (input orientation).
 (esu units = cm**3 , SI units = C**2 m**2 J**-1)
 Alpha(0;0):
               (au)            (10**-24 esu)      (10**-40 SI)
   iso        0.482980D+03      0.715703D+02      0.796327D+02
   aniso      0.551936D+03      0.817884D+02      0.910019D+02
   xx         0.468648D+03      0.694464D+02      0.772696D+02
   yx         0.535393D+02      0.793370D+01      0.882743D+01
   yy         0.802724D+03      0.118951D+03      0.132351D+03
   zx         0.243681D+01      0.361098D+00      0.401776D+00
   zy        -0.285193D+02     -0.422613D+01     -0.470220D+01
   zz         0.177570D+03      0.263131D+02      0.292773D+02

 ----------------------------------------------------------------------

 Dipole orientation:
     6         -0.62126298          5.09950161         -0.13452153
     6         -2.44216280          5.56594563          1.77322063
     6         -3.54987387          7.96473724          2.00415664
     6         -2.77260441          9.80579654          0.30530799
     6         -0.95197017          9.31518280         -1.58672266
     6          0.17655956          6.95050358         -1.86251010
     6         -1.24791252          1.61753736          2.06830333
     1         -4.94914790          8.35090840          3.44510783
     1         -3.58008916         11.68283597          0.42363450
     1         -0.41177929         10.82177685         -2.86464109
     7         -2.77729496          3.35823801          3.10156536
     6         -2.83571294         -1.47364358          5.16867890
     6         -1.18388087         -0.92387106          3.03078620
     6          0.30334783         -2.83596832          2.03826195
     6          0.23569639         -5.27913646          3.07075064
     6         -1.36441437         -5.78468222          5.17664931
     6         -2.87877261         -3.97412812          6.24897661
     1          1.52715649         -2.45637531          0.44209010
     1         -1.37095422         -7.68000469          5.95500661
     6          1.78536572         -7.36221080          1.96858277
     1          3.11537023         -6.66108320          0.56254590
     1          2.81874956         -8.36941637          3.44826576
     1          0.54654844         -8.75526986          1.06607300
     6         -4.56851858         -4.47124141          8.45830713
     1         -4.13845303         -3.18258681         10.01483116
     1         -6.54794994         -4.15926955          7.95193470
     1         -4.34676743         -6.41056847          9.11383149
     8         -4.28113936          0.24870010          6.11492950
     7          0.08346720          2.62010208          0.10830358
     1          1.39139681          1.84774832         -1.07382829
     6          2.05841801          6.38205054         -3.80498003
     1          2.54919055          7.93419231         -5.08096544
     7          3.04382175          4.17614826         -3.95685416
     6          4.92861230          3.70263563         -5.94071461
     6          3.76668305          3.83823445         -8.60065146
     6          7.23446109          5.45988291         -5.74893672
     1          5.58992674          1.76336587         -5.64201249
     6          5.73969314          3.16303827        -10.61102259
     1          3.07044254          5.76377909         -8.91930605
     1          2.13760545          2.56996725         -8.71223527
     6          9.21273623          4.77460689         -7.75039857
     1          6.61818206          7.41641106         -6.04162510
     1          8.03118479          5.35037277         -3.84460778
     6          8.07493239          4.86550074        -10.41368248
     1          4.90461396          3.29368684        -12.49790900
     1          6.31410786          1.18764355        -10.34984819
     1         10.82836683          6.05728807         -7.60723114
     1          9.92781901          2.86478375         -7.37597276
     1          9.48768808          4.31304928        -11.81880436
     1          7.52735448          6.81801156        -10.84676773
     1         -3.95206248          2.03931896          4.99361331

 Electric dipole moment (dipole orientation):
 (Debye = 10**-18 statcoulomb cm , SI units = C m)
                  (au)            (Debye)         (10**-30 SI)
   Tot        0.112741D+01      0.286560D+01      0.955860D+01
   x          0.000000D+00      0.000000D+00      0.000000D+00
   y          0.000000D+00      0.000000D+00      0.000000D+00
   z          0.112741D+01      0.286560D+01      0.955860D+01

 Dipole polarizability, Alpha (dipole orientation).
 (esu units = cm**3 , SI units = C**2 m**2 J**-1)
 Alpha(0;0):
               (au)            (10**-24 esu)      (10**-40 SI)
   iso        0.482980D+03      0.715703D+02      0.796327D+02
   aniso      0.551936D+03      0.817884D+02      0.910019D+02
   xx         0.307364D+03      0.455466D+02      0.506774D+02
   yx        -0.633608D+02     -0.938911D+01     -0.104468D+02
   yy         0.749786D+03      0.111107D+03      0.123623D+03
   zx        -0.127482D+03     -0.188909D+02     -0.210189D+02
   zy        -0.161577D+03     -0.239432D+02     -0.266404D+02
   zz         0.391792D+03      0.580575D+02      0.645977D+02

 ----------------------------------------------------------------------

 This type of calculation cannot be archived.


 Once you get people laughing, they're
 listening and you can tell them almost anything.
                                 -- Herb Gardner
 Job cpu time:       0 days  0 hours  0 minutes 17.1 seconds.
 Elapsed time:       0 days  0 hours  0 minutes  1.3 seconds.
 File lengths (MBytes):  RWF=     72 Int=      0 D2E=      0 Chk=     56 Scr=      8
 Normal termination of Gaussian 16 at Sun Dec 16 14:45:52 2018.
