 Entering Gaussian System, Link 0=g16
 Input=cyclohexyl-monoBIP-TS1.com
 Output=cyclohexyl-monoBIP-TS1.log
 Initial command:
 /gpfs/apps/hpc/Apps/Restricted/Gaussian/Rev_A.03/g16/l1.exe "/gpfs/scratch60/fas/hammes_schiffer/jg2487/c42n01/Gau-72652.inp" -scrdir="/gpfs/scratch60/fas/hammes_schiffer/jg2487/c42n01/"
 Entering Link 1 = /gpfs/apps/hpc/Apps/Restricted/Gaussian/Rev_A.03/g16/l1.exe PID=     72653.
  
 Copyright (c) 1988,1990,1992,1993,1995,1998,2003,2009,2016,
            Gaussian, Inc.  All Rights Reserved.
  
 This is part of the Gaussian(R) 16 program.  It is based on
 the Gaussian(R) 09 system (copyright 2009, Gaussian, Inc.),
 the Gaussian(R) 03 system (copyright 2003, Gaussian, Inc.),
 the Gaussian(R) 98 system (copyright 1998, Gaussian, Inc.),
 the Gaussian(R) 94 system (copyright 1995, Gaussian, Inc.),
 the Gaussian 92(TM) system (copyright 1992, Gaussian, Inc.),
 the Gaussian 90(TM) system (copyright 1990, Gaussian, Inc.),
 the Gaussian 88(TM) system (copyright 1988, Gaussian, Inc.),
 the Gaussian 86(TM) system (copyright 1986, Carnegie Mellon
 University), and the Gaussian 82(TM) system (copyright 1983,
 Carnegie Mellon University). Gaussian is a federally registered
 trademark of Gaussian, Inc.
  
 This software contains proprietary and confidential information,
 including trade secrets, belonging to Gaussian, Inc.
  
 This software is provided under written license and may be
 used, copied, transmitted, or stored only in accord with that
 written license.
  
 The following legend is applicable only to US Government
 contracts under FAR:
  
                    RESTRICTED RIGHTS LEGEND
  
 Use, reproduction and disclosure by the US Government is
 subject to restrictions as set forth in subparagraphs (a)
 and (c) of the Commercial Computer Software - Restricted
 Rights clause in FAR 52.227-19.
  
 Gaussian, Inc.
 340 Quinnipiac St., Bldg. 40, Wallingford CT 06492
  
  
 ---------------------------------------------------------------
 Warning -- This program may not be used in any manner that
 competes with the business of Gaussian, Inc. or will provide
 assistance to any competitor of Gaussian, Inc.  The licensee
 of this program is prohibited from giving any competitor of
 Gaussian, Inc. access to this program.  By using this program,
 the user acknowledges that Gaussian, Inc. is engaged in the
 business of creating and licensing software in the field of
 computational chemistry and represents and warrants to the
 licensee that it is not a competitor of Gaussian, Inc. and that
 it will not use this program in any manner prohibited above.
 ---------------------------------------------------------------
  

 Cite this work as:
 Gaussian 16, Revision A.03,
 M. J. Frisch, G. W. Trucks, H. B. Schlegel, G. E. Scuseria, 
 M. A. Robb, J. R. Cheeseman, G. Scalmani, V. Barone, 
 G. A. Petersson, H. Nakatsuji, X. Li, M. Caricato, A. V. Marenich, 
 J. Bloino, B. G. Janesko, R. Gomperts, B. Mennucci, H. P. Hratchian, 
 J. V. Ortiz, A. F. Izmaylov, J. L. Sonnenberg, D. Williams-Young, 
 F. Ding, F. Lipparini, F. Egidi, J. Goings, B. Peng, A. Petrone, 
 T. Henderson, D. Ranasinghe, V. G. Zakrzewski, J. Gao, N. Rega, 
 G. Zheng, W. Liang, M. Hada, M. Ehara, K. Toyota, R. Fukuda, 
 J. Hasegawa, M. Ishida, T. Nakajima, Y. Honda, O. Kitao, H. Nakai, 
 T. Vreven, K. Throssell, J. A. Montgomery, Jr., J. E. Peralta, 
 F. Ogliaro, M. J. Bearpark, J. J. Heyd, E. N. Brothers, K. N. Kudin, 
 V. N. Staroverov, T. A. Keith, R. Kobayashi, J. Normand, 
 K. Raghavachari, A. P. Rendell, J. C. Burant, S. S. Iyengar, 
 J. Tomasi, M. Cossi, J. M. Millam, M. Klene, C. Adamo, R. Cammi, 
 J. W. Ochterski, R. L. Martin, K. Morokuma, O. Farkas, 
 J. B. Foresman, and D. J. Fox, Gaussian, Inc., Wallingford CT, 2016.
 
 ******************************************
 Gaussian 16:  ES64L-G16RevA.03 25-Dec-2016
                21-Dec-2018 
 ******************************************
 %chk=cyclohexyl-monoBIP-TS1.chk
 %mem=10GB
 %nprocshared=16
 Will use up to   16 processors via shared memory.
 ----------------------------------------------------------------
 #p freq(ReadFC,InternalModes) Geom(AllCheck) NoSymm scale=0.9631
 ----------------------------------------------------------------
 1/18=20,29=7,38=1,114=963100/1,3;
 2/9=110,12=2,15=1,40=1/2;
 7/8=21,25=11,30=1/16;
 99/5=2/99;
 Leave Link    1 at Fri Dec 21 18:11:59 2018, MaxMem=  1342177280 cpu:               9.9 elap:               0.7
 (Enter /gpfs/apps/hpc/Apps/Restricted/Gaussian/Rev_A.03/g16/l101.exe)
 Structure from the checkpoint file:  "cyclohexyl-monoBIP-TS1.chk"
 ----------------------------------------------------------------------
 cyclohexylimine monoBIP oxidized, optimize to transition state of firs
 t proton transferred
 ----------------------------------------------------------------------
 Charge =  1 Multiplicity = 2
 Redundant internal coordinates found in file.  (old form).
 C,0,-0.424607,2.698681,0.246936
 C,0,-1.834895,2.828754,0.18566
 C,0,-2.424886,4.098846,0.090523
 C,0,-1.569497,5.191357,0.066722
 C,0,-0.164852,5.047616,0.134183
 C,0,0.448813,3.799258,0.226225
 C,0,-1.352031,0.697422,0.311466
 H,0,-3.499604,4.214883,0.037539
 H,0,-1.985482,6.188922,-0.003634
 H,0,0.457072,5.934987,0.11505
 N,0,-2.373056,1.565117,0.229857
 C,0,-2.977567,-1.164504,0.37122
 C,0,-1.583889,-0.721368,0.369574
 C,0,-0.560591,-1.655843,0.409136
 C,0,-0.848746,-3.024455,0.461911
 C,0,-2.215394,-3.436678,0.491161
 C,0,-3.284485,-2.575241,0.4582
 H,0,0.466302,-1.31869,0.395031
 H,0,-2.410822,-4.497069,0.5449
 C,0,0.233944,-4.089907,0.47711
 C,0,-4.733161,-3.059758,0.502657
 O,0,-3.926754,-0.291611,0.288683
 N,0,-0.159673,1.35711,0.324518
 H,0,0.798762,1.018009,0.38301
 C,0,1.898417,3.621363,0.297259
 H,0,2.498358,4.536284,0.26608
 N,0,2.408265,2.449815,0.38901
 C,0,3.871568,2.326873,0.452582
 C,0,4.537652,2.74791,-0.868229
 C,0,4.489658,3.094367,1.632758
 H,0,4.076322,1.261006,0.604312
 C,0,6.052077,2.520597,-0.807212
 H,0,4.327522,3.810324,-1.040859
 H,0,4.093558,2.190502,-1.698265
 C,0,6.003169,2.861186,1.69797
 H,0,4.295817,4.165731,1.503811
 H,0,4.004091,2.788318,2.563892
 C,0,6.680962,3.257149,0.380761
 H,0,6.517422,2.837187,-1.745439
 H,0,6.245442,1.445153,-0.706744
 H,0,6.429428,3.42489,2.533425
 H,0,6.195998,1.800126,1.899858
 H,0,7.754986,3.053382,0.429497
 H,0,6.568238,4.338537,0.232452
 H,0,-3.45856,0.732537,0.239904
 C,0,-5.457763,-2.65294,-0.800234
 H,0,-6.478475,-3.043175,-0.77959
 H,0,-5.503644,-1.570556,-0.913427
 H,0,-4.947155,-3.074311,-1.669598
 C,0,-5.453293,-2.444617,1.724046
 H,0,-5.491098,-1.357955,1.663365
 H,0,-6.476851,-2.825562,1.762728
 H,0,-4.94878,-2.726812,2.651619
 C,0,-4.801307,-4.588504,0.635955
 H,0,-4.342551,-5.095607,-0.217052
 H,0,-4.308416,-4.932997,1.54874
 H,0,-5.848585,-4.892902,0.68327
 C,0,0.06191,-4.967137,1.738421
 H,0,-0.914426,-5.454721,1.767608
 H,0,0.828377,-5.746193,1.736297
 H,0,0.178048,-4.371048,2.646261
 C,0,0.064986,-4.97096,-0.783111
 H,0,0.821049,-5.760096,-0.770114
 H,0,-0.919054,-5.4424,-0.819018
 H,0,0.198227,-4.379851,-1.691934
 C,0,1.646432,-3.492492,0.479322
 H,0,1.830423,-2.889548,-0.413151
 H,0,1.820166,-2.872466,1.362331
 H,0,2.378025,-4.303097,0.490103
 Recover connectivity data from disk.
 ITRead=  0  0  0  0  0  0  0  0  0  0  0  0  0  0  0  0  0  0  0  0
 ITRead=  0  0  0  0  0  0  0  0  0  0  0  0  0  0  0  0  0  0  0  0
 ITRead=  0  0  0  0  0  0  0  0  0  0  0  0  0  0  0  0  0  0  0  0
 ITRead=  0  0  0  0  0  0  0  0  0
 MicOpt= -1 -1 -1 -1 -1 -1 -1 -1 -1 -1 -1 -1 -1 -1 -1 -1 -1 -1 -1 -1
 MicOpt= -1 -1 -1 -1 -1 -1 -1 -1 -1 -1 -1 -1 -1 -1 -1 -1 -1 -1 -1 -1
 MicOpt= -1 -1 -1 -1 -1 -1 -1 -1 -1 -1 -1 -1 -1 -1 -1 -1 -1 -1 -1 -1
 MicOpt= -1 -1 -1 -1 -1 -1 -1 -1 -1
 NAtoms=     69 NQM=       69 NQMF=       0 NMMI=      0 NMMIF=      0
                NMic=       0 NMicF=      0.
                    Isotopes and Nuclear Properties:
 (Nuclear quadrupole moments (NQMom) in fm**2, nuclear magnetic moments (NMagM)
  in nuclear magnetons)

  Atom         1           2           3           4           5           6           7           8           9          10
 IAtWgt=          12          12          12          12          12          12          12           1           1           1
 AtmWgt=  12.0000000  12.0000000  12.0000000  12.0000000  12.0000000  12.0000000  12.0000000   1.0078250   1.0078250   1.0078250
 NucSpn=           0           0           0           0           0           0           0           1           1           1
 AtZEff=   3.6000000   3.6000000   3.6000000   3.6000000   3.6000000   3.6000000   3.6000000   1.0000000   1.0000000   1.0000000
 NQMom=    0.0000000   0.0000000   0.0000000   0.0000000   0.0000000   0.0000000   0.0000000   0.0000000   0.0000000   0.0000000
 NMagM=    0.0000000   0.0000000   0.0000000   0.0000000   0.0000000   0.0000000   0.0000000   2.7928460   2.7928460   2.7928460
 AtZNuc=   6.0000000   6.0000000   6.0000000   6.0000000   6.0000000   6.0000000   6.0000000   1.0000000   1.0000000   1.0000000

  Atom        11          12          13          14          15          16          17          18          19          20
 IAtWgt=          14          12          12          12          12          12          12           1           1          12
 AtmWgt=  14.0030740  12.0000000  12.0000000  12.0000000  12.0000000  12.0000000  12.0000000   1.0078250   1.0078250  12.0000000
 NucSpn=           2           0           0           0           0           0           0           1           1           0
 AtZEff=   4.5500000   3.6000000   3.6000000   3.6000000   3.6000000   3.6000000   3.6000000   1.0000000   1.0000000   3.6000000
 NQMom=    2.0440000   0.0000000   0.0000000   0.0000000   0.0000000   0.0000000   0.0000000   0.0000000   0.0000000   0.0000000
 NMagM=    0.4037610   0.0000000   0.0000000   0.0000000   0.0000000   0.0000000   0.0000000   2.7928460   2.7928460   0.0000000
 AtZNuc=   7.0000000   6.0000000   6.0000000   6.0000000   6.0000000   6.0000000   6.0000000   1.0000000   1.0000000   6.0000000

  Atom        21          22          23          24          25          26          27          28          29          30
 IAtWgt=          12          16          14           1          12           1          14          12          12          12
 AtmWgt=  12.0000000  15.9949146  14.0030740   1.0078250  12.0000000   1.0078250  14.0030740  12.0000000  12.0000000  12.0000000
 NucSpn=           0           0           2           1           0           1           2           0           0           0
 AtZEff=   3.6000000   5.6000000   4.5500000   1.0000000   3.6000000   1.0000000   4.5500000   3.6000000   3.6000000   3.6000000
 NQMom=    0.0000000   0.0000000   2.0440000   0.0000000   0.0000000   0.0000000   2.0440000   0.0000000   0.0000000   0.0000000
 NMagM=    0.0000000   0.0000000   0.4037610   2.7928460   0.0000000   2.7928460   0.4037610   0.0000000   0.0000000   0.0000000
 AtZNuc=   6.0000000   8.0000000   7.0000000   1.0000000   6.0000000   1.0000000   7.0000000   6.0000000   6.0000000   6.0000000

  Atom        31          32          33          34          35          36          37          38          39          40
 IAtWgt=           1          12           1           1          12           1           1          12           1           1
 AtmWgt=   1.0078250  12.0000000   1.0078250   1.0078250  12.0000000   1.0078250   1.0078250  12.0000000   1.0078250   1.0078250
 NucSpn=           1           0           1           1           0           1           1           0           1           1
 AtZEff=   1.0000000   3.6000000   1.0000000   1.0000000   3.6000000   1.0000000   1.0000000   3.6000000   1.0000000   1.0000000
 NQMom=    0.0000000   0.0000000   0.0000000   0.0000000   0.0000000   0.0000000   0.0000000   0.0000000   0.0000000   0.0000000
 NMagM=    2.7928460   0.0000000   2.7928460   2.7928460   0.0000000   2.7928460   2.7928460   0.0000000   2.7928460   2.7928460
 AtZNuc=   1.0000000   6.0000000   1.0000000   1.0000000   6.0000000   1.0000000   1.0000000   6.0000000   1.0000000   1.0000000

  Atom        41          42          43          44          45          46          47          48          49          50
 IAtWgt=           1           1           1           1           1          12           1           1           1          12
 AtmWgt=   1.0078250   1.0078250   1.0078250   1.0078250   1.0078250  12.0000000   1.0078250   1.0078250   1.0078250  12.0000000
 NucSpn=           1           1           1           1           1           0           1           1           1           0
 AtZEff=   1.0000000   1.0000000   1.0000000   1.0000000   1.0000000   3.6000000   1.0000000   1.0000000   1.0000000   3.6000000
 NQMom=    0.0000000   0.0000000   0.0000000   0.0000000   0.0000000   0.0000000   0.0000000   0.0000000   0.0000000   0.0000000
 NMagM=    2.7928460   2.7928460   2.7928460   2.7928460   2.7928460   0.0000000   2.7928460   2.7928460   2.7928460   0.0000000
 AtZNuc=   1.0000000   1.0000000   1.0000000   1.0000000   1.0000000   6.0000000   1.0000000   1.0000000   1.0000000   6.0000000

  Atom        51          52          53          54          55          56          57          58          59          60
 IAtWgt=           1           1           1          12           1           1           1          12           1           1
 AtmWgt=   1.0078250   1.0078250   1.0078250  12.0000000   1.0078250   1.0078250   1.0078250  12.0000000   1.0078250   1.0078250
 NucSpn=           1           1           1           0           1           1           1           0           1           1
 AtZEff=   1.0000000   1.0000000   1.0000000   3.6000000   1.0000000   1.0000000   1.0000000   3.6000000   1.0000000   1.0000000
 NQMom=    0.0000000   0.0000000   0.0000000   0.0000000   0.0000000   0.0000000   0.0000000   0.0000000   0.0000000   0.0000000
 NMagM=    2.7928460   2.7928460   2.7928460   0.0000000   2.7928460   2.7928460   2.7928460   0.0000000   2.7928460   2.7928460
 AtZNuc=   1.0000000   1.0000000   1.0000000   6.0000000   1.0000000   1.0000000   1.0000000   6.0000000   1.0000000   1.0000000

  Atom        61          62          63          64          65          66          67          68          69
 IAtWgt=           1          12           1           1           1          12           1           1           1
 AtmWgt=   1.0078250  12.0000000   1.0078250   1.0078250   1.0078250  12.0000000   1.0078250   1.0078250   1.0078250
 NucSpn=           1           0           1           1           1           0           1           1           1
 AtZEff=   1.0000000   3.6000000   1.0000000   1.0000000   1.0000000   3.6000000   1.0000000   1.0000000   1.0000000
 NQMom=    0.0000000   0.0000000   0.0000000   0.0000000   0.0000000   0.0000000   0.0000000   0.0000000   0.0000000
 NMagM=    2.7928460   0.0000000   2.7928460   2.7928460   2.7928460   0.0000000   2.7928460   2.7928460   2.7928460
 AtZNuc=   1.0000000   6.0000000   1.0000000   1.0000000   1.0000000   6.0000000   1.0000000   1.0000000   1.0000000
 Leave Link  101 at Fri Dec 21 18:11:59 2018, MaxMem=  1342177280 cpu:               5.2 elap:               0.4
 (Enter /gpfs/apps/hpc/Apps/Restricted/Gaussian/Rev_A.03/g16/l103.exe)

 GradGradGradGradGradGradGradGradGradGradGradGradGradGradGradGradGradGrad
 Berny optimization.
 Initialization pass.
                           ----------------------------
                           !    Initial Parameters    !
                           ! (Angstroms and Degrees)  !
 --------------------------                            --------------------------
 ! Name  Definition              Value          Derivative Info.                !
 --------------------------------------------------------------------------------
 ! R1    R(1,2)                  1.4176         estimate D2E/DX2                !
 ! R2    R(1,6)                  1.4052         estimate D2E/DX2                !
 ! R3    R(1,23)                 1.3697         estimate D2E/DX2                !
 ! R4    R(2,3)                  1.4037         estimate D2E/DX2                !
 ! R5    R(2,11)                 1.3742         estimate D2E/DX2                !
 ! R6    R(3,4)                  1.3877         estimate D2E/DX2                !
 ! R7    R(3,8)                  1.0823         estimate D2E/DX2                !
 ! R8    R(4,5)                  1.4136         estimate D2E/DX2                !
 ! R9    R(4,9)                  1.0831         estimate D2E/DX2                !
 ! R10   R(5,6)                  1.3941         estimate D2E/DX2                !
 ! R11   R(5,10)                 1.0838         estimate D2E/DX2                !
 ! R12   R(6,25)                 1.4622         estimate D2E/DX2                !
 ! R13   R(7,11)                 1.3424         estimate D2E/DX2                !
 ! R14   R(7,13)                 1.4388         estimate D2E/DX2                !
 ! R15   R(7,23)                 1.3627         estimate D2E/DX2                !
 ! R16   R(12,13)                1.4624         estimate D2E/DX2                !
 ! R17   R(12,17)                1.4464         estimate D2E/DX2                !
 ! R18   R(12,22)                1.2922         estimate D2E/DX2                !
 ! R19   R(13,14)                1.3863         estimate D2E/DX2                !
 ! R20   R(14,15)                1.3996         estimate D2E/DX2                !
 ! R21   R(14,18)                1.0809         estimate D2E/DX2                !
 ! R22   R(15,16)                1.4278         estimate D2E/DX2                !
 ! R23   R(15,20)                1.5191         estimate D2E/DX2                !
 ! R24   R(16,17)                1.3734         estimate D2E/DX2                !
 ! R25   R(16,19)                1.0796         estimate D2E/DX2                !
 ! R26   R(17,21)                1.5282         estimate D2E/DX2                !
 ! R27   R(20,58)                1.546          estimate D2E/DX2                !
 ! R28   R(20,62)                1.5469         estimate D2E/DX2                !
 ! R29   R(20,66)                1.5336         estimate D2E/DX2                !
 ! R30   R(21,46)                1.5453         estimate D2E/DX2                !
 ! R31   R(21,50)                1.5456         estimate D2E/DX2                !
 ! R32   R(21,54)                1.5361         estimate D2E/DX2                !
 ! R33   R(22,45)                1.1271         estimate D2E/DX2                !
 ! R34   R(23,24)                1.0183         estimate D2E/DX2                !
 ! R35   R(25,26)                1.0945         estimate D2E/DX2                !
 ! R36   R(25,27)                1.281          estimate D2E/DX2                !
 ! R37   R(27,28)                1.4698         estimate D2E/DX2                !
 ! R38   R(28,29)                1.538          estimate D2E/DX2                !
 ! R39   R(28,30)                1.5375         estimate D2E/DX2                !
 ! R40   R(28,31)                1.0959         estimate D2E/DX2                !
 ! R41   R(29,32)                1.5326         estimate D2E/DX2                !
 ! R42   R(29,33)                1.0967         estimate D2E/DX2                !
 ! R43   R(29,34)                1.094          estimate D2E/DX2                !
 ! R44   R(30,35)                1.5328         estimate D2E/DX2                !
 ! R45   R(30,36)                1.0964         estimate D2E/DX2                !
 ! R46   R(30,37)                1.0938         estimate D2E/DX2                !
 ! R47   R(32,38)                1.5327         estimate D2E/DX2                !
 ! R48   R(32,39)                1.0941         estimate D2E/DX2                !
 ! R49   R(32,40)                1.0973         estimate D2E/DX2                !
 ! R50   R(35,38)                1.5334         estimate D2E/DX2                !
 ! R51   R(35,41)                1.0943         estimate D2E/DX2                !
 ! R52   R(35,42)                1.0972         estimate D2E/DX2                !
 ! R53   R(38,43)                1.0943         estimate D2E/DX2                !
 ! R54   R(38,44)                1.0973         estimate D2E/DX2                !
 ! R55   R(46,47)                1.093          estimate D2E/DX2                !
 ! R56   R(46,48)                1.0893         estimate D2E/DX2                !
 ! R57   R(46,49)                1.0927         estimate D2E/DX2                !
 ! R58   R(50,51)                1.089          estimate D2E/DX2                !
 ! R59   R(50,52)                1.0928         estimate D2E/DX2                !
 ! R60   R(50,53)                1.093          estimate D2E/DX2                !
 ! R61   R(54,55)                1.0933         estimate D2E/DX2                !
 ! R62   R(54,56)                1.0931         estimate D2E/DX2                !
 ! R63   R(54,57)                1.0916         estimate D2E/DX2                !
 ! R64   R(58,59)                1.0917         estimate D2E/DX2                !
 ! R65   R(58,60)                1.0929         estimate D2E/DX2                !
 ! R66   R(58,61)                1.0922         estimate D2E/DX2                !
 ! R67   R(62,63)                1.0929         estimate D2E/DX2                !
 ! R68   R(62,64)                1.0917         estimate D2E/DX2                !
 ! R69   R(62,65)                1.0923         estimate D2E/DX2                !
 ! R70   R(66,67)                1.0927         estimate D2E/DX2                !
 ! R71   R(66,68)                1.0928         estimate D2E/DX2                !
 ! R72   R(66,69)                1.092          estimate D2E/DX2                !
 ! A1    A(2,1,6)              123.0834         estimate D2E/DX2                !
 ! A2    A(2,1,23)             106.544          estimate D2E/DX2                !
 ! A3    A(6,1,23)             130.3726         estimate D2E/DX2                !
 ! A4    A(1,2,3)              120.2722         estimate D2E/DX2                !
 ! A5    A(1,2,11)             107.6884         estimate D2E/DX2                !
 ! A6    A(3,2,11)             132.0384         estimate D2E/DX2                !
 ! A7    A(2,3,4)              117.0278         estimate D2E/DX2                !
 ! A8    A(2,3,8)              121.1797         estimate D2E/DX2                !
 ! A9    A(4,3,8)              121.7925         estimate D2E/DX2                !
 ! A10   A(3,4,5)              122.1147         estimate D2E/DX2                !
 ! A11   A(3,4,9)              119.305          estimate D2E/DX2                !
 ! A12   A(5,4,9)              118.5802         estimate D2E/DX2                !
 ! A13   A(4,5,6)              122.1146         estimate D2E/DX2                !
 ! A14   A(4,5,10)             119.0856         estimate D2E/DX2                !
 ! A15   A(6,5,10)             118.7998         estimate D2E/DX2                !
 ! A16   A(1,6,5)              115.3862         estimate D2E/DX2                !
 ! A17   A(1,6,25)             121.346          estimate D2E/DX2                !
 ! A18   A(5,6,25)             123.2678         estimate D2E/DX2                !
 ! A19   A(11,7,13)            121.1499         estimate D2E/DX2                !
 ! A20   A(11,7,23)            110.6817         estimate D2E/DX2                !
 ! A21   A(13,7,23)            128.1683         estimate D2E/DX2                !
 ! A22   A(2,11,7)             107.3656         estimate D2E/DX2                !
 ! A23   A(13,12,17)           119.8574         estimate D2E/DX2                !
 ! A24   A(13,12,22)           119.6874         estimate D2E/DX2                !
 ! A25   A(17,12,22)           120.4545         estimate D2E/DX2                !
 ! A26   A(7,13,12)            116.899          estimate D2E/DX2                !
 ! A27   A(7,13,14)            123.1542         estimate D2E/DX2                !
 ! A28   A(12,13,14)           119.9434         estimate D2E/DX2                !
 ! A29   A(13,14,15)           120.5464         estimate D2E/DX2                !
 ! A30   A(13,14,18)           119.3811         estimate D2E/DX2                !
 ! A31   A(15,14,18)           120.0721         estimate D2E/DX2                !
 ! A32   A(14,15,16)           118.6962         estimate D2E/DX2                !
 ! A33   A(14,15,20)           122.6483         estimate D2E/DX2                !
 ! A34   A(16,15,20)           118.6533         estimate D2E/DX2                !
 ! A35   A(15,16,17)           124.3008         estimate D2E/DX2                !
 ! A36   A(15,16,19)           117.2502         estimate D2E/DX2                !
 ! A37   A(17,16,19)           118.4488         estimate D2E/DX2                !
 ! A38   A(12,17,16)           116.6191         estimate D2E/DX2                !
 ! A39   A(12,17,21)           120.8072         estimate D2E/DX2                !
 ! A40   A(16,17,21)           122.573          estimate D2E/DX2                !
 ! A41   A(15,20,58)           109.0766         estimate D2E/DX2                !
 ! A42   A(15,20,62)           108.2687         estimate D2E/DX2                !
 ! A43   A(15,20,66)           112.5334         estimate D2E/DX2                !
 ! A44   A(58,20,62)           109.2278         estimate D2E/DX2                !
 ! A45   A(58,20,66)           108.8051         estimate D2E/DX2                !
 ! A46   A(62,20,66)           108.8829         estimate D2E/DX2                !
 ! A47   A(17,21,46)           109.6639         estimate D2E/DX2                !
 ! A48   A(17,21,50)           109.7849         estimate D2E/DX2                !
 ! A49   A(17,21,54)           111.1077         estimate D2E/DX2                !
 ! A50   A(46,21,50)           110.061          estimate D2E/DX2                !
 ! A51   A(46,21,54)           108.3224         estimate D2E/DX2                !
 ! A52   A(50,21,54)           107.8701         estimate D2E/DX2                !
 ! A53   A(12,22,45)           108.1457         estimate D2E/DX2                !
 ! A54   A(1,23,7)             107.7201         estimate D2E/DX2                !
 ! A55   A(1,23,24)            120.7614         estimate D2E/DX2                !
 ! A56   A(7,23,24)            131.5177         estimate D2E/DX2                !
 ! A57   A(6,25,26)            116.1245         estimate D2E/DX2                !
 ! A58   A(6,25,27)            120.6196         estimate D2E/DX2                !
 ! A59   A(26,25,27)           123.2558         estimate D2E/DX2                !
 ! A60   A(25,27,28)           118.4144         estimate D2E/DX2                !
 ! A61   A(27,28,29)           111.7845         estimate D2E/DX2                !
 ! A62   A(27,28,30)           113.0585         estimate D2E/DX2                !
 ! A63   A(27,28,31)           105.8633         estimate D2E/DX2                !
 ! A64   A(29,28,30)           110.3918         estimate D2E/DX2                !
 ! A65   A(29,28,31)           107.7121         estimate D2E/DX2                !
 ! A66   A(30,28,31)           107.705          estimate D2E/DX2                !
 ! A67   A(28,29,32)           110.6802         estimate D2E/DX2                !
 ! A68   A(28,29,33)           108.5061         estimate D2E/DX2                !
 ! A69   A(28,29,34)           109.6503         estimate D2E/DX2                !
 ! A70   A(32,29,33)           109.8335         estimate D2E/DX2                !
 ! A71   A(32,29,34)           110.8394         estimate D2E/DX2                !
 ! A72   A(33,29,34)           107.2404         estimate D2E/DX2                !
 ! A73   A(28,30,35)           110.7125         estimate D2E/DX2                !
 ! A74   A(28,30,36)           109.0531         estimate D2E/DX2                !
 ! A75   A(28,30,37)           109.5906         estimate D2E/DX2                !
 ! A76   A(35,30,36)           109.1625         estimate D2E/DX2                !
 ! A77   A(35,30,37)           111.0731         estimate D2E/DX2                !
 ! A78   A(36,30,37)           107.1605         estimate D2E/DX2                !
 ! A79   A(29,32,38)           111.4087         estimate D2E/DX2                !
 ! A80   A(29,32,39)           110.0732         estimate D2E/DX2                !
 ! A81   A(29,32,40)           108.8528         estimate D2E/DX2                !
 ! A82   A(38,32,39)           110.5536         estimate D2E/DX2                !
 ! A83   A(38,32,40)           109.1297         estimate D2E/DX2                !
 ! A84   A(39,32,40)           106.6883         estimate D2E/DX2                !
 ! A85   A(30,35,38)           111.1398         estimate D2E/DX2                !
 ! A86   A(30,35,41)           109.8012         estimate D2E/DX2                !
 ! A87   A(30,35,42)           109.1776         estimate D2E/DX2                !
 ! A88   A(38,35,41)           110.5263         estimate D2E/DX2                !
 ! A89   A(38,35,42)           109.2755         estimate D2E/DX2                !
 ! A90   A(41,35,42)           106.8122         estimate D2E/DX2                !
 ! A91   A(32,38,35)           111.1215         estimate D2E/DX2                !
 ! A92   A(32,38,43)           110.3495         estimate D2E/DX2                !
 ! A93   A(32,38,44)           109.0666         estimate D2E/DX2                !
 ! A94   A(35,38,43)           110.3348         estimate D2E/DX2                !
 ! A95   A(35,38,44)           108.9763         estimate D2E/DX2                !
 ! A96   A(43,38,44)           106.8793         estimate D2E/DX2                !
 ! A97   A(21,46,47)           109.1463         estimate D2E/DX2                !
 ! A98   A(21,46,48)           111.6515         estimate D2E/DX2                !
 ! A99   A(21,46,49)           110.4964         estimate D2E/DX2                !
 ! A100  A(47,46,48)           108.5068         estimate D2E/DX2                !
 ! A101  A(47,46,49)           108.2844         estimate D2E/DX2                !
 ! A102  A(48,46,49)           108.6742         estimate D2E/DX2                !
 ! A103  A(21,50,51)           111.6716         estimate D2E/DX2                !
 ! A104  A(21,50,52)           109.0038         estimate D2E/DX2                !
 ! A105  A(21,50,53)           110.6607         estimate D2E/DX2                !
 ! A106  A(51,50,52)           108.4991         estimate D2E/DX2                !
 ! A107  A(51,50,53)           108.7204         estimate D2E/DX2                !
 ! A108  A(52,50,53)           108.1978         estimate D2E/DX2                !
 ! A109  A(21,54,55)           112.0434         estimate D2E/DX2                !
 ! A110  A(21,54,56)           111.4767         estimate D2E/DX2                !
 ! A111  A(21,54,57)           108.8952         estimate D2E/DX2                !
 ! A112  A(55,54,56)           108.4302         estimate D2E/DX2                !
 ! A113  A(55,54,57)           107.8812         estimate D2E/DX2                !
 ! A114  A(56,54,57)           107.9703         estimate D2E/DX2                !
 ! A115  A(20,58,59)           112.0095         estimate D2E/DX2                !
 ! A116  A(20,58,60)           108.957          estimate D2E/DX2                !
 ! A117  A(20,58,61)           110.8929         estimate D2E/DX2                !
 ! A118  A(59,58,60)           107.9921         estimate D2E/DX2                !
 ! A119  A(59,58,61)           108.4585         estimate D2E/DX2                !
 ! A120  A(60,58,61)           108.4258         estimate D2E/DX2                !
 ! A121  A(20,62,63)           109.0254         estimate D2E/DX2                !
 ! A122  A(20,62,64)           111.7891         estimate D2E/DX2                !
 ! A123  A(20,62,65)           110.8719         estimate D2E/DX2                !
 ! A124  A(63,62,64)           108.1875         estimate D2E/DX2                !
 ! A125  A(63,62,65)           108.4358         estimate D2E/DX2                !
 ! A126  A(64,62,65)           108.4376         estimate D2E/DX2                !
 ! A127  A(20,66,67)           111.6456         estimate D2E/DX2                !
 ! A128  A(20,66,68)           111.6285         estimate D2E/DX2                !
 ! A129  A(20,66,69)           109.1409         estimate D2E/DX2                !
 ! A130  A(67,66,68)           108.67           estimate D2E/DX2                !
 ! A131  A(67,66,69)           107.7506         estimate D2E/DX2                !
 ! A132  A(68,66,69)           107.8588         estimate D2E/DX2                !
 ! D1    D(6,1,2,3)              0.4305         estimate D2E/DX2                !
 ! D2    D(6,1,2,11)          -179.8971         estimate D2E/DX2                !
 ! D3    D(23,1,2,3)          -179.5981         estimate D2E/DX2                !
 ! D4    D(23,1,2,11)            0.0744         estimate D2E/DX2                !
 ! D5    D(2,1,6,5)             -0.2811         estimate D2E/DX2                !
 ! D6    D(2,1,6,25)           179.7319         estimate D2E/DX2                !
 ! D7    D(23,1,6,5)           179.7549         estimate D2E/DX2                !
 ! D8    D(23,1,6,25)           -0.2322         estimate D2E/DX2                !
 ! D9    D(2,1,23,7)            -0.0065         estimate D2E/DX2                !
 ! D10   D(2,1,23,24)         -179.7208         estimate D2E/DX2                !
 ! D11   D(6,1,23,7)           179.9621         estimate D2E/DX2                !
 ! D12   D(6,1,23,24)            0.2478         estimate D2E/DX2                !
 ! D13   D(1,2,3,4)             -0.2776         estimate D2E/DX2                !
 ! D14   D(1,2,3,8)            179.6715         estimate D2E/DX2                !
 ! D15   D(11,2,3,4)          -179.8574         estimate D2E/DX2                !
 ! D16   D(11,2,3,8)             0.0917         estimate D2E/DX2                !
 ! D17   D(1,2,11,7)            -0.1142         estimate D2E/DX2                !
 ! D18   D(3,2,11,7)           179.5049         estimate D2E/DX2                !
 ! D19   D(2,3,4,5)              0.0131         estimate D2E/DX2                !
 ! D20   D(2,3,4,9)           -179.8579         estimate D2E/DX2                !
 ! D21   D(8,3,4,5)           -179.9357         estimate D2E/DX2                !
 ! D22   D(8,3,4,9)              0.1933         estimate D2E/DX2                !
 ! D23   D(3,4,5,6)              0.1267         estimate D2E/DX2                !
 ! D24   D(3,4,5,10)          -179.8016         estimate D2E/DX2                !
 ! D25   D(9,4,5,6)            179.9986         estimate D2E/DX2                !
 ! D26   D(9,4,5,10)             0.0703         estimate D2E/DX2                !
 ! D27   D(4,5,6,1)              0.0064         estimate D2E/DX2                !
 ! D28   D(4,5,6,25)           179.9932         estimate D2E/DX2                !
 ! D29   D(10,5,6,1)           179.9349         estimate D2E/DX2                !
 ! D30   D(10,5,6,25)           -0.0784         estimate D2E/DX2                !
 ! D31   D(1,6,25,26)          179.5            estimate D2E/DX2                !
 ! D32   D(1,6,25,27)           -0.4383         estimate D2E/DX2                !
 ! D33   D(5,6,25,26)           -0.4859         estimate D2E/DX2                !
 ! D34   D(5,6,25,27)          179.5758         estimate D2E/DX2                !
 ! D35   D(13,7,11,2)         -179.7565         estimate D2E/DX2                !
 ! D36   D(23,7,11,2)            0.1134         estimate D2E/DX2                !
 ! D37   D(11,7,13,12)          -1.572          estimate D2E/DX2                !
 ! D38   D(11,7,13,14)         177.7672         estimate D2E/DX2                !
 ! D39   D(23,7,13,12)         178.5828         estimate D2E/DX2                !
 ! D40   D(23,7,13,14)          -2.078          estimate D2E/DX2                !
 ! D41   D(11,7,23,1)           -0.0665         estimate D2E/DX2                !
 ! D42   D(11,7,23,24)         179.6056         estimate D2E/DX2                !
 ! D43   D(13,7,23,1)          179.7919         estimate D2E/DX2                !
 ! D44   D(13,7,23,24)          -0.536          estimate D2E/DX2                !
 ! D45   D(17,12,13,7)        -178.6238         estimate D2E/DX2                !
 ! D46   D(17,12,13,14)          2.0146         estimate D2E/DX2                !
 ! D47   D(22,12,13,7)           1.6905         estimate D2E/DX2                !
 ! D48   D(22,12,13,14)       -177.6711         estimate D2E/DX2                !
 ! D49   D(13,12,17,16)         -2.0964         estimate D2E/DX2                !
 ! D50   D(13,12,17,21)        178.2068         estimate D2E/DX2                !
 ! D51   D(22,12,17,16)        177.5868         estimate D2E/DX2                !
 ! D52   D(22,12,17,21)         -2.11           estimate D2E/DX2                !
 ! D53   D(13,12,22,45)         -0.7526         estimate D2E/DX2                !
 ! D54   D(17,12,22,45)        179.5636         estimate D2E/DX2                !
 ! D55   D(7,13,14,15)        -179.8477         estimate D2E/DX2                !
 ! D56   D(7,13,14,18)          -0.0828         estimate D2E/DX2                !
 ! D57   D(12,13,14,15)         -0.5278         estimate D2E/DX2                !
 ! D58   D(12,13,14,18)        179.2371         estimate D2E/DX2                !
 ! D59   D(13,14,15,16)         -0.7797         estimate D2E/DX2                !
 ! D60   D(13,14,15,20)        178.6721         estimate D2E/DX2                !
 ! D61   D(18,14,15,16)        179.4571         estimate D2E/DX2                !
 ! D62   D(18,14,15,20)         -1.0912         estimate D2E/DX2                !
 ! D63   D(14,15,16,17)          0.6455         estimate D2E/DX2                !
 ! D64   D(14,15,16,19)       -179.2161         estimate D2E/DX2                !
 ! D65   D(20,15,16,17)       -178.8284         estimate D2E/DX2                !
 ! D66   D(20,15,16,19)          1.3099         estimate D2E/DX2                !
 ! D67   D(14,15,20,58)        122.8983         estimate D2E/DX2                !
 ! D68   D(14,15,20,62)       -118.3433         estimate D2E/DX2                !
 ! D69   D(14,15,20,66)          2.0508         estimate D2E/DX2                !
 ! D70   D(16,15,20,58)        -57.6498         estimate D2E/DX2                !
 ! D71   D(16,15,20,62)         61.1087         estimate D2E/DX2                !
 ! D72   D(16,15,20,66)       -178.4972         estimate D2E/DX2                !
 ! D73   D(15,16,17,12)          0.8072         estimate D2E/DX2                !
 ! D74   D(15,16,17,21)       -179.5019         estimate D2E/DX2                !
 ! D75   D(19,16,17,12)       -179.3327         estimate D2E/DX2                !
 ! D76   D(19,16,17,21)          0.3582         estimate D2E/DX2                !
 ! D77   D(12,17,21,46)         61.9516         estimate D2E/DX2                !
 ! D78   D(12,17,21,50)        -59.0898         estimate D2E/DX2                !
 ! D79   D(12,17,21,54)       -178.327          estimate D2E/DX2                !
 ! D80   D(16,17,21,46)       -117.7267         estimate D2E/DX2                !
 ! D81   D(16,17,21,50)        121.2319         estimate D2E/DX2                !
 ! D82   D(16,17,21,54)          1.9947         estimate D2E/DX2                !
 ! D83   D(15,20,58,59)         59.374          estimate D2E/DX2                !
 ! D84   D(15,20,58,60)        178.7881         estimate D2E/DX2                !
 ! D85   D(15,20,58,61)        -61.9474         estimate D2E/DX2                !
 ! D86   D(62,20,58,59)        -58.7838         estimate D2E/DX2                !
 ! D87   D(62,20,58,60)         60.6303         estimate D2E/DX2                !
 ! D88   D(62,20,58,61)        179.8947         estimate D2E/DX2                !
 ! D89   D(66,20,58,59)       -177.5248         estimate D2E/DX2                !
 ! D90   D(66,20,58,60)        -58.1108         estimate D2E/DX2                !
 ! D91   D(66,20,58,61)         61.1537         estimate D2E/DX2                !
 ! D92   D(15,20,62,63)       -178.406          estimate D2E/DX2                !
 ! D93   D(15,20,62,64)        -58.841          estimate D2E/DX2                !
 ! D94   D(15,20,62,65)         62.2869         estimate D2E/DX2                !
 ! D95   D(58,20,62,63)        -59.7434         estimate D2E/DX2                !
 ! D96   D(58,20,62,64)         59.8216         estimate D2E/DX2                !
 ! D97   D(58,20,62,65)       -179.0504         estimate D2E/DX2                !
 ! D98   D(66,20,62,63)         58.9492         estimate D2E/DX2                !
 ! D99   D(66,20,62,64)        178.5141         estimate D2E/DX2                !
 ! D100  D(66,20,62,65)        -60.3579         estimate D2E/DX2                !
 ! D101  D(15,20,66,67)        -60.9754         estimate D2E/DX2                !
 ! D102  D(15,20,66,68)         60.8842         estimate D2E/DX2                !
 ! D103  D(15,20,66,69)       -179.9837         estimate D2E/DX2                !
 ! D104  D(58,20,66,67)        178.0216         estimate D2E/DX2                !
 ! D105  D(58,20,66,68)        -60.1188         estimate D2E/DX2                !
 ! D106  D(58,20,66,69)         59.0133         estimate D2E/DX2                !
 ! D107  D(62,20,66,67)         59.0644         estimate D2E/DX2                !
 ! D108  D(62,20,66,68)       -179.076          estimate D2E/DX2                !
 ! D109  D(62,20,66,69)        -59.944          estimate D2E/DX2                !
 ! D110  D(17,21,46,47)        177.4084         estimate D2E/DX2                !
 ! D111  D(17,21,46,48)        -62.6358         estimate D2E/DX2                !
 ! D112  D(17,21,46,49)         58.4396         estimate D2E/DX2                !
 ! D113  D(50,21,46,47)        -61.717          estimate D2E/DX2                !
 ! D114  D(50,21,46,48)         58.2388         estimate D2E/DX2                !
 ! D115  D(50,21,46,49)        179.3143         estimate D2E/DX2                !
 ! D116  D(54,21,46,47)         55.9968         estimate D2E/DX2                !
 ! D117  D(54,21,46,48)        175.9527         estimate D2E/DX2                !
 ! D118  D(54,21,46,49)        -62.9719         estimate D2E/DX2                !
 ! D119  D(17,21,50,51)         62.0337         estimate D2E/DX2                !
 ! D120  D(17,21,50,52)       -178.101          estimate D2E/DX2                !
 ! D121  D(17,21,50,53)        -59.2277         estimate D2E/DX2                !
 ! D122  D(46,21,50,51)        -58.7683         estimate D2E/DX2                !
 ! D123  D(46,21,50,52)         61.0969         estimate D2E/DX2                !
 ! D124  D(46,21,50,53)        179.9702         estimate D2E/DX2                !
 ! D125  D(54,21,50,51)       -176.7618         estimate D2E/DX2                !
 ! D126  D(54,21,50,52)        -56.8966         estimate D2E/DX2                !
 ! D127  D(54,21,50,53)         61.9767         estimate D2E/DX2                !
 ! D128  D(17,21,54,55)        -61.8032         estimate D2E/DX2                !
 ! D129  D(17,21,54,56)         59.9216         estimate D2E/DX2                !
 ! D130  D(17,21,54,57)        178.9404         estimate D2E/DX2                !
 ! D131  D(46,21,54,55)         58.7142         estimate D2E/DX2                !
 ! D132  D(46,21,54,56)       -179.561          estimate D2E/DX2                !
 ! D133  D(46,21,54,57)        -60.5423         estimate D2E/DX2                !
 ! D134  D(50,21,54,55)        177.82           estimate D2E/DX2                !
 ! D135  D(50,21,54,56)        -60.4553         estimate D2E/DX2                !
 ! D136  D(50,21,54,57)         58.5635         estimate D2E/DX2                !
 ! D137  D(6,25,27,28)         179.7912         estimate D2E/DX2                !
 ! D138  D(26,25,27,28)         -0.1425         estimate D2E/DX2                !
 ! D139  D(25,27,28,29)        -67.2298         estimate D2E/DX2                !
 ! D140  D(25,27,28,30)         58.0762         estimate D2E/DX2                !
 ! D141  D(25,27,28,31)        175.7586         estimate D2E/DX2                !
 ! D142  D(27,28,29,32)       -176.1711         estimate D2E/DX2                !
 ! D143  D(27,28,29,33)         63.2466         estimate D2E/DX2                !
 ! D144  D(27,28,29,34)        -53.5861         estimate D2E/DX2                !
 ! D145  D(30,28,29,32)         57.0622         estimate D2E/DX2                !
 ! D146  D(30,28,29,33)        -63.5201         estimate D2E/DX2                !
 ! D147  D(30,28,29,34)        179.6473         estimate D2E/DX2                !
 ! D148  D(31,28,29,32)        -60.2807         estimate D2E/DX2                !
 ! D149  D(31,28,29,33)        179.1371         estimate D2E/DX2                !
 ! D150  D(31,28,29,34)         62.3044         estimate D2E/DX2                !
 ! D151  D(27,28,30,35)        176.5715         estimate D2E/DX2                !
 ! D152  D(27,28,30,36)        -63.3055         estimate D2E/DX2                !
 ! D153  D(27,28,30,37)         53.7109         estimate D2E/DX2                !
 ! D154  D(29,28,30,35)        -57.3746         estimate D2E/DX2                !
 ! D155  D(29,28,30,36)         62.7484         estimate D2E/DX2                !
 ! D156  D(29,28,30,37)        179.7649         estimate D2E/DX2                !
 ! D157  D(31,28,30,35)         59.9727         estimate D2E/DX2                !
 ! D158  D(31,28,30,36)       -179.9043         estimate D2E/DX2                !
 ! D159  D(31,28,30,37)        -62.8879         estimate D2E/DX2                !
 ! D160  D(28,29,32,38)        -56.1422         estimate D2E/DX2                !
 ! D161  D(28,29,32,39)       -179.1506         estimate D2E/DX2                !
 ! D162  D(28,29,32,40)         64.244          estimate D2E/DX2                !
 ! D163  D(33,29,32,38)         63.6467         estimate D2E/DX2                !
 ! D164  D(33,29,32,39)        -59.3617         estimate D2E/DX2                !
 ! D165  D(33,29,32,40)       -175.9671         estimate D2E/DX2                !
 ! D166  D(34,29,32,38)       -178.0317         estimate D2E/DX2                !
 ! D167  D(34,29,32,39)         58.9598         estimate D2E/DX2                !
 ! D168  D(34,29,32,40)        -57.6456         estimate D2E/DX2                !
 ! D169  D(28,30,35,38)         56.5934         estimate D2E/DX2                !
 ! D170  D(28,30,35,41)        179.194          estimate D2E/DX2                !
 ! D171  D(28,30,35,42)        -64.0176         estimate D2E/DX2                !
 ! D172  D(36,30,35,38)        -63.4642         estimate D2E/DX2                !
 ! D173  D(36,30,35,41)         59.1364         estimate D2E/DX2                !
 ! D174  D(36,30,35,42)        175.9248         estimate D2E/DX2                !
 ! D175  D(37,30,35,38)        178.5892         estimate D2E/DX2                !
 ! D176  D(37,30,35,41)        -58.8102         estimate D2E/DX2                !
 ! D177  D(37,30,35,42)         57.9782         estimate D2E/DX2                !
 ! D178  D(29,32,38,35)         55.1856         estimate D2E/DX2                !
 ! D179  D(29,32,38,43)        177.9106         estimate D2E/DX2                !
 ! D180  D(29,32,38,44)        -64.9697         estimate D2E/DX2                !
 ! D181  D(39,32,38,35)        177.9189         estimate D2E/DX2                !
 ! D182  D(39,32,38,43)        -59.3562         estimate D2E/DX2                !
 ! D183  D(39,32,38,44)         57.7635         estimate D2E/DX2                !
 ! D184  D(40,32,38,35)        -65.0375         estimate D2E/DX2                !
 ! D185  D(40,32,38,43)         57.6875         estimate D2E/DX2                !
 ! D186  D(40,32,38,44)        174.8072         estimate D2E/DX2                !
 ! D187  D(30,35,38,32)        -55.3257         estimate D2E/DX2                !
 ! D188  D(30,35,38,43)       -178.0592         estimate D2E/DX2                !
 ! D189  D(30,35,38,44)         64.8832         estimate D2E/DX2                !
 ! D190  D(41,35,38,32)       -177.5065         estimate D2E/DX2                !
 ! D191  D(41,35,38,43)         59.76           estimate D2E/DX2                !
 ! D192  D(41,35,38,44)        -57.2976         estimate D2E/DX2                !
 ! D193  D(42,35,38,32)         65.2275         estimate D2E/DX2                !
 ! D194  D(42,35,38,43)        -57.506          estimate D2E/DX2                !
 ! D195  D(42,35,38,44)       -174.5636         estimate D2E/DX2                !
 --------------------------------------------------------------------------------
 Trust Radius=3.00D-01 FncErr=1.00D-07 GrdErr=1.00D-07 EigMax=2.50D+02 EigMin=1.00D-04
 Number of steps in this run=    409 maximum allowed number of steps=    414.
 GradGradGradGradGradGradGradGradGradGradGradGradGradGradGradGradGradGrad

 Leave Link  103 at Fri Dec 21 18:11:59 2018, MaxMem=  1342177280 cpu:               0.6 elap:               0.1
 (Enter /gpfs/apps/hpc/Apps/Restricted/Gaussian/Rev_A.03/g16/l202.exe)
 Symmetry turned off by external request.
 Stoichiometry    C28H37N3O(1+,2)
 Framework group  C1[X(C28H37N3O)]
 Deg. of freedom   201
 Full point group                 C1      NOp   1
                          Input orientation:                          
 ---------------------------------------------------------------------
 Center     Atomic      Atomic             Coordinates (Angstroms)
 Number     Number       Type             X           Y           Z
 ---------------------------------------------------------------------
      1          6           0       -0.424607    2.698681    0.246936
      2          6           0       -1.834895    2.828754    0.185660
      3          6           0       -2.424886    4.098846    0.090523
      4          6           0       -1.569497    5.191357    0.066722
      5          6           0       -0.164852    5.047616    0.134183
      6          6           0        0.448813    3.799258    0.226225
      7          6           0       -1.352031    0.697422    0.311466
      8          1           0       -3.499604    4.214883    0.037539
      9          1           0       -1.985482    6.188922   -0.003634
     10          1           0        0.457072    5.934987    0.115050
     11          7           0       -2.373056    1.565117    0.229857
     12          6           0       -2.977567   -1.164504    0.371220
     13          6           0       -1.583889   -0.721368    0.369574
     14          6           0       -0.560591   -1.655843    0.409136
     15          6           0       -0.848746   -3.024455    0.461911
     16          6           0       -2.215394   -3.436678    0.491161
     17          6           0       -3.284485   -2.575241    0.458200
     18          1           0        0.466302   -1.318690    0.395031
     19          1           0       -2.410822   -4.497069    0.544900
     20          6           0        0.233944   -4.089907    0.477110
     21          6           0       -4.733161   -3.059758    0.502657
     22          8           0       -3.926754   -0.291611    0.288683
     23          7           0       -0.159673    1.357110    0.324518
     24          1           0        0.798762    1.018009    0.383010
     25          6           0        1.898417    3.621363    0.297259
     26          1           0        2.498358    4.536284    0.266080
     27          7           0        2.408265    2.449815    0.389010
     28          6           0        3.871568    2.326873    0.452582
     29          6           0        4.537652    2.747910   -0.868229
     30          6           0        4.489658    3.094367    1.632758
     31          1           0        4.076322    1.261006    0.604312
     32          6           0        6.052077    2.520597   -0.807212
     33          1           0        4.327522    3.810324   -1.040859
     34          1           0        4.093558    2.190502   -1.698265
     35          6           0        6.003169    2.861186    1.697970
     36          1           0        4.295817    4.165731    1.503811
     37          1           0        4.004091    2.788318    2.563892
     38          6           0        6.680962    3.257149    0.380761
     39          1           0        6.517422    2.837187   -1.745439
     40          1           0        6.245442    1.445153   -0.706744
     41          1           0        6.429428    3.424890    2.533425
     42          1           0        6.195998    1.800126    1.899858
     43          1           0        7.754986    3.053382    0.429497
     44          1           0        6.568238    4.338537    0.232452
     45          1           0       -3.458560    0.732537    0.239904
     46          6           0       -5.457763   -2.652940   -0.800234
     47          1           0       -6.478475   -3.043175   -0.779590
     48          1           0       -5.503644   -1.570556   -0.913427
     49          1           0       -4.947155   -3.074311   -1.669598
     50          6           0       -5.453293   -2.444617    1.724046
     51          1           0       -5.491098   -1.357955    1.663365
     52          1           0       -6.476851   -2.825562    1.762728
     53          1           0       -4.948780   -2.726812    2.651619
     54          6           0       -4.801307   -4.588504    0.635955
     55          1           0       -4.342551   -5.095607   -0.217052
     56          1           0       -4.308416   -4.932997    1.548740
     57          1           0       -5.848585   -4.892902    0.683270
     58          6           0        0.061910   -4.967137    1.738421
     59          1           0       -0.914426   -5.454721    1.767608
     60          1           0        0.828377   -5.746193    1.736297
     61          1           0        0.178048   -4.371048    2.646261
     62          6           0        0.064986   -4.970960   -0.783111
     63          1           0        0.821049   -5.760096   -0.770114
     64          1           0       -0.919054   -5.442400   -0.819018
     65          1           0        0.198227   -4.379851   -1.691934
     66          6           0        1.646432   -3.492492    0.479322
     67          1           0        1.830423   -2.889548   -0.413151
     68          1           0        1.820166   -2.872466    1.362331
     69          1           0        2.378025   -4.303097    0.490103
 ---------------------------------------------------------------------
 Rotational constants (GHZ):           0.1859518           0.0706681           0.0535384
 Leave Link  202 at Fri Dec 21 18:11:59 2018, MaxMem=  1342177280 cpu:               0.9 elap:               0.1
 (Enter /gpfs/apps/hpc/Apps/Restricted/Gaussian/Rev_A.03/g16/l716.exe)
 Electric field and nuclear coordinate derivatives read from checkpoint file.
 Dipole        =-8.08973799D-01-2.78487931D-01 6.88772168D-01
 Polarizability= 5.71369315D+02 5.82422771D+01 9.20975557D+02
                 3.89576059D+00-2.82379174D+01 2.65404426D+02
 Full mass-weighted force constant matrix:
 Low frequencies --- -756.1323   -4.0371   -0.0026   -0.0009    0.0025    7.5680
 Low frequencies ---   13.1673   29.6064   36.8648
 ******    1 imaginary frequencies (negative Signs) ****** 
 Diagonal vibrational polarizability:
       63.6766308     177.8904762      39.6199670
 Harmonic frequencies (cm**-1), IR intensities (KM/Mole), Raman scattering
 activities (A**4/AMU), depolarization ratios for plane and unpolarized
 incident light, reduced masses (AMU), force constants (mDyne/A),
 and normal coordinates:
                      1                      2                      3
                      A                      A                      A
 Frequencies --   -756.1320                25.7229                36.8378
 Red. masses --      1.2437                 4.1209                 4.4952
 Frc consts  --      0.4189                 0.0016                 0.0036
 IR Inten    --    154.7850                 0.0296                 1.7993
  Atom  AN      X      Y      Z        X      Y      Z        X      Y      Z
     1   6    -0.04   0.01  -0.00     0.00  -0.01  -0.06     0.04  -0.05   0.01
     2   6    -0.02   0.01  -0.00     0.00  -0.01  -0.08     0.04  -0.04   0.00
     3   6    -0.01  -0.00  -0.00     0.00  -0.01  -0.08     0.04  -0.04   0.00
     4   6     0.01   0.00   0.00    -0.00  -0.01  -0.06     0.04  -0.04   0.00
     5   6    -0.01   0.00  -0.00    -0.00  -0.00  -0.04     0.04  -0.05   0.01
     6   6    -0.02  -0.01  -0.00    -0.00  -0.00  -0.03     0.04  -0.05   0.01
     7   6     0.03  -0.02   0.00     0.00  -0.01  -0.07     0.02  -0.05   0.00
     8   1    -0.01   0.01  -0.00     0.00  -0.01  -0.09     0.04  -0.05  -0.00
     9   1    -0.00  -0.00  -0.00    -0.00  -0.01  -0.07     0.04  -0.04   0.00
    10   1    -0.00  -0.00   0.00    -0.01  -0.00  -0.02     0.04  -0.05   0.01
    11   7    -0.00  -0.07   0.00     0.00  -0.01  -0.08     0.03  -0.04  -0.00
    12   6    -0.03   0.03  -0.00     0.00  -0.00  -0.02    -0.01  -0.02  -0.00
    13   6     0.00  -0.02   0.00     0.00  -0.01  -0.06    -0.01  -0.04   0.00
    14   6    -0.01   0.01  -0.00     0.00  -0.01  -0.09    -0.03  -0.07   0.00
    15   6    -0.01  -0.02   0.00    -0.00  -0.01  -0.07    -0.05  -0.06   0.00
    16   6     0.00  -0.01   0.00    -0.00  -0.00  -0.01    -0.06  -0.04  -0.00
    17   6    -0.00  -0.01   0.00     0.00   0.00   0.03    -0.04  -0.01  -0.00
    18   1    -0.00  -0.00  -0.00     0.00  -0.01  -0.12    -0.02  -0.09   0.01
    19   1     0.01  -0.01  -0.00    -0.00  -0.00   0.01    -0.08  -0.03  -0.00
    20   6    -0.00  -0.00   0.00    -0.00  -0.01  -0.10    -0.07  -0.08   0.01
    21   6     0.00  -0.00   0.00     0.00   0.01   0.12    -0.05   0.02  -0.01
    22   8     0.06   0.04   0.00     0.00  -0.00  -0.01    -0.00  -0.01  -0.01
    23   7    -0.02  -0.01  -0.00     0.00  -0.01  -0.06     0.03  -0.06   0.01
    24   1    -0.02  -0.00  -0.00     0.00  -0.01  -0.05     0.02  -0.08   0.01
    25   6    -0.01  -0.00  -0.00    -0.00   0.01   0.01     0.04  -0.02   0.01
    26   1    -0.01  -0.00  -0.00    -0.01   0.01   0.05     0.01  -0.00  -0.01
    27   7    -0.00  -0.00   0.00     0.00   0.01   0.01     0.08  -0.00   0.02
    28   6    -0.00  -0.00  -0.00    -0.00   0.01   0.05     0.08   0.06   0.00
    29   6    -0.00   0.00  -0.00     0.03  -0.00   0.07     0.05   0.11  -0.00
    30   6    -0.00   0.00  -0.00    -0.03   0.02   0.06     0.06   0.08   0.00
    31   1    -0.00   0.00  -0.00    -0.00   0.01   0.07     0.14   0.07  -0.01
    32   6    -0.00  -0.00   0.00     0.03  -0.00   0.11     0.06   0.21  -0.02
    33   1    -0.00   0.00  -0.00     0.04  -0.00   0.05    -0.01   0.10   0.01
    34   1     0.00   0.00  -0.00     0.06  -0.01   0.06     0.07   0.10  -0.00
    35   6    -0.00  -0.00  -0.00    -0.03   0.02   0.11     0.07   0.17  -0.02
    36   1    -0.00   0.00  -0.00    -0.03   0.02   0.05    -0.00   0.07   0.02
    37   1    -0.00   0.00   0.00    -0.05   0.03   0.05     0.09   0.04   0.01
    38   6    -0.00  -0.00   0.00     0.00   0.01   0.12     0.03   0.24  -0.02
    39   1    -0.00   0.00   0.00     0.06  -0.01   0.12     0.03   0.24  -0.02
    40   1    -0.00  -0.00   0.00     0.03  -0.00   0.13     0.13   0.22  -0.03
    41   1    -0.00  -0.00   0.00    -0.06   0.04   0.11     0.05   0.19  -0.01
    42   1    -0.00  -0.00   0.00    -0.04   0.03   0.13     0.14   0.18  -0.04
    43   1    -0.00  -0.00   0.00     0.00   0.00   0.15     0.04   0.32  -0.04
    44   1     0.00  -0.00   0.00     0.01   0.01   0.10    -0.06   0.23  -0.01
    45   1     0.66   0.74  -0.03     0.00  -0.01  -0.05     0.01  -0.02  -0.01
    46   6     0.00   0.00   0.00    -0.09  -0.00   0.17    -0.04   0.03  -0.01
    47   1     0.00   0.00   0.00    -0.09   0.00   0.25    -0.06   0.06  -0.01
    48   1     0.01   0.00   0.01    -0.09  -0.00   0.16    -0.01   0.03  -0.02
    49   1    -0.00   0.00  -0.00    -0.16  -0.02   0.14    -0.06  -0.00  -0.01
    50   6     0.00   0.00  -0.00     0.09   0.03   0.17    -0.05   0.04  -0.01
    51   1     0.01   0.00  -0.01     0.14   0.04   0.18    -0.03   0.04  -0.02
    52   1     0.00   0.00  -0.00     0.08   0.08   0.22    -0.05   0.06  -0.01
    53   1    -0.00   0.00   0.00     0.13   0.01   0.14    -0.05   0.03  -0.01
    54   6    -0.00  -0.00   0.00    -0.00   0.01   0.15    -0.09   0.02   0.00
    55   1    -0.00  -0.00   0.00    -0.06   0.00   0.12    -0.10   0.00   0.01
    56   1    -0.00  -0.00  -0.00     0.06   0.02   0.12    -0.10   0.02   0.01
    57   1    -0.00  -0.00   0.00    -0.00   0.02   0.22    -0.10   0.04   0.00
    58   6     0.00  -0.00   0.00     0.04   0.01  -0.08    -0.09  -0.08   0.01
    59   1     0.00  -0.00  -0.00     0.04   0.01  -0.04    -0.10  -0.07   0.00
    60   1     0.00  -0.00   0.00     0.04   0.01  -0.10    -0.11  -0.09   0.01
    61   1    -0.00  -0.00  -0.00     0.08   0.02  -0.09    -0.09  -0.08   0.01
    62   6     0.00  -0.00  -0.00    -0.06  -0.03  -0.08    -0.09  -0.08   0.01
    63   1     0.00   0.00  -0.00    -0.06  -0.04  -0.09    -0.10  -0.09   0.01
    64   1     0.00  -0.00   0.00    -0.06  -0.02  -0.04    -0.10  -0.06   0.00
    65   1    -0.00  -0.00  -0.00    -0.08  -0.04  -0.09    -0.07  -0.08   0.01
    66   6    -0.00   0.00   0.00    -0.00  -0.02  -0.16    -0.06  -0.11   0.01
    67   1     0.00   0.00  -0.00    -0.04  -0.02  -0.18    -0.05  -0.11   0.01
    68   1     0.00   0.00   0.00     0.04  -0.01  -0.17    -0.05  -0.11   0.01
    69   1    -0.00   0.00   0.00    -0.00  -0.02  -0.19    -0.08  -0.12   0.02
                      4                      5                      6
                      A                      A                      A
 Frequencies --     52.5524                62.7068                65.6112
 Red. masses --      4.5326                 4.0082                 3.2649
 Frc consts  --      0.0074                 0.0093                 0.0083
 IR Inten    --      0.4033                 0.0904                 0.1316
  Atom  AN      X      Y      Z        X      Y      Z        X      Y      Z
     1   6     0.00  -0.00  -0.02    -0.00   0.00   0.06    -0.00  -0.00  -0.05
     2   6     0.00  -0.00   0.03     0.00  -0.00  -0.06    -0.00  -0.00  -0.01
     3   6     0.00  -0.00  -0.03     0.01  -0.01  -0.17    -0.01   0.00   0.06
     4   6     0.01  -0.01  -0.15     0.01  -0.01  -0.16    -0.01   0.01   0.10
     5   6     0.01  -0.01  -0.19     0.00  -0.00  -0.04    -0.01   0.00   0.07
     6   6     0.01  -0.01  -0.12    -0.00   0.01   0.07    -0.00   0.00  -0.01
     7   6    -0.00   0.00   0.11     0.00   0.00   0.04     0.00  -0.00  -0.08
     8   1     0.00  -0.01  -0.00     0.01  -0.01  -0.27    -0.01   0.00   0.10
     9   1     0.01  -0.01  -0.20     0.01  -0.01  -0.25    -0.01   0.01   0.17
    10   1     0.01  -0.01  -0.27     0.00  -0.00  -0.05    -0.01   0.01   0.11
    11   7    -0.00   0.00   0.11     0.00  -0.00  -0.06    -0.00  -0.00  -0.04
    12   6    -0.00   0.01   0.13     0.01  -0.00  -0.01     0.00  -0.00  -0.04
    13   6    -0.00   0.01   0.12     0.00   0.00   0.04     0.00  -0.00  -0.07
    14   6    -0.00   0.00   0.08     0.00   0.00   0.06     0.00  -0.00  -0.05
    15   6    -0.01   0.00   0.02     0.00   0.00   0.02     0.00  -0.00   0.00
    16   6    -0.01  -0.00   0.00     0.00   0.00  -0.01     0.00  -0.00  -0.01
    17   6    -0.01   0.00   0.05     0.00   0.00  -0.01     0.00  -0.00  -0.03
    18   1    -0.00   0.00   0.07     0.00   0.01   0.10     0.00  -0.00  -0.05
    19   1    -0.00  -0.00  -0.06     0.01  -0.00  -0.02     0.01  -0.00   0.00
    20   6    -0.01  -0.00  -0.04     0.00   0.00  -0.01    -0.00  -0.00   0.05
    21   6    -0.01  -0.01  -0.01     0.00   0.00   0.02     0.00   0.00   0.02
    22   8    -0.01   0.01   0.20     0.01  -0.00  -0.07     0.00  -0.00  -0.03
    23   7     0.00   0.00   0.04    -0.00   0.01   0.12     0.00  -0.00  -0.10
    24   1     0.00  -0.00   0.02    -0.00   0.01   0.17     0.00  -0.01  -0.11
    25   6     0.01  -0.00  -0.13    -0.00   0.01   0.12    -0.00   0.00  -0.02
    26   1     0.01  -0.01  -0.18     0.00   0.00   0.08    -0.01   0.01   0.03
    27   7     0.01  -0.00  -0.06    -0.01   0.01   0.16     0.00  -0.00  -0.07
    28   6     0.00   0.00  -0.02    -0.01  -0.00   0.09     0.00   0.00  -0.04
    29   6     0.05  -0.00   0.00    -0.10  -0.01   0.04     0.03   0.00  -0.02
    30   6    -0.04   0.01  -0.01     0.07  -0.01   0.05    -0.02   0.01  -0.03
    31   1     0.00   0.00  -0.01    -0.01  -0.00   0.08    -0.00   0.00  -0.03
    32   6     0.05  -0.00   0.06    -0.09  -0.00  -0.07     0.03  -0.00   0.01
    33   1     0.06  -0.00  -0.02    -0.11  -0.01   0.06     0.03  -0.00  -0.03
    34   1     0.09  -0.01  -0.01    -0.16  -0.00   0.07     0.05  -0.00  -0.03
    35   6    -0.05   0.03   0.06     0.08  -0.02  -0.06    -0.03   0.01   0.01
    36   1    -0.05   0.01  -0.02     0.07  -0.01   0.07    -0.02   0.01  -0.03
    37   1    -0.07   0.01  -0.02     0.13  -0.01   0.08    -0.04   0.01  -0.04
    38   6     0.01   0.01   0.08    -0.02  -0.00  -0.11     0.01  -0.00   0.02
    39   1     0.09  -0.01   0.08    -0.16   0.01  -0.10     0.05  -0.01   0.02
    40   1     0.05   0.00   0.09    -0.08  -0.00  -0.09     0.02  -0.00   0.02
    41   1    -0.08   0.05   0.07     0.14  -0.03  -0.08    -0.04   0.01   0.02
    42   1    -0.04   0.03   0.08     0.09  -0.02  -0.09    -0.03   0.01   0.02
    43   1     0.01   0.01   0.13    -0.01   0.01  -0.19     0.00  -0.01   0.05
    44   1     0.01   0.01   0.06    -0.04  -0.00  -0.09     0.02  -0.00   0.02
    45   1    -0.01   0.01   0.18     0.01  -0.01  -0.08    -0.00  -0.00  -0.03
    46   6     0.01   0.09   0.01    -0.03  -0.00   0.03    -0.07   0.05   0.08
    47   1     0.02   0.07  -0.05    -0.03  -0.00   0.06    -0.07   0.03   0.12
    48   1    -0.01   0.10   0.10    -0.03  -0.00   0.03    -0.10   0.05   0.12
    49   1     0.04   0.17  -0.01    -0.05  -0.00   0.02    -0.12   0.08   0.03
    50   6    -0.03  -0.11   0.03     0.04   0.02   0.03     0.08  -0.03   0.08
    51   1    -0.06  -0.10   0.09     0.06   0.02   0.04     0.11  -0.03   0.13
    52   1    -0.01  -0.14   0.00     0.03   0.04   0.05     0.07  -0.00   0.12
    53   1    -0.02  -0.14   0.01     0.05   0.00   0.02     0.12  -0.09   0.05
    54   6    -0.00  -0.02  -0.13     0.00   0.01   0.02    -0.00  -0.00  -0.03
    55   1     0.01   0.05  -0.17    -0.02   0.00   0.01    -0.03   0.03  -0.07
    56   1    -0.01  -0.09  -0.16     0.02   0.01   0.01     0.03  -0.04  -0.06
    57   1    -0.00  -0.02  -0.17     0.00   0.01   0.05     0.00   0.00  -0.00
    58   6    -0.01  -0.09  -0.11    -0.03  -0.11  -0.10    -0.12  -0.10  -0.03
    59   1    -0.02  -0.08  -0.14    -0.04  -0.10  -0.16    -0.12  -0.11  -0.15
    60   1    -0.02  -0.10  -0.17    -0.04  -0.12  -0.16    -0.12  -0.11  -0.04
    61   1    -0.00  -0.17  -0.06    -0.03  -0.20  -0.04    -0.19  -0.18   0.03
    62   6     0.00   0.09  -0.11     0.04   0.11  -0.10     0.11   0.10  -0.03
    63   1     0.00   0.09  -0.16     0.04   0.11  -0.15     0.10   0.09  -0.03
    64   1     0.00   0.09  -0.14     0.04   0.11  -0.16     0.11   0.11  -0.15
    65   1     0.00   0.15  -0.06     0.06   0.20  -0.04     0.19   0.17   0.03
    66   6    -0.01  -0.00   0.01     0.00   0.00   0.08    -0.00  -0.00   0.24
    67   1     0.00   0.05   0.05     0.04   0.06   0.13     0.11   0.02   0.28
    68   1    -0.02  -0.06   0.05    -0.04  -0.06   0.13    -0.12  -0.02   0.28
    69   1    -0.01  -0.00  -0.03     0.00   0.00   0.06    -0.00  -0.00   0.31
                      7                      8                      9
                      A                      A                      A
 Frequencies --     76.3233                77.8821                93.4435
 Red. masses --      2.8998                 2.9518                 3.6442
 Frc consts  --      0.0100                 0.0105                 0.0187
 IR Inten    --      0.0029                 0.2277                 0.3964
  Atom  AN      X      Y      Z        X      Y      Z        X      Y      Z
     1   6    -0.00   0.00  -0.01     0.00   0.00   0.00     0.00   0.02   0.02
     2   6    -0.00   0.00   0.01    -0.00  -0.01   0.01    -0.00  -0.02   0.01
     3   6    -0.00   0.00   0.03    -0.02  -0.01   0.03    -0.05  -0.05  -0.02
     4   6    -0.00   0.00   0.03    -0.03  -0.00   0.03    -0.10  -0.01  -0.03
     5   6     0.00   0.00  -0.00    -0.03   0.01   0.03    -0.09   0.04  -0.02
     6   6     0.00  -0.00  -0.02    -0.01   0.02   0.01    -0.04   0.06   0.01
     7   6    -0.00   0.00   0.01     0.01  -0.01   0.00     0.04  -0.01   0.02
     8   1    -0.00   0.00   0.06    -0.02  -0.03   0.04    -0.06  -0.09  -0.03
     9   1    -0.00   0.00   0.05    -0.04  -0.01   0.04    -0.13  -0.03  -0.05
    10   1     0.00   0.00  -0.01    -0.04   0.02   0.04    -0.13   0.06  -0.03
    11   7    -0.00   0.00   0.02     0.01  -0.01   0.01     0.03  -0.03   0.01
    12   6     0.00  -0.00   0.01     0.01  -0.00   0.01     0.04  -0.01  -0.00
    13   6     0.00   0.00   0.02     0.01  -0.01   0.00     0.05  -0.02   0.02
    14   6     0.00   0.00   0.02     0.00  -0.01  -0.00     0.03  -0.04   0.02
    15   6     0.00   0.00   0.03    -0.00  -0.01  -0.00     0.01  -0.04   0.01
    16   6     0.00   0.00   0.05    -0.00  -0.01   0.00     0.00  -0.02  -0.00
    17   6     0.00   0.00   0.05     0.00  -0.00   0.00     0.02  -0.00  -0.01
    18   1     0.00   0.00   0.01     0.01  -0.02  -0.01     0.04  -0.05   0.03
    19   1     0.00   0.00   0.07    -0.01  -0.01  -0.00    -0.01  -0.02  -0.01
    20   6     0.00   0.00  -0.02    -0.01  -0.02  -0.02    -0.02  -0.07   0.01
    21   6     0.00   0.00   0.03    -0.00   0.00  -0.01     0.01   0.03  -0.01
    22   8     0.00  -0.00  -0.04     0.01  -0.01   0.01     0.03  -0.02  -0.02
    23   7     0.00   0.00  -0.01     0.01   0.00  -0.00     0.03   0.02   0.03
    24   1     0.00   0.00  -0.02     0.01   0.00  -0.01     0.04   0.04   0.02
    25   6     0.00  -0.01  -0.05    -0.01   0.04   0.04    -0.03   0.13   0.01
    26   1     0.00  -0.01  -0.05    -0.03   0.06   0.09    -0.06   0.15   0.05
    27   7    -0.00  -0.01  -0.05     0.01   0.05   0.01    -0.00   0.14  -0.04
    28   6    -0.00  -0.01  -0.04     0.01   0.05   0.06    -0.01   0.13  -0.04
    29   6     0.03   0.03  -0.01     0.02  -0.14  -0.00     0.02   0.17  -0.01
    30   6    -0.03  -0.04  -0.00     0.01   0.20  -0.05     0.03   0.05  -0.01
    31   1    -0.00  -0.01  -0.07    -0.01   0.07   0.20    -0.03   0.12  -0.09
    32   6     0.02   0.03   0.02     0.02  -0.19   0.04    -0.00   0.01  -0.02
    33   1     0.03   0.04   0.01     0.06  -0.16  -0.14     0.12   0.21   0.07
    34   1     0.05   0.05  -0.04     0.01  -0.24   0.07    -0.03   0.28  -0.05
    35   6    -0.03  -0.04   0.02     0.01   0.18  -0.01     0.00  -0.13   0.01
    36   1    -0.03  -0.04   0.02     0.04   0.19  -0.18     0.14   0.07   0.01
    37   1    -0.05  -0.06  -0.02     0.01   0.33  -0.01    -0.02   0.08  -0.03
    38   6    -0.00   0.00   0.05     0.04  -0.05  -0.06     0.09  -0.17   0.04
    39   1     0.04   0.06   0.03     0.03  -0.33  -0.00     0.04   0.03   0.01
    40   1     0.02   0.03  -0.01    -0.02  -0.18   0.19    -0.13  -0.02  -0.11
    41   1    -0.05  -0.06   0.05     0.01   0.30  -0.09     0.06  -0.21   0.04
    42   1    -0.03  -0.04  -0.00    -0.02   0.21   0.16    -0.13  -0.16  -0.02
    43   1    -0.00  -0.00   0.07     0.03  -0.09  -0.02     0.05  -0.35   0.05
    44   1     0.00   0.01   0.08     0.08  -0.07  -0.22     0.27  -0.14   0.10
    45   1     0.00  -0.00  -0.02     0.00  -0.01   0.01     0.01  -0.05  -0.00
    46   6     0.09  -0.14  -0.06     0.03  -0.02  -0.03     0.01   0.04  -0.00
    47   1     0.07  -0.09  -0.07     0.02  -0.00  -0.04    -0.00   0.06   0.01
    48   1     0.15  -0.15  -0.19     0.04  -0.02  -0.05     0.02   0.04  -0.00
    49   1     0.12  -0.27   0.02     0.04  -0.04  -0.01    -0.01   0.03  -0.01
    50   6    -0.09   0.13  -0.09    -0.03   0.02  -0.03     0.03   0.04   0.00
    51   1    -0.11   0.12  -0.21    -0.04   0.02  -0.06     0.05   0.04   0.01
    52   1    -0.08   0.11  -0.11    -0.03   0.02  -0.04     0.02   0.06   0.01
    53   1    -0.15   0.24  -0.02    -0.04   0.05  -0.02     0.03   0.02  -0.00
    54   6     0.00   0.02   0.20    -0.01   0.01   0.02    -0.02   0.03  -0.01
    55   1     0.04  -0.08   0.28    -0.00  -0.01   0.03    -0.04   0.02  -0.01
    56   1    -0.02   0.13   0.26    -0.02   0.02   0.03    -0.03   0.02  -0.01
    57   1     0.00   0.01   0.20    -0.01   0.01   0.01    -0.03   0.05  -0.01
    58   6    -0.00  -0.10  -0.09    -0.02  -0.05  -0.04    -0.05  -0.06   0.01
    59   1    -0.01  -0.09  -0.11    -0.02  -0.04  -0.04    -0.06  -0.04   0.01
    60   1    -0.01  -0.11  -0.16    -0.02  -0.05  -0.06    -0.06  -0.08   0.02
    61   1     0.02  -0.17  -0.04    -0.01  -0.07  -0.02    -0.03  -0.06   0.01
    62   6     0.00   0.10  -0.09    -0.02   0.00  -0.04    -0.05  -0.08   0.02
    63   1     0.01   0.10  -0.16    -0.02  -0.00  -0.05    -0.07  -0.10   0.03
    64   1     0.00   0.09  -0.11    -0.02   0.01  -0.04    -0.06  -0.05   0.02
    65   1    -0.01   0.17  -0.04    -0.02   0.02  -0.03    -0.03  -0.09   0.01
    66   6     0.00   0.00   0.03    -0.01  -0.03  -0.01    -0.00  -0.11   0.00
    67   1     0.01   0.05   0.06    -0.00  -0.03  -0.00     0.01  -0.12   0.00
    68   1    -0.01  -0.04   0.06    -0.00  -0.04  -0.00     0.01  -0.11   0.00
    69   1     0.00   0.00  -0.00    -0.01  -0.04  -0.02    -0.03  -0.13   0.00
                     10                     11                     12
                      A                      A                      A
 Frequencies --     99.4057               112.6371               120.8997
 Red. masses --      4.8743                 4.2227                 3.7985
 Frc consts  --      0.0284                 0.0316                 0.0327
 IR Inten    --      0.0551                 1.8898                 2.0836
  Atom  AN      X      Y      Z        X      Y      Z        X      Y      Z
     1   6     0.00  -0.00  -0.11    -0.03  -0.03   0.02     0.00   0.01  -0.01
     2   6     0.00  -0.00  -0.13    -0.03   0.00  -0.00     0.00   0.01   0.03
     3   6     0.00   0.00  -0.08     0.00   0.01  -0.03     0.00   0.01   0.01
     4   6    -0.00   0.01   0.04     0.03  -0.01  -0.02     0.00   0.00  -0.05
     5   6    -0.00   0.01   0.10     0.02  -0.04   0.01     0.00   0.00  -0.06
     6   6    -0.00   0.00   0.03     0.00  -0.04   0.03     0.00   0.01  -0.03
     7   6    -0.00  -0.00  -0.16    -0.08  -0.01   0.02     0.00   0.01  -0.01
     8   1     0.00   0.00  -0.11     0.01   0.03  -0.05     0.00   0.00   0.04
     9   1    -0.00   0.01   0.09     0.05   0.00  -0.04     0.00   0.00  -0.07
    10   1    -0.01   0.01   0.22     0.04  -0.05   0.01     0.00   0.00  -0.10
    11   7     0.00  -0.00  -0.17    -0.06   0.01  -0.00     0.00   0.01   0.04
    12   6    -0.01   0.01   0.10    -0.09  -0.01  -0.02    -0.00   0.01   0.06
    13   6    -0.01   0.00  -0.06    -0.09   0.00   0.01     0.00   0.00  -0.05
    14   6    -0.00   0.00  -0.07    -0.08   0.03   0.02     0.00  -0.00  -0.15
    15   6    -0.00   0.01   0.06    -0.05   0.03  -0.01    -0.00  -0.00  -0.16
    16   6    -0.00   0.01   0.17    -0.04   0.00  -0.03    -0.00  -0.00  -0.16
    17   6    -0.01   0.01   0.14    -0.06  -0.02  -0.02    -0.00   0.00  -0.02
    18   1    -0.00  -0.00  -0.18    -0.09   0.05   0.04     0.00  -0.01  -0.18
    19   1     0.00   0.02   0.22    -0.02  -0.00  -0.04    -0.00  -0.01  -0.24
    20   6    -0.01   0.00   0.02    -0.01   0.07  -0.00    -0.01  -0.01  -0.04
    21   6    -0.00  -0.02   0.03    -0.04  -0.09   0.01     0.00  -0.01   0.02
    22   8    -0.01   0.02   0.21    -0.08   0.01  -0.04    -0.01   0.02   0.21
    23   7     0.00  -0.01  -0.15    -0.06  -0.03   0.04     0.00   0.00  -0.03
    24   1    -0.00  -0.01  -0.11    -0.08  -0.08   0.03     0.00   0.00  -0.03
    25   6    -0.00   0.02   0.11     0.01  -0.01   0.03     0.00   0.01  -0.01
    26   1    -0.02   0.03   0.21    -0.03   0.03   0.07     0.01   0.01  -0.07
    27   7     0.01   0.02   0.03     0.08   0.02  -0.02    -0.00   0.02   0.08
    28   6     0.01   0.02   0.04     0.09   0.08  -0.02    -0.00   0.01   0.06
    29   6    -0.02   0.04   0.03     0.12   0.10  -0.01    -0.04   0.02   0.04
    30   6     0.05   0.00   0.03     0.11   0.08  -0.03     0.04   0.00   0.04
    31   1     0.01   0.02   0.02     0.12   0.08  -0.03    -0.00   0.01   0.05
    32   6    -0.02   0.02  -0.02     0.11  -0.00  -0.00    -0.04   0.00  -0.01
    33   1    -0.01   0.05   0.06     0.17   0.11   0.03    -0.03   0.02   0.06
    34   1    -0.05   0.06   0.03     0.10   0.15  -0.03    -0.07   0.03   0.05
    35   6     0.05  -0.04  -0.01     0.09  -0.02   0.01     0.04  -0.02  -0.01
    36   1     0.07   0.01   0.05     0.17   0.09  -0.05     0.04   0.00   0.05
    37   1     0.06  -0.00   0.04     0.08   0.12  -0.03     0.06   0.00   0.06
    38   6     0.02  -0.02  -0.02     0.16  -0.09   0.02     0.00  -0.02  -0.02
    39   1    -0.04   0.04  -0.03     0.13  -0.00   0.01    -0.06   0.01  -0.02
    40   1    -0.03   0.02  -0.06     0.03  -0.02  -0.04    -0.04  -0.00  -0.03
    41   1     0.08  -0.07  -0.01     0.11  -0.03   0.01     0.07  -0.03  -0.01
    42   1     0.02  -0.05  -0.05     0.01  -0.03   0.03     0.03  -0.02  -0.02
    43   1     0.02  -0.04  -0.05     0.14  -0.21   0.04     0.00  -0.03  -0.06
    44   1     0.04  -0.01   0.01     0.29  -0.07   0.03     0.01  -0.01  -0.01
    45   1    -0.01   0.01   0.06    -0.02   0.05  -0.03    -0.01   0.01   0.16
    46   6     0.12   0.03  -0.03    -0.09  -0.13   0.02     0.03  -0.07  -0.01
    47   1     0.15  -0.04  -0.18    -0.07  -0.16   0.05    -0.00   0.01   0.02
    48   1     0.06   0.04   0.05    -0.12  -0.13   0.01     0.11  -0.07  -0.10
    49   1     0.25   0.14  -0.00    -0.10  -0.13   0.01    -0.00  -0.18   0.02
    50   6    -0.13  -0.09  -0.02    -0.05  -0.11   0.01    -0.04   0.02  -0.02
    51   1    -0.19  -0.09   0.00    -0.08  -0.11  -0.00    -0.12   0.02  -0.09
    52   1    -0.11  -0.16  -0.10    -0.04  -0.14   0.02    -0.01  -0.05  -0.01
    53   1    -0.19  -0.08   0.02    -0.03  -0.09   0.01    -0.03   0.11  -0.00
    54   6     0.02  -0.03  -0.06     0.02  -0.10   0.02     0.02  -0.00   0.10
    55   1     0.09   0.03  -0.05     0.03  -0.09   0.02     0.01  -0.05   0.12
    56   1    -0.05  -0.07  -0.04     0.05  -0.07   0.02     0.04   0.06   0.11
    57   1     0.02  -0.05  -0.16     0.04  -0.14   0.04     0.03  -0.01   0.13
    58   6     0.03  -0.04  -0.01     0.02   0.08  -0.00    -0.14   0.08   0.00
    59   1     0.03  -0.03   0.01     0.04   0.04   0.00    -0.12   0.04  -0.09
    60   1     0.02  -0.05  -0.08     0.05   0.10   0.01    -0.11   0.11   0.17
    61   1     0.08  -0.08   0.01    -0.00   0.09  -0.01    -0.29   0.16  -0.03
    62   6    -0.07   0.05  -0.01     0.04   0.07  -0.01     0.12  -0.09   0.00
    63   1    -0.07   0.04  -0.07     0.07   0.11  -0.01     0.10  -0.11   0.15
    64   1    -0.07   0.06   0.01     0.06   0.03  -0.01     0.11  -0.06  -0.09
    65   1    -0.10   0.08   0.01     0.01   0.09  -0.00     0.25  -0.16  -0.03
    66   6    -0.01  -0.01  -0.02    -0.03   0.14   0.00    -0.01  -0.01   0.08
    67   1    -0.02  -0.01  -0.02    -0.05   0.15   0.00     0.10  -0.07   0.06
    68   1     0.01  -0.00  -0.02    -0.06   0.14   0.00    -0.11   0.05   0.05
    69   1    -0.01  -0.01  -0.03     0.00   0.17   0.00    -0.01  -0.01   0.21
                     13                     14                     15
                      A                      A                      A
 Frequencies --    142.2724               146.2162               181.8251
[...]
 ! Name  Definition              Value          Relative Weight (%)             !
 --------------------------------------------------------------------------------
 ! R4    R(2,3)                  0.0471                  2.6                    !
 ! R6    R(3,4)                  0.0609                  3.4                    !
 ! R7    R(3,8)                 -1.0419                 58.6                    !
 ! R9    R(4,9)                 -0.2971                 16.7                    !
 ! R11   R(5,10)                -0.0553                  3.1                    !
 ! A4    A(1,2,3)                0.0263                  1.5                    !
 ! A6    A(3,2,11)              -0.0286                  1.6                    !
 ! A7    A(2,3,4)               -0.0469                  2.6                    !
 ! A8    A(2,3,8)                0.0257                  1.4                    !
 ! A11   A(3,4,9)               -0.0235                  1.3                    !
 --------------------------------------------------------------------------------
                           ----------------------------
                           ! Normal Mode   199        !
 --------------------------                            --------------------------
 ! Name  Definition              Value          Relative Weight (%)             !
 --------------------------------------------------------------------------------
 ! R19   R(13,14)               -0.0329                  1.5                    !
 ! R20   R(14,15)               -0.0346                  1.6                    !
 ! R21   R(14,18)                0.7931                 36.8                    !
 ! R22   R(15,16)                0.0277                  1.3                    !
 ! R24   R(16,17)                0.0307                  1.4                    !
 ! R25   R(16,19)               -0.735                  34.1                    !
 ! R64   R(58,59)               -0.0274                  1.3                    !
 ! R68   R(62,64)               -0.022                   1.0                    !
 ! A27   A(7,13,14)              0.0219                  1.0                    !
 ! A28   A(12,13,14)            -0.0204                  0.9                    !
 ! A29   A(13,14,15)             0.0421                  2.0                    !
 ! A30   A(13,14,18)            -0.0205                  1.0                    !
 ! A31   A(15,14,18)            -0.0215                  1.0                    !
 ! A33   A(14,15,20)             0.0222                  1.0                    !
 ! A34   A(16,15,20)            -0.0212                  1.0                    !
 ! A35   A(15,16,17)            -0.0395                  1.8                    !
 ! A36   A(15,16,19)             0.0199                  0.9                    !
 ! A37   A(17,16,19)             0.0196                  0.9                    !
 ! A38   A(12,17,16)             0.0187                  0.9                    !
 ! A40   A(16,17,21)            -0.0202                  0.9                    !
 --------------------------------------------------------------------------------
                           ----------------------------
                           ! Normal Mode   200        !
 --------------------------                            --------------------------
 ! Name  Definition              Value          Relative Weight (%)             !
 --------------------------------------------------------------------------------
 ! R19   R(13,14)                0.031                   1.4                    !
 ! R20   R(14,15)                0.031                   1.4                    !
 ! R21   R(14,18)               -0.7364                 33.6                    !
 ! R22   R(15,16)                0.0291                  1.3                    !
 ! R24   R(16,17)                0.0326                  1.5                    !
 ! R25   R(16,19)               -0.7924                 36.2                    !
 ! R64   R(58,59)               -0.0293                  1.3                    !
 ! R68   R(62,64)               -0.0233                  1.1                    !
 ! A27   A(7,13,14)             -0.0204                  0.9                    !
 ! A28   A(12,13,14)             0.0191                  0.9                    !
 ! A29   A(13,14,15)            -0.0384                  1.8                    !
 ! A30   A(13,14,18)             0.0193                  0.9                    !
 ! A31   A(15,14,18)             0.0191                  0.9                    !
 ! A32   A(14,15,16)             0.039                   1.8                    !
 ! A33   A(14,15,20)            -0.0188                  0.9                    !
 ! A34   A(16,15,20)            -0.0202                  0.9                    !
 ! A35   A(15,16,17)            -0.0415                  1.9                    !
 ! A36   A(15,16,19)             0.0193                  0.9                    !
 ! A37   A(17,16,19)             0.0221                  1.0                    !
 ! A38   A(12,17,16)             0.0209                  1.0                    !
 ! A40   A(16,17,21)            -0.0219                  1.0                    !
 --------------------------------------------------------------------------------
                           ----------------------------
                           ! Normal Mode   201        !
 --------------------------                            --------------------------
 ! Name  Definition              Value          Relative Weight (%)             !
 --------------------------------------------------------------------------------
 ! R3    R(1,23)                -0.0423                  2.9                    !
 ! R15   R(7,23)                -0.0499                  3.4                    !
 ! R34   R(23,24)                1.0713                 73.5                    !
 ! A2    A(2,1,23)              -0.0244                  1.7                    !
 ! A3    A(6,1,23)               0.025                   1.7                    !
 ! A20   A(11,7,23)             -0.0233                  1.6                    !
 ! A21   A(13,7,23)              0.0243                  1.7                    !
 ! A54   A(1,23,7)               0.0482                  3.3                    !
 ! A56   A(7,23,24)             -0.0584                  4.0                    !
 --------------------------------------------------------------------------------
 -------------------------------------------------------------------
 Center     Atomic                   Forces (Hartrees/Bohr)
 Number     Number              X              Y              Z
 -------------------------------------------------------------------
      1        6           0.000003959    0.000000798   -0.000006827
      2        6           0.000003572    0.000002233   -0.000010358
      3        6           0.000005108    0.000001842   -0.000014039
      4        6           0.000006126    0.000000788   -0.000014380
      5        6           0.000006886   -0.000000924   -0.000010823
      6        6           0.000003912   -0.000000321   -0.000007379
      7        6           0.000001468    0.000001499   -0.000004901
      8        1           0.000005560    0.000003035   -0.000016539
      9        1           0.000007620    0.000001385   -0.000017290
     10        1           0.000007153   -0.000000903   -0.000011485
     11        7           0.000002334    0.000001985   -0.000008799
     12        6          -0.000000988    0.000002823   -0.000004604
     13        6          -0.000000248    0.000001810   -0.000002644
     14        6          -0.000001758    0.000000453    0.000001618
     15        6          -0.000003327    0.000001063    0.000003650
     16        6          -0.000003999    0.000002298    0.000001612
     17        6          -0.000002008    0.000003495   -0.000002729
     18        1          -0.000000776   -0.000000306    0.000003105
     19        1          -0.000004679    0.000003371    0.000003120
     20        6          -0.000004216    0.000000285    0.000007779
     21        6          -0.000003888    0.000005431   -0.000004946
     22        8          -0.000000027    0.000004455   -0.000008584
     23        7           0.000001384   -0.000000665   -0.000003584
     24        1           0.000001302   -0.000000749   -0.000000889
     25        6           0.000004322   -0.000001933   -0.000003604
     26        1           0.000005299   -0.000002951   -0.000004246
     27        7           0.000002955   -0.000002632   -0.000000246
     28        6           0.000002358   -0.000003870    0.000002853
     29        6           0.000006013   -0.000007446    0.000004402
     30        6           0.000001171   -0.000002528    0.000003175
     31        1           0.000001216   -0.000003830    0.000005867
     32        6           0.000005715   -0.000008515    0.000007102
     33        1           0.000007373   -0.000007138    0.000001167
     34        1           0.000006986   -0.000008617    0.000003855
     35        6           0.000000158   -0.000003453    0.000006361
     36        1           0.000002166   -0.000002120    0.000000407
     37        1          -0.000001505    0.000000245    0.000002485
     38        6           0.000003192   -0.000006895    0.000007677
     39        1           0.000007847   -0.000011190    0.000008082
     40        1           0.000004173   -0.000008930    0.000010162
     41        1          -0.000000656   -0.000002310    0.000006837
     42        1          -0.000001086   -0.000003845    0.000009422
     43        1           0.000003661   -0.000008160    0.000010160
     44        1           0.000005245   -0.000007203    0.000005008
     45        1           0.000001282    0.000003234   -0.000009512
     46        6           0.000000796    0.000003548   -0.000006336
     47        1          -0.000000956    0.000004202   -0.000008661
     48        1           0.000001423    0.000003404   -0.000009329
     49        1           0.000001431    0.000001054   -0.000005414
     50        6          -0.000005064    0.000008573   -0.000008303
     51        1          -0.000003803    0.000008282   -0.000009876
     52        1          -0.000006057    0.000009569   -0.000008943
     53        1          -0.000007432    0.000009673   -0.000005558
     54        6          -0.000005578    0.000005658   -0.000002127
     55        1          -0.000003862    0.000003483    0.000000350
     56        1          -0.000007355    0.000006703    0.000000174
     57        1          -0.000005080    0.000006910   -0.000003514
     58        6          -0.000008413    0.000002246    0.000009064
     59        1          -0.000008256    0.000003870    0.000008312
     60        1          -0.000008580    0.000001738    0.000012771
     61        1          -0.000009170    0.000004578    0.000008789
     62        6          -0.000002071   -0.000002582    0.000009925
     63        1          -0.000003383   -0.000003046    0.000012709
     64        1          -0.000003142   -0.000001434    0.000008410
     65        1           0.000000173   -0.000004220    0.000008503
     66        6          -0.000003430   -0.000001774    0.000010319
     67        1          -0.000001019   -0.000003407    0.000008952
     68        1          -0.000005018    0.000000088    0.000009091
     69        1          -0.000004507   -0.000002210    0.000013190
 -------------------------------------------------------------------
 Cartesian Forces:  Max     0.000017290 RMS     0.000005903
 FormGI is forming the generalized inverse of G from B-inverse, IUseBI=4.
 GSVD:  received Info=                   1 from GESDD.
 Leave Link  716 at Fri Dec 21 18:12:00 2018, MaxMem=  1342177280 cpu:               6.6 elap:               0.4
 (Enter /gpfs/apps/hpc/Apps/Restricted/Gaussian/Rev_A.03/g16/l9999.exe)

 ----------------------------------------------------------------------

 Electric dipole moment (input orientation):
 (Debye = 10**-18 statcoulomb cm , SI units = C m)
                  (au)            (Debye)         (10**-30 SI)
   Tot        0.109836D+01      0.279176D+01      0.931231D+01
   x         -0.808974D+00     -0.205621D+01     -0.685877D+01
   y         -0.278488D+00     -0.707846D+00     -0.236112D+01
   z          0.688772D+00      0.175068D+01      0.583965D+01

 Dipole polarizability, Alpha (input orientation).
 (esu units = cm**3 , SI units = C**2 m**2 J**-1)
 Alpha(0;0):
               (au)            (10**-24 esu)      (10**-40 SI)
   iso        0.585916D+03      0.868239D+02      0.966046D+02
   aniso      0.579155D+03      0.858219D+02      0.954897D+02
   xx         0.571369D+03      0.846682D+02      0.942061D+02
   yx         0.582423D+02      0.863062D+01      0.960285D+01
   yy         0.920976D+03      0.136474D+03      0.151848D+03
   zx         0.389576D+01      0.577292D+00      0.642324D+00
   zy        -0.282379D+02     -0.418443D+01     -0.465580D+01
   zz         0.265404D+03      0.393289D+02      0.437593D+02

 ----------------------------------------------------------------------

 Dipole orientation:
     6         -0.77649260          5.10868345         -0.40942838
     6         -2.66651759          5.62128969          1.41852188
     6         -3.81760736          8.00896482          1.51840383
     6         -3.01016126          9.79501278         -0.22382252
     6         -1.11567178          9.26178563         -2.03004043
     6          0.05621835          6.90694152         -2.17695387
     6         -1.42089562          1.70833927          1.91673817
     1         -5.27033239          8.42728659          2.89584777
     1         -3.84845818         11.66216794         -0.20618420
     1         -0.55132995         10.72836411         -3.34350046
     7         -3.00885121          3.46560671          2.82538208
     6         -2.98157143         -1.28998271          5.14214150
     6         -1.32436929         -0.78872443          2.98809985
     6          0.22241095         -2.68784099          2.05846218
     6          0.22971475         -5.08417356          3.17781807
     6         -1.36172241         -5.52195921          5.31213840
     6         -2.94115911         -3.74231644          6.34832987
     1          1.42322281         -2.30536663          0.45094044
     1         -1.30311906         -7.37850088          6.15589610
     6          1.84580873         -7.24557622          2.19940164
     6         -4.59908089         -4.28624307          8.64947898
     8         -4.48145232          0.46069395          5.94720858
     7         -0.04380500          2.65335932         -0.04343990
     1          1.31848555          1.85802195         -1.14563195
     6          2.01972292          6.30368359         -4.02514870
     1          2.53363165          7.81926323         -5.33548711
     7          3.04377144          4.11063172         -4.06471344
     6          5.00222800          3.60057045         -5.96714767
     6          3.91162058          3.58746414         -8.66115813
     6          7.25697913          5.42502908         -5.79661935
     1          5.70251206          1.69424572         -5.56163106
     6          5.95355580          2.87565100        -10.58776548
     1          3.17622400          5.47867350         -9.08230487
     1          2.31782224          2.27435193         -8.75959423
     6          9.30487444          4.70477337         -7.71417180
     1          6.60096000          7.34988048         -6.19296036
     1          8.00767700          5.42098524         -3.87073166
     6          8.23946840          4.64534248        -10.40819690
     1          5.16522596          2.89981481        -12.49896349
     1          6.57022219          0.92985205        -10.22255548
     1         10.88238301          6.03577786         -7.58750731
     1         10.05890571          2.83379257         -7.23492215
     1          9.70443431          4.06590042        -11.74767425
     1          7.65650887          6.56151768        -10.94518669
     1         -4.18169051          2.19466903          4.74704897
     6         -7.41349788         -4.01494791          7.91912110
     1         -8.58590951         -4.49197693          9.55122234
     1         -7.86359623         -2.09463702          7.33023317
     1         -7.88890924         -5.30705176          6.38011323
     6         -3.93967122         -2.42832313         10.80442662
     1         -4.30743617         -0.47683857         10.26447668
     1         -5.09257693         -2.87923030         12.45741338
     1         -1.95190808         -2.60551359         11.33663811
     6         -4.16782778         -6.98236477          9.63476693
     1         -4.66719615         -8.41099423          8.22838927
     1         -2.20177550         -7.27719479         10.19547938
     1         -5.35519982         -7.28505335         11.29432186
     6          3.57489555         -8.19615113          4.35384613
     1          2.49138830         -8.85540607          5.98095051
     1          4.70641942         -9.77744208          3.65780856
     1          4.85547133         -6.70442187          4.98240896
     6          0.07004560         -9.41191557          1.36331085
     1          1.21169579        -11.00200082          0.70450243
     1         -1.11726781        -10.07138615          2.91626453
     1         -1.15524731         -8.80336453         -0.18234107
     6          3.49861402         -6.46652306         -0.05016928
     1          2.35744006         -5.83966395         -1.65275215
     1          4.81199071         -4.95573599          0.45733497
     1          4.61101165         -8.09133039         -0.66725896

 Electric dipole moment (dipole orientation):
 (Debye = 10**-18 statcoulomb cm , SI units = C m)
                  (au)            (Debye)         (10**-30 SI)
   Tot        0.109836D+01      0.279176D+01      0.931231D+01
   x          0.000000D+00      0.000000D+00      0.000000D+00
   y          0.000000D+00      0.000000D+00      0.000000D+00
   z          0.109836D+01      0.279176D+01      0.931231D+01

 Dipole polarizability, Alpha (dipole orientation).
 (esu units = cm**3 , SI units = C**2 m**2 J**-1)
 Alpha(0;0):
               (au)            (10**-24 esu)      (10**-40 SI)
   iso        0.585916D+03      0.868239D+02      0.966046D+02
   aniso      0.579155D+03      0.858219D+02      0.954897D+02
   xx         0.409685D+03      0.607090D+02      0.675479D+02
   yx        -0.764451D+02     -0.113280D+02     -0.126041D+02
   yy         0.847404D+03      0.125572D+03      0.139718D+03
   zx        -0.129241D+03     -0.191516D+02     -0.213090D+02
   zy        -0.189495D+03     -0.280803D+02     -0.312436D+02
   zz         0.500660D+03      0.741902D+02      0.825477D+02

 ----------------------------------------------------------------------

 This type of calculation cannot be archived.


 I (ERNEST RUTHERFORD) CAME INTO THE ROOM, WHICH WAS HALF DARK, AND PRESENTLY
 SPOTTED LORD KELVIN IN THE AUDIENCE AND REALIZED I WAS IN TROUBLE AT
 THE LAST PART OF MY SPEECH DEALING THE AGE OF THE EARTH, WHERE MY VIEWS
 CONFLICTED WITH HIS.  TO MY RELIEF KELVIN FELL FAST ASLEEP, BUT AS I CAME
 TO THE IMPORTANT POINT, I SAW THE OLD BIRD SIT UP AND COCK A BALEFUL GLANCE
 AT ME! THEN A SUDDEN INSPIRATION CAME AND I SAID LORD KELVIN HAD LIMITED
 THE AGE OF THE EARTH PROVIDED NO NEW SOURCE WAS DISCOVERED. THAT
 PROPHETIC UTTERANCE REFERS TO WHAT WE ARE NOW CONSIDERING TONIGHT, RADIUM!
 BEHOLD!  THE OLD BOY BEAMED UPON ME.
 Job cpu time:       0 days  0 hours  0 minutes 23.6 seconds.
 Elapsed time:       0 days  0 hours  0 minutes  1.6 seconds.
 File lengths (MBytes):  RWF=     72 Int=      0 D2E=      0 Chk=     84 Scr=      8
 Normal termination of Gaussian 16 at Fri Dec 21 18:12:00 2018.
