 Entering Gaussian System, Link 0=g16
 Input=cyclohexyl-triBIP-E3PT.com
 Output=cyclohexyl-triBIP-E3PT.log
 Initial command:
 /gpfs/apps/hpc/Apps/Restricted/Gaussian/Rev_A.03/g16/l1.exe "/gpfs/scratch60/fas/hammes_schiffer/jg2487/c42n01/Gau-73974.inp" -scrdir="/gpfs/scratch60/fas/hammes_schiffer/jg2487/c42n01/"
 Entering Link 1 = /gpfs/apps/hpc/Apps/Restricted/Gaussian/Rev_A.03/g16/l1.exe PID=     73975.
  
 Copyright (c) 1988,1990,1992,1993,1995,1998,2003,2009,2016,
            Gaussian, Inc.  All Rights Reserved.
  
 This is part of the Gaussian(R) 16 program.  It is based on
 the Gaussian(R) 09 system (copyright 2009, Gaussian, Inc.),
 the Gaussian(R) 03 system (copyright 2003, Gaussian, Inc.),
 the Gaussian(R) 98 system (copyright 1998, Gaussian, Inc.),
 the Gaussian(R) 94 system (copyright 1995, Gaussian, Inc.),
 the Gaussian 92(TM) system (copyright 1992, Gaussian, Inc.),
 the Gaussian 90(TM) system (copyright 1990, Gaussian, Inc.),
 the Gaussian 88(TM) system (copyright 1988, Gaussian, Inc.),
 the Gaussian 86(TM) system (copyright 1986, Carnegie Mellon
 University), and the Gaussian 82(TM) system (copyright 1983,
 Carnegie Mellon University). Gaussian is a federally registered
 trademark of Gaussian, Inc.
  
 This software contains proprietary and confidential information,
 including trade secrets, belonging to Gaussian, Inc.
  
 This software is provided under written license and may be
 used, copied, transmitted, or stored only in accord with that
 written license.
  
 The following legend is applicable only to US Government
 contracts under FAR:
  
                    RESTRICTED RIGHTS LEGEND
  
 Use, reproduction and disclosure by the US Government is
 subject to restrictions as set forth in subparagraphs (a)
 and (c) of the Commercial Computer Software - Restricted
 Rights clause in FAR 52.227-19.
  
 Gaussian, Inc.
 340 Quinnipiac St., Bldg. 40, Wallingford CT 06492
  
  
 ---------------------------------------------------------------
 Warning -- This program may not be used in any manner that
 competes with the business of Gaussian, Inc. or will provide
 assistance to any competitor of Gaussian, Inc.  The licensee
 of this program is prohibited from giving any competitor of
 Gaussian, Inc. access to this program.  By using this program,
 the user acknowledges that Gaussian, Inc. is engaged in the
 business of creating and licensing software in the field of
 computational chemistry and represents and warrants to the
 licensee that it is not a competitor of Gaussian, Inc. and that
 it will not use this program in any manner prohibited above.
 ---------------------------------------------------------------
  

 Cite this work as:
 Gaussian 16, Revision A.03,
 M. J. Frisch, G. W. Trucks, H. B. Schlegel, G. E. Scuseria, 
 M. A. Robb, J. R. Cheeseman, G. Scalmani, V. Barone, 
 G. A. Petersson, H. Nakatsuji, X. Li, M. Caricato, A. V. Marenich, 
 J. Bloino, B. G. Janesko, R. Gomperts, B. Mennucci, H. P. Hratchian, 
 J. V. Ortiz, A. F. Izmaylov, J. L. Sonnenberg, D. Williams-Young, 
 F. Ding, F. Lipparini, F. Egidi, J. Goings, B. Peng, A. Petrone, 
 T. Henderson, D. Ranasinghe, V. G. Zakrzewski, J. Gao, N. Rega, 
 G. Zheng, W. Liang, M. Hada, M. Ehara, K. Toyota, R. Fukuda, 
 J. Hasegawa, M. Ishida, T. Nakajima, Y. Honda, O. Kitao, H. Nakai, 
 T. Vreven, K. Throssell, J. A. Montgomery, Jr., J. E. Peralta, 
 F. Ogliaro, M. J. Bearpark, J. J. Heyd, E. N. Brothers, K. N. Kudin, 
 V. N. Staroverov, T. A. Keith, R. Kobayashi, J. Normand, 
 K. Raghavachari, A. P. Rendell, J. C. Burant, S. S. Iyengar, 
 J. Tomasi, M. Cossi, J. M. Millam, M. Klene, C. Adamo, R. Cammi, 
 J. W. Ochterski, R. L. Martin, K. Morokuma, O. Farkas, 
 J. B. Foresman, and D. J. Fox, Gaussian, Inc., Wallingford CT, 2016.
 
 ******************************************
 Gaussian 16:  ES64L-G16RevA.03 25-Dec-2016
                21-Dec-2018 
 ******************************************
 %chk=cyclohexyl-triBIP-E3PT.chk
 %mem=10GB
 %nprocshared=16
 Will use up to   16 processors via shared memory.
 ----------------------------------------------------------------
 #p freq(ReadFC,InternalModes) Geom(AllCheck) NoSymm scale=0.9631
 ----------------------------------------------------------------
 1/18=20,29=7,38=1,114=963100/1,3;
 2/9=110,12=2,15=1,40=1/2;
 7/8=21,25=11,30=1/16;
 99/5=2/99;
 Leave Link    1 at Fri Dec 21 18:13:37 2018, MaxMem=  1342177280 cpu:              11.1 elap:               0.7
 (Enter /gpfs/apps/hpc/Apps/Restricted/Gaussian/Rev_A.03/g16/l101.exe)
 Structure from the checkpoint file:  "cyclohexyl-triBIP-E3PT.chk"
 ----------------------------------------------------------------------
 cyclohexylimine triBIP oxidized, first three protons transferred optim
 ization
 ----------------------------------------------------------------------
 Charge =  1 Multiplicity = 2
 Redundant internal coordinates found in file.  (old form).
 C,0,1.596536,0.409325,1.107915
 C,0,0.512513,1.270575,0.806546
 C,0,0.669602,2.646846,0.674798
 C,0,1.956833,3.159702,0.854289
 C,0,3.046402,2.333488,1.15454
 C,0,2.891325,0.945378,1.286021
 C,0,-0.144983,-0.846332,0.931189
 H,0,-0.168067,3.291836,0.440843
 H,0,2.119135,4.226003,0.757651
 H,0,4.023834,2.7817,1.282101
 C,0,-2.431903,-1.780219,0.602381
 C,0,-3.311364,-2.894303,0.562873
 C,0,-2.877321,-4.198679,0.798545
 C,0,-1.523295,-4.36641,1.082825
 C,0,-0.632158,-3.280615,1.125626
 C,0,-1.060799,-1.971543,0.892163
 C,0,-4.386471,-1.002861,0.117645
 H,0,-3.558906,-5.039178,0.764048
 H,0,-1.141423,-5.362195,1.273167
 H,0,0.414116,-3.451793,1.344681
 N,0,-0.575294,0.432823,0.70544
 C,0,-6.821986,-0.639363,-0.472993
 C,0,-5.474724,-0.109438,-0.225118
 C,0,-5.225301,1.253087,-0.322134
 C,0,-6.236108,2.154369,-0.668622
 C,0,-7.539063,1.645395,-0.932307
 C,0,-7.870342,0.314625,-0.855918
 H,0,-4.222023,1.602144,-0.123663
 H,0,-8.303788,2.357006,-1.209823
 C,0,-5.99413,3.655679,-0.774989
 C,0,-9.277937,-0.191981,-1.165245
 O,0,-7.056781,-1.872289,-0.363379
 N,0,-3.118646,-0.622202,0.325139
 N,0,-4.536867,-2.356437,0.255044
 N,0,1.167087,-0.89763,1.179074
 C,0,3.981818,0.054196,1.591617
 N,0,3.842619,-1.28528,1.689921
 N,0,5.276655,0.35408,1.819952
 C,0,7.337154,-0.998425,2.363971
 C,0,7.731822,-2.325548,2.55766
 C,0,6.817846,-3.391551,2.473737
 C,0,5.469542,-3.188983,2.186274
 C,0,5.066008,-1.868357,1.986021
 C,0,5.980648,-0.808118,2.068399
 H,0,8.771348,-2.531728,2.785534
 H,0,7.174932,-4.400847,2.636374
 H,0,4.76868,-4.011011,2.124231
 C,0,8.25891,0.13452,2.472607
 H,0,9.298519,-0.115339,2.695666
 N,0,7.836485,1.333446,2.323783
 C,0,8.747704,2.470194,2.445384
 C,0,10.221561,2.162277,2.729495
 C,0,8.606114,3.341797,1.18659
 H,0,8.357426,3.059954,3.28704
 C,0,11.028445,3.459469,2.866185
 H,0,10.629885,1.562489,1.906105
 H,0,10.315756,1.564212,3.641694
 C,0,9.416257,4.635447,1.314321
 H,0,8.962252,2.764016,0.325111
 H,0,7.546875,3.558148,1.016542
 C,0,10.888883,4.342637,1.621552
 H,0,12.080895,3.223375,3.050081
 H,0,10.670743,4.012603,3.743387
 H,0,9.326874,5.22259,0.395031
 H,0,8.993102,5.243913,2.123369
 H,0,11.441785,5.277572,1.756286
 H,0,11.338204,3.825646,0.764406
 H,0,2.923611,-1.718731,1.555333
 H,0,-1.549383,0.648876,0.495146
 H,0,-5.441314,-2.797775,0.118639
 H,0,5.756071,1.253414,1.842896
 C,0,-9.215986,-1.191455,-2.34322
 H,0,-8.618047,-2.063361,-2.082391
 H,0,-10.227799,-1.520817,-2.59631
 H,0,-8.781105,-0.715536,-3.226401
 C,0,-10.220014,0.953842,-1.563618
 H,0,-10.328394,1.689872,-0.762048
 H,0,-9.873452,1.473421,-2.460916
 H,0,-11.208743,0.541198,-1.775387
 C,0,-9.871232,-0.884159,0.081859
 H,0,-9.263672,-1.735191,0.38583
 H,0,-9.933123,-0.181336,0.917147
 H,0,-10.882559,-1.234505,-0.142751
 C,0,-6.306379,4.109621,-2.217967
 H,0,-7.337216,3.882245,-2.498543
 H,0,-6.163684,5.190228,-2.301258
 H,0,-5.640253,3.619413,-2.931969
 C,0,-6.93774,4.387973,0.204387
 H,0,-6.789072,5.467474,0.115965
 H,0,-7.987368,4.173826,-0.007955
 H,0,-6.729379,4.094687,1.236027
 C,0,-4.546379,4.038264,-0.437361
 H,0,-4.285162,3.754294,0.585361
 H,0,-3.834639,3.565731,-1.119318
 H,0,-4.428915,5.120398,-0.527469
 Recover connectivity data from disk.
 ITRead=  0  0  0  0  0  0  0  0  0  0  0  0  0  0  0  0  0  0  0  0
 ITRead=  0  0  0  0  0  0  0  0  0  0  0  0  0  0  0  0  0  0  0  0
 ITRead=  0  0  0  0  0  0  0  0  0  0  0  0  0  0  0  0  0  0  0  0
 ITRead=  0  0  0  0  0  0  0  0  0  0  0  0  0  0  0  0  0  0  0  0
 ITRead=  0  0  0  0  0  0  0  0  0  0  0  0  0  0  0
 MicOpt= -1 -1 -1 -1 -1 -1 -1 -1 -1 -1 -1 -1 -1 -1 -1 -1 -1 -1 -1 -1
 MicOpt= -1 -1 -1 -1 -1 -1 -1 -1 -1 -1 -1 -1 -1 -1 -1 -1 -1 -1 -1 -1
 MicOpt= -1 -1 -1 -1 -1 -1 -1 -1 -1 -1 -1 -1 -1 -1 -1 -1 -1 -1 -1 -1
 MicOpt= -1 -1 -1 -1 -1 -1 -1 -1 -1 -1 -1 -1 -1 -1 -1 -1 -1 -1 -1 -1
 MicOpt= -1 -1 -1 -1 -1 -1 -1 -1 -1 -1 -1 -1 -1 -1 -1
 NAtoms=     95 NQM=       95 NQMF=       0 NMMI=      0 NMMIF=      0
                NMic=       0 NMicF=      0.
                    Isotopes and Nuclear Properties:
 (Nuclear quadrupole moments (NQMom) in fm**2, nuclear magnetic moments (NMagM)
  in nuclear magnetons)

  Atom         1           2           3           4           5           6           7           8           9          10
 IAtWgt=          12          12          12          12          12          12          12           1           1           1
 AtmWgt=  12.0000000  12.0000000  12.0000000  12.0000000  12.0000000  12.0000000  12.0000000   1.0078250   1.0078250   1.0078250
 NucSpn=           0           0           0           0           0           0           0           1           1           1
 AtZEff=   3.6000000   3.6000000   3.6000000   3.6000000   3.6000000   3.6000000   3.6000000   1.0000000   1.0000000   1.0000000
 NQMom=    0.0000000   0.0000000   0.0000000   0.0000000   0.0000000   0.0000000   0.0000000   0.0000000   0.0000000   0.0000000
 NMagM=    0.0000000   0.0000000   0.0000000   0.0000000   0.0000000   0.0000000   0.0000000   2.7928460   2.7928460   2.7928460
 AtZNuc=   6.0000000   6.0000000   6.0000000   6.0000000   6.0000000   6.0000000   6.0000000   1.0000000   1.0000000   1.0000000

  Atom        11          12          13          14          15          16          17          18          19          20
 IAtWgt=          12          12          12          12          12          12          12           1           1           1
 AtmWgt=  12.0000000  12.0000000  12.0000000  12.0000000  12.0000000  12.0000000  12.0000000   1.0078250   1.0078250   1.0078250
 NucSpn=           0           0           0           0           0           0           0           1           1           1
 AtZEff=   3.6000000   3.6000000   3.6000000   3.6000000   3.6000000   3.6000000   3.6000000   1.0000000   1.0000000   1.0000000
 NQMom=    0.0000000   0.0000000   0.0000000   0.0000000   0.0000000   0.0000000   0.0000000   0.0000000   0.0000000   0.0000000
 NMagM=    0.0000000   0.0000000   0.0000000   0.0000000   0.0000000   0.0000000   0.0000000   2.7928460   2.7928460   2.7928460
 AtZNuc=   6.0000000   6.0000000   6.0000000   6.0000000   6.0000000   6.0000000   6.0000000   1.0000000   1.0000000   1.0000000

  Atom        21          22          23          24          25          26          27          28          29          30
 IAtWgt=          14          12          12          12          12          12          12           1           1          12
 AtmWgt=  14.0030740  12.0000000  12.0000000  12.0000000  12.0000000  12.0000000  12.0000000   1.0078250   1.0078250  12.0000000
 NucSpn=           2           0           0           0           0           0           0           1           1           0
 AtZEff=   4.5500000   3.6000000   3.6000000   3.6000000   3.6000000   3.6000000   3.6000000   1.0000000   1.0000000   3.6000000
 NQMom=    2.0440000   0.0000000   0.0000000   0.0000000   0.0000000   0.0000000   0.0000000   0.0000000   0.0000000   0.0000000
 NMagM=    0.4037610   0.0000000   0.0000000   0.0000000   0.0000000   0.0000000   0.0000000   2.7928460   2.7928460   0.0000000
 AtZNuc=   7.0000000   6.0000000   6.0000000   6.0000000   6.0000000   6.0000000   6.0000000   1.0000000   1.0000000   6.0000000

  Atom        31          32          33          34          35          36          37          38          39          40
 IAtWgt=          12          16          14          14          14          12          14          14          12          12
 AtmWgt=  12.0000000  15.9949146  14.0030740  14.0030740  14.0030740  12.0000000  14.0030740  14.0030740  12.0000000  12.0000000
 NucSpn=           0           0           2           2           2           0           2           2           0           0
 AtZEff=   3.6000000   5.6000000   4.5500000   4.5500000   4.5500000   3.6000000   4.5500000   4.5500000   3.6000000   3.6000000
 NQMom=    0.0000000   0.0000000   2.0440000   2.0440000   2.0440000   0.0000000   2.0440000   2.0440000   0.0000000   0.0000000
 NMagM=    0.0000000   0.0000000   0.4037610   0.4037610   0.4037610   0.0000000   0.4037610   0.4037610   0.0000000   0.0000000
 AtZNuc=   6.0000000   8.0000000   7.0000000   7.0000000   7.0000000   6.0000000   7.0000000   7.0000000   6.0000000   6.0000000

  Atom        41          42          43          44          45          46          47          48          49          50
 IAtWgt=          12          12          12          12           1           1           1          12           1          14
 AtmWgt=  12.0000000  12.0000000  12.0000000  12.0000000   1.0078250   1.0078250   1.0078250  12.0000000   1.0078250  14.0030740
 NucSpn=           0           0           0           0           1           1           1           0           1           2
 AtZEff=   3.6000000   3.6000000   3.6000000   3.6000000   1.0000000   1.0000000   1.0000000   3.6000000   1.0000000   4.5500000
 NQMom=    0.0000000   0.0000000   0.0000000   0.0000000   0.0000000   0.0000000   0.0000000   0.0000000   0.0000000   2.0440000
 NMagM=    0.0000000   0.0000000   0.0000000   0.0000000   2.7928460   2.7928460   2.7928460   0.0000000   2.7928460   0.4037610
 AtZNuc=   6.0000000   6.0000000   6.0000000   6.0000000   1.0000000   1.0000000   1.0000000   6.0000000   1.0000000   7.0000000

  Atom        51          52          53          54          55          56          57          58          59          60
 IAtWgt=          12          12          12           1          12           1           1          12           1           1
 AtmWgt=  12.0000000  12.0000000  12.0000000   1.0078250  12.0000000   1.0078250   1.0078250  12.0000000   1.0078250   1.0078250
 NucSpn=           0           0           0           1           0           1           1           0           1           1
 AtZEff=   3.6000000   3.6000000   3.6000000   1.0000000   3.6000000   1.0000000   1.0000000   3.6000000   1.0000000   1.0000000
 NQMom=    0.0000000   0.0000000   0.0000000   0.0000000   0.0000000   0.0000000   0.0000000   0.0000000   0.0000000   0.0000000
 NMagM=    0.0000000   0.0000000   0.0000000   2.7928460   0.0000000   2.7928460   2.7928460   0.0000000   2.7928460   2.7928460
 AtZNuc=   6.0000000   6.0000000   6.0000000   1.0000000   6.0000000   1.0000000   1.0000000   6.0000000   1.0000000   1.0000000

  Atom        61          62          63          64          65          66          67          68          69          70
 IAtWgt=          12           1           1           1           1           1           1           1           1           1
 AtmWgt=  12.0000000   1.0078250   1.0078250   1.0078250   1.0078250   1.0078250   1.0078250   1.0078250   1.0078250   1.0078250
 NucSpn=           0           1           1           1           1           1           1           1           1           1
 AtZEff=   3.6000000   1.0000000   1.0000000   1.0000000   1.0000000   1.0000000   1.0000000   1.0000000   1.0000000   1.0000000
 NQMom=    0.0000000   0.0000000   0.0000000   0.0000000   0.0000000   0.0000000   0.0000000   0.0000000   0.0000000   0.0000000
 NMagM=    0.0000000   2.7928460   2.7928460   2.7928460   2.7928460   2.7928460   2.7928460   2.7928460   2.7928460   2.7928460
 AtZNuc=   6.0000000   1.0000000   1.0000000   1.0000000   1.0000000   1.0000000   1.0000000   1.0000000   1.0000000   1.0000000

  Atom        71          72          73          74          75          76          77          78          79          80
 IAtWgt=           1          12           1           1           1          12           1           1           1          12
 AtmWgt=   1.0078250  12.0000000   1.0078250   1.0078250   1.0078250  12.0000000   1.0078250   1.0078250   1.0078250  12.0000000
 NucSpn=           1           0           1           1           1           0           1           1           1           0
 AtZEff=   1.0000000   3.6000000   1.0000000   1.0000000   1.0000000   3.6000000   1.0000000   1.0000000   1.0000000   3.6000000
 NQMom=    0.0000000   0.0000000   0.0000000   0.0000000   0.0000000   0.0000000   0.0000000   0.0000000   0.0000000   0.0000000
 NMagM=    2.7928460   0.0000000   2.7928460   2.7928460   2.7928460   0.0000000   2.7928460   2.7928460   2.7928460   0.0000000
 AtZNuc=   1.0000000   6.0000000   1.0000000   1.0000000   1.0000000   6.0000000   1.0000000   1.0000000   1.0000000   6.0000000

  Atom        81          82          83          84          85          86          87          88          89          90
 IAtWgt=           1           1           1          12           1           1           1          12           1           1
 AtmWgt=   1.0078250   1.0078250   1.0078250  12.0000000   1.0078250   1.0078250   1.0078250  12.0000000   1.0078250   1.0078250
 NucSpn=           1           1           1           0           1           1           1           0           1           1
 AtZEff=   1.0000000   1.0000000   1.0000000   3.6000000   1.0000000   1.0000000   1.0000000   3.6000000   1.0000000   1.0000000
 NQMom=    0.0000000   0.0000000   0.0000000   0.0000000   0.0000000   0.0000000   0.0000000   0.0000000   0.0000000   0.0000000
 NMagM=    2.7928460   2.7928460   2.7928460   0.0000000   2.7928460   2.7928460   2.7928460   0.0000000   2.7928460   2.7928460
 AtZNuc=   1.0000000   1.0000000   1.0000000   6.0000000   1.0000000   1.0000000   1.0000000   6.0000000   1.0000000   1.0000000

  Atom        91          92          93          94          95
 IAtWgt=           1          12           1           1           1
 AtmWgt=   1.0078250  12.0000000   1.0078250   1.0078250   1.0078250
 NucSpn=           1           0           1           1           1
 AtZEff=   1.0000000   3.6000000   1.0000000   1.0000000   1.0000000
 NQMom=    0.0000000   0.0000000   0.0000000   0.0000000   0.0000000
 NMagM=    2.7928460   0.0000000   2.7928460   2.7928460   2.7928460
 AtZNuc=   1.0000000   6.0000000   1.0000000   1.0000000   1.0000000
 Leave Link  101 at Fri Dec 21 18:13:37 2018, MaxMem=  1342177280 cpu:               4.8 elap:               0.3
 (Enter /gpfs/apps/hpc/Apps/Restricted/Gaussian/Rev_A.03/g16/l103.exe)

 GradGradGradGradGradGradGradGradGradGradGradGradGradGradGradGradGradGrad
 Berny optimization.
 Initialization pass.
                           ----------------------------
                           !    Initial Parameters    !
                           ! (Angstroms and Degrees)  !
 --------------------------                            --------------------------
 ! Name  Definition              Value          Derivative Info.                !
 --------------------------------------------------------------------------------
 ! R1    R(1,2)                  1.4169         estimate D2E/DX2                !
 ! R2    R(1,6)                  1.4126         estimate D2E/DX2                !
 ! R3    R(1,35)                 1.3775         estimate D2E/DX2                !
 ! R4    R(2,3)                  1.3915         estimate D2E/DX2                !
 ! R5    R(2,21)                 1.3767         estimate D2E/DX2                !
 ! R6    R(3,4)                  1.3972         estimate D2E/DX2                !
 ! R7    R(3,8)                  1.0828         estimate D2E/DX2                !
 ! R8    R(4,5)                  1.4            estimate D2E/DX2                !
 ! R9    R(4,9)                  1.0829         estimate D2E/DX2                !
 ! R10   R(5,6)                  1.4029         estimate D2E/DX2                !
 ! R11   R(5,10)                 1.0828         estimate D2E/DX2                !
 ! R12   R(6,36)                 1.4411         estimate D2E/DX2                !
 ! R13   R(7,16)                 1.4513         estimate D2E/DX2                !
 ! R14   R(7,21)                 1.3683         estimate D2E/DX2                !
 ! R15   R(7,35)                 1.3363         estimate D2E/DX2                !
 ! R16   R(11,12)                1.4199         estimate D2E/DX2                !
 ! R17   R(11,16)                1.4144         estimate D2E/DX2                !
 ! R18   R(11,33)                1.3746         estimate D2E/DX2                !
 ! R19   R(12,13)                1.3948         estimate D2E/DX2                !
 ! R20   R(12,34)                1.3733         estimate D2E/DX2                !
 ! R21   R(13,14)                1.3937         estimate D2E/DX2                !
 ! R22   R(13,18)                1.0827         estimate D2E/DX2                !
 ! R23   R(14,15)                1.4053         estimate D2E/DX2                !
 ! R24   R(14,19)                1.0833         estimate D2E/DX2                !
 ! R25   R(15,16)                1.3971         estimate D2E/DX2                !
 ! R26   R(15,20)                1.0826         estimate D2E/DX2                !
 ! R27   R(17,23)                1.4491         estimate D2E/DX2                !
 ! R28   R(17,33)                1.3399         estimate D2E/DX2                !
 ! R29   R(17,34)                1.3688         estimate D2E/DX2                !
 ! R30   R(21,69)                1.0197         estimate D2E/DX2                !
 ! R31   R(22,23)                1.4688         estimate D2E/DX2                !
 ! R32   R(22,27)                1.4683         estimate D2E/DX2                !
 ! R33   R(22,32)                1.2599         estimate D2E/DX2                !
 ! R34   R(23,24)                1.3886         estimate D2E/DX2                !
 ! R35   R(24,25)                1.3979         estimate D2E/DX2                !
 ! R36   R(24,28)                1.0806         estimate D2E/DX2                !
 ! R37   R(25,26)                1.4235         estimate D2E/DX2                !
 ! R38   R(25,30)                1.5244         estimate D2E/DX2                !
 ! R39   R(26,27)                1.3735         estimate D2E/DX2                !
 ! R40   R(26,29)                1.0808         estimate D2E/DX2                !
 ! R41   R(27,31)                1.5276         estimate D2E/DX2                !
 ! R42   R(30,84)                1.5446         estimate D2E/DX2                !
 ! R43   R(30,88)                1.5446         estimate D2E/DX2                !
 ! R44   R(30,92)                1.535          estimate D2E/DX2                !
 ! R45   R(31,72)                1.5461         estimate D2E/DX2                !
 ! R46   R(31,76)                1.5359         estimate D2E/DX2                !
 ! R47   R(31,80)                1.5448         estimate D2E/DX2                !
 ! R48   R(34,70)                1.0156         estimate D2E/DX2                !
 ! R49   R(36,37)                1.3503         estimate D2E/DX2                !
 ! R50   R(36,38)                1.3486         estimate D2E/DX2                !
 ! R51   R(37,43)                1.3872         estimate D2E/DX2                !
 ! R52   R(37,68)                1.025          estimate D2E/DX2                !
 ! R53   R(38,44)                1.3813         estimate D2E/DX2                !
 ! R54   R(38,71)                1.0194         estimate D2E/DX2                !
 ! R55   R(39,40)                1.398          estimate D2E/DX2                !
 ! R56   R(39,44)                1.4013         estimate D2E/DX2                !
 ! R57   R(39,48)                1.4646         estimate D2E/DX2                !
 ! R58   R(40,41)                1.4067         estimate D2E/DX2                !
 ! R59   R(40,45)                1.084          estimate D2E/DX2                !
 ! R60   R(41,42)                1.3934         estimate D2E/DX2                !
 ! R61   R(41,46)                1.0829         estimate D2E/DX2                !
 ! R62   R(42,43)                1.3953         estimate D2E/DX2                !
 ! R63   R(42,47)                1.082          estimate D2E/DX2                !
 ! R64   R(43,44)                1.4027         estimate D2E/DX2                !
 ! R65   R(48,49)                1.0922         estimate D2E/DX2                !
 ! R66   R(48,50)                1.2798         estimate D2E/DX2                !
 ! R67   R(50,51)                1.462          estimate D2E/DX2                !
 ! R68   R(51,52)                1.5322         estimate D2E/DX2                !
 ! R69   R(51,53)                1.5376         estimate D2E/DX2                !
 ! R70   R(51,54)                1.0993         estimate D2E/DX2                !
 ! R71   R(52,55)                1.5338         estimate D2E/DX2                !
 ! R72   R(52,56)                1.0975         estimate D2E/DX2                !
 ! R73   R(52,57)                1.0948         estimate D2E/DX2                !
 ! R74   R(53,58)                1.5317         estimate D2E/DX2                !
 ! R75   R(53,59)                1.0967         estimate D2E/DX2                !
 ! R76   R(53,60)                1.0944         estimate D2E/DX2                !
 ! R77   R(55,61)                1.5325         estimate D2E/DX2                !
 ! R78   R(55,62)                1.0942         estimate D2E/DX2                !
 ! R79   R(55,63)                1.097          estimate D2E/DX2                !
 ! R80   R(58,61)                1.5326         estimate D2E/DX2                !
 ! R81   R(58,64)                1.0944         estimate D2E/DX2                !
 ! R82   R(58,65)                1.0972         estimate D2E/DX2                !
 ! R83   R(61,66)                1.0945         estimate D2E/DX2                !
 ! R84   R(61,67)                1.0972         estimate D2E/DX2                !
 ! R85   R(72,73)                1.0889         estimate D2E/DX2                !
 ! R86   R(72,74)                1.0938         estimate D2E/DX2                !
 ! R87   R(72,75)                1.0934         estimate D2E/DX2                !
 ! R88   R(76,77)                1.0936         estimate D2E/DX2                !
 ! R89   R(76,78)                1.0933         estimate D2E/DX2                !
 ! R90   R(76,79)                1.0921         estimate D2E/DX2                !
 ! R91   R(80,81)                1.0889         estimate D2E/DX2                !
 ! R92   R(80,82)                1.0934         estimate D2E/DX2                !
 ! R93   R(80,83)                1.0936         estimate D2E/DX2                !
 ! R94   R(84,85)                1.0923         estimate D2E/DX2                !
 ! R95   R(84,86)                1.0932         estimate D2E/DX2                !
 ! R96   R(84,87)                1.0926         estimate D2E/DX2                !
 ! R97   R(88,89)                1.0933         estimate D2E/DX2                !
 ! R98   R(88,90)                1.0921         estimate D2E/DX2                !
 ! R99   R(88,91)                1.0926         estimate D2E/DX2                !
 ! R100  R(92,93)                1.0931         estimate D2E/DX2                !
 ! R101  R(92,94)                1.0931         estimate D2E/DX2                !
 ! R102  R(92,95)                1.0922         estimate D2E/DX2                !
 ! A1    A(2,1,6)              119.8275         estimate D2E/DX2                !
 ! A2    A(2,1,35)             110.4363         estimate D2E/DX2                !
 ! A3    A(6,1,35)             129.7362         estimate D2E/DX2                !
 ! A4    A(1,2,3)              122.3414         estimate D2E/DX2                !
 ! A5    A(1,2,21)             104.4922         estimate D2E/DX2                !
 ! A6    A(3,2,21)             133.1663         estimate D2E/DX2                !
 ! A7    A(2,3,4)              117.0582         estimate D2E/DX2                !
 ! A8    A(2,3,8)              121.4861         estimate D2E/DX2                !
 ! A9    A(4,3,8)              121.4555         estimate D2E/DX2                !
 ! A10   A(3,4,5)              121.8665         estimate D2E/DX2                !
 ! A11   A(3,4,9)              119.2121         estimate D2E/DX2                !
 ! A12   A(5,4,9)              118.9213         estimate D2E/DX2                !
 ! A13   A(4,5,6)              121.1983         estimate D2E/DX2                !
 ! A14   A(4,5,10)             118.9142         estimate D2E/DX2                !
 ! A15   A(6,5,10)             119.887          estimate D2E/DX2                !
 ! A16   A(1,6,5)              117.7079         estimate D2E/DX2                !
 ! A17   A(1,6,36)             119.0551         estimate D2E/DX2                !
 ! A18   A(5,6,36)             123.237          estimate D2E/DX2                !
 ! A19   A(16,7,21)            121.459          estimate D2E/DX2                !
 ! A20   A(16,7,35)            126.4998         estimate D2E/DX2                !
 ! A21   A(21,7,35)            112.0412         estimate D2E/DX2                !
 ! A22   A(12,11,16)           119.9988         estimate D2E/DX2                !
 ! A23   A(12,11,33)           110.2392         estimate D2E/DX2                !
 ! A24   A(16,11,33)           129.7613         estimate D2E/DX2                !
 ! A25   A(11,12,13)           122.4334         estimate D2E/DX2                !
 ! A26   A(11,12,34)           104.5754         estimate D2E/DX2                !
 ! A27   A(13,12,34)           132.9899         estimate D2E/DX2                !
 ! A28   A(12,13,14)           116.7028         estimate D2E/DX2                !
 ! A29   A(12,13,18)           121.6494         estimate D2E/DX2                !
 ! A30   A(14,13,18)           121.6477         estimate D2E/DX2                !
 ! A31   A(13,14,15)           121.9584         estimate D2E/DX2                !
 ! A32   A(13,14,19)           119.27           estimate D2E/DX2                !
 ! A33   A(15,14,19)           118.7711         estimate D2E/DX2                !
 ! A34   A(14,15,16)           121.6217         estimate D2E/DX2                !
 ! A35   A(14,15,20)           119.7916         estimate D2E/DX2                !
 ! A36   A(16,15,20)           118.5867         estimate D2E/DX2                !
 ! A37   A(7,16,11)            120.82           estimate D2E/DX2                !
 ! A38   A(7,16,15)            121.8941         estimate D2E/DX2                !
 ! A39   A(11,16,15)           117.2838         estimate D2E/DX2                !
 ! A40   A(23,17,33)           124.8933         estimate D2E/DX2                !
 ! A41   A(23,17,34)           123.428          estimate D2E/DX2                !
 ! A42   A(33,17,34)           111.6755         estimate D2E/DX2                !
 ! A43   A(2,21,7)             107.9539         estimate D2E/DX2                !
 ! A44   A(2,21,69)            129.8682         estimate D2E/DX2                !
 ! A45   A(7,21,69)            122.1753         estimate D2E/DX2                !
 ! A46   A(23,22,27)           117.6795         estimate D2E/DX2                !
 ! A47   A(23,22,32)           120.6196         estimate D2E/DX2                !
 ! A48   A(27,22,32)           121.7002         estimate D2E/DX2                !
 ! A49   A(17,23,22)           120.4184         estimate D2E/DX2                !
 ! A50   A(17,23,24)           119.117          estimate D2E/DX2                !
 ! A51   A(22,23,24)           120.4639         estimate D2E/DX2                !
 ! A52   A(23,24,25)           121.3381         estimate D2E/DX2                !
 ! A53   A(23,24,28)           118.0918         estimate D2E/DX2                !
 ! A54   A(25,24,28)           120.57           estimate D2E/DX2                !
 ! A55   A(24,25,26)           118.5063         estimate D2E/DX2                !
 ! A56   A(24,25,30)           122.5131         estimate D2E/DX2                !
 ! A57   A(26,25,30)           118.9806         estimate D2E/DX2                !
 ! A58   A(25,26,27)           123.8417         estimate D2E/DX2                !
 ! A59   A(25,26,29)           117.3728         estimate D2E/DX2                !
 ! A60   A(27,26,29)           118.7854         estimate D2E/DX2                !
 ! A61   A(22,27,26)           118.1522         estimate D2E/DX2                !
 ! A62   A(22,27,31)           119.686          estimate D2E/DX2                !
 ! A63   A(26,27,31)           122.1601         estimate D2E/DX2                !
 ! A64   A(25,30,84)           108.8164         estimate D2E/DX2                !
 ! A65   A(25,30,88)           109.0079         estimate D2E/DX2                !
 ! A66   A(25,30,92)           112.3227         estimate D2E/DX2                !
 ! A67   A(84,30,88)           109.2394         estimate D2E/DX2                !
 ! A68   A(84,30,92)           108.8379         estimate D2E/DX2                !
 ! A69   A(88,30,92)           108.5749         estimate D2E/DX2                !
 ! A70   A(27,31,72)           109.3742         estimate D2E/DX2                !
 ! A71   A(27,31,76)           111.7329         estimate D2E/DX2                !
 ! A72   A(27,31,80)           109.8165         estimate D2E/DX2                !
 ! A73   A(72,31,76)           108.0122         estimate D2E/DX2                !
 ! A74   A(72,31,80)           109.9265         estimate D2E/DX2                !
 ! A75   A(76,31,80)           107.9439         estimate D2E/DX2                !
 ! A76   A(11,33,17)           105.3446         estimate D2E/DX2                !
 ! A77   A(12,34,17)           108.1649         estimate D2E/DX2                !
 ! A78   A(12,34,70)           130.892          estimate D2E/DX2                !
 ! A79   A(17,34,70)           120.9369         estimate D2E/DX2                !
 ! A80   A(1,35,7)             105.076          estimate D2E/DX2                !
 ! A81   A(6,36,37)            123.428          estimate D2E/DX2                !
 ! A82   A(6,36,38)            128.678          estimate D2E/DX2                !
 ! A83   A(37,36,38)           107.8934         estimate D2E/DX2                !
 ! A84   A(36,37,43)           109.9737         estimate D2E/DX2                !
 ! A85   A(36,37,68)           120.1577         estimate D2E/DX2                !
 ! A86   A(43,37,68)           129.8673         estimate D2E/DX2                !
 ! A87   A(36,38,44)           109.4328         estimate D2E/DX2                !
 ! A88   A(36,38,71)           130.658          estimate D2E/DX2                !
 ! A89   A(44,38,71)           119.9034         estimate D2E/DX2                !
 ! A90   A(40,39,44)           115.5571         estimate D2E/DX2                !
 ! A91   A(40,39,48)           123.1185         estimate D2E/DX2                !
 ! A92   A(44,39,48)           121.3209         estimate D2E/DX2                !
 ! A93   A(39,40,41)           121.849          estimate D2E/DX2                !
 ! A94   A(39,40,45)           118.7113         estimate D2E/DX2                !
 ! A95   A(41,40,45)           119.4383         estimate D2E/DX2                !
 ! A96   A(40,41,42)           122.0626         estimate D2E/DX2                !
 ! A97   A(40,41,46)           118.8881         estimate D2E/DX2                !
 ! A98   A(42,41,46)           119.0492         estimate D2E/DX2                !
 ! A99   A(41,42,43)           116.5537         estimate D2E/DX2                !
 ! A100  A(41,42,47)           121.8804         estimate D2E/DX2                !
 ! A101  A(43,42,47)           121.5656         estimate D2E/DX2                !
 ! A102  A(37,43,42)           133.1176         estimate D2E/DX2                !
 ! A103  A(37,43,44)           105.6579         estimate D2E/DX2                !
 ! A104  A(42,43,44)           121.2244         estimate D2E/DX2                !
 ! A105  A(38,44,39)           130.2074         estimate D2E/DX2                !
 ! A106  A(38,44,43)           107.0422         estimate D2E/DX2                !
 ! A107  A(39,44,43)           122.7489         estimate D2E/DX2                !
 ! A108  A(39,48,49)           115.9273         estimate D2E/DX2                !
 ! A109  A(39,48,50)           120.5505         estimate D2E/DX2                !
 ! A110  A(49,48,50)           123.518          estimate D2E/DX2                !
 ! A111  A(48,50,51)           120.8637         estimate D2E/DX2                !
 ! A112  A(50,51,52)           117.3035         estimate D2E/DX2                !
 ! A113  A(50,51,53)           108.377          estimate D2E/DX2                !
 ! A114  A(50,51,54)           105.0429         estimate D2E/DX2                !
 ! A115  A(52,51,53)           110.7495         estimate D2E/DX2                !
 ! A116  A(52,51,54)           107.8987         estimate D2E/DX2                !
 ! A117  A(53,51,54)           106.857          estimate D2E/DX2                !
 ! A118  A(51,52,55)           110.6461         estimate D2E/DX2                !
 ! A119  A(51,52,56)           109.1834         estimate D2E/DX2                !
 ! A120  A(51,52,57)           110.3053         estimate D2E/DX2                !
 ! A121  A(55,52,56)           109.4723         estimate D2E/DX2                !
 ! A122  A(55,52,57)           110.0285         estimate D2E/DX2                !
 ! A123  A(56,52,57)           107.1308         estimate D2E/DX2                !
 ! A124  A(51,53,58)           111.2091         estimate D2E/DX2                !
 ! A125  A(51,53,59)           108.3322         estimate D2E/DX2                !
 ! A126  A(51,53,60)           109.171          estimate D2E/DX2                !
 ! A127  A(58,53,59)           109.7971         estimate D2E/DX2                !
 ! A128  A(58,53,60)           110.972          estimate D2E/DX2                !
 ! A129  A(59,53,60)           107.241          estimate D2E/DX2                !
 ! A130  A(52,55,61)           111.5376         estimate D2E/DX2                !
 ! A131  A(52,55,62)           109.7859         estimate D2E/DX2                !
 ! A132  A(52,55,63)           109.0368         estimate D2E/DX2                !
 ! A133  A(61,55,62)           110.3921         estimate D2E/DX2                !
 ! A134  A(61,55,63)           109.2177         estimate D2E/DX2                !
 ! A135  A(62,55,63)           106.741          estimate D2E/DX2                !
 ! A136  A(53,58,61)           111.3201         estimate D2E/DX2                !
 ! A137  A(53,58,64)           109.8677         estimate D2E/DX2                !
 ! A138  A(53,58,65)           109.0185         estimate D2E/DX2                !
 ! A139  A(61,58,64)           110.448          estimate D2E/DX2                !
 ! A140  A(61,58,65)           109.191          estimate D2E/DX2                !
 ! A141  A(64,58,65)           106.8794         estimate D2E/DX2                !
 ! A142  A(55,61,58)           111.1262         estimate D2E/DX2                !
 ! A143  A(55,61,66)           110.2605         estimate D2E/DX2                !
 ! A144  A(55,61,67)           109.0035         estimate D2E/DX2                !
 ! A145  A(58,61,66)           110.2964         estimate D2E/DX2                !
 ! A146  A(58,61,67)           109.0816         estimate D2E/DX2                !
 ! A147  A(66,61,67)           106.9649         estimate D2E/DX2                !
 ! A148  A(31,72,73)           110.9232         estimate D2E/DX2                !
 ! A149  A(31,72,74)           109.5056         estimate D2E/DX2                !
 ! A150  A(31,72,75)           110.485          estimate D2E/DX2                !
 ! A151  A(73,72,74)           108.8008         estimate D2E/DX2                !
 ! A152  A(73,72,75)           108.8795         estimate D2E/DX2                !
 ! A153  A(74,72,75)           108.185          estimate D2E/DX2                !
 ! A154  A(31,76,77)           111.886          estimate D2E/DX2                !
 ! A155  A(31,76,78)           111.9001         estimate D2E/DX2                !
 ! A156  A(31,76,79)           108.8877         estimate D2E/DX2                !
 ! A157  A(77,76,78)           108.248          estimate D2E/DX2                !
 ! A158  A(77,76,79)           107.8605         estimate D2E/DX2                !
 ! A159  A(78,76,79)           107.9033         estimate D2E/DX2                !
 ! A160  A(31,80,81)           111.177          estimate D2E/DX2                !
 ! A161  A(31,80,82)           110.5149         estimate D2E/DX2                !
 ! A162  A(31,80,83)           109.4451         estimate D2E/DX2                !
 ! A163  A(81,80,82)           108.7047         estimate D2E/DX2                !
 ! A164  A(81,80,83)           108.8399         estimate D2E/DX2                !
 ! A165  A(82,80,83)           108.0882         estimate D2E/DX2                !
 ! A166  A(30,84,85)           111.69           estimate D2E/DX2                !
 ! A167  A(30,84,86)           109.5913         estimate D2E/DX2                !
 ! A168  A(30,84,87)           110.817          estimate D2E/DX2                !
 ! A169  A(85,84,86)           108.0229         estimate D2E/DX2                !
 ! A170  A(85,84,87)           108.3073         estimate D2E/DX2                !
 ! A171  A(86,84,87)           108.3081         estimate D2E/DX2                !
 ! A172  A(30,88,89)           109.4977         estimate D2E/DX2                !
 ! A173  A(30,88,90)           111.7712         estimate D2E/DX2                !
 ! A174  A(30,88,91)           110.7892         estimate D2E/DX2                !
 ! A175  A(89,88,90)           107.9743         estimate D2E/DX2                !
 ! A176  A(89,88,91)           108.3904         estimate D2E/DX2                !
 ! A177  A(90,88,91)           108.3153         estimate D2E/DX2                !
 ! A178  A(30,92,93)           111.4953         estimate D2E/DX2                !
 ! A179  A(30,92,94)           111.6617         estimate D2E/DX2                !
 ! A180  A(30,92,95)           109.2821         estimate D2E/DX2                !
 ! A181  A(93,92,94)           108.4094         estimate D2E/DX2                !
 ! A182  A(93,92,95)           107.9917         estimate D2E/DX2                !
 ! A183  A(94,92,95)           107.8661         estimate D2E/DX2                !
 ! D1    D(6,1,2,3)              0.0458         estimate D2E/DX2                !
 ! D2    D(6,1,2,21)          -179.8528         estimate D2E/DX2                !
 ! D3    D(35,1,2,3)          -179.9108         estimate D2E/DX2                !
 ! D4    D(35,1,2,21)            0.1906         estimate D2E/DX2                !
 ! D5    D(2,1,6,5)              0.0475         estimate D2E/DX2                !
 ! D6    D(2,1,6,36)          -179.9799         estimate D2E/DX2                !
 ! D7    D(35,1,6,5)           179.9946         estimate D2E/DX2                !
 ! D8    D(35,1,6,36)           -0.0327         estimate D2E/DX2                !
 ! D9    D(2,1,35,7)            -0.0995         estimate D2E/DX2                !
 ! D10   D(6,1,35,7)           179.9494         estimate D2E/DX2                !
 ! D11   D(1,2,3,4)             -0.0485         estimate D2E/DX2                !
 ! D12   D(1,2,3,8)            179.7894         estimate D2E/DX2                !
 ! D13   D(21,2,3,4)           179.817          estimate D2E/DX2                !
 ! D14   D(21,2,3,8)            -0.3451         estimate D2E/DX2                !
 ! D15   D(1,2,21,7)            -0.204          estimate D2E/DX2                !
 ! D16   D(1,2,21,69)         -179.6087         estimate D2E/DX2                !
 ! D17   D(3,2,21,7)           179.9134         estimate D2E/DX2                !
 ! D18   D(3,2,21,69)            0.5087         estimate D2E/DX2                !
 ! D19   D(2,3,4,5)             -0.0429         estimate D2E/DX2                !
 ! D20   D(2,3,4,9)            179.8748         estimate D2E/DX2                !
 ! D21   D(8,3,4,5)           -179.8808         estimate D2E/DX2                !
 ! D22   D(8,3,4,9)              0.0369         estimate D2E/DX2                !
 ! D23   D(3,4,5,6)              0.1392         estimate D2E/DX2                !
 ! D24   D(3,4,5,10)           179.8929         estimate D2E/DX2                !
 ! D25   D(9,4,5,6)           -179.7787         estimate D2E/DX2                !
 ! D26   D(9,4,5,10)            -0.025          estimate D2E/DX2                !
 ! D27   D(4,5,6,1)             -0.1375         estimate D2E/DX2                !
 ! D28   D(4,5,6,36)           179.8911         estimate D2E/DX2                !
 ! D29   D(10,5,6,1)          -179.8889         estimate D2E/DX2                !
 ! D30   D(10,5,6,36)            0.1397         estimate D2E/DX2                !
 ! D31   D(1,6,36,37)            1.5446         estimate D2E/DX2                !
 ! D32   D(1,6,36,38)         -178.785          estimate D2E/DX2                !
 ! D33   D(5,6,36,37)         -178.4844         estimate D2E/DX2                !
 ! D34   D(5,6,36,38)            1.1861         estimate D2E/DX2                !
 ! D35   D(21,7,16,11)           0.7438         estimate D2E/DX2                !
 ! D36   D(21,7,16,15)        -179.7834         estimate D2E/DX2                !
 ! D37   D(35,7,16,11)        -179.3155         estimate D2E/DX2                !
 ! D38   D(35,7,16,15)           0.1573         estimate D2E/DX2                !
 ! D39   D(16,7,21,2)         -179.8943         estimate D2E/DX2                !
 ! D40   D(16,7,21,69)          -0.434          estimate D2E/DX2                !
 ! D41   D(35,7,21,2)            0.1572         estimate D2E/DX2                !
 ! D42   D(35,7,21,69)         179.6174         estimate D2E/DX2                !
 ! D43   D(16,7,35,1)         -179.9796         estimate D2E/DX2                !
 ! D44   D(21,7,35,1)           -0.0343         estimate D2E/DX2                !
 ! D45   D(16,11,12,13)         -0.1546         estimate D2E/DX2                !
 ! D46   D(16,11,12,34)       -179.7728         estimate D2E/DX2                !
 ! D47   D(33,11,12,13)        179.5683         estimate D2E/DX2                !
 ! D48   D(33,11,12,34)         -0.05           estimate D2E/DX2                !
 ! D49   D(12,11,16,7)         179.7199         estimate D2E/DX2                !
 ! D50   D(12,11,16,15)          0.2236         estimate D2E/DX2                !
 ! D51   D(33,11,16,7)           0.0582         estimate D2E/DX2                !
 ! D52   D(33,11,16,15)       -179.4382         estimate D2E/DX2                !
 ! D53   D(12,11,33,17)         -0.0716         estimate D2E/DX2                !
 ! D54   D(16,11,33,17)        179.6162         estimate D2E/DX2                !
 ! D55   D(11,12,13,14)          0.1762         estimate D2E/DX2                !
 ! D56   D(11,12,13,18)       -179.9269         estimate D2E/DX2                !
 ! D57   D(34,12,13,14)        179.6711         estimate D2E/DX2                !
 ! D58   D(34,12,13,18)         -0.4319         estimate D2E/DX2                !
 ! D59   D(11,12,34,17)          0.1506         estimate D2E/DX2                !
 ! D60   D(11,12,34,70)        179.2298         estimate D2E/DX2                !
 ! D61   D(13,12,34,17)       -179.4089         estimate D2E/DX2                !
 ! D62   D(13,12,34,70)         -0.3297         estimate D2E/DX2                !
 ! D63   D(12,13,14,15)         -0.2831         estimate D2E/DX2                !
 ! D64   D(12,13,14,19)        179.9679         estimate D2E/DX2                !
 ! D65   D(18,13,14,15)        179.82           estimate D2E/DX2                !
 ! D66   D(18,13,14,19)          0.071          estimate D2E/DX2                !
 ! D67   D(13,14,15,16)          0.3773         estimate D2E/DX2                !
 ! D68   D(13,14,15,20)       -179.6655         estimate D2E/DX2                !
 ! D69   D(19,14,15,16)       -179.8724         estimate D2E/DX2                !
 ! D70   D(19,14,15,20)          0.0847         estimate D2E/DX2                !
 ! D71   D(14,15,16,7)        -179.8242         estimate D2E/DX2                !
 ! D72   D(14,15,16,11)         -0.3336         estimate D2E/DX2                !
 ! D73   D(20,15,16,7)           0.2182         estimate D2E/DX2                !
 ! D74   D(20,15,16,11)        179.7088         estimate D2E/DX2                !
 ! D75   D(33,17,23,22)        178.053          estimate D2E/DX2                !
 ! D76   D(33,17,23,24)         -1.6484         estimate D2E/DX2                !
 ! D77   D(34,17,23,22)         -1.238          estimate D2E/DX2                !
 ! D78   D(34,17,23,24)        179.0606         estimate D2E/DX2                !
 ! D79   D(23,17,33,11)       -179.1919         estimate D2E/DX2                !
 ! D80   D(34,17,33,11)          0.1713         estimate D2E/DX2                !
 ! D81   D(23,17,34,12)        179.1648         estimate D2E/DX2                !
 ! D82   D(23,17,34,70)         -0.0238         estimate D2E/DX2                !
 ! D83   D(33,17,34,12)         -0.2094         estimate D2E/DX2                !
 ! D84   D(33,17,34,70)       -179.3979         estimate D2E/DX2                !
 ! D85   D(27,22,23,17)       -178.1762         estimate D2E/DX2                !
 ! D86   D(27,22,23,24)          1.5211         estimate D2E/DX2                !
 ! D87   D(32,22,23,17)          1.5269         estimate D2E/DX2                !
 ! D88   D(32,22,23,24)       -178.7758         estimate D2E/DX2                !
 ! D89   D(23,22,27,26)         -1.3515         estimate D2E/DX2                !
 ! D90   D(23,22,27,31)        178.1767         estimate D2E/DX2                !
 ! D91   D(32,22,27,26)        178.9488         estimate D2E/DX2                !
 ! D92   D(32,22,27,31)         -1.523          estimate D2E/DX2                !
 ! D93   D(17,23,24,25)        179.0634         estimate D2E/DX2                !
 ! D94   D(17,23,24,28)         -0.8074         estimate D2E/DX2                !
 ! D95   D(22,23,24,25)         -0.6378         estimate D2E/DX2                !
 ! D96   D(22,23,24,28)        179.4914         estimate D2E/DX2                !
 ! D97   D(23,24,25,26)         -0.4183         estimate D2E/DX2                !
 ! D98   D(23,24,25,30)        179.6374         estimate D2E/DX2                !
 ! D99   D(28,24,25,26)        179.4493         estimate D2E/DX2                !
 ! D100  D(28,24,25,30)         -0.495          estimate D2E/DX2                !
 ! D101  D(24,25,26,27)          0.5764         estimate D2E/DX2                !
 ! D102  D(24,25,26,29)       -179.301          estimate D2E/DX2                !
 ! D103  D(30,25,26,27)       -179.4773         estimate D2E/DX2                !
 ! D104  D(30,25,26,29)          0.6453         estimate D2E/DX2                !
 ! D105  D(24,25,30,84)        119.5668         estimate D2E/DX2                !
 ! D106  D(24,25,30,88)       -121.3828         estimate D2E/DX2                !
 ! D107  D(24,25,30,92)         -1.0082         estimate D2E/DX2                !
 ! D108  D(26,25,30,84)        -60.3772         estimate D2E/DX2                !
 ! D109  D(26,25,30,88)         58.6732         estimate D2E/DX2                !
 ! D110  D(26,25,30,92)        179.0478         estimate D2E/DX2                !
 ! D111  D(25,26,27,22)          0.3402         estimate D2E/DX2                !
 ! D112  D(25,26,27,31)       -179.1756         estimate D2E/DX2                !
 ! D113  D(29,26,27,22)       -179.784          estimate D2E/DX2                !
 ! D114  D(29,26,27,31)          0.7002         estimate D2E/DX2                !
 ! D115  D(22,27,31,72)        -59.6407         estimate D2E/DX2                !
 ! D116  D(22,27,31,76)       -179.181          estimate D2E/DX2                !
 ! D117  D(22,27,31,80)         61.0717         estimate D2E/DX2                !
 ! D118  D(26,27,31,72)        119.8679         estimate D2E/DX2                !
 ! D119  D(26,27,31,76)          0.3276         estimate D2E/DX2                !
 ! D120  D(26,27,31,80)       -119.4197         estimate D2E/DX2                !
 ! D121  D(25,30,84,85)         58.7633         estimate D2E/DX2                !
 ! D122  D(25,30,84,86)        178.4329         estimate D2E/DX2                !
 ! D123  D(25,30,84,87)        -62.0926         estimate D2E/DX2                !
 ! D124  D(88,30,84,85)        -60.1421         estimate D2E/DX2                !
 ! D125  D(88,30,84,86)         59.5274         estimate D2E/DX2                !
 ! D126  D(88,30,84,87)        179.0019         estimate D2E/DX2                !
 ! D127  D(92,30,84,85)       -178.5375         estimate D2E/DX2                !
 ! D128  D(92,30,84,86)        -58.8679         estimate D2E/DX2                !
 ! D129  D(92,30,84,87)         60.6066         estimate D2E/DX2                !
 ! D130  D(25,30,88,89)       -178.5455         estimate D2E/DX2                !
 ! D131  D(25,30,88,90)        -58.947          estimate D2E/DX2                !
 ! D132  D(25,30,88,91)         61.9552         estimate D2E/DX2                !
 ! D133  D(84,30,88,89)        -59.7591         estimate D2E/DX2                !
 ! D134  D(84,30,88,90)         59.8393         estimate D2E/DX2                !
 ! D135  D(84,30,88,91)       -179.2584         estimate D2E/DX2                !
 ! D136  D(92,30,88,89)         58.8004         estimate D2E/DX2                !
 ! D137  D(92,30,88,90)        178.3988         estimate D2E/DX2                !
 ! D138  D(92,30,88,91)        -60.6989         estimate D2E/DX2                !
 ! D139  D(25,30,92,93)        -60.6115         estimate D2E/DX2                !
 ! D140  D(25,30,92,94)         60.8292         estimate D2E/DX2                !
 ! D141  D(25,30,92,95)       -179.9174         estimate D2E/DX2                !
 ! D142  D(84,30,92,93)        178.8259         estimate D2E/DX2                !
 ! D143  D(84,30,92,94)        -59.7334         estimate D2E/DX2                !
 ! D144  D(84,30,92,95)         59.5201         estimate D2E/DX2                !
 ! D145  D(88,30,92,93)         60.0132         estimate D2E/DX2                !
 ! D146  D(88,30,92,94)       -178.5461         estimate D2E/DX2                !
 ! D147  D(88,30,92,95)        -59.2926         estimate D2E/DX2                !
 ! D148  D(27,31,72,73)         62.4622         estimate D2E/DX2                !
 ! D149  D(27,31,72,74)       -177.4407         estimate D2E/DX2                !
 ! D150  D(27,31,72,75)        -58.3776         estimate D2E/DX2                !
 ! D151  D(76,31,72,73)       -175.7297         estimate D2E/DX2                !
 ! D152  D(76,31,72,74)        -55.6325         estimate D2E/DX2                !
 ! D153  D(76,31,72,75)         63.4306         estimate D2E/DX2                !
 ! D154  D(80,31,72,73)        -58.1832         estimate D2E/DX2                !
 ! D155  D(80,31,72,74)         61.9139         estimate D2E/DX2                !
 ! D156  D(80,31,72,75)       -179.023          estimate D2E/DX2                !
 ! D157  D(27,31,76,77)        -60.9676         estimate D2E/DX2                !
 ! D158  D(27,31,76,78)         60.7133         estimate D2E/DX2                !
 ! D159  D(27,31,76,79)        179.9038         estimate D2E/DX2                !
 ! D160  D(72,31,76,77)        178.692          estimate D2E/DX2                !
 ! D161  D(72,31,76,78)        -59.6272         estimate D2E/DX2                !
 ! D162  D(72,31,76,79)         59.5634         estimate D2E/DX2                !
 ! D163  D(80,31,76,77)         59.876          estimate D2E/DX2                !
 ! D164  D(80,31,76,78)       -178.4432         estimate D2E/DX2                !
 ! D165  D(80,31,76,79)        -59.2526         estimate D2E/DX2                !
 ! D166  D(27,31,80,81)        -60.3548         estimate D2E/DX2                !
 ! D167  D(27,31,80,82)         60.4534         estimate D2E/DX2                !
 ! D168  D(27,31,80,83)        179.378          estimate D2E/DX2                !
 ! D169  D(72,31,80,81)         60.0234         estimate D2E/DX2                !
 ! D170  D(72,31,80,82)       -179.1684         estimate D2E/DX2                !
 ! D171  D(72,31,80,83)        -60.2438         estimate D2E/DX2                !
 ! D172  D(76,31,80,81)        177.6123         estimate D2E/DX2                !
 ! D173  D(76,31,80,82)        -61.5795         estimate D2E/DX2                !
 ! D174  D(76,31,80,83)         57.3452         estimate D2E/DX2                !
 ! D175  D(6,36,37,43)         179.6842         estimate D2E/DX2                !
 ! D176  D(6,36,37,68)          -0.696          estimate D2E/DX2                !
 ! D177  D(38,36,37,43)         -0.0455         estimate D2E/DX2                !
 ! D178  D(38,36,37,68)        179.5744         estimate D2E/DX2                !
 ! D179  D(6,36,38,44)        -179.7007         estimate D2E/DX2                !
 ! D180  D(6,36,38,71)           1.1926         estimate D2E/DX2                !
 ! D181  D(37,36,38,44)          0.0103         estimate D2E/DX2                !
 ! D182  D(37,36,38,71)       -179.0964         estimate D2E/DX2                !
 ! D183  D(36,37,43,42)       -179.8157         estimate D2E/DX2                !
 ! D184  D(36,37,43,44)          0.0614         estimate D2E/DX2                !
 ! D185  D(68,37,43,42)          0.6126         estimate D2E/DX2                !
 ! D186  D(68,37,43,44)       -179.5103         estimate D2E/DX2                !
 ! D187  D(36,38,44,39)       -179.527          estimate D2E/DX2                !
 ! D188  D(36,38,44,43)          0.0278         estimate D2E/DX2                !
 ! D189  D(71,38,44,39)         -0.3087         estimate D2E/DX2                !
 ! D190  D(71,38,44,43)        179.2461         estimate D2E/DX2                !
 ! D191  D(44,39,40,41)         -0.6598         estimate D2E/DX2                !
 ! D192  D(44,39,40,45)        179.78           estimate D2E/DX2                !
 ! D193  D(48,39,40,41)        178.6708         estimate D2E/DX2                !
 ! D194  D(48,39,40,45)         -0.8895         estimate D2E/DX2                !
 ! D195  D(40,39,44,38)       -179.735          estimate D2E/DX2                !
 ! D196  D(40,39,44,43)          0.7711         estimate D2E/DX2                !
 ! D197  D(48,39,44,38)          0.9213         estimate D2E/DX2                !
 ! D198  D(48,39,44,43)       -178.5725         estimate D2E/DX2                !
 ! D199  D(40,39,48,49)          1.3371         estimate D2E/DX2                !
 ! D200  D(40,39,48,50)       -177.949          estimate D2E/DX2                !
 ! D201  D(44,39,48,49)       -179.3699         estimate D2E/DX2                !
 ! D202  D(44,39,48,50)          1.344          estimate D2E/DX2                !
 ! D203  D(39,40,41,42)          0.346          estimate D2E/DX2                !
 ! D204  D(39,40,41,46)       -179.7485         estimate D2E/DX2                !
 ! D205  D(45,40,41,42)        179.9032         estimate D2E/DX2                !
 ! D206  D(45,40,41,46)         -0.1913         estimate D2E/DX2                !
 ! D207  D(40,41,42,43)         -0.0873         estimate D2E/DX2                !
 ! D208  D(40,41,42,47)       -179.885          estimate D2E/DX2                !
 ! D209  D(46,41,42,43)       -179.9927         estimate D2E/DX2                !
 ! D210  D(46,41,42,47)          0.2097         estimate D2E/DX2                !
 ! D211  D(41,42,43,37)       -179.9489         estimate D2E/DX2                !
 ! D212  D(41,42,43,44)          0.1894         estimate D2E/DX2                !
 ! D213  D(47,42,43,37)         -0.1505         estimate D2E/DX2                !
 ! D214  D(47,42,43,44)        179.9878         estimate D2E/DX2                !
 ! D215  D(37,43,44,38)         -0.0534         estimate D2E/DX2                !
 ! D216  D(37,43,44,39)        179.5423         estimate D2E/DX2                !
 ! D217  D(42,43,44,38)        179.8418         estimate D2E/DX2                !
 ! D218  D(42,43,44,39)         -0.5625         estimate D2E/DX2                !
 ! D219  D(39,48,50,51)        179.3204         estimate D2E/DX2                !
 ! D220  D(49,48,50,51)          0.0904         estimate D2E/DX2                !
 ! D221  D(48,50,51,52)          1.1356         estimate D2E/DX2                !
 ! D222  D(48,50,51,53)        127.4077         estimate D2E/DX2                !
 ! D223  D(48,50,51,54)       -118.6578         estimate D2E/DX2                !
 ! D224  D(50,51,52,55)       -178.3974         estimate D2E/DX2                !
 ! D225  D(50,51,52,56)         61.0543         estimate D2E/DX2                !
 ! D226  D(50,51,52,57)        -56.4147         estimate D2E/DX2                !
 ! D227  D(53,51,52,55)         56.5046         estimate D2E/DX2                !
 ! D228  D(53,51,52,56)        -64.0437         estimate D2E/DX2                !
 ! D229  D(53,51,52,57)        178.4873         estimate D2E/DX2                !
 ! D230  D(54,51,52,55)        -60.1254         estimate D2E/DX2                !
 ! D231  D(54,51,52,56)        179.3264         estimate D2E/DX2                !
 ! D232  D(54,51,52,57)         61.8573         estimate D2E/DX2                !
 ! D233  D(50,51,53,58)        173.6207         estimate D2E/DX2                !
 ! D234  D(50,51,53,59)        -65.6287         estimate D2E/DX2                !
 ! D235  D(50,51,53,60)         50.8437         estimate D2E/DX2                !
 ! D236  D(52,51,53,58)        -56.3829         estimate D2E/DX2                !
 ! D237  D(52,51,53,59)         64.3677         estimate D2E/DX2                !
 ! D238  D(52,51,53,60)       -179.1599         estimate D2E/DX2                !
 ! D239  D(54,51,53,58)         60.8883         estimate D2E/DX2                !
 ! D240  D(54,51,53,59)       -178.3612         estimate D2E/DX2                !
 ! D241  D(54,51,53,60)        -61.8888         estimate D2E/DX2                !
 ! D242  D(51,52,55,61)        -56.2619         estimate D2E/DX2                !
 ! D243  D(51,52,55,62)       -178.9509         estimate D2E/DX2                !
 ! D244  D(51,52,55,63)         64.4364         estimate D2E/DX2                !
 ! D245  D(56,52,55,61)         64.1141         estimate D2E/DX2                !
 ! D246  D(56,52,55,62)        -58.5749         estimate D2E/DX2                !
 ! D247  D(56,52,55,63)       -175.1876         estimate D2E/DX2                !
 ! D248  D(57,52,55,61)       -178.4069         estimate D2E/DX2                !
 ! D249  D(57,52,55,62)         58.9041         estimate D2E/DX2                !
 ! D250  D(57,52,55,63)        -57.7086         estimate D2E/DX2                !
 ! D251  D(51,53,58,61)         55.4578         estimate D2E/DX2                !
 ! D252  D(51,53,58,64)        178.1272         estimate D2E/DX2                !
 ! D253  D(51,53,58,65)        -65.0575         estimate D2E/DX2                !
 ! D254  D(59,53,58,61)        -64.4269         estimate D2E/DX2                !
 ! D255  D(59,53,58,64)         58.2425         estimate D2E/DX2                !
 ! D256  D(59,53,58,65)        175.0578         estimate D2E/DX2                !
 ! D257  D(60,53,58,61)        177.1921         estimate D2E/DX2                !
 ! D258  D(60,53,58,64)        -60.1385         estimate D2E/DX2                !
 ! D259  D(60,53,58,65)         56.6767         estimate D2E/DX2                !
 ! D260  D(52,55,61,58)         55.2875         estimate D2E/DX2                !
 ! D261  D(52,55,61,66)        177.9047         estimate D2E/DX2                !
 ! D262  D(52,55,61,67)        -64.9605         estimate D2E/DX2                !
 ! D263  D(62,55,61,58)        177.6287         estimate D2E/DX2                !
 ! D264  D(62,55,61,66)        -59.7541         estimate D2E/DX2                !
 ! D265  D(62,55,61,67)         57.3807         estimate D2E/DX2                !
 ! D266  D(63,55,61,58)        -65.3049         estimate D2E/DX2                !
 ! D267  D(63,55,61,66)         57.3123         estimate D2E/DX2                !
 ! D268  D(63,55,61,67)        174.4471         estimate D2E/DX2                !
 ! D269  D(53,58,61,55)        -54.7213         estimate D2E/DX2                !
 ! D270  D(53,58,61,66)       -177.3178         estimate D2E/DX2                !
 ! D271  D(53,58,61,67)         65.4805         estimate D2E/DX2                !
 ! D272  D(64,58,61,55)       -177.0563         estimate D2E/DX2                !
 ! D273  D(64,58,61,66)         60.3472         estimate D2E/DX2                !
 ! D274  D(64,58,61,67)        -56.8546         estimate D2E/DX2                !
 ! D275  D(65,58,61,55)         65.6925         estimate D2E/DX2                !
 ! D276  D(65,58,61,66)        -56.904          estimate D2E/DX2                !
 ! D277  D(65,58,61,67)       -174.1057         estimate D2E/DX2                !
 --------------------------------------------------------------------------------
 Trust Radius=3.00D-01 FncErr=1.00D-07 GrdErr=1.00D-07 EigMax=2.50D+02 EigMin=1.00D-04
 Number of steps in this run=    570 maximum allowed number of steps=    570.
 GradGradGradGradGradGradGradGradGradGradGradGradGradGradGradGradGradGrad

 Leave Link  103 at Fri Dec 21 18:13:37 2018, MaxMem=  1342177280 cpu:               0.6 elap:               0.1
 (Enter /gpfs/apps/hpc/Apps/Restricted/Gaussian/Rev_A.03/g16/l202.exe)
 Symmetry turned off by external request.
 Stoichiometry    C42H45N7O(1+,2)
 Framework group  C1[X(C42H45N7O)]
 Deg. of freedom   279
 Full point group                 C1      NOp   1
                          Input orientation:                          
 ---------------------------------------------------------------------
 Center     Atomic      Atomic             Coordinates (Angstroms)
 Number     Number       Type             X           Y           Z
 ---------------------------------------------------------------------
      1          6           0        1.596536    0.409325    1.107915
      2          6           0        0.512513    1.270575    0.806546
      3          6           0        0.669602    2.646846    0.674798
      4          6           0        1.956833    3.159702    0.854289
      5          6           0        3.046402    2.333488    1.154540
      6          6           0        2.891325    0.945378    1.286021
      7          6           0       -0.144983   -0.846332    0.931189
      8          1           0       -0.168067    3.291836    0.440843
      9          1           0        2.119135    4.226003    0.757651
     10          1           0        4.023834    2.781700    1.282101
     11          6           0       -2.431903   -1.780219    0.602381
     12          6           0       -3.311364   -2.894303    0.562873
     13          6           0       -2.877321   -4.198679    0.798545
     14          6           0       -1.523295   -4.366410    1.082825
     15          6           0       -0.632158   -3.280615    1.125626
     16          6           0       -1.060799   -1.971543    0.892163
     17          6           0       -4.386471   -1.002861    0.117645
     18          1           0       -3.558906   -5.039178    0.764048
     19          1           0       -1.141423   -5.362195    1.273167
     20          1           0        0.414116   -3.451793    1.344681
     21          7           0       -0.575294    0.432823    0.705440
     22          6           0       -6.821986   -0.639363   -0.472993
     23          6           0       -5.474724   -0.109438   -0.225118
     24          6           0       -5.225301    1.253087   -0.322134
     25          6           0       -6.236108    2.154369   -0.668622
     26          6           0       -7.539063    1.645395   -0.932307
     27          6           0       -7.870342    0.314625   -0.855918
     28          1           0       -4.222023    1.602144   -0.123663
     29          1           0       -8.303788    2.357006   -1.209823
     30          6           0       -5.994130    3.655679   -0.774989
     31          6           0       -9.277937   -0.191981   -1.165245
     32          8           0       -7.056781   -1.872289   -0.363379
     33          7           0       -3.118646   -0.622202    0.325139
     34          7           0       -4.536867   -2.356437    0.255044
     35          7           0        1.167087   -0.897630    1.179074
     36          6           0        3.981818    0.054196    1.591617
     37          7           0        3.842619   -1.285280    1.689921
     38          7           0        5.276655    0.354080    1.819952
     39          6           0        7.337154   -0.998425    2.363971
     40          6           0        7.731822   -2.325548    2.557660
     41          6           0        6.817846   -3.391551    2.473737
     42          6           0        5.469542   -3.188983    2.186274
     43          6           0        5.066008   -1.868357    1.986021
     44          6           0        5.980648   -0.808118    2.068399
     45          1           0        8.771348   -2.531728    2.785534
     46          1           0        7.174932   -4.400847    2.636374
     47          1           0        4.768680   -4.011011    2.124231
     48          6           0        8.258910    0.134520    2.472607
     49          1           0        9.298519   -0.115339    2.695666
     50          7           0        7.836485    1.333446    2.323783
     51          6           0        8.747704    2.470194    2.445384
     52          6           0       10.221561    2.162277    2.729495
     53          6           0        8.606114    3.341797    1.186590
     54          1           0        8.357426    3.059954    3.287040
     55          6           0       11.028445    3.459469    2.866185
     56          1           0       10.629885    1.562489    1.906105
     57          1           0       10.315756    1.564212    3.641694
     58          6           0        9.416257    4.635447    1.314321
     59          1           0        8.962252    2.764016    0.325111
     60          1           0        7.546875    3.558148    1.016542
     61          6           0       10.888883    4.342637    1.621552
     62          1           0       12.080895    3.223375    3.050081
     63          1           0       10.670743    4.012603    3.743387
     64          1           0        9.326874    5.222590    0.395031
     65          1           0        8.993102    5.243913    2.123369
     66          1           0       11.441785    5.277572    1.756286
     67          1           0       11.338204    3.825646    0.764406
     68          1           0        2.923611   -1.718731    1.555333
     69          1           0       -1.549383    0.648876    0.495146
     70          1           0       -5.441314   -2.797775    0.118639
     71          1           0        5.756071    1.253414    1.842896
     72          6           0       -9.215986   -1.191455   -2.343220
     73          1           0       -8.618047   -2.063361   -2.082391
     74          1           0      -10.227799   -1.520817   -2.596310
     75          1           0       -8.781105   -0.715536   -3.226401
     76          6           0      -10.220014    0.953842   -1.563618
     77          1           0      -10.328394    1.689872   -0.762048
     78          1           0       -9.873452    1.473421   -2.460916
     79          1           0      -11.208743    0.541198   -1.775387
     80          6           0       -9.871232   -0.884159    0.081859
     81          1           0       -9.263672   -1.735191    0.385830
     82          1           0       -9.933123   -0.181336    0.917147
     83          1           0      -10.882559   -1.234505   -0.142751
     84          6           0       -6.306379    4.109621   -2.217967
     85          1           0       -7.337216    3.882245   -2.498543
     86          1           0       -6.163684    5.190228   -2.301258
     87          1           0       -5.640253    3.619413   -2.931969
     88          6           0       -6.937740    4.387973    0.204387
     89          1           0       -6.789072    5.467474    0.115965
     90          1           0       -7.987368    4.173826   -0.007955
     91          1           0       -6.729379    4.094687    1.236027
     92          6           0       -4.546379    4.038264   -0.437361
     93          1           0       -4.285162    3.754294    0.585361
     94          1           0       -3.834639    3.565731   -1.119318
     95          1           0       -4.428915    5.120398   -0.527469
 ---------------------------------------------------------------------
 Rotational constants (GHZ):           0.1232138           0.0181244           0.0159521
 Leave Link  202 at Fri Dec 21 18:13:37 2018, MaxMem=  1342177280 cpu:               0.1 elap:               0.0
 (Enter /gpfs/apps/hpc/Apps/Restricted/Gaussian/Rev_A.03/g16/l716.exe)
 Electric field and nuclear coordinate derivatives read from checkpoint file.
 Dipole        = 4.18797264D+00 9.79231367D-01 2.21187568D+00
 Polarizability= 1.16225937D+03-6.21610407D+01 9.93332330D+02
                 1.75784537D+02-8.82456292D+01 3.77017726D+02
 Full mass-weighted force constant matrix:
 Low frequencies ---   -3.1119   -0.0036    0.0007    0.0033    5.9136   12.7003
 Low frequencies ---   15.9434   21.6098   24.9552
 Diagonal vibrational polarizability:
      181.7498459      56.6636974     130.6441986
 Harmonic frequencies (cm**-1), IR intensities (KM/Mole), Raman scattering
 activities (A**4/AMU), depolarization ratios for plane and unpolarized
 incident light, reduced masses (AMU), force constants (mDyne/A),
 and normal coordinates:
                      1                      2                      3
                      A                      A                      A
 Frequencies --     15.8960                19.4099                21.7578
 Red. masses --      5.0310                 5.2830                 5.8682
 Frc consts  --      0.0007                 0.0012                 0.0016
 IR Inten    --      0.1830                 0.2159                 0.1887
  Atom  AN      X      Y      Z        X      Y      Z        X      Y      Z
     1   6     0.00   0.07   0.03     0.02   0.00  -0.10     0.03   0.00  -0.08
     2   6     0.01   0.08   0.04     0.02  -0.00  -0.11     0.04   0.00  -0.11
     3   6     0.01   0.08   0.05     0.02  -0.00  -0.13     0.04  -0.00  -0.12
     4   6     0.02   0.07   0.04     0.02  -0.00  -0.13     0.04  -0.00  -0.11
     5   6     0.02   0.06   0.03     0.02  -0.00  -0.12     0.03  -0.00  -0.08
     6   6     0.01   0.06   0.02     0.02   0.00  -0.10     0.03   0.00  -0.06
     7   6    -0.00   0.08   0.02     0.01   0.00  -0.08     0.03   0.01  -0.09
     8   1     0.02   0.08   0.06     0.02  -0.00  -0.14     0.05  -0.00  -0.15
     9   1     0.02   0.07   0.05     0.02  -0.00  -0.14     0.05  -0.00  -0.12
    10   1     0.02   0.06   0.03     0.02  -0.00  -0.12     0.03  -0.00  -0.06
    11   6     0.01   0.05   0.00     0.00   0.01  -0.02     0.02   0.01  -0.07
    12   6     0.02   0.04  -0.01    -0.00   0.01   0.03     0.02   0.01  -0.07
    13   6     0.04   0.05  -0.01    -0.00   0.01   0.05     0.03   0.00  -0.10
    14   6     0.04   0.06   0.00     0.00   0.01   0.01     0.03   0.00  -0.12
    15   6     0.02   0.08   0.01     0.01   0.01  -0.03     0.03   0.00  -0.12
    16   6     0.01   0.07   0.01     0.01   0.01  -0.05     0.03   0.01  -0.09
    17   6    -0.00   0.02  -0.01    -0.00   0.00   0.01     0.01   0.01  -0.03
    18   1     0.05   0.04  -0.02    -0.01   0.01   0.08     0.03   0.00  -0.10
    19   1     0.05   0.07   0.00     0.00   0.01   0.03     0.04   0.00  -0.14
    20   1     0.02   0.09   0.02     0.01   0.01  -0.05     0.04   0.00  -0.14
    21   7     0.00   0.08   0.03     0.02  -0.00  -0.10     0.03   0.00  -0.12
    22   6    -0.01  -0.03  -0.02    -0.02   0.00   0.07     0.00   0.00   0.00
    23   6    -0.02   0.00  -0.01    -0.01   0.00   0.02     0.00   0.01   0.00
    24   6    -0.05   0.01  -0.01    -0.01  -0.00  -0.02    -0.02   0.01   0.03
    25   6    -0.08  -0.02  -0.01    -0.01  -0.01  -0.01    -0.03   0.01   0.05
    26   6    -0.06  -0.05  -0.01    -0.02  -0.01   0.03    -0.02   0.00   0.05
    27   6    -0.03  -0.05  -0.01    -0.02  -0.00   0.07    -0.01  -0.00   0.02
    28   1    -0.06   0.03  -0.01     0.00  -0.00  -0.05    -0.02   0.02   0.03
    29   1    -0.08  -0.06  -0.01    -0.02  -0.01   0.03    -0.03  -0.00   0.07
    30   6    -0.11  -0.01  -0.01    -0.00  -0.01  -0.06    -0.05   0.01   0.09
    31   6    -0.02  -0.09  -0.01    -0.03  -0.01   0.11    -0.01  -0.01   0.03
    32   8     0.02  -0.03  -0.02    -0.02   0.00   0.10     0.01  -0.00  -0.01
    33   7    -0.01   0.05  -0.00     0.00   0.00  -0.02     0.01   0.01  -0.04
    34   7     0.02   0.02  -0.02    -0.01   0.01   0.05     0.02   0.01  -0.04
    35   7    -0.00   0.07   0.02     0.01   0.00  -0.09     0.02   0.01  -0.07
    36   6     0.00   0.05   0.01     0.01   0.00  -0.09     0.01   0.00  -0.01
    37   7    -0.02   0.05   0.01     0.01   0.00  -0.09    -0.00   0.01   0.03
    38   7     0.01   0.03   0.00     0.01   0.00  -0.06     0.01  -0.00   0.02
    39   6    -0.01  -0.02  -0.02    -0.01   0.00  -0.00    -0.02  -0.00   0.15
    40   6    -0.03  -0.02  -0.02    -0.01   0.00   0.00    -0.04   0.00   0.21
    41   6    -0.05  -0.01  -0.02    -0.00   0.00  -0.03    -0.05   0.01   0.22
    42   6    -0.05   0.02  -0.00     0.00   0.00  -0.06    -0.04   0.01   0.16
    43   6    -0.03   0.03   0.00     0.01   0.00  -0.07    -0.02   0.01   0.10
    44   6    -0.01   0.01  -0.01     0.00   0.00  -0.04    -0.01   0.00   0.09
    45   1    -0.03  -0.04  -0.03    -0.02   0.00   0.03    -0.05   0.00   0.26
    46   1    -0.07  -0.01  -0.02    -0.01   0.00  -0.02    -0.07   0.01   0.28
    47   1    -0.07   0.03   0.00     0.01  -0.00  -0.09    -0.04   0.01   0.17
    48   6     0.02  -0.04  -0.03    -0.01   0.00   0.04    -0.01  -0.01   0.12
    49   1     0.01  -0.06  -0.02    -0.02   0.00   0.07    -0.02  -0.01   0.16
    50   7     0.05  -0.03  -0.03    -0.01   0.01   0.04     0.00  -0.01   0.04
    51   6     0.08  -0.05  -0.01    -0.01   0.00   0.08     0.01  -0.01  -0.00
    52   6     0.07  -0.10   0.01    -0.02  -0.01   0.13     0.02  -0.00  -0.03
    53   6     0.12  -0.04  -0.01     0.04   0.02   0.09    -0.02  -0.03  -0.02
    54   1     0.09  -0.04  -0.02    -0.04  -0.01   0.08     0.03   0.00  -0.00
    55   6     0.10  -0.12   0.03    -0.02  -0.02   0.17     0.02   0.00  -0.07
    56   1     0.07  -0.10   0.01     0.00  -0.01   0.14    -0.00  -0.02  -0.04
    57   1     0.04  -0.10   0.00    -0.06  -0.02   0.13     0.04   0.01  -0.03
    58   6     0.16  -0.07   0.01     0.04   0.01   0.13    -0.02  -0.03  -0.06
    59   1     0.12  -0.05  -0.01     0.06   0.03   0.09    -0.04  -0.05  -0.01
    60   1     0.13  -0.01  -0.03     0.04   0.03   0.06    -0.03  -0.04   0.00
    61   6     0.14  -0.10   0.03     0.03  -0.00   0.18    -0.02  -0.02  -0.09
    62   1     0.09  -0.15   0.05    -0.02  -0.03   0.20     0.02   0.01  -0.10
[...]
 --------------------------------------------------------------------------------
 ! R5    R(2,21)                 0.0495                  3.3                    !
 ! R14   R(7,21)                 0.0438                  2.9                    !
 ! R30   R(21,69)               -1.0726                 71.4                    !
 ! R52   R(37,68)                0.0285                  1.9                    !
 ! A5    A(1,2,21)               0.0238                  1.6                    !
 ! A6    A(3,2,21)              -0.025                   1.7                    !
 ! A19   A(16,7,21)             -0.0251                  1.7                    !
 ! A21   A(21,7,35)              0.0248                  1.6                    !
 ! A43   A(2,21,7)              -0.0491                  3.3                    !
 ! A44   A(2,21,69)              0.0517                  3.4                    !
 --------------------------------------------------------------------------------
                           ----------------------------
                           ! Normal Mode   278        !
 --------------------------                            --------------------------
 ! Name  Definition              Value          Relative Weight (%)             !
 --------------------------------------------------------------------------------
 ! R50   R(36,38)               -0.0488                  3.2                    !
 ! R52   R(37,68)                0.0592                  3.8                    !
 ! R53   R(38,44)               -0.0414                  2.7                    !
 ! R54   R(38,71)                1.07                   69.2                    !
 ! A82   A(6,36,38)              0.0253                  1.6                    !
 ! A83   A(37,36,38)            -0.0257                  1.7                    !
 ! A87   A(36,38,44)             0.0492                  3.2                    !
 ! A88   A(36,38,71)            -0.0592                  3.8                    !
 ! A105  A(38,44,39)             0.0251                  1.6                    !
 ! A106  A(38,44,43)            -0.0246                  1.6                    !
 --------------------------------------------------------------------------------
                           ----------------------------
                           ! Normal Mode   279        !
 --------------------------                            --------------------------
 ! Name  Definition              Value          Relative Weight (%)             !
 --------------------------------------------------------------------------------
 ! R20   R(12,34)                0.0488                  3.4                    !
 ! R29   R(17,34)                0.0423                  2.9                    !
 ! R30   R(21,69)                0.0189                  1.3                    !
 ! R48   R(34,70)               -1.0713                 73.7                    !
 ! A26   A(11,12,34)             0.0232                  1.6                    !
 ! A27   A(13,12,34)            -0.0243                  1.7                    !
 ! A41   A(23,17,34)            -0.0245                  1.7                    !
 ! A42   A(33,17,34)             0.0241                  1.7                    !
 ! A77   A(12,34,17)            -0.0479                  3.3                    !
 ! A78   A(12,34,70)             0.0532                  3.7                    !
 --------------------------------------------------------------------------------
 -------------------------------------------------------------------
 Center     Atomic                   Forces (Hartrees/Bohr)
 Number     Number              X              Y              Z
 -------------------------------------------------------------------
      1        6          -0.000000350    0.000001155    0.000002155
      2        6           0.000001092   -0.000000130   -0.000002879
      3        6           0.000002102   -0.000000955   -0.000011149
      4        6           0.000003829   -0.000001551   -0.000014167
      5        6           0.000001310   -0.000001601   -0.000009497
      6        6           0.000000122   -0.000000137   -0.000001225
      7        6          -0.000002321    0.000002456    0.000009626
      8        1           0.000003286   -0.000000887   -0.000014976
      9        1           0.000004534   -0.000001827   -0.000020660
     10        1           0.000003251   -0.000001221   -0.000012057
     11        6          -0.000003145    0.000002401    0.000015428
     12        6          -0.000005190    0.000003387    0.000022156
     13        6          -0.000006876    0.000005449    0.000029671
     14        6          -0.000006886    0.000004719    0.000030780
     15        6          -0.000005846    0.000004291    0.000024094
     16        6          -0.000003848    0.000002274    0.000016407
     17        6          -0.000003480    0.000002270    0.000010760
     18        1          -0.000007684    0.000005372    0.000034839
     19        1          -0.000007996    0.000005065    0.000036666
     20        1          -0.000005275    0.000003554    0.000025230
     21        7          -0.000001206    0.000000949    0.000002012
     22        6          -0.000001395    0.000002208    0.000008903
     23        6          -0.000001181    0.000001682    0.000005653
     24        6          -0.000000019    0.000001921   -0.000002683
     25        6           0.000001674    0.000000243   -0.000007738
     26        6           0.000001398    0.000001206   -0.000004917
     27        6          -0.000001354    0.000001478    0.000003225
     28        1           0.000001373    0.000001062   -0.000004639
     29        1           0.000002186   -0.000000213   -0.000008813
     30        6           0.000003517   -0.000000970   -0.000016678
     31        6          -0.000001118    0.000001309    0.000006315
     32        8          -0.000003671    0.000003396    0.000016154
     33        7          -0.000001352    0.000002899    0.000008531
     34        7          -0.000003244    0.000004147    0.000019000
     35        7          -0.000001772    0.000001725    0.000010018
     36        6          -0.000001616    0.000000652    0.000003913
     37        7          -0.000001643    0.000000684    0.000012330
     38        7          -0.000000832    0.000000415    0.000002025
     39        6          -0.000002301    0.000000031    0.000010271
     40        6          -0.000004588    0.000001237    0.000017871
     41        6          -0.000005551    0.000002231    0.000024433
     42        6          -0.000005070    0.000001635    0.000023342
     43        6          -0.000004212    0.000001819    0.000015300
     44        6          -0.000001316   -0.000000179    0.000009418
     45        1          -0.000003913    0.000001090    0.000019348
     46        1          -0.000006728    0.000002157    0.000030510
     47        1          -0.000006317    0.000002406    0.000028293
     48        6          -0.000000953   -0.000000180    0.000003416
     49        1          -0.000000636   -0.000000225    0.000004888
     50        7           0.000000582    0.000000128   -0.000003803
     51        6           0.000002687   -0.000001110   -0.000010114
     52        6           0.000001489   -0.000001853   -0.000008620
     53        6           0.000003882   -0.000008428   -0.000015782
     54        1           0.000003169    0.000004492   -0.000014224
     55        6           0.000004183   -0.000001323   -0.000016659
     56        1           0.000001108   -0.000006473   -0.000005119
     57        1           0.000001114    0.000004378   -0.000005599
     58        6           0.000005321   -0.000008318   -0.000023740
     59        1           0.000002537   -0.000013821   -0.000012236
     60        1           0.000003271   -0.000007754   -0.000017066
     61        6           0.000005216   -0.000008417   -0.000021593
     62        1           0.000003180   -0.000001646   -0.000015204
     63        1           0.000004477    0.000004318   -0.000019847
     64        1           0.000005837   -0.000013961   -0.000026956
     65        1           0.000005968   -0.000003083   -0.000026867
     66        1           0.000005733   -0.000008989   -0.000027494
     67        1           0.000003923   -0.000014316   -0.000018575
     68        1          -0.000003495    0.000001537    0.000014735
     69        1           0.000000351    0.000001103    0.000000962
     70        1          -0.000005066    0.000003980    0.000021569
     71        1           0.000000818   -0.000000383   -0.000003017
     72        6          -0.000003313   -0.000005776    0.000012021
     73        1          -0.000003787   -0.000004680    0.000017424
     74        1          -0.000002891   -0.000005458    0.000014327
     75        1          -0.000002181   -0.000011424    0.000009401
     76        6          -0.000000367    0.000000295   -0.000000180
     77        1           0.000001141    0.000005433   -0.000004897
     78        1           0.000000892   -0.000005132   -0.000003876
     79        1          -0.000000339    0.000000540    0.000002026
     80        6          -0.000001847    0.000010365    0.000010592
     81        1          -0.000003205    0.000010574    0.000015502
     82        1          -0.000001330    0.000014774    0.000006237
     83        1          -0.000003165    0.000009672    0.000012456
     84        6           0.000004621   -0.000008480   -0.000019672
     85        1           0.000003865   -0.000008909   -0.000018093
     86        1           0.000005620   -0.000009462   -0.000025966
     87        1           0.000003475   -0.000013723   -0.000016459
     88        6           0.000004188    0.000006387   -0.000021509
     89        1           0.000006225    0.000006112   -0.000027525
     90        1           0.000004894    0.000006849   -0.000019716
     91        1           0.000004587    0.000012413   -0.000019132
     92        6           0.000004665   -0.000000091   -0.000018904
     93        1           0.000003849    0.000005346   -0.000017543
     94        1           0.000003629   -0.000005445   -0.000016505
     95        1           0.000005701   -0.000001138   -0.000025661
 -------------------------------------------------------------------
 Cartesian Forces:  Max     0.000036666 RMS     0.000010394
 FormGI is forming the generalized inverse of G from B-inverse, IUseBI=4.
 Leave Link  716 at Fri Dec 21 18:13:38 2018, MaxMem=  1342177280 cpu:              10.1 elap:               0.7
 (Enter /gpfs/apps/hpc/Apps/Restricted/Gaussian/Rev_A.03/g16/l9999.exe)

 ----------------------------------------------------------------------

 Electric dipole moment (input orientation):
 (Debye = 10**-18 statcoulomb cm , SI units = C m)
                  (au)            (Debye)         (10**-30 SI)
   Tot        0.483636D+01      0.122928D+02      0.410044D+02
   x          0.418797D+01      0.106448D+02      0.355071D+02
   y          0.979231D+00      0.248896D+01      0.830227D+01
   z          0.221188D+01      0.562203D+01      0.187531D+02

 Dipole polarizability, Alpha (input orientation).
 (esu units = cm**3 , SI units = C**2 m**2 J**-1)
 Alpha(0;0):
               (au)            (10**-24 esu)      (10**-40 SI)
   iso        0.844203D+03      0.125098D+03      0.139190D+03
   aniso      0.800092D+03      0.118561D+03      0.131917D+03
   xx         0.116226D+04      0.172229D+03      0.191631D+03
   yx        -0.621610D+02     -0.921132D+01     -0.102490D+02
   yy         0.993332D+03      0.147197D+03      0.163778D+03
   zx         0.175785D+03      0.260486D+02      0.289830D+02
   zy        -0.882456D+02     -0.130767D+02     -0.145497D+02
   zz         0.377018D+03      0.558683D+02      0.621618D+02

 ----------------------------------------------------------------------

 Dipole orientation:
     6         -0.44134788         -0.03512212          3.72667129
     6         -1.13849080          1.90838023          2.02186975
     6         -1.09167664          4.45069092          2.69164928
     6         -0.32106833          5.03126166          5.14940031
     6          0.37502671          3.15127221          6.87571638
     6          0.33318684          0.58686312          6.20446867
     6         -1.46437618         -1.87767444          0.24371366
     1         -1.62396058          5.91521552          1.36549398
     1         -0.25645432          6.98967251          5.73945411
     1          0.96109580          3.70342097          8.75690430
     6         -2.81205085         -2.94708989         -4.14004892
     6         -3.30094457         -4.77812186         -6.03959370
     6         -2.99185195         -7.36254758         -5.62473243
     6         -2.17671050         -8.08720089         -3.22752010
     6         -1.67606227         -6.31203805         -1.31684685
     6         -1.98488142         -3.72106114         -1.71916249
     6         -3.98871075         -0.88958590         -7.45996587
     1         -3.36961061         -8.73802586         -7.09146781
     1         -1.91146020        -10.07567329         -2.81913447
     1         -1.03573937         -6.94809936          0.51907686
     7         -1.78054890          0.65578602         -0.16611467
     6         -5.33921117          0.55769779        -11.81677065
     6         -4.62931248          1.12980412         -9.19515420
     6         -4.55149971          3.61258843         -8.34952351
     6         -5.11674284          5.63023020         -9.95819320
     6         -5.76488580          5.09257795        -12.51295422
     6         -5.89125996          2.69461580        -13.49820924
     1         -4.03521227          3.94962486         -6.40269607
     1         -6.17411389          6.67954018        -13.73190282
     6         -5.06201072          8.37317305         -9.07972534
     6         -6.56125155          2.20256555        -16.26274112
     8         -5.45368306         -1.69521500        -12.57798964
     7         -3.25167469         -0.55810649         -5.06034968
     7         -4.04379150         -3.39389949         -8.10522571
     7         -0.65464027         -2.36502669          2.58536496
     6          1.03615338         -1.41469964          7.91205826
     7          1.05211353         -3.88070477          7.25672791
     7          1.78223070         -1.24568424         10.34298224
     6          3.08982116         -4.40625058         13.66741637
     6          3.43666228         -7.00743749         13.97285789
     6          2.97785283         -8.72532459         11.99684437
     6          2.16524933         -7.93677377          9.61957374
     6          1.82249271         -5.34299188          9.29146526
     6          2.28574995         -3.63525058         11.26502466
     1          4.06432086         -7.70962252         15.79196877
     1          3.26877174        -10.72237542         12.33555704
     1          1.81068211         -9.26340664          8.10455451
     6          3.50010920         -2.57664434         15.70313241
     1          4.14565336         -3.35722539         17.50150536
     7          3.08353253         -0.22175563         15.34199414
     6          3.46207356          1.61226998         17.37312779
     6          4.41929663          0.60297705         19.91264530
     6          5.19388516          3.72685530         16.38700778
     1          1.59268026          2.46210001         17.68754134
     6          4.64095187          2.74961586         21.84747682
     1          6.27763526         -0.27636168         19.63971139
     1          3.14897710         -0.86584858         20.62632402
     6          5.43399582          5.86967595         18.31807419
     1          7.06167261          2.91437177         16.00417956
     1          4.45120409          4.43007649         14.58950685
     6          6.34882196          4.87956178         20.88133905
     1          5.35923257          2.00638028         23.63828252
     1          2.75160422          3.51117317         22.23190400
     1          6.72281657          7.32006174         17.60196235
     1          3.58354710          6.77381170         18.55766421
     1          6.42303003          6.41938136         22.26026330
     1          8.28118566          4.15588049         20.67799767
     1          0.52778622         -4.41633779          5.47071851
     1         -2.37918699          1.35450018         -1.85917468
     1         -4.54999401         -3.94663270         -9.87199585
     1          1.98004648          0.28823135         11.49141917
     6         -4.34957660          0.80359365        -17.56185054
     1         -4.02961100         -1.03345826        -16.69158055
     1         -4.78879435          0.52556704        -19.56231343
     1         -2.61359196          1.91670338        -17.43141687
     6         -7.03413310          4.67355007        -17.71021847
     1         -8.61256823          5.74326394        -16.91319191
     1         -5.36599847          5.89232480        -17.71980369
     1         -7.50085626          4.22151218        -19.66906059
     6         -8.98891703          0.58905289        -16.42062326
     1         -8.73546732         -1.22835670        -15.48933731
     1        -10.57232857          1.57430962        -15.53108781
     1         -9.46952235          0.26148029        -18.40370581
     6         -3.09041489          9.82996642        -10.66409423
     1         -3.52529414          9.75408572        -12.68042076
     1         -3.06888173         11.81400200        -10.08911599
     1         -1.19947877          9.05141457        -10.37870026
     6         -7.69680352          9.55788050         -9.49721162
     1         -7.66114295         11.54049011         -8.91731695
     1         -8.26358607          9.48446027        -11.48025428
     1         -9.12712713          8.57714668         -8.37687295
     6         -4.37329498          8.61749251         -6.27247647
     1         -5.74265267          7.64526371         -5.06978831
     1         -2.49696819          7.84877081         -5.87798297
     1         -4.36410097         10.61267702         -5.74409307

 Electric dipole moment (dipole orientation):
 (Debye = 10**-18 statcoulomb cm , SI units = C m)
                  (au)            (Debye)         (10**-30 SI)
   Tot        0.483636D+01      0.122928D+02      0.410044D+02
   x          0.000000D+00      0.000000D+00      0.000000D+00
   y          0.000000D+00      0.000000D+00      0.000000D+00
   z          0.483636D+01      0.122928D+02      0.410044D+02

 Dipole polarizability, Alpha (dipole orientation).
 (esu units = cm**3 , SI units = C**2 m**2 J**-1)
 Alpha(0;0):
               (au)            (10**-24 esu)      (10**-40 SI)
   iso        0.844203D+03      0.125098D+03      0.139190D+03
   aniso      0.800092D+03      0.118561D+03      0.131917D+03
   xx         0.412086D+03      0.610649D+02      0.679438D+02
   yx        -0.750020D+02     -0.111141D+02     -0.123662D+02
   yy         0.102834D+04      0.152384D+03      0.169550D+03
   zx         0.243005D+03      0.360096D+02      0.400660D+02
   zy        -0.874245D+02     -0.129550D+02     -0.144144D+02
   zz         0.109218D+04      0.161845D+03      0.180077D+03

 ----------------------------------------------------------------------

 This type of calculation cannot be archived.


 We find comfort among those who agree with us -- growth among those who don't.
 -- Frank A. Clark
 Job cpu time:       0 days  0 hours  0 minutes 27.4 seconds.
 Elapsed time:       0 days  0 hours  0 minutes  1.9 seconds.
 File lengths (MBytes):  RWF=     80 Int=      0 D2E=      0 Chk=    140 Scr=      8
 Normal termination of Gaussian 16 at Fri Dec 21 18:13:38 2018.
