 Entering Gaussian System, Link 0=g16
 Input=cyclohexyl-triBIP-E3PT.com
 Output=cyclohexyl-triBIP-E3PT.log
 Initial command:
 /gpfs/apps/hpc/Apps/Restricted/Gaussian/Rev_A.03/g16/l1.exe "/gpfs/scratch60/fas/hammes_schiffer/jg2487/c43n04/Gau-87893.inp" -scrdir="/gpfs/scratch60/fas/hammes_schiffer/jg2487/c43n04/"
 Entering Link 1 = /gpfs/apps/hpc/Apps/Restricted/Gaussian/Rev_A.03/g16/l1.exe PID=     87894.
  
 Copyright (c) 1988,1990,1992,1993,1995,1998,2003,2009,2016,
            Gaussian, Inc.  All Rights Reserved.
  
 This is part of the Gaussian(R) 16 program.  It is based on
 the Gaussian(R) 09 system (copyright 2009, Gaussian, Inc.),
 the Gaussian(R) 03 system (copyright 2003, Gaussian, Inc.),
 the Gaussian(R) 98 system (copyright 1998, Gaussian, Inc.),
 the Gaussian(R) 94 system (copyright 1995, Gaussian, Inc.),
 the Gaussian 92(TM) system (copyright 1992, Gaussian, Inc.),
 the Gaussian 90(TM) system (copyright 1990, Gaussian, Inc.),
 the Gaussian 88(TM) system (copyright 1988, Gaussian, Inc.),
 the Gaussian 86(TM) system (copyright 1986, Carnegie Mellon
 University), and the Gaussian 82(TM) system (copyright 1983,
 Carnegie Mellon University). Gaussian is a federally registered
 trademark of Gaussian, Inc.
  
 This software contains proprietary and confidential information,
 including trade secrets, belonging to Gaussian, Inc.
  
 This software is provided under written license and may be
 used, copied, transmitted, or stored only in accord with that
 written license.
  
 The following legend is applicable only to US Government
 contracts under FAR:
  
                    RESTRICTED RIGHTS LEGEND
  
 Use, reproduction and disclosure by the US Government is
 subject to restrictions as set forth in subparagraphs (a)
 and (c) of the Commercial Computer Software - Restricted
 Rights clause in FAR 52.227-19.
  
 Gaussian, Inc.
 340 Quinnipiac St., Bldg. 40, Wallingford CT 06492
  
  
 ---------------------------------------------------------------
 Warning -- This program may not be used in any manner that
 competes with the business of Gaussian, Inc. or will provide
 assistance to any competitor of Gaussian, Inc.  The licensee
 of this program is prohibited from giving any competitor of
 Gaussian, Inc. access to this program.  By using this program,
 the user acknowledges that Gaussian, Inc. is engaged in the
 business of creating and licensing software in the field of
 computational chemistry and represents and warrants to the
 licensee that it is not a competitor of Gaussian, Inc. and that
 it will not use this program in any manner prohibited above.
 ---------------------------------------------------------------
  

 Cite this work as:
 Gaussian 16, Revision A.03,
 M. J. Frisch, G. W. Trucks, H. B. Schlegel, G. E. Scuseria, 
 M. A. Robb, J. R. Cheeseman, G. Scalmani, V. Barone, 
 G. A. Petersson, H. Nakatsuji, X. Li, M. Caricato, A. V. Marenich, 
 J. Bloino, B. G. Janesko, R. Gomperts, B. Mennucci, H. P. Hratchian, 
 J. V. Ortiz, A. F. Izmaylov, J. L. Sonnenberg, D. Williams-Young, 
 F. Ding, F. Lipparini, F. Egidi, J. Goings, B. Peng, A. Petrone, 
 T. Henderson, D. Ranasinghe, V. G. Zakrzewski, J. Gao, N. Rega, 
 G. Zheng, W. Liang, M. Hada, M. Ehara, K. Toyota, R. Fukuda, 
 J. Hasegawa, M. Ishida, T. Nakajima, Y. Honda, O. Kitao, H. Nakai, 
 T. Vreven, K. Throssell, J. A. Montgomery, Jr., J. E. Peralta, 
 F. Ogliaro, M. J. Bearpark, J. J. Heyd, E. N. Brothers, K. N. Kudin, 
 V. N. Staroverov, T. A. Keith, R. Kobayashi, J. Normand, 
 K. Raghavachari, A. P. Rendell, J. C. Burant, S. S. Iyengar, 
 J. Tomasi, M. Cossi, J. M. Millam, M. Klene, C. Adamo, R. Cammi, 
 J. W. Ochterski, R. L. Martin, K. Morokuma, O. Farkas, 
 J. B. Foresman, and D. J. Fox, Gaussian, Inc., Wallingford CT, 2016.
 
 ******************************************
 Gaussian 16:  ES64L-G16RevA.03 25-Dec-2016
                16-Dec-2018 
 ******************************************
 %chk=cyclohexyl-triBIP-E3PT.chk
 %mem=10GB
 %nprocshared=16
 Will use up to   16 processors via shared memory.
 ----------------------------------------------------------------
 #p freq(ReadFC,InternalModes) Geom(AllCheck) NoSymm scale=0.9649
 ----------------------------------------------------------------
 1/18=20,29=7,38=1,114=964900/1,3;
 2/9=110,12=2,15=1,40=1/2;
 7/8=21,25=11,30=1/16;
 99/5=2/99;
 Leave Link    1 at Sun Dec 16 14:43:59 2018, MaxMem=  1342177280 cpu:               8.8 elap:               0.6
 (Enter /gpfs/apps/hpc/Apps/Restricted/Gaussian/Rev_A.03/g16/l101.exe)
 Structure from the checkpoint file:  "cyclohexyl-triBIP-E3PT.chk"
 ----------------------------------------------------------------------
 cyclohexylimine triBIP oxidized, first three protons transferred optim
 ization
 ----------------------------------------------------------------------
 Charge =  1 Multiplicity = 2
 Redundant internal coordinates found in file.  (old form).
 C,0,1.6240150983,0.4785485511,0.9816294541
 C,0,0.5449884817,1.3496603602,0.6912402755
 C,0,0.7147933774,2.7250927841,0.5662933118
 C,0,2.0077553609,3.225140306,0.7414748948
 C,0,3.0915908511,2.3884840351,1.0332277804
 C,0,2.9244257986,1.001382125,1.1584624212
 C,0,-0.1288913053,-0.762638821,0.813546286
 H,0,-0.1164563607,3.3811132756,0.3421716003
 H,0,2.1787183871,4.2904987482,0.6487312423
 H,0,4.0737645361,2.8269901888,1.1569948162
 C,0,-2.4266893792,-1.6927090325,0.5327665085
 C,0,-3.3061524093,-2.8077329616,0.5328128867
 C,0,-2.8685855541,-4.109411244,0.7761689345
 C,0,-1.5082207363,-4.2759861657,1.0268075785
 C,0,-0.6168297613,-3.1901767788,1.0348346866
 C,0,-1.0500427966,-1.8833801864,0.7940034048
 C,0,-4.3930558304,-0.9245794469,0.0876789864
 H,0,-3.5531372789,-4.9482791819,0.7724351456
 H,0,-1.1223794671,-5.269316422,1.2218679776
 H,0,0.4337316429,-3.3584435198,1.2352670261
 N,0,-0.5509258137,0.5203248204,0.5943095613
 C,0,-6.8525192086,-0.6111142172,-0.4087968388
 C,0,-5.5049500946,-0.0540945336,-0.23803019
 C,0,-5.3014083312,1.3091952835,-0.3918993145
 C,0,-6.3547019062,2.17629396,-0.7210361315
 C,0,-7.6613080715,1.6492783783,-0.8889885184
 C,0,-7.933853117,0.3111374848,-0.7480621794
 H,0,-4.3027136601,1.7071193885,-0.2566694888
 H,0,-8.4674413879,2.3328745884,-1.1357970504
 C,0,-6.1064886055,3.6394078818,-0.9237653774
 H,0,-5.1943012041,3.9604174247,-0.41902419
 H,0,-5.9916964751,3.8561498537,-1.9925235743
 H,0,-6.948236923,4.2348494616,-0.5636036344
 C,0,-9.30541229,-0.260192583,-0.9197379172
 H,0,-9.3235645153,-0.9885414043,-1.7363062297
 H,0,-9.6155896002,-0.7973212753,-0.0189063546
 H,0,-10.0291448602,0.5267574572,-1.1310918562
 O,0,-7.0960582512,-1.8389510226,-0.2718676537
 N,0,-3.1215994912,-0.5377685679,0.2546247575
 N,0,-4.5391605393,-2.275669074,0.2501483455
 N,0,1.1845986825,-0.8248208008,1.0487801857
 C,0,4.0064175433,0.0965624056,1.4554057462
 N,0,3.8547456596,-1.2434251248,1.5220376016
 N,0,5.3025585472,0.3795656301,1.6992550524
 C,0,7.3453994038,-1.0052672663,2.2293125386
 C,0,7.7258990617,-2.3400278441,2.3972906484
 C,0,6.8033633421,-3.3953061518,2.2808856579
 C,0,5.4595663395,-3.1728929847,1.9874053996
 C,0,5.0706048121,-1.8444286893,1.8115357495
 C,0,5.9941978921,-0.7949573948,1.9244306418
 H,0,8.7602629124,-2.5610358576,2.6349427135
 H,0,7.1488667762,-4.4114283257,2.4243714319
 H,0,4.750848663,-3.9861501494,1.9028782233
 C,0,8.2722845294,0.1151598324,2.3989011367
 H,0,9.3055901958,-0.1547989771,2.6268117946
 N,0,7.862720629,1.3246052016,2.3075184683
 C,0,8.7876755519,2.4383111684,2.5214513947
 C,0,10.2359836424,2.0829962697,2.8726439558
 C,0,8.7331215283,3.3646473624,1.29526335
 H,0,8.365363535,3.0023051874,3.3656996462
 C,0,11.0687808008,3.3490860385,3.1038278254
 H,0,10.6738194644,1.5039402668,2.0503684633
 H,0,10.263567873,1.4467363884,3.7625924702
 C,0,9.5706862598,4.6280399613,1.5192171006
 H,0,9.1151768749,2.8121410134,0.4280226454
 H,0,7.690609386,3.6204238985,1.0828054072
 C,0,11.0173128241,4.2859414778,1.8923719644
 H,0,12.1032896139,3.0739521059,3.3305909925
 H,0,10.683427387,3.8780779812,3.9844867486
 H,0,9.5462550784,5.2556587752,0.6235806755
 H,0,9.1212534709,5.2149880421,2.3297797074
 H,0,11.5791729748,5.2017652188,2.1003523137
 H,0,11.50488298,3.7972207691,1.0397089118
 H,0,2.9299987635,-1.6634665352,1.3821315123
 H,0,-1.5246868433,0.7464917451,0.3967782068
 H,0,-5.4483620874,-2.7188692054,0.1483754173
 H,0,5.7859016228,1.2748086489,1.7588409178
 Recover connectivity data from disk.
 ITRead=  0  0  0  0  0  0  0  0  0  0  0  0  0  0  0  0  0  0  0  0
 ITRead=  0  0  0  0  0  0  0  0  0  0  0  0  0  0  0  0  0  0  0  0
 ITRead=  0  0  0  0  0  0  0  0  0  0  0  0  0  0  0  0  0  0  0  0
 ITRead=  0  0  0  0  0  0  0  0  0  0  0  0  0  0  0  0  0
 MicOpt= -1 -1 -1 -1 -1 -1 -1 -1 -1 -1 -1 -1 -1 -1 -1 -1 -1 -1 -1 -1
 MicOpt= -1 -1 -1 -1 -1 -1 -1 -1 -1 -1 -1 -1 -1 -1 -1 -1 -1 -1 -1 -1
 MicOpt= -1 -1 -1 -1 -1 -1 -1 -1 -1 -1 -1 -1 -1 -1 -1 -1 -1 -1 -1 -1
 MicOpt= -1 -1 -1 -1 -1 -1 -1 -1 -1 -1 -1 -1 -1 -1 -1 -1 -1
 NAtoms=     77 NQM=       77 NQMF=       0 NMMI=      0 NMMIF=      0
                NMic=       0 NMicF=      0.
                    Isotopes and Nuclear Properties:
 (Nuclear quadrupole moments (NQMom) in fm**2, nuclear magnetic moments (NMagM)
  in nuclear magnetons)

  Atom         1           2           3           4           5           6           7           8           9          10
 IAtWgt=          12          12          12          12          12          12          12           1           1           1
 AtmWgt=  12.0000000  12.0000000  12.0000000  12.0000000  12.0000000  12.0000000  12.0000000   1.0078250   1.0078250   1.0078250
 NucSpn=           0           0           0           0           0           0           0           1           1           1
 AtZEff=   3.6000000   3.6000000   3.6000000   3.6000000   3.6000000   3.6000000   3.6000000   1.0000000   1.0000000   1.0000000
 NQMom=    0.0000000   0.0000000   0.0000000   0.0000000   0.0000000   0.0000000   0.0000000   0.0000000   0.0000000   0.0000000
 NMagM=    0.0000000   0.0000000   0.0000000   0.0000000   0.0000000   0.0000000   0.0000000   2.7928460   2.7928460   2.7928460
 AtZNuc=   6.0000000   6.0000000   6.0000000   6.0000000   6.0000000   6.0000000   6.0000000   1.0000000   1.0000000   1.0000000

  Atom        11          12          13          14          15          16          17          18          19          20
 IAtWgt=          12          12          12          12          12          12          12           1           1           1
 AtmWgt=  12.0000000  12.0000000  12.0000000  12.0000000  12.0000000  12.0000000  12.0000000   1.0078250   1.0078250   1.0078250
 NucSpn=           0           0           0           0           0           0           0           1           1           1
 AtZEff=   3.6000000   3.6000000   3.6000000   3.6000000   3.6000000   3.6000000   3.6000000   1.0000000   1.0000000   1.0000000
 NQMom=    0.0000000   0.0000000   0.0000000   0.0000000   0.0000000   0.0000000   0.0000000   0.0000000   0.0000000   0.0000000
 NMagM=    0.0000000   0.0000000   0.0000000   0.0000000   0.0000000   0.0000000   0.0000000   2.7928460   2.7928460   2.7928460
 AtZNuc=   6.0000000   6.0000000   6.0000000   6.0000000   6.0000000   6.0000000   6.0000000   1.0000000   1.0000000   1.0000000

  Atom        21          22          23          24          25          26          27          28          29          30
 IAtWgt=          14          12          12          12          12          12          12           1           1          12
 AtmWgt=  14.0030740  12.0000000  12.0000000  12.0000000  12.0000000  12.0000000  12.0000000   1.0078250   1.0078250  12.0000000
 NucSpn=           2           0           0           0           0           0           0           1           1           0
 AtZEff=   4.5500000   3.6000000   3.6000000   3.6000000   3.6000000   3.6000000   3.6000000   1.0000000   1.0000000   3.6000000
 NQMom=    2.0440000   0.0000000   0.0000000   0.0000000   0.0000000   0.0000000   0.0000000   0.0000000   0.0000000   0.0000000
 NMagM=    0.4037610   0.0000000   0.0000000   0.0000000   0.0000000   0.0000000   0.0000000   2.7928460   2.7928460   0.0000000
 AtZNuc=   7.0000000   6.0000000   6.0000000   6.0000000   6.0000000   6.0000000   6.0000000   1.0000000   1.0000000   6.0000000

  Atom        31          32          33          34          35          36          37          38          39          40
 IAtWgt=           1           1           1          12           1           1           1          16          14          14
 AtmWgt=   1.0078250   1.0078250   1.0078250  12.0000000   1.0078250   1.0078250   1.0078250  15.9949146  14.0030740  14.0030740
 NucSpn=           1           1           1           0           1           1           1           0           2           2
 AtZEff=   1.0000000   1.0000000   1.0000000   3.6000000   1.0000000   1.0000000   1.0000000   5.6000000   4.5500000   4.5500000
 NQMom=    0.0000000   0.0000000   0.0000000   0.0000000   0.0000000   0.0000000   0.0000000   0.0000000   2.0440000   2.0440000
 NMagM=    2.7928460   2.7928460   2.7928460   0.0000000   2.7928460   2.7928460   2.7928460   0.0000000   0.4037610   0.4037610
 AtZNuc=   1.0000000   1.0000000   1.0000000   6.0000000   1.0000000   1.0000000   1.0000000   8.0000000   7.0000000   7.0000000

  Atom        41          42          43          44          45          46          47          48          49          50
 IAtWgt=          14          12          14          14          12          12          12          12          12          12
 AtmWgt=  14.0030740  12.0000000  14.0030740  14.0030740  12.0000000  12.0000000  12.0000000  12.0000000  12.0000000  12.0000000
 NucSpn=           2           0           2           2           0           0           0           0           0           0
 AtZEff=   4.5500000   3.6000000   4.5500000   4.5500000   3.6000000   3.6000000   3.6000000   3.6000000   3.6000000   3.6000000
 NQMom=    2.0440000   0.0000000   2.0440000   2.0440000   0.0000000   0.0000000   0.0000000   0.0000000   0.0000000   0.0000000
 NMagM=    0.4037610   0.0000000   0.4037610   0.4037610   0.0000000   0.0000000   0.0000000   0.0000000   0.0000000   0.0000000
 AtZNuc=   7.0000000   6.0000000   7.0000000   7.0000000   6.0000000   6.0000000   6.0000000   6.0000000   6.0000000   6.0000000

  Atom        51          52          53          54          55          56          57          58          59          60
 IAtWgt=           1           1           1          12           1          14          12          12          12           1
 AtmWgt=   1.0078250   1.0078250   1.0078250  12.0000000   1.0078250  14.0030740  12.0000000  12.0000000  12.0000000   1.0078250
 NucSpn=           1           1           1           0           1           2           0           0           0           1
 AtZEff=   1.0000000   1.0000000   1.0000000   3.6000000   1.0000000   4.5500000   3.6000000   3.6000000   3.6000000   1.0000000
 NQMom=    0.0000000   0.0000000   0.0000000   0.0000000   0.0000000   2.0440000   0.0000000   0.0000000   0.0000000   0.0000000
 NMagM=    2.7928460   2.7928460   2.7928460   0.0000000   2.7928460   0.4037610   0.0000000   0.0000000   0.0000000   2.7928460
 AtZNuc=   1.0000000   1.0000000   1.0000000   6.0000000   1.0000000   7.0000000   6.0000000   6.0000000   6.0000000   1.0000000

  Atom        61          62          63          64          65          66          67          68          69          70
 IAtWgt=          12           1           1          12           1           1          12           1           1           1
 AtmWgt=  12.0000000   1.0078250   1.0078250  12.0000000   1.0078250   1.0078250  12.0000000   1.0078250   1.0078250   1.0078250
 NucSpn=           0           1           1           0           1           1           0           1           1           1
 AtZEff=   3.6000000   1.0000000   1.0000000   3.6000000   1.0000000   1.0000000   3.6000000   1.0000000   1.0000000   1.0000000
 NQMom=    0.0000000   0.0000000   0.0000000   0.0000000   0.0000000   0.0000000   0.0000000   0.0000000   0.0000000   0.0000000
 NMagM=    0.0000000   2.7928460   2.7928460   0.0000000   2.7928460   2.7928460   0.0000000   2.7928460   2.7928460   2.7928460
 AtZNuc=   6.0000000   1.0000000   1.0000000   6.0000000   1.0000000   1.0000000   6.0000000   1.0000000   1.0000000   1.0000000

  Atom        71          72          73          74          75          76          77
 IAtWgt=           1           1           1           1           1           1           1
 AtmWgt=   1.0078250   1.0078250   1.0078250   1.0078250   1.0078250   1.0078250   1.0078250
 NucSpn=           1           1           1           1           1           1           1
 AtZEff=   1.0000000   1.0000000   1.0000000   1.0000000   1.0000000   1.0000000   1.0000000
 NQMom=    0.0000000   0.0000000   0.0000000   0.0000000   0.0000000   0.0000000   0.0000000
 NMagM=    2.7928460   2.7928460   2.7928460   2.7928460   2.7928460   2.7928460   2.7928460
 AtZNuc=   1.0000000   1.0000000   1.0000000   1.0000000   1.0000000   1.0000000   1.0000000
 Leave Link  101 at Sun Dec 16 14:44:00 2018, MaxMem=  1342177280 cpu:               4.6 elap:               0.3
 (Enter /gpfs/apps/hpc/Apps/Restricted/Gaussian/Rev_A.03/g16/l103.exe)

 GradGradGradGradGradGradGradGradGradGradGradGradGradGradGradGradGradGrad
 Berny optimization.
 Initialization pass.
                           ----------------------------
                           !    Initial Parameters    !
                           ! (Angstroms and Degrees)  !
 --------------------------                            --------------------------
 ! Name  Definition              Value          Derivative Info.                !
 --------------------------------------------------------------------------------
 ! R1    R(1,2)                  1.4168         estimate D2E/DX2                !
 ! R2    R(1,6)                  1.4127         estimate D2E/DX2                !
 ! R3    R(1,41)                 1.3771         estimate D2E/DX2                !
 ! R4    R(2,3)                  1.3915         estimate D2E/DX2                !
 ! R5    R(2,21)                 1.3778         estimate D2E/DX2                !
 ! R6    R(3,4)                  1.3973         estimate D2E/DX2                !
 ! R7    R(3,8)                  1.0824         estimate D2E/DX2                !
 ! R8    R(4,5)                  1.3999         estimate D2E/DX2                !
 ! R9    R(4,9)                  1.083          estimate D2E/DX2                !
 ! R10   R(5,6)                  1.4027         estimate D2E/DX2                !
 ! R11   R(5,10)                 1.0827         estimate D2E/DX2                !
 ! R12   R(6,42)                 1.4414         estimate D2E/DX2                !
 ! R13   R(7,16)                 1.4508         estimate D2E/DX2                !
 ! R14   R(7,21)                 1.3683         estimate D2E/DX2                !
 ! R15   R(7,41)                 1.3358         estimate D2E/DX2                !
 ! R16   R(11,12)                1.4201         estimate D2E/DX2                !
 ! R17   R(11,16)                1.4141         estimate D2E/DX2                !
 ! R18   R(11,39)                1.3763         estimate D2E/DX2                !
 ! R19   R(12,13)                1.3947         estimate D2E/DX2                !
 ! R20   R(12,40)                1.3723         estimate D2E/DX2                !
 ! R21   R(13,14)                1.3933         estimate D2E/DX2                !
 ! R22   R(13,18)                1.0827         estimate D2E/DX2                !
 ! R23   R(14,15)                1.4049         estimate D2E/DX2                !
 ! R24   R(14,19)                1.0833         estimate D2E/DX2                !
 ! R25   R(15,16)                1.3976         estimate D2E/DX2                !
 ! R26   R(15,20)                1.0827         estimate D2E/DX2                !
 ! R27   R(17,23)                1.4492         estimate D2E/DX2                !
 ! R28   R(17,39)                1.3394         estimate D2E/DX2                !
 ! R29   R(17,40)                1.3686         estimate D2E/DX2                !
 ! R30   R(21,75)                1.019          estimate D2E/DX2                !
 ! R31   R(22,23)                1.4681         estimate D2E/DX2                !
 ! R32   R(22,27)                1.4611         estimate D2E/DX2                !
 ! R33   R(22,38)                1.2592         estimate D2E/DX2                !
 ! R34   R(23,24)                1.387          estimate D2E/DX2                !
 ! R35   R(24,25)                1.4034         estimate D2E/DX2                !
 ! R36   R(24,28)                1.0835         estimate D2E/DX2                !
 ! R37   R(25,26)                1.4189         estimate D2E/DX2                !
 ! R38   R(25,30)                1.4978         estimate D2E/DX2                !
 ! R39   R(26,27)                1.3729         estimate D2E/DX2                !
 ! R40   R(26,29)                1.0854         estimate D2E/DX2                !
 ! R41   R(27,34)                1.4957         estimate D2E/DX2                !
 ! R42   R(30,31)                1.0908         estimate D2E/DX2                !
 ! R43   R(30,32)                1.0965         estimate D2E/DX2                !
 ! R44   R(30,33)                1.0922         estimate D2E/DX2                !
 ! R45   R(34,35)                1.0944         estimate D2E/DX2                !
 ! R46   R(34,36)                1.0937         estimate D2E/DX2                !
 ! R47   R(34,37)                1.0898         estimate D2E/DX2                !
 ! R48   R(40,76)                1.0166         estimate D2E/DX2                !
 ! R49   R(42,43)                1.3502         estimate D2E/DX2                !
 ! R50   R(42,44)                1.3489         estimate D2E/DX2                !
 ! R51   R(43,49)                1.3868         estimate D2E/DX2                !
 ! R52   R(43,74)                1.0253         estimate D2E/DX2                !
 ! R53   R(44,50)                1.3815         estimate D2E/DX2                !
 ! R54   R(44,77)                1.0191         estimate D2E/DX2                !
 ! R55   R(45,46)                1.3981         estimate D2E/DX2                !
 ! R56   R(45,50)                1.401          estimate D2E/DX2                !
 ! R57   R(45,54)                1.464          estimate D2E/DX2                !
 ! R58   R(46,47)                1.4065         estimate D2E/DX2                !
 ! R59   R(46,51)                1.0841         estimate D2E/DX2                !
 ! R60   R(47,48)                1.3933         estimate D2E/DX2                !
 ! R61   R(47,52)                1.0828         estimate D2E/DX2                !
 ! R62   R(48,49)                1.3954         estimate D2E/DX2                !
 ! R63   R(48,53)                1.082          estimate D2E/DX2                !
 ! R64   R(49,50)                1.4026         estimate D2E/DX2                !
 ! R65   R(54,55)                1.092          estimate D2E/DX2                !
 ! R66   R(54,56)                1.2802         estimate D2E/DX2                !
 ! R67   R(56,57)                1.4634         estimate D2E/DX2                !
 ! R68   R(57,58)                1.5321         estimate D2E/DX2                !
 ! R69   R(57,59)                1.5377         estimate D2E/DX2                !
 ! R70   R(57,60)                1.0996         estimate D2E/DX2                !
 ! R71   R(58,61)                1.533          estimate D2E/DX2                !
 ! R72   R(58,62)                1.0969         estimate D2E/DX2                !
 ! R73   R(58,63)                1.0943         estimate D2E/DX2                !
 ! R74   R(59,64)                1.5323         estimate D2E/DX2                !
 ! R75   R(59,65)                1.097          estimate D2E/DX2                !
 ! R76   R(59,66)                1.0943         estimate D2E/DX2                !
 ! R77   R(61,67)                1.5323         estimate D2E/DX2                !
 ! R78   R(61,68)                1.0942         estimate D2E/DX2                !
 ! R79   R(61,69)                1.0972         estimate D2E/DX2                !
 ! R80   R(64,67)                1.5326         estimate D2E/DX2                !
 ! R81   R(64,70)                1.0939         estimate D2E/DX2                !
 ! R82   R(64,71)                1.097          estimate D2E/DX2                !
 ! R83   R(67,72)                1.0944         estimate D2E/DX2                !
 ! R84   R(67,73)                1.0971         estimate D2E/DX2                !
 ! A1    A(2,1,6)              119.9437         estimate D2E/DX2                !
 ! A2    A(2,1,41)             110.4198         estimate D2E/DX2                !
 ! A3    A(6,1,41)             129.6363         estimate D2E/DX2                !
 ! A4    A(1,2,3)              122.2216         estimate D2E/DX2                !
 ! A5    A(1,2,21)             104.4837         estimate D2E/DX2                !
 ! A6    A(3,2,21)             133.2943         estimate D2E/DX2                !
 ! A7    A(2,3,4)              117.0902         estimate D2E/DX2                !
 ! A8    A(2,3,8)              121.5986         estimate D2E/DX2                !
 ! A9    A(4,3,8)              121.3112         estimate D2E/DX2                !
 ! A10   A(3,4,5)              121.9137         estimate D2E/DX2                !
 ! A11   A(3,4,9)              119.1688         estimate D2E/DX2                !
 ! A12   A(5,4,9)              118.9175         estimate D2E/DX2                !
 ! A13   A(4,5,6)              121.1527         estimate D2E/DX2                !
 ! A14   A(4,5,10)             118.9527         estimate D2E/DX2                !
 ! A15   A(6,5,10)             119.8935         estimate D2E/DX2                !
 ! A16   A(1,6,5)              117.6776         estimate D2E/DX2                !
 ! A17   A(1,6,42)             118.9772         estimate D2E/DX2                !
 ! A18   A(5,6,42)             123.3452         estimate D2E/DX2                !
 ! A19   A(16,7,21)            121.7571         estimate D2E/DX2                !
 ! A20   A(16,7,41)            126.2066         estimate D2E/DX2                !
 ! A21   A(21,7,41)            112.0333         estimate D2E/DX2                !
 ! A22   A(12,11,16)           119.8019         estimate D2E/DX2                !
 ! A23   A(12,11,39)           110.2554         estimate D2E/DX2                !
 ! A24   A(16,11,39)           129.9425         estimate D2E/DX2                !
 ! A25   A(11,12,13)           122.5834         estimate D2E/DX2                !
 ! A26   A(11,12,40)           104.5956         estimate D2E/DX2                !
 ! A27   A(13,12,40)           132.8198         estimate D2E/DX2                !
 ! A28   A(12,13,14)           116.6999         estimate D2E/DX2                !
 ! A29   A(12,13,18)           121.6111         estimate D2E/DX2                !
 ! A30   A(14,13,18)           121.6889         estimate D2E/DX2                !
 ! A31   A(13,14,15)           121.8805         estimate D2E/DX2                !
 ! A32   A(13,14,19)           119.3252         estimate D2E/DX2                !
 ! A33   A(15,14,19)           118.7943         estimate D2E/DX2                !
 ! A34   A(14,15,16)           121.6685         estimate D2E/DX2                !
 ! A35   A(14,15,20)           119.777          estimate D2E/DX2                !
 ! A36   A(16,15,20)           118.554          estimate D2E/DX2                !
 ! A37   A(7,16,11)            121.0918         estimate D2E/DX2                !
 ! A38   A(7,16,15)            121.5437         estimate D2E/DX2                !
 ! A39   A(11,16,15)           117.3643         estimate D2E/DX2                !
 ! A40   A(23,17,39)           125.652          estimate D2E/DX2                !
 ! A41   A(23,17,40)           122.5301         estimate D2E/DX2                !
 ! A42   A(39,17,40)           111.8155         estimate D2E/DX2                !
 ! A43   A(2,21,7)             107.9265         estimate D2E/DX2                !
 ! A44   A(2,21,75)            129.8029         estimate D2E/DX2                !
 ! A45   A(7,21,75)            122.2704         estimate D2E/DX2                !
 ! A46   A(23,22,27)           117.8283         estimate D2E/DX2                !
 ! A47   A(23,22,38)           122.3323         estimate D2E/DX2                !
 ! A48   A(27,22,38)           119.8394         estimate D2E/DX2                !
 ! A49   A(17,23,22)           120.1652         estimate D2E/DX2                !
 ! A50   A(17,23,24)           120.1825         estimate D2E/DX2                !
 ! A51   A(22,23,24)           119.6522         estimate D2E/DX2                !
 ! A52   A(23,24,25)           121.5454         estimate D2E/DX2                !
 ! A53   A(23,24,28)           118.8423         estimate D2E/DX2                !
 ! A54   A(25,24,28)           119.612          estimate D2E/DX2                !
 ! A55   A(24,25,26)           119.3016         estimate D2E/DX2                !
 ! A56   A(24,25,30)           120.724          estimate D2E/DX2                !
 ! A57   A(26,25,30)           119.9615         estimate D2E/DX2                !
 ! A58   A(25,26,27)           122.1884         estimate D2E/DX2                !
 ! A59   A(25,26,29)           118.4853         estimate D2E/DX2                !
 ! A60   A(27,26,29)           119.3263         estimate D2E/DX2                !
 ! A61   A(22,27,26)           119.4811         estimate D2E/DX2                !
 ! A62   A(22,27,34)           117.658          estimate D2E/DX2                !
 ! A63   A(26,27,34)           122.8601         estimate D2E/DX2                !
 ! A64   A(25,30,31)           111.3102         estimate D2E/DX2                !
 ! A65   A(25,30,32)           110.0203         estimate D2E/DX2                !
 ! A66   A(25,30,33)           111.1133         estimate D2E/DX2                !
 ! A67   A(31,30,32)           107.7752         estimate D2E/DX2                !
 ! A68   A(31,30,33)           109.3582         estimate D2E/DX2                !
 ! A69   A(32,30,33)           107.1177         estimate D2E/DX2                !
 ! A70   A(27,34,35)           110.7989         estimate D2E/DX2                !
 ! A71   A(27,34,36)           110.6783         estimate D2E/DX2                !
 ! A72   A(27,34,37)           110.8179         estimate D2E/DX2                !
 ! A73   A(35,34,36)           106.4402         estimate D2E/DX2                !
 ! A74   A(35,34,37)           108.9572         estimate D2E/DX2                !
 ! A75   A(36,34,37)           109.0271         estimate D2E/DX2                !
 ! A76   A(11,39,17)           105.197          estimate D2E/DX2                !
 ! A77   A(12,40,17)           108.1359         estimate D2E/DX2                !
 ! A78   A(12,40,76)           130.9321         estimate D2E/DX2                !
 ! A79   A(17,40,76)           120.9288         estimate D2E/DX2                !
 ! A80   A(1,41,7)             105.1359         estimate D2E/DX2                !
 ! A81   A(6,42,43)            123.2877         estimate D2E/DX2                !
 ! A82   A(6,42,44)            128.8175         estimate D2E/DX2                !
 ! A83   A(43,42,44)           107.8928         estimate D2E/DX2                !
 ! A84   A(42,43,49)           109.993          estimate D2E/DX2                !
 ! A85   A(42,43,74)           120.0782         estimate D2E/DX2                !
 ! A86   A(49,43,74)           129.9187         estimate D2E/DX2                !
 ! A87   A(42,44,50)           109.3996         estimate D2E/DX2                !
 ! A88   A(42,44,77)           130.5858         estimate D2E/DX2                !
 ! A89   A(50,44,77)           119.9904         estimate D2E/DX2                !
 ! A90   A(46,45,50)           115.5906         estimate D2E/DX2                !
 ! A91   A(46,45,54)           122.9868         estimate D2E/DX2                !
 ! A92   A(50,45,54)           121.3945         estimate D2E/DX2                !
 ! A93   A(45,46,47)           121.8608         estimate D2E/DX2                !
 ! A94   A(45,46,51)           118.7282         estimate D2E/DX2                !
 ! A95   A(47,46,51)           119.4072         estimate D2E/DX2                !
 ! A96   A(46,47,48)           122.0227         estimate D2E/DX2                !
 ! A97   A(46,47,52)           118.9357         estimate D2E/DX2                !
 ! A98   A(48,47,52)           119.0416         estimate D2E/DX2                !
 ! A99   A(47,48,49)           116.5746         estimate D2E/DX2                !
 ! A100  A(47,48,53)           121.8822         estimate D2E/DX2                !
 ! A101  A(49,48,53)           121.5429         estimate D2E/DX2                !
 ! A102  A(43,49,48)           133.1005         estimate D2E/DX2                !
 ! A103  A(43,49,50)           105.6558         estimate D2E/DX2                !
 ! A104  A(48,49,50)           121.2435         estimate D2E/DX2                !
 ! A105  A(44,50,45)           130.2344         estimate D2E/DX2                !
 ! A106  A(44,50,49)           107.0588         estimate D2E/DX2                !
 ! A107  A(45,50,49)           122.7024         estimate D2E/DX2                !
 ! A108  A(45,54,55)           115.7254         estimate D2E/DX2                !
 ! A109  A(45,54,56)           120.8119         estimate D2E/DX2                !
 ! A110  A(55,54,56)           123.4472         estimate D2E/DX2                !
 ! A111  A(54,56,57)           120.4197         estimate D2E/DX2                !
 ! A112  A(56,57,58)           117.0333         estimate D2E/DX2                !
 ! A113  A(56,57,59)           108.6297         estimate D2E/DX2                !
 ! A114  A(56,57,60)           105.0595         estimate D2E/DX2                !
 ! A115  A(58,57,59)           110.857          estimate D2E/DX2                !
 ! A116  A(58,57,60)           107.8192         estimate D2E/DX2                !
 ! A117  A(59,57,60)           106.8349         estimate D2E/DX2                !
 ! A118  A(57,58,61)           110.8908         estimate D2E/DX2                !
 ! A119  A(57,58,62)           109.1437         estimate D2E/DX2                !
 ! A120  A(57,58,63)           110.1869         estimate D2E/DX2                !
 ! A121  A(61,58,62)           109.403          estimate D2E/DX2                !
 ! A122  A(61,58,63)           110.1119         estimate D2E/DX2                !
 ! A123  A(62,58,63)           107.0161         estimate D2E/DX2                !
 ! A124  A(57,59,64)           111.1469         estimate D2E/DX2                !
 ! A125  A(57,59,65)           108.3392         estimate D2E/DX2                !
 ! A126  A(57,59,66)           109.2342         estimate D2E/DX2                !
 ! A127  A(64,59,65)           109.9049         estimate D2E/DX2                !
 ! A128  A(64,59,66)           110.8806         estimate D2E/DX2                !
 ! A129  A(65,59,66)           107.2203         estimate D2E/DX2                !
 ! A130  A(58,61,67)           111.5605         estimate D2E/DX2                !
 ! A131  A(58,61,68)           109.7061         estimate D2E/DX2                !
 ! A132  A(58,61,69)           109.1737         estimate D2E/DX2                !
 ! A133  A(67,61,68)           110.4463         estimate D2E/DX2                !
 ! A134  A(67,61,69)           109.1473         estimate D2E/DX2                !
 ! A135  A(68,61,69)           106.6745         estimate D2E/DX2                !
 ! A136  A(59,64,67)           111.5606         estimate D2E/DX2                !
 ! A137  A(59,64,70)           109.949          estimate D2E/DX2                !
 ! A138  A(59,64,71)           108.9776         estimate D2E/DX2                !
 ! A139  A(67,64,70)           110.3944         estimate D2E/DX2                !
 ! A140  A(67,64,71)           109.0391         estimate D2E/DX2                !
 ! A141  A(70,64,71)           106.7874         estimate D2E/DX2                !
 ! A142  A(61,67,64)           111.1409         estimate D2E/DX2                !
 ! A143  A(61,67,72)           110.1299         estimate D2E/DX2                !
 ! A144  A(61,67,73)           109.0974         estimate D2E/DX2                !
 ! A145  A(64,67,72)           110.125          estimate D2E/DX2                !
 ! A146  A(64,67,73)           109.2496         estimate D2E/DX2                !
 ! A147  A(72,67,73)           106.997          estimate D2E/DX2                !
 ! D1    D(6,1,2,3)              0.1968         estimate D2E/DX2                !
 ! D2    D(6,1,2,21)          -179.6092         estimate D2E/DX2                !
 ! D3    D(41,1,2,3)          -179.9277         estimate D2E/DX2                !
 ! D4    D(41,1,2,21)            0.2664         estimate D2E/DX2                !
 ! D5    D(2,1,6,5)             -0.12           estimate D2E/DX2                !
 ! D6    D(2,1,6,42)           179.8974         estimate D2E/DX2                !
 ! D7    D(41,1,6,5)          -179.9685         estimate D2E/DX2                !
 ! D8    D(41,1,6,42)            0.0488         estimate D2E/DX2                !
 ! D9    D(2,1,41,7)            -0.2885         estimate D2E/DX2                !
 ! D10   D(6,1,41,7)           179.5715         estimate D2E/DX2                !
 ! D11   D(1,2,3,4)             -0.0631         estimate D2E/DX2                !
 ! D12   D(1,2,3,8)            179.8715         estimate D2E/DX2                !
 ! D13   D(21,2,3,4)           179.6787         estimate D2E/DX2                !
 ! D14   D(21,2,3,8)            -0.3867         estimate D2E/DX2                !
 ! D15   D(1,2,21,7)            -0.1372         estimate D2E/DX2                !
 ! D16   D(1,2,21,75)         -179.9888         estimate D2E/DX2                !
 ! D17   D(3,2,21,7)          -179.9117         estimate D2E/DX2                !
 ! D18   D(3,2,21,75)            0.2367         estimate D2E/DX2                !
 ! D19   D(2,3,4,5)             -0.1436         estimate D2E/DX2                !
 ! D20   D(2,3,4,9)            179.8203         estimate D2E/DX2                !
 ! D21   D(8,3,4,5)            179.9216         estimate D2E/DX2                !
 ! D22   D(8,3,4,9)             -0.1144         estimate D2E/DX2                !
 ! D23   D(3,4,5,6)              0.2198         estimate D2E/DX2                !
 ! D24   D(3,4,5,10)           179.8499         estimate D2E/DX2                !
 ! D25   D(9,4,5,6)           -179.7442         estimate D2E/DX2                !
 ! D26   D(9,4,5,10)            -0.1142         estimate D2E/DX2                !
 ! D27   D(4,5,6,1)             -0.0808         estimate D2E/DX2                !
 ! D28   D(4,5,6,42)           179.9011         estimate D2E/DX2                !
 ! D29   D(10,5,6,1)          -179.7074         estimate D2E/DX2                !
 ! D30   D(10,5,6,42)            0.2744         estimate D2E/DX2                !
 ! D31   D(1,6,42,43)            2.7694         estimate D2E/DX2                !
 ! D32   D(1,6,42,44)         -177.8147         estimate D2E/DX2                !
 ! D33   D(5,6,42,43)         -177.2122         estimate D2E/DX2                !
 ! D34   D(5,6,42,44)            2.2037         estimate D2E/DX2                !
 ! D35   D(21,7,16,11)           0.6332         estimate D2E/DX2                !
 ! D36   D(21,7,16,15)        -179.1995         estimate D2E/DX2                !
 ! D37   D(41,7,16,11)         179.9545         estimate D2E/DX2                !
 ! D38   D(41,7,16,15)           0.1218         estimate D2E/DX2                !
 ! D39   D(16,7,21,2)          179.371          estimate D2E/DX2                !
 ! D40   D(16,7,21,75)          -0.7639         estimate D2E/DX2                !
 ! D41   D(41,7,21,2)           -0.0383         estimate D2E/DX2                !
 ! D42   D(41,7,21,75)         179.8269         estimate D2E/DX2                !
 ! D43   D(16,7,41,1)         -179.1762         estimate D2E/DX2                !
 ! D44   D(21,7,41,1)            0.2012         estimate D2E/DX2                !
 ! D45   D(16,11,12,13)         -0.3424         estimate D2E/DX2                !
 ! D46   D(16,11,12,40)        179.9967         estimate D2E/DX2                !
 ! D47   D(39,11,12,13)        179.5111         estimate D2E/DX2                !
 ! D48   D(39,11,12,40)         -0.1499         estimate D2E/DX2                !
 ! D49   D(12,11,16,7)        -179.4039         estimate D2E/DX2                !
 ! D50   D(12,11,16,15)          0.4356         estimate D2E/DX2                !
 ! D51   D(39,11,16,7)           0.7755         estimate D2E/DX2                !
 ! D52   D(39,11,16,15)       -179.3851         estimate D2E/DX2                !
 ! D53   D(12,11,39,17)          0.0168         estimate D2E/DX2                !
 ! D54   D(16,11,39,17)        179.8509         estimate D2E/DX2                !
 ! D55   D(11,12,13,14)          0.1243         estimate D2E/DX2                !
 ! D56   D(11,12,13,18)        179.9977         estimate D2E/DX2                !
 ! D57   D(40,12,13,14)        179.677          estimate D2E/DX2                !
 ! D58   D(40,12,13,18)         -0.4496         estimate D2E/DX2                !
 ! D59   D(11,12,40,17)          0.2216         estimate D2E/DX2                !
 ! D60   D(11,12,40,76)        179.5567         estimate D2E/DX2                !
 ! D61   D(13,12,40,17)       -179.3889         estimate D2E/DX2                !
 ! D62   D(13,12,40,76)         -0.0538         estimate D2E/DX2                !
 ! D63   D(12,13,14,15)         -0.0187         estimate D2E/DX2                !
 ! D64   D(12,13,14,19)        179.9636         estimate D2E/DX2                !
 ! D65   D(18,13,14,15)       -179.892          estimate D2E/DX2                !
 ! D66   D(18,13,14,19)          0.0903         estimate D2E/DX2                !
 ! D67   D(13,14,15,16)          0.1355         estimate D2E/DX2                !
 ! D68   D(13,14,15,20)        179.899          estimate D2E/DX2                !
 ! D69   D(19,14,15,16)       -179.8469         estimate D2E/DX2                !
 ! D70   D(19,14,15,20)         -0.0833         estimate D2E/DX2                !
 ! D71   D(14,15,16,7)         179.4977         estimate D2E/DX2                !
 ! D72   D(14,15,16,11)         -0.341          estimate D2E/DX2                !
 ! D73   D(20,15,16,7)          -0.2686         estimate D2E/DX2                !
 ! D74   D(20,15,16,11)        179.8927         estimate D2E/DX2                !
 ! D75   D(39,17,23,22)        179.3099         estimate D2E/DX2                !
 ! D76   D(39,17,23,24)         -0.6002         estimate D2E/DX2                !
 ! D77   D(40,17,23,22)         -0.0798         estimate D2E/DX2                !
 ! D78   D(40,17,23,24)       -179.9899         estimate D2E/DX2                !
 ! D79   D(23,17,39,11)       -179.317          estimate D2E/DX2                !
 ! D80   D(40,17,39,11)          0.1287         estimate D2E/DX2                !
 ! D81   D(23,17,40,12)        179.2363         estimate D2E/DX2                !
 ! D82   D(23,17,40,76)         -0.178          estimate D2E/DX2                !
 ! D83   D(39,17,40,12)         -0.2295         estimate D2E/DX2                !
 ! D84   D(39,17,40,76)       -179.6438         estimate D2E/DX2                !
 ! D85   D(27,22,23,17)       -179.4819         estimate D2E/DX2                !
 ! D86   D(27,22,23,24)          0.4286         estimate D2E/DX2                !
 ! D87   D(38,22,23,17)          0.5865         estimate D2E/DX2                !
 ! D88   D(38,22,23,24)       -179.5029         estimate D2E/DX2                !
 ! D89   D(23,22,27,26)         -0.2584         estimate D2E/DX2                !
 ! D90   D(23,22,27,34)       -179.9377         estimate D2E/DX2                !
 ! D91   D(38,22,27,26)        179.6749         estimate D2E/DX2                !
 ! D92   D(38,22,27,34)         -0.0043         estimate D2E/DX2                !
 ! D93   D(17,23,24,25)        179.3168         estimate D2E/DX2                !
 ! D94   D(17,23,24,28)         -0.4765         estimate D2E/DX2                !
 ! D95   D(22,23,24,25)         -0.5937         estimate D2E/DX2                !
 ! D96   D(22,23,24,28)        179.6129         estimate D2E/DX2                !
 ! D97   D(23,24,25,26)          0.5702         estimate D2E/DX2                !
 ! D98   D(23,24,25,30)       -178.1218         estimate D2E/DX2                !
 ! D99   D(28,24,25,26)       -179.638          estimate D2E/DX2                !
 ! D100  D(28,24,25,30)          1.6699         estimate D2E/DX2                !
 ! D101  D(24,25,26,27)         -0.3945         estimate D2E/DX2                !
 ! D102  D(24,25,26,29)        179.5277         estimate D2E/DX2                !
 ! D103  D(30,25,26,27)        178.3077         estimate D2E/DX2                !
 ! D104  D(30,25,26,29)         -1.7701         estimate D2E/DX2                !
 ! D105  D(24,25,30,31)        -22.4859         estimate D2E/DX2                !
 ! D106  D(24,25,30,32)         96.9138         estimate D2E/DX2                !
 ! D107  D(24,25,30,33)       -144.6288         estimate D2E/DX2                !
 ! D108  D(26,25,30,31)        158.8306         estimate D2E/DX2                !
 ! D109  D(26,25,30,32)        -81.7696         estimate D2E/DX2                !
 ! D110  D(26,25,30,33)         36.6878         estimate D2E/DX2                !
 ! D111  D(25,26,27,22)          0.2481         estimate D2E/DX2                !
 ! D112  D(25,26,27,34)        179.9099         estimate D2E/DX2                !
 ! D113  D(29,26,27,22)       -179.6735         estimate D2E/DX2                !
 ! D114  D(29,26,27,34)         -0.0117         estimate D2E/DX2                !
 ! D115  D(22,27,34,35)        -61.1614         estimate D2E/DX2                !
 ! D116  D(22,27,34,36)         56.6755         estimate D2E/DX2                !
 ! D117  D(22,27,34,37)        177.7607         estimate D2E/DX2                !
 ! D118  D(26,27,34,35)        119.1711         estimate D2E/DX2                !
 ! D119  D(26,27,34,36)       -122.9921         estimate D2E/DX2                !
 ! D120  D(26,27,34,37)         -1.9069         estimate D2E/DX2                !
 ! D121  D(6,42,43,49)         179.421          estimate D2E/DX2                !
 ! D122  D(6,42,43,74)          -1.6262         estimate D2E/DX2                !
 ! D123  D(44,42,43,49)         -0.1007         estimate D2E/DX2                !
 ! D124  D(44,42,43,74)        178.852          estimate D2E/DX2                !
 ! D125  D(6,42,44,50)        -179.4237         estimate D2E/DX2                !
 ! D126  D(6,42,44,77)           2.4061         estimate D2E/DX2                !
 ! D127  D(43,42,44,50)          0.0632         estimate D2E/DX2                !
 ! D128  D(43,42,44,77)       -178.107          estimate D2E/DX2                !
 ! D129  D(42,43,49,48)        179.9586         estimate D2E/DX2                !
 ! D130  D(42,43,49,50)          0.0972         estimate D2E/DX2                !
 ! D131  D(74,43,49,48)          1.1401         estimate D2E/DX2                !
 ! D132  D(74,43,49,50)       -178.7213         estimate D2E/DX2                !
 ! D133  D(42,44,50,45)       -179.2441         estimate D2E/DX2                !
 ! D134  D(42,44,50,49)         -0.0029         estimate D2E/DX2                !
 ! D135  D(77,44,50,45)         -0.8484         estimate D2E/DX2                !
 ! D136  D(77,44,50,49)        178.3928         estimate D2E/DX2                !
 ! D137  D(50,45,46,47)         -0.6816         estimate D2E/DX2                !
 ! D138  D(50,45,46,51)       -179.9767         estimate D2E/DX2                !
 ! D139  D(54,45,46,47)        177.4119         estimate D2E/DX2                !
 ! D140  D(54,45,46,51)         -1.8831         estimate D2E/DX2                !
 ! D141  D(46,45,50,44)       -179.9774         estimate D2E/DX2                !
 ! D142  D(46,45,50,49)          0.8847         estimate D2E/DX2                !
 ! D143  D(54,45,50,44)          1.896          estimate D2E/DX2                !
 ! D144  D(54,45,50,49)       -177.2419         estimate D2E/DX2                !
 ! D145  D(46,45,54,55)          2.5063         estimate D2E/DX2                !
 ! D146  D(46,45,54,56)       -176.1105         estimate D2E/DX2                !
 ! D147  D(50,45,54,55)       -179.508          estimate D2E/DX2                !
 ! D148  D(50,45,54,56)          1.8752         estimate D2E/DX2                !
 ! D149  D(45,46,47,48)          0.2211         estimate D2E/DX2                !
 ! D150  D(45,46,47,52)       -179.7498         estimate D2E/DX2                !
 ! D151  D(51,46,47,48)        179.5114         estimate D2E/DX2                !
 ! D152  D(51,46,47,52)         -0.4594         estimate D2E/DX2                !
 ! D153  D(46,47,48,49)          0.0851         estimate D2E/DX2                !
 ! D154  D(46,47,48,53)       -179.7126         estimate D2E/DX2                !
 ! D155  D(52,47,48,49)       -179.9442         estimate D2E/DX2                !
 ! D156  D(52,47,48,53)          0.2582         estimate D2E/DX2                !
 ! D157  D(47,48,49,43)       -179.735          estimate D2E/DX2                !
 ! D158  D(47,48,49,50)          0.1089         estimate D2E/DX2                !
 ! D159  D(53,48,49,43)          0.0634         estimate D2E/DX2                !
 ! D160  D(53,48,49,50)        179.9073         estimate D2E/DX2                !
 ! D161  D(43,49,50,44)         -0.0564         estimate D2E/DX2                !
 ! D162  D(43,49,50,45)        179.2553         estimate D2E/DX2                !
 ! D163  D(48,49,50,44)       -179.938          estimate D2E/DX2                !
 ! D164  D(48,49,50,45)         -0.6264         estimate D2E/DX2                !
 ! D165  D(45,54,56,57)        178.0096         estimate D2E/DX2                !
 ! D166  D(55,54,56,57)         -0.497          estimate D2E/DX2                !
 ! D167  D(54,56,57,58)         -0.8324         estimate D2E/DX2                !
 ! D168  D(54,56,57,59)        125.5965         estimate D2E/DX2                !
 ! D169  D(54,56,57,60)       -120.3742         estimate D2E/DX2                !
 ! D170  D(56,57,58,61)       -178.4207         estimate D2E/DX2                !
 ! D171  D(56,57,58,62)         60.989          estimate D2E/DX2                !
 ! D172  D(56,57,58,63)        -56.2482         estimate D2E/DX2                !
 ! D173  D(59,57,58,61)         56.2558         estimate D2E/DX2                !
 ! D174  D(59,57,58,62)        -64.3346         estimate D2E/DX2                !
 ! D175  D(59,57,58,63)        178.4282         estimate D2E/DX2                !
 ! D176  D(60,57,58,61)        -60.3602         estimate D2E/DX2                !
 ! D177  D(60,57,58,62)        179.0495         estimate D2E/DX2                !
 ! D178  D(60,57,58,63)         61.8123         estimate D2E/DX2                !
 ! D179  D(56,57,59,64)        174.0882         estimate D2E/DX2                !
 ! D180  D(56,57,59,65)        -65.0618         estimate D2E/DX2                !
 ! D181  D(56,57,59,66)         51.4244         estimate D2E/DX2                !
 ! D182  D(58,57,59,64)        -55.9919         estimate D2E/DX2                !
 ! D183  D(58,57,59,65)         64.8581         estimate D2E/DX2                !
 ! D184  D(58,57,59,66)       -178.6557         estimate D2E/DX2                !
 ! D185  D(60,57,59,64)         61.2289         estimate D2E/DX2                !
 ! D186  D(60,57,59,65)       -177.9211         estimate D2E/DX2                !
 ! D187  D(60,57,59,66)        -61.4349         estimate D2E/DX2                !
 ! D188  D(57,58,61,67)        -56.0045         estimate D2E/DX2                !
 ! D189  D(57,58,61,68)       -178.7224         estimate D2E/DX2                !
 ! D190  D(57,58,61,69)         64.7116         estimate D2E/DX2                !
 ! D191  D(62,58,61,67)         64.4319         estimate D2E/DX2                !
 ! D192  D(62,58,61,68)        -58.286          estimate D2E/DX2                !
 ! D193  D(62,58,61,69)       -174.852          estimate D2E/DX2                !
 ! D194  D(63,58,61,67)       -178.2207         estimate D2E/DX2                !
 ! D195  D(63,58,61,68)         59.0614         estimate D2E/DX2                !
 ! D196  D(63,58,61,69)        -57.5046         estimate D2E/DX2                !
 ! D197  D(57,59,64,67)         55.2299         estimate D2E/DX2                !
 ! D198  D(57,59,64,70)        178.0522         estimate D2E/DX2                !
 ! D199  D(57,59,64,71)        -65.2209         estimate D2E/DX2                !
 ! D200  D(65,59,64,67)        -64.6944         estimate D2E/DX2                !
 ! D201  D(65,59,64,70)         58.1279         estimate D2E/DX2                !
 ! D202  D(65,59,64,71)        174.8548         estimate D2E/DX2                !
 ! D203  D(66,59,64,67)        176.9387         estimate D2E/DX2                !
 ! D204  D(66,59,64,70)        -60.239          estimate D2E/DX2                !
 ! D205  D(66,59,64,71)         56.4878         estimate D2E/DX2                !
 ! D206  D(58,61,67,64)         54.9892         estimate D2E/DX2                !
 ! D207  D(58,61,67,72)        177.3083         estimate D2E/DX2                !
 ! D208  D(58,61,67,73)        -65.5378         estimate D2E/DX2                !
 ! D209  D(68,61,67,64)        177.2825         estimate D2E/DX2                !
 ! D210  D(68,61,67,72)        -60.3983         estimate D2E/DX2                !
 ! D211  D(68,61,67,73)         56.7555         estimate D2E/DX2                !
 ! D212  D(69,61,67,64)        -65.7423         estimate D2E/DX2                !
 ! D213  D(69,61,67,72)         56.5768         estimate D2E/DX2                !
 ! D214  D(69,61,67,73)        173.7307         estimate D2E/DX2                !
 ! D215  D(59,64,67,61)        -54.5796         estimate D2E/DX2                !
 ! D216  D(59,64,67,72)       -176.9016         estimate D2E/DX2                !
 ! D217  D(59,64,67,73)         65.8575         estimate D2E/DX2                !
 ! D218  D(70,64,67,61)       -177.147          estimate D2E/DX2                !
 ! D219  D(70,64,67,72)         60.531          estimate D2E/DX2                !
 ! D220  D(70,64,67,73)        -56.7099         estimate D2E/DX2                !
 ! D221  D(71,64,67,61)         65.8351         estimate D2E/DX2                !
 ! D222  D(71,64,67,72)        -56.4869         estimate D2E/DX2                !
 ! D223  D(71,64,67,73)       -173.7278         estimate D2E/DX2                !
 --------------------------------------------------------------------------------
 Trust Radius=3.00D-01 FncErr=1.00D-07 GrdErr=1.00D-07 EigMax=2.50D+02 EigMin=1.00D-04
 Number of steps in this run=    462 maximum allowed number of steps=    462.
 GradGradGradGradGradGradGradGradGradGradGradGradGradGradGradGradGradGrad

 Leave Link  103 at Sun Dec 16 14:44:00 2018, MaxMem=  1342177280 cpu:               0.5 elap:               0.1
 (Enter /gpfs/apps/hpc/Apps/Restricted/Gaussian/Rev_A.03/g16/l202.exe)
 Symmetry turned off by external request.
 Stoichiometry    C36H33N7O(1+,2)
 Framework group  C1[X(C36H33N7O)]
 Deg. of freedom   225
 Full point group                 C1      NOp   1
                          Input orientation:                          
 ---------------------------------------------------------------------
 Center     Atomic      Atomic             Coordinates (Angstroms)
 Number     Number       Type             X           Y           Z
 ---------------------------------------------------------------------
      1          6           0        1.624015    0.478549    0.981629
      2          6           0        0.544988    1.349660    0.691240
      3          6           0        0.714793    2.725093    0.566293
      4          6           0        2.007755    3.225140    0.741475
      5          6           0        3.091591    2.388484    1.033228
      6          6           0        2.924426    1.001382    1.158462
      7          6           0       -0.128891   -0.762639    0.813546
      8          1           0       -0.116456    3.381113    0.342172
      9          1           0        2.178718    4.290499    0.648731
     10          1           0        4.073765    2.826990    1.156995
     11          6           0       -2.426689   -1.692709    0.532767
     12          6           0       -3.306152   -2.807733    0.532813
     13          6           0       -2.868586   -4.109411    0.776169
     14          6           0       -1.508221   -4.275986    1.026808
     15          6           0       -0.616830   -3.190177    1.034835
     16          6           0       -1.050043   -1.883380    0.794003
     17          6           0       -4.393056   -0.924579    0.087679
     18          1           0       -3.553137   -4.948279    0.772435
     19          1           0       -1.122379   -5.269316    1.221868
     20          1           0        0.433732   -3.358444    1.235267
     21          7           0       -0.550926    0.520325    0.594310
     22          6           0       -6.852519   -0.611114   -0.408797
     23          6           0       -5.504950   -0.054095   -0.238030
     24          6           0       -5.301408    1.309195   -0.391899
     25          6           0       -6.354702    2.176294   -0.721036
     26          6           0       -7.661308    1.649278   -0.888989
     27          6           0       -7.933853    0.311137   -0.748062
     28          1           0       -4.302714    1.707119   -0.256669
     29          1           0       -8.467441    2.332875   -1.135797
     30          6           0       -6.106489    3.639408   -0.923765
     31          1           0       -5.194301    3.960417   -0.419024
     32          1           0       -5.991696    3.856150   -1.992524
     33          1           0       -6.948237    4.234849   -0.563604
     34          6           0       -9.305412   -0.260193   -0.919738
     35          1           0       -9.323565   -0.988541   -1.736306
     36          1           0       -9.615590   -0.797321   -0.018906
     37          1           0      -10.029145    0.526757   -1.131092
     38          8           0       -7.096058   -1.838951   -0.271868
     39          7           0       -3.121599   -0.537769    0.254625
     40          7           0       -4.539161   -2.275669    0.250148
     41          7           0        1.184599   -0.824821    1.048780
     42          6           0        4.006418    0.096562    1.455406
     43          7           0        3.854746   -1.243425    1.522038
     44          7           0        5.302559    0.379566    1.699255
     45          6           0        7.345399   -1.005267    2.229313
     46          6           0        7.725899   -2.340028    2.397291
     47          6           0        6.803363   -3.395306    2.280886
     48          6           0        5.459566   -3.172893    1.987405
     49          6           0        5.070605   -1.844429    1.811536
     50          6           0        5.994198   -0.794957    1.924431
     51          1           0        8.760263   -2.561036    2.634943
     52          1           0        7.148867   -4.411428    2.424371
     53          1           0        4.750849   -3.986150    1.902878
     54          6           0        8.272285    0.115160    2.398901
     55          1           0        9.305590   -0.154799    2.626812
     56          7           0        7.862721    1.324605    2.307518
     57          6           0        8.787676    2.438311    2.521451
     58          6           0       10.235984    2.082996    2.872644
     59          6           0        8.733122    3.364647    1.295263
     60          1           0        8.365364    3.002305    3.365700
     61          6           0       11.068781    3.349086    3.103828
     62          1           0       10.673819    1.503940    2.050368
     63          1           0       10.263568    1.446736    3.762592
     64          6           0        9.570686    4.628040    1.519217
     65          1           0        9.115177    2.812141    0.428023
     66          1           0        7.690609    3.620424    1.082805
     67          6           0       11.017313    4.285941    1.892372
     68          1           0       12.103290    3.073952    3.330591
     69          1           0       10.683427    3.878078    3.984487
     70          1           0        9.546255    5.255659    0.623581
     71          1           0        9.121253    5.214988    2.329780
     72          1           0       11.579173    5.201765    2.100352
     73          1           0       11.504883    3.797221    1.039709
     74          1           0        2.929999   -1.663467    1.382132
     75          1           0       -1.524687    0.746492    0.396778
     76          1           0       -5.448362   -2.718869    0.148375
     77          1           0        5.785902    1.274809    1.758841
 ---------------------------------------------------------------------
 Rotational constants (GHZ):           0.1708402           0.0235165           0.0207370
 Leave Link  202 at Sun Dec 16 14:44:00 2018, MaxMem=  1342177280 cpu:               0.5 elap:               0.1
 (Enter /gpfs/apps/hpc/Apps/Restricted/Gaussian/Rev_A.03/g16/l716.exe)
 Electric field and nuclear coordinate derivatives read from checkpoint file.
 Dipole        = 4.13646837D+00 1.00633455D+00 2.01814101D+00
 Polarizability= 1.05837588D+03-5.95727952D+01 8.92307065D+02
                 1.60761928D+02-8.54082098D+01 2.84040925D+02
 Full mass-weighted force constant matrix:
 Low frequencies ---   -6.5045   -0.0033   -0.0006    0.0029    5.7739   12.6371
 Low frequencies ---   22.6620   24.5779   31.3522
 Diagonal vibrational polarizability:
      178.6314915      47.4727059     131.3668854
 Harmonic frequencies (cm**-1), IR intensities (KM/Mole), Raman scattering
 activities (A**4/AMU), depolarization ratios for plane and unpolarized
 incident light, reduced masses (AMU), force constants (mDyne/A),
 and normal coordinates:
                      1                      2                      3
                      A                      A                      A
 Frequencies --     18.6212                24.0534                28.4645
 Red. masses --      6.8579                 5.2602                 5.8701
 Frc consts  --      0.0014                 0.0018                 0.0028
 IR Inten    --      0.0655                 0.6860                 0.3703
  Atom  AN      X      Y      Z        X      Y      Z        X      Y      Z
     1   6    -0.03   0.02   0.16    -0.01   0.07  -0.02    -0.02  -0.01   0.01
     2   6    -0.04   0.02   0.18    -0.02   0.07  -0.02    -0.02  -0.01   0.02
     3   6    -0.04   0.03   0.20    -0.02   0.07  -0.03    -0.03  -0.02   0.01
     4   6    -0.04   0.03   0.20    -0.02   0.07  -0.03    -0.03  -0.01  -0.01
     5   6    -0.04   0.03   0.18    -0.02   0.08  -0.03    -0.02  -0.01  -0.02
     6   6    -0.03   0.02   0.16    -0.01   0.08  -0.02    -0.01  -0.01  -0.01
     7   6    -0.02   0.02   0.12    -0.01   0.07  -0.01    -0.02  -0.01   0.06
     8   1    -0.05   0.03   0.22    -0.02   0.06  -0.04    -0.03  -0.02   0.02
     9   1    -0.05   0.03   0.22    -0.02   0.07  -0.04    -0.03  -0.01  -0.02
    10   1    -0.04   0.03   0.17    -0.02   0.08  -0.03    -0.02  -0.00  -0.04
    11   6    -0.00  -0.00   0.01     0.00   0.03  -0.00    -0.02  -0.01   0.08
    12   6     0.01  -0.01  -0.05     0.02   0.01   0.01    -0.03  -0.00   0.12
    13   6     0.01  -0.01  -0.05     0.05   0.02   0.01    -0.05   0.01   0.19
    14   6     0.00  -0.00   0.01     0.05   0.05   0.02    -0.05   0.01   0.21
    15   6    -0.01   0.01   0.06     0.03   0.06   0.01    -0.04  -0.00   0.17
    16   6    -0.01   0.01   0.07     0.00   0.06   0.00    -0.02  -0.01   0.10
    17   6     0.01  -0.01  -0.05    -0.01  -0.01  -0.00    -0.00  -0.01   0.03
    18   1     0.02  -0.02  -0.10     0.06   0.01   0.02    -0.05   0.01   0.22
    19   1     0.00  -0.00   0.00     0.07   0.06   0.02    -0.06   0.01   0.26
    20   1    -0.02   0.02   0.10     0.03   0.08   0.02    -0.04  -0.01   0.19
    21   7    -0.03   0.02   0.16    -0.01   0.06  -0.02    -0.02  -0.02   0.05
    22   6     0.02  -0.02  -0.10    -0.02  -0.07   0.00     0.01   0.01  -0.02
    23   6     0.01  -0.01  -0.06    -0.04  -0.04  -0.00     0.01  -0.00  -0.02
    24   6     0.01  -0.01  -0.04    -0.07  -0.03  -0.00     0.03  -0.01  -0.05
    25   6     0.01  -0.01  -0.05    -0.09  -0.06  -0.00     0.05  -0.01  -0.09
    26   6     0.02  -0.01  -0.08    -0.08  -0.09   0.00     0.04   0.00  -0.09
    27   6     0.02  -0.01  -0.10    -0.05  -0.10   0.00     0.02   0.01  -0.06
    28   1     0.00  -0.00  -0.01    -0.08  -0.01   0.00     0.04  -0.02  -0.05
    29   1     0.02  -0.01  -0.08    -0.10  -0.12  -0.00     0.05   0.01  -0.12
    30   6     0.01  -0.00  -0.02    -0.13  -0.06  -0.01     0.06  -0.01  -0.12
    31   1     0.01  -0.01  -0.01    -0.14  -0.03   0.00     0.07  -0.02  -0.13
    32   1     0.01   0.01  -0.02    -0.11  -0.06  -0.01     0.05  -0.03  -0.12
    33   1     0.01  -0.01  -0.01    -0.15  -0.07  -0.03     0.07   0.00  -0.12
    34   6     0.02  -0.02  -0.12    -0.03  -0.13   0.01     0.02   0.02  -0.07
    35   1     0.03  -0.01  -0.13    -0.02  -0.14   0.02     0.02   0.02  -0.06
    36   1     0.01  -0.02  -0.13    -0.02  -0.13   0.02     0.01   0.03  -0.07
    37   1     0.02  -0.02  -0.13    -0.05  -0.15  -0.00     0.03   0.03  -0.08
    38   8     0.02  -0.02  -0.13     0.01  -0.08   0.00    -0.01   0.02   0.01
    39   7    -0.00  -0.00   0.01    -0.02   0.01  -0.01    -0.00  -0.01   0.02
    40   7     0.01  -0.02  -0.09     0.01  -0.01   0.00    -0.02   0.00   0.08
    41   7    -0.03   0.02   0.13    -0.01   0.07  -0.01    -0.01  -0.01   0.03
    42   6    -0.03   0.02   0.12    -0.01   0.07  -0.02    -0.00  -0.00  -0.04
    43   7    -0.03   0.02   0.11    -0.04   0.07  -0.01     0.01  -0.01  -0.07
    44   7    -0.01   0.01   0.07    -0.01   0.05  -0.02    -0.00   0.00  -0.06
    45   6     0.01  -0.00  -0.05    -0.03   0.01  -0.02     0.02   0.01  -0.13
    46   6     0.01  -0.01  -0.09    -0.06   0.00  -0.02     0.04   0.00  -0.18
    47   6     0.00  -0.00  -0.06    -0.08   0.02  -0.01     0.04  -0.00  -0.20
    48   6    -0.01   0.01   0.02    -0.07   0.05  -0.00     0.04  -0.00  -0.16
    49   6    -0.02   0.01   0.05    -0.05   0.06  -0.01     0.02  -0.00  -0.12
    50   6    -0.01   0.01   0.02    -0.03   0.04  -0.02     0.01   0.00  -0.10
    51   1     0.02  -0.01  -0.16    -0.06  -0.02  -0.02     0.04   0.01  -0.20
    52   1     0.00  -0.01  -0.09    -0.10   0.01  -0.00     0.06  -0.00  -0.24
    53   1    -0.02   0.01   0.04    -0.09   0.06   0.00     0.04  -0.01  -0.17
    54   6     0.02  -0.01  -0.09     0.00  -0.02  -0.02     0.01   0.01  -0.09
    55   1     0.03  -0.02  -0.14    -0.01  -0.06  -0.02     0.01   0.01  -0.11
    56   7     0.02  -0.01  -0.06     0.05  -0.00  -0.01    -0.01   0.01  -0.01
    57   6     0.04  -0.01  -0.09     0.09  -0.04   0.01    -0.01   0.01   0.04
    58   6     0.04  -0.02  -0.11     0.07  -0.10   0.02    -0.02  -0.00   0.06
    59   6     0.02  -0.02  -0.09     0.14  -0.02   0.03     0.01   0.04   0.07
    60   1     0.06  -0.01  -0.08     0.10  -0.04   0.02    -0.03  -0.02   0.05
    61   6     0.04  -0.02  -0.12     0.11  -0.14   0.06    -0.02  -0.01   0.11
    62   1     0.03  -0.02  -0.12     0.06  -0.10   0.02    -0.00   0.02   0.06
    63   1     0.05  -0.02  -0.11     0.04  -0.12   0.01    -0.04  -0.03   0.05
    64   6     0.02  -0.02  -0.11     0.18  -0.05   0.06     0.02   0.03   0.11
    65   1     0.01  -0.02  -0.09     0.13  -0.02   0.02     0.02   0.06   0.06
    66   1     0.02  -0.02  -0.08     0.15   0.02   0.02     0.02   0.05   0.06
    67   6     0.03  -0.02  -0.12     0.16  -0.11   0.08     0.01   0.02   0.13
    68   1     0.05  -0.02  -0.14     0.10  -0.18   0.07    -0.03  -0.02   0.12
    69   1     0.05  -0.02  -0.12     0.12  -0.14   0.06    -0.04  -0.03   0.11
    70   1     0.01  -0.02  -0.11     0.21  -0.04   0.07     0.04   0.05   0.13
    71   1     0.03  -0.02  -0.10     0.19  -0.06   0.07     0.01   0.01   0.12
    72   1     0.03  -0.02  -0.13     0.19  -0.13   0.10     0.01   0.01   0.16
    73   1     0.02  -0.02  -0.13     0.16  -0.11   0.07     0.02   0.03   0.13
    74   1    -0.03   0.02   0.12    -0.04   0.09  -0.01     0.01  -0.01  -0.06
    75   1    -0.03   0.02   0.14    -0.01   0.06  -0.02    -0.02  -0.02   0.05
    76   1     0.02  -0.02  -0.12     0.02  -0.03   0.01    -0.02   0.01   0.09
    77   1    -0.01   0.01   0.05     0.00   0.05  -0.03    -0.01   0.01  -0.03
                      4                      5                      6
                      A                      A                      A
 Frequencies --     45.0925                52.8991                57.4769
 Red. masses --      5.5989                 5.0095                 5.9117
 Frc consts  --      0.0067                 0.0083                 0.0115
 IR Inten    --      0.7353                 0.9669                 0.7060
  Atom  AN      X      Y      Z        X      Y      Z        X      Y      Z
     1   6    -0.06  -0.05  -0.01    -0.00  -0.03  -0.01    -0.02   0.07  -0.04
     2   6    -0.08  -0.07  -0.01     0.01  -0.03  -0.02    -0.04   0.04   0.00
     3   6    -0.11  -0.07  -0.02     0.01  -0.04  -0.07    -0.07   0.05   0.01
     4   6    -0.13  -0.03  -0.01     0.02  -0.04  -0.11    -0.07   0.07  -0.02
     5   6    -0.11  -0.00  -0.00     0.02  -0.04  -0.10    -0.05   0.08  -0.05
     6   6    -0.07  -0.01  -0.00     0.01  -0.04  -0.05    -0.02   0.08  -0.07
     7   6    -0.03  -0.09  -0.02    -0.02  -0.02   0.05     0.01   0.02   0.01
     8   1    -0.13  -0.09  -0.02     0.02  -0.04  -0.08    -0.09   0.04   0.05
     9   1    -0.15  -0.03  -0.01     0.03  -0.05  -0.15    -0.10   0.07  -0.01
    10   1    -0.12   0.02   0.00     0.02  -0.05  -0.13    -0.05   0.10  -0.07
    11   6    -0.02  -0.08  -0.02    -0.03   0.00   0.05     0.05  -0.04   0.04
    12   6    -0.04  -0.07  -0.03    -0.03   0.00   0.01     0.07  -0.05   0.03
    13   6    -0.04  -0.08  -0.05    -0.04   0.00   0.02     0.09  -0.04   0.03
    14   6    -0.04  -0.09  -0.06    -0.05  -0.00   0.06     0.10  -0.01   0.03
    15   6    -0.03  -0.10  -0.05    -0.05  -0.01   0.08     0.08   0.00   0.04
    16   6    -0.02  -0.09  -0.03    -0.03  -0.01   0.07     0.05  -0.01   0.03
    17   6    -0.01  -0.05  -0.00    -0.02   0.01   0.00     0.05  -0.05   0.03
    18   1    -0.05  -0.07  -0.06    -0.05   0.00  -0.00     0.11  -0.05   0.03
    19   1    -0.05  -0.10  -0.08    -0.06  -0.01   0.07     0.11  -0.01   0.04
    20   1    -0.03  -0.11  -0.06    -0.05  -0.02   0.10     0.08   0.02   0.04
    21   7    -0.05  -0.09  -0.02    -0.01  -0.02   0.02    -0.03   0.01   0.03
    22   6    -0.01   0.04   0.03     0.01  -0.00  -0.11     0.07  -0.01  -0.02
    23   6     0.01  -0.01   0.01    -0.01   0.01   0.00     0.07  -0.03   0.03
    24   6     0.06  -0.02  -0.00    -0.04   0.03   0.12     0.10  -0.03   0.07
    25   6     0.09   0.02   0.01    -0.04   0.03   0.13     0.13  -0.01   0.06
    26   6     0.07   0.07   0.03    -0.02   0.01   0.03     0.13   0.02   0.02
    27   6     0.02   0.08   0.03     0.00  -0.00  -0.09     0.10   0.02  -0.03
    28   1     0.08  -0.06  -0.03    -0.06   0.04   0.22     0.11  -0.06   0.11
    29   1     0.09   0.10   0.03    -0.03   0.01   0.04     0.14   0.04   0.01
    30   6     0.15   0.01  -0.00    -0.07   0.06   0.28     0.16  -0.01   0.12
    31   1     0.18  -0.03  -0.03    -0.08   0.03   0.32     0.19  -0.05   0.11
    32   1     0.11   0.00  -0.01    -0.05   0.15   0.30     0.14   0.04   0.13
    33   1     0.19   0.04   0.03    -0.09   0.01   0.31     0.19   0.00   0.17
    34   6     0.00   0.12   0.04     0.02  -0.02  -0.18     0.09   0.04  -0.07
    35   1    -0.03   0.14   0.03     0.07   0.01  -0.20     0.10   0.06  -0.09
    36   1    -0.00   0.12   0.04    -0.02  -0.05  -0.21     0.07   0.03  -0.09
    37   1     0.02   0.15   0.06     0.02  -0.02  -0.18     0.11   0.06  -0.07
    38   8    -0.05   0.05   0.04     0.03  -0.02  -0.23     0.06  -0.01  -0.05
    39   7    -0.01  -0.07  -0.00    -0.02   0.01   0.04     0.05  -0.05   0.04
    40   7    -0.03  -0.05  -0.02    -0.02   0.01  -0.02     0.06  -0.05   0.02
    41   7    -0.03  -0.06  -0.01    -0.01  -0.03   0.03     0.02   0.06  -0.04
    42   6    -0.05   0.02   0.01     0.01  -0.03  -0.03    -0.03   0.07  -0.08
    43   7    -0.02   0.02   0.04     0.02  -0.02   0.01    -0.06   0.07  -0.09
    44   7    -0.05   0.05  -0.01     0.01  -0.01  -0.05    -0.03   0.03  -0.05
    45   6    -0.02   0.08  -0.00     0.02   0.02  -0.01    -0.08  -0.02   0.02
    46   6    -0.00   0.09   0.02     0.03   0.02   0.03    -0.13  -0.03   0.05
    47   6     0.01   0.08   0.05     0.03   0.01   0.07    -0.15  -0.01   0.02
    48   6     0.00   0.06   0.05     0.03  -0.00   0.07    -0.14   0.03  -0.03
    49   6    -0.01   0.05   0.04     0.02  -0.01   0.02    -0.09   0.04  -0.05
    50   6    -0.02   0.07   0.01     0.02  -0.00  -0.02    -0.06   0.02  -0.03
    51   1     0.00   0.11   0.01     0.03   0.04   0.03    -0.14  -0.06   0.09
    52   1     0.02   0.08   0.06     0.04   0.02   0.10    -0.19  -0.02   0.04
    53   1     0.01   0.05   0.08     0.03  -0.01   0.10    -0.16   0.05  -0.06
    54   6    -0.01   0.08  -0.03     0.02   0.02  -0.03    -0.07  -0.04   0.04
    55   1    -0.01   0.06  -0.02     0.01   0.03  -0.01    -0.08  -0.05   0.07
    56   7     0.02   0.09  -0.04     0.02   0.02  -0.05    -0.05  -0.04   0.02
    57   6     0.07   0.05  -0.03     0.02   0.02  -0.03    -0.05  -0.04   0.00
    58   6     0.05  -0.01  -0.01     0.01   0.01  -0.01    -0.05  -0.04  -0.01
    59   6     0.13   0.07  -0.01     0.04   0.04  -0.02    -0.07  -0.05  -0.00
    60   1     0.08   0.06  -0.02     0.00   0.01  -0.03    -0.05  -0.03   0.00
    61   6     0.09  -0.04   0.03     0.01   0.01   0.02    -0.05  -0.03  -0.03
    62   1     0.04  -0.01  -0.01     0.02   0.02  -0.01    -0.06  -0.05  -0.00
    63   1     0.02  -0.02  -0.02    -0.00   0.01  -0.01    -0.04  -0.03   0.00
    64   6     0.17   0.04   0.02     0.04   0.03   0.01    -0.07  -0.05  -0.02
    65   1     0.12   0.07  -0.01     0.05   0.04  -0.02    -0.08  -0.06  -0.00
    66   1     0.14   0.11  -0.03     0.05   0.04  -0.03    -0.07  -0.06   0.00
    67   6     0.15  -0.02   0.04     0.03   0.02   0.03    -0.07  -0.05  -0.04
    68   1     0.08  -0.08   0.04     0.01   0.00   0.03    -0.05  -0.03  -0.04
    69   1     0.10  -0.04   0.03     0.00  -0.00   0.02    -0.04  -0.03  -0.03
    70   1     0.21   0.05   0.03     0.06   0.04   0.02    -0.08  -0.06  -0.03
    71   1     0.18   0.04   0.02     0.03   0.02   0.01    -0.06  -0.04  -0.02
    72   1     0.18  -0.04   0.07     0.03   0.02   0.05    -0.06  -0.05  -0.05
    73   1     0.15  -0.02   0.04     0.05   0.04   0.03    -0.08  -0.06  -0.04
    74   1    -0.01   0.00   0.04     0.02  -0.03   0.04    -0.08   0.10  -0.09
    75   1    -0.06  -0.12  -0.02    -0.00  -0.01   0.02    -0.04  -0.01   0.06
    76   1    -0.04  -0.03  -0.01    -0.02   0.01  -0.07     0.07  -0.06   0.01
    77   1    -0.07   0.06  -0.04     0.00  -0.01  -0.08    -0.00   0.02  -0.03
                      7                      8                      9
                      A                      A                      A
 Frequencies --     65.9616                73.6531                74.9839
 Red. masses --      5.2166                 4.9087                 4.9827
 Frc consts  --      0.0134                 0.0157                 0.0165
 IR Inten    --      0.2126                 0.2881                 2.2252
  Atom  AN      X      Y      Z        X      Y      Z        X      Y      Z
     1   6    -0.01   0.02   0.04    -0.01  -0.01  -0.02     0.00  -0.01  -0.00
     2   6     0.01   0.00  -0.09     0.00  -0.02  -0.08    -0.01   0.00   0.07
     3   6     0.03  -0.01  -0.18    -0.01  -0.02  -0.07    -0.01   0.01   0.09
     4   6     0.02   0.00  -0.13    -0.03   0.00   0.02    -0.01  -0.00   0.04
     5   6    -0.00   0.02  -0.01    -0.04   0.02   0.09     0.01  -0.01  -0.03
     6   6    -0.01   0.03   0.07    -0.02   0.01   0.06     0.01  -0.01  -0.05
     7   6     0.01   0.01   0.01     0.01  -0.03  -0.09    -0.01   0.00   0.05
     8   1     0.04  -0.02  -0.28    -0.01  -0.03  -0.12    -0.02   0.01   0.15
     9   1     0.03  -0.01  -0.19    -0.04   0.01   0.05    -0.01   0.00   0.05
    10   1    -0.01   0.02   0.02    -0.06   0.03   0.16     0.02  -0.01  -0.07
    11   6     0.03  -0.01  -0.06     0.00  -0.01  -0.04     0.01  -0.01  -0.06
    12   6     0.03  -0.02  -0.06    -0.02   0.00   0.04     0.01  -0.01  -0.08
    13   6     0.03  -0.01   0.01    -0.04   0.01   0.12    -0.01  -0.00   0.01
    14   6     0.01   0.01   0.09    -0.03   0.00   0.10    -0.03   0.01   0.14
    15   6     0.01   0.02   0.10    -0.01  -0.01   0.02    -0.03   0.01   0.15
    16   6     0.02   0.00   0.02     0.00  -0.02  -0.05    -0.01   0.00   0.04
    17   6     0.04  -0.02  -0.11     0.00  -0.01  -0.03     0.02  -0.02  -0.16
    18   1     0.03  -0.01   0.00    -0.05   0.02   0.19    -0.01   0.00  -0.00
    19   1     0.01   0.02   0.15    -0.05   0.01   0.16    -0.05   0.02   0.23
    20   1    -0.00   0.03   0.16    -0.02  -0.02   0.02    -0.05   0.02   0.25
    21   7     0.02  -0.01  -0.11     0.01  -0.03  -0.14    -0.02   0.01   0.10
    22   6     0.02   0.00  -0.01     0.00  -0.00  -0.04     0.00  -0.00  -0.04
    23   6     0.03  -0.01  -0.07     0.00  -0.00  -0.02     0.02  -0.01  -0.12
    24   6     0.04  -0.01  -0.05    -0.01   0.00   0.01     0.01  -0.01  -0.10
    25   6     0.03   0.00   0.03    -0.01   0.01   0.04    -0.01   0.00   0.01
    26   6     0.01   0.02   0.10    -0.01   0.00   0.02    -0.03   0.02   0.12
    27   6     0.01   0.02   0.08    -0.00  -0.00  -0.02    -0.03   0.02   0.10
    28   1     0.05  -0.02  -0.09    -0.01   0.00   0.03     0.02  -0.02  -0.15
    29   1     0.00   0.04   0.18    -0.01   0.01   0.04    -0.05   0.04   0.23
    30   6     0.03   0.00   0.04    -0.02   0.02   0.10    -0.02   0.00   0.01
    31   1     0.04  -0.01   0.03    -0.02   0.00   0.11    -0.01   0.00   0.01
    32   1     0.02   0.01   0.04    -0.02   0.06   0.10    -0.01   0.00   0.01
    33   1     0.04   0.01   0.06    -0.02  -0.00   0.12    -0.01   0.00   0.01
    34   6    -0.00   0.03   0.15     0.00  -0.00  -0.04    -0.04   0.02   0.20
    35   1    -0.05   0.04   0.14     0.01   0.01  -0.05    -0.11   0.03   0.19
    36   1     0.04   0.02   0.15    -0.00  -0.01  -0.04     0.02   0.01   0.22
    37   1    -0.01   0.03   0.19     0.00  -0.00  -0.03    -0.06   0.03   0.27
    38   8     0.02  -0.00  -0.04     0.01  -0.01  -0.06     0.01  -0.01  -0.09
    39   7     0.03  -0.02  -0.09     0.01  -0.02  -0.08     0.02  -0.02  -0.12
    40   7     0.04  -0.02  -0.10    -0.01   0.00   0.04     0.02  -0.02  -0.16
    41   7    -0.01   0.03   0.10     0.00  -0.01  -0.04     0.00  -0.01  -0.01
    42   6    -0.03   0.02   0.12    -0.02   0.02   0.08     0.02  -0.01  -0.09
    43   7    -0.05   0.03   0.17     0.01   0.01  -0.02     0.03  -0.01  -0.11
[...]
 ! A100  A(47,48,53)             0.0204                  1.0                    !
 ! A101  A(49,48,53)             0.024                   1.2                    !
 ! A102  A(43,49,48)            -0.0282                  1.4                    !
 ! A104  A(48,49,50)             0.0256                  1.3                    !
 --------------------------------------------------------------------------------
                           ----------------------------
                           ! Normal Mode   222        !
 --------------------------                            --------------------------
 ! Name  Definition              Value          Relative Weight (%)             !
 --------------------------------------------------------------------------------
 ! R30   R(21,75)               -0.0216                  1.4                    !
 ! R49   R(42,43)                0.0421                  2.7                    !
 ! R51   R(43,49)                0.0484                  3.1                    !
 ! R52   R(43,74)               -1.0708                 67.9                    !
 ! R54   R(44,77)                0.0545                  3.5                    !
 ! A81   A(6,42,43)             -0.026                   1.7                    !
 ! A83   A(43,42,44)             0.0249                  1.6                    !
 ! A84   A(42,43,49)            -0.0505                  3.2                    !
 ! A86   A(49,43,74)             0.0613                  3.9                    !
 ! A102  A(43,49,48)            -0.0255                  1.6                    !
 ! A103  A(43,49,50)             0.0246                  1.6                    !
 --------------------------------------------------------------------------------
                           ----------------------------
                           ! Normal Mode   223        !
 --------------------------                            --------------------------
 ! Name  Definition              Value          Relative Weight (%)             !
 --------------------------------------------------------------------------------
 ! R5    R(2,21)                 0.0495                  3.3                    !
 ! R14   R(7,21)                 0.0438                  2.9                    !
 ! R30   R(21,75)               -1.0725                 71.4                    !
 ! R48   R(40,76)               -0.029                   1.9                    !
 ! R52   R(43,74)                0.0228                  1.5                    !
 ! R54   R(44,77)                0.0192                  1.3                    !
 ! A5    A(1,2,21)               0.0236                  1.6                    !
 ! A6    A(3,2,21)              -0.0248                  1.7                    !
 ! A19   A(16,7,21)             -0.0251                  1.7                    !
 ! A21   A(21,7,41)              0.0247                  1.6                    !
 ! A43   A(2,21,7)              -0.0489                  3.3                    !
 ! A44   A(2,21,75)              0.0494                  3.3                    !
 --------------------------------------------------------------------------------
                           ----------------------------
                           ! Normal Mode   224        !
 --------------------------                            --------------------------
 ! Name  Definition              Value          Relative Weight (%)             !
 --------------------------------------------------------------------------------
 ! R30   R(21,75)                0.0204                  1.3                    !
 ! R50   R(42,44)               -0.0487                  3.1                    !
 ! R52   R(43,74)                0.054                   3.5                    !
 ! R53   R(44,50)               -0.0415                  2.7                    !
 ! R54   R(44,77)                1.0701                 68.7                    !
 ! A82   A(6,42,44)              0.0252                  1.6                    !
 ! A83   A(43,42,44)            -0.0256                  1.6                    !
 ! A87   A(42,44,50)             0.0491                  3.2                    !
 ! A88   A(42,44,77)            -0.0594                  3.8                    !
 ! A105  A(44,50,45)             0.025                   1.6                    !
 ! A106  A(44,50,49)            -0.0246                  1.6                    !
 --------------------------------------------------------------------------------
                           ----------------------------
                           ! Normal Mode   225        !
 --------------------------                            --------------------------
 ! Name  Definition              Value          Relative Weight (%)             !
 --------------------------------------------------------------------------------
 ! R20   R(12,40)                0.0489                  3.3                    !
 ! R29   R(17,40)                0.0422                  2.9                    !
 ! R30   R(21,75)                0.0291                  2.0                    !
 ! R48   R(40,76)               -1.0711                 73.1                    !
 ! A26   A(11,12,40)             0.0232                  1.6                    !
 ! A27   A(13,12,40)            -0.0243                  1.7                    !
 ! A41   A(23,17,40)            -0.0246                  1.7                    !
 ! A42   A(39,17,40)             0.0242                  1.6                    !
 ! A77   A(12,40,17)            -0.048                   3.3                    !
 ! A78   A(12,40,76)             0.0536                  3.7                    !
 --------------------------------------------------------------------------------
 -------------------------------------------------------------------
 Center     Atomic                   Forces (Hartrees/Bohr)
 Number     Number              X              Y              Z
 -------------------------------------------------------------------
      1        6          -0.000000149    0.000000067    0.000000118
      2        6           0.000000243   -0.000000796   -0.000002698
      3        6           0.000000882   -0.000001045   -0.000006932
      4        6           0.000001088   -0.000001005   -0.000008297
      5        6           0.000000547   -0.000000310   -0.000005677
      6        6           0.000000073    0.000000373   -0.000001354
      7        6          -0.000000582    0.000000126    0.000003744
      8        1           0.000001014   -0.000001413   -0.000009090
      9        1           0.000001295   -0.000001300   -0.000011618
     10        1           0.000000737   -0.000000352   -0.000006841
     11        6          -0.000001247    0.000000449    0.000006134
     12        6          -0.000000874    0.000000665    0.000009664
     13        6          -0.000001596    0.000000848    0.000013762
     14        6          -0.000001437    0.000001102    0.000014525
     15        6          -0.000001287    0.000000765    0.000011212
     16        6          -0.000001192    0.000000222    0.000007015
     17        6           0.000000461   -0.000000614    0.000003859
     18        1          -0.000001876    0.000000942    0.000016296
     19        1          -0.000001999    0.000001653    0.000017531
     20        1          -0.000001300    0.000001112    0.000011861
     21        7           0.000000054   -0.000000505   -0.000000307
     22        6          -0.000000576   -0.000001504    0.000002544
     23        6          -0.000000109   -0.000001461    0.000000938
     24        6           0.000000408   -0.000001367   -0.000003367
     25        6           0.000000692   -0.000002603   -0.000006057
     26        6           0.000000736   -0.000002651   -0.000004662
     27        6           0.000000013   -0.000001959   -0.000000536
     28        1           0.000000549   -0.000001976   -0.000004392
     29        1           0.000000871   -0.000003217   -0.000006804
     30        6           0.000001244   -0.000003451   -0.000010565
     31        1           0.000001339   -0.000002056   -0.000011463
     32        1           0.000001498   -0.000006678   -0.000011227
     33        1           0.000001472   -0.000001969   -0.000012573
     34        6           0.000000005   -0.000002297    0.000001023
     35        1          -0.000000184   -0.000004757    0.000003329
     36        1          -0.000000315    0.000000645    0.000002700
     37        1           0.000000280   -0.000002663   -0.000001401
     38        8          -0.000000580   -0.000001310    0.000006251
     39        7           0.000000144   -0.000001319    0.000002810
     40        7          -0.000000912   -0.000000663    0.000008015
     41        7          -0.000000525    0.000000302    0.000003999
     42        6          -0.000000269    0.000000482    0.000001536
     43        7          -0.000000352    0.000000475    0.000005819
     44        7           0.000000218    0.000000814    0.000001078
     45        6          -0.000000780    0.000001663    0.000005344
     46        6          -0.000001128    0.000002399    0.000009632
     47        6          -0.000001290    0.000002194    0.000012773
     48        6          -0.000001444    0.000001814    0.000011826
     49        6          -0.000000981    0.000001907    0.000007621
     50        6          -0.000000735    0.000001283    0.000004491
     51        1          -0.000001235    0.000002635    0.000010343
     52        1          -0.000001818    0.000002515    0.000015895
     53        1          -0.000001668    0.000001686    0.000014314
     54        6          -0.000000314    0.000002238    0.000002218
     55        1          -0.000000369    0.000002441    0.000002905
     56        7           0.000000289    0.000001971   -0.000001968
     57        6           0.000000430    0.000002240   -0.000004966
     58        6           0.000000338    0.000002888   -0.000003981
     59        6           0.000000960   -0.000001315   -0.000008035
     60        1           0.000000506    0.000004950   -0.000006855
     61        6           0.000000692    0.000003418   -0.000007639
     62        1           0.000000235    0.000000151   -0.000001956
     63        1          -0.000000054    0.000005691   -0.000001765
     64        6           0.000001385   -0.000001085   -0.000011753
     65        1           0.000000783   -0.000004309   -0.000006224
     66        1           0.000001035   -0.000001767   -0.000008839
     67        6           0.000001097   -0.000000344   -0.000010634
     68        1           0.000000612    0.000003634   -0.000006714
     69        1           0.000000776    0.000006167   -0.000009278
     70        1           0.000001641   -0.000003840   -0.000013710
     71        1           0.000001423    0.000001567   -0.000013653
     72        1           0.000001433    0.000000050   -0.000013278
     73        1           0.000001108   -0.000003233   -0.000008976
     74        1          -0.000000808    0.000000782    0.000006868
     75        1           0.000000274   -0.000000842   -0.000001054
     76        1          -0.000001087   -0.000000291    0.000009084
     77        1           0.000000194    0.000000945   -0.000001939
 -------------------------------------------------------------------
 Cartesian Forces:  Max     0.000017531 RMS     0.000004995
 FormGI is forming the generalized inverse of G from B-inverse, IUseBI=4.
 GSVD:  received Info=                   1 from GESDD.
 Leave Link  716 at Sun Dec 16 14:44:00 2018, MaxMem=  1342177280 cpu:               7.9 elap:               0.5
 (Enter /gpfs/apps/hpc/Apps/Restricted/Gaussian/Rev_A.03/g16/l9999.exe)

 ----------------------------------------------------------------------

 Electric dipole moment (input orientation):
 (Debye = 10**-18 statcoulomb cm , SI units = C m)
                  (au)            (Debye)         (10**-30 SI)
   Tot        0.471126D+01      0.119748D+02      0.399437D+02
   x          0.413647D+01      0.105139D+02      0.350704D+02
   y          0.100633D+01      0.255785D+01      0.853206D+01
   z          0.201814D+01      0.512960D+01      0.171105D+02

 Dipole polarizability, Alpha (input orientation).
 (esu units = cm**3 , SI units = C**2 m**2 J**-1)
 Alpha(0;0):
               (au)            (10**-24 esu)      (10**-40 SI)
   iso        0.744908D+03      0.110384D+03      0.122819D+03
   aniso      0.780157D+03      0.115607D+03      0.128630D+03
   xx         0.105838D+04      0.156835D+03      0.174503D+03
   yx        -0.595728D+02     -0.882778D+01     -0.982223D+01
   yy         0.892307D+03      0.132226D+03      0.147122D+03
   zx         0.160762D+03      0.238225D+02      0.265061D+02
   zy        -0.854082D+02     -0.126562D+02     -0.140819D+02
   zz         0.284041D+03      0.420905D+02      0.468320D+02

 ----------------------------------------------------------------------

 Dipole orientation:
     6         -0.33476898          0.07625851          3.68230910
     6         -1.00769946          2.05477921          2.00857358
     6         -0.99395396          4.57924787          2.74435770
     6         -0.28398988          5.10249797          5.23325651
     6          0.38231197          3.18526535          6.92998264
     6          0.37328086          0.63867784          6.19410097
     6         -1.27270629         -1.69155057          0.13686883
     1         -1.50793539          6.07606182          1.44854833
     1         -0.24573303          7.04644251          5.87186940
     1          0.92250999          3.69379940          8.83676926
     6         -2.57483155         -2.70952629         -4.27828554
     6         -3.06325793         -4.53111858         -6.18750725
     6         -2.76343808         -7.11915945         -5.78993483
     6         -1.95463878         -7.86258594         -3.39720277
     6         -1.46198347         -6.10065605         -1.47344754
     6         -1.76347508         -3.50535131         -1.85968644
     6         -3.73739723         -0.63678905         -7.59106668
     1         -3.14456684         -8.48239718         -7.26735497
     1         -1.69618850         -9.85421775         -3.00008257
     1         -0.83894792         -6.75004410          0.36394271
     7         -1.59438991          0.84866483         -0.22296247
     6         -5.13081410          0.74729079        -11.94710399
     6         -4.38016033          1.36299676         -9.34817963
     6         -4.28606897          3.86855589         -8.58473389
     6         -4.87133066          5.84899075        -10.24875971
     6         -5.59846645          5.27687357        -12.76533022
     6         -5.73734632          2.83966623        -13.64359005
     1         -3.74044969          4.29412454         -6.65763797
     1         -6.05980087          6.82705922        -14.02670103
     6         -4.68208223          8.54580298         -9.41045421
     1         -4.80571100          8.70297795         -7.35881827
     1         -2.86275310          9.34522429         -9.99765920
     1         -6.15959213          9.69855540        -10.27516159
     6         -6.50380901          2.20410067        -16.28883032
     1         -4.98405522          1.20579720        -17.27395207
     1         -8.13498238          0.93483763        -16.29106236
     1         -6.97793580          3.90860172        -17.34306514
     8         -5.26519934         -1.49371377        -12.73594937
     7         -3.00437934         -0.31202959         -5.19022416
     7         -3.79882296         -3.13775222         -8.24732802
     7         -0.50502395         -2.22615588          2.48149556
     6          1.04627964         -1.40488815          7.86445551
     7          1.13626757         -3.84547550          7.12585879
     7          1.69892992         -1.30719735         10.32660515
     6          2.94005242         -4.56138165         13.58612129
     6          3.32350530         -7.16535643         13.81463782
     6          2.97600082         -8.81995969         11.76380076
     6          2.23884030         -7.96120254          9.38641663
     6          1.86268246         -5.36346100          9.13493077
     6          2.21837137         -3.71832638         11.18233677
     1          3.88378340         -7.92223225         15.63399369
     1          3.29058924        -10.82245961         12.04304430
     1          1.96438631         -9.23898068          7.81383707
     6          3.18693494         -2.81014428         15.71352380
     1          3.77460079         -3.65237421         17.50347940
     7          2.68220822         -0.45912288         15.44820480
     6          2.85550448          1.26239846         17.60558823
     6          3.62079522          0.11128922         20.14944630
     6          4.61266729          3.46548953         16.89639757
     1          0.94746365          2.05815121         17.81596895
     6          3.64749610          2.12747851         22.22939826
     1          5.50962008         -0.72473838         19.97652929
     1          2.32607886         -1.41873240         20.65879486
     6          4.65618050          5.47848023         18.97731830
     1          6.52098875          2.71002118         16.60524885
     1          3.99487327          4.27782175         15.09795105
     6          5.38029008          4.34310076         21.54149957
     1          4.23939644          1.27594606         24.01833226
     1          1.71987698          2.83533253         22.51644530
     1          5.96522078          6.99420779         18.46510891
     1          2.77474347          6.33655062         19.12469807
     1          5.29672049          5.79511656         23.01175263
     1          7.34038109          3.67225518         21.46296563
     1          0.66821864         -4.32796491          5.30874193
     1         -2.16979946          1.58374684         -1.90720798
     1         -4.31087306         -3.68185683        -10.01713193
     1          1.79838021          0.18654962         11.53815312

 Electric dipole moment (dipole orientation):
 (Debye = 10**-18 statcoulomb cm , SI units = C m)
                  (au)            (Debye)         (10**-30 SI)
   Tot        0.471126D+01      0.119748D+02      0.399437D+02
   x          0.000000D+00      0.000000D+00      0.000000D+00
   y          0.000000D+00      0.000000D+00      0.000000D+00
   z          0.471126D+01      0.119748D+02      0.399437D+02

 Dipole polarizability, Alpha (dipole orientation).
 (esu units = cm**3 , SI units = C**2 m**2 J**-1)
 Alpha(0;0):
               (au)            (10**-24 esu)      (10**-40 SI)
   iso        0.744908D+03      0.110384D+03      0.122819D+03
   aniso      0.780157D+03      0.115607D+03      0.128630D+03
   xx         0.316162D+03      0.468503D+02      0.521280D+02
   yx        -0.787616D+02     -0.116713D+02     -0.129860D+02
   yy         0.926900D+03      0.137352D+03      0.152825D+03
   zx         0.225490D+03      0.334142D+02      0.371783D+02
   zy        -0.831631D+02     -0.123235D+02     -0.137118D+02
   zz         0.991662D+03      0.146949D+03      0.163503D+03

 ----------------------------------------------------------------------

 This type of calculation cannot be archived.


 WE ARE PERHAPS NOT FAR REMOVED FROM THE TIME WHEN WE SHALL BE ABLE TO SUBMIT
 THE BULK OF CHEMICAL PHENOMENA TO CALCULATION.

            -- JOSEPH LOUIS GAY-LUSSAC
               MEMOIRES DE LA SOCIETE D'ARCUEIL, 2, 207 (1808)
 Job cpu time:       0 days  0 hours  0 minutes 22.6 seconds.
 Elapsed time:       0 days  0 hours  0 minutes  1.6 seconds.
 File lengths (MBytes):  RWF=     72 Int=      0 D2E=      0 Chk=    104 Scr=      8
 Normal termination of Gaussian 16 at Sun Dec 16 14:44:00 2018.
