 Entering Gaussian System, Link 0=g16
 Initial command:
 /gpfs/apps/hpc/Apps/Restricted/Gaussian/g16/Rev_B.01-AVX/g16/l1.exe "/gpfs/scratch60/fas/hammes_schiffer/jg2487/c42n02/Gau-405568.inp" -scrdir="/gpfs/scratch60/fas/hammes_schiffer/jg2487/c42n02/"
 Entering Link 1 = /gpfs/apps/hpc/Apps/Restricted/Gaussian/g16/Rev_B.01-AVX/g16/l1.exe PID=    405569.
  
 Copyright (c) 1988-2017, Gaussian, Inc.  All Rights Reserved.
  
 This is part of the Gaussian(R) 16 program.  It is based on
 the Gaussian(R) 09 system (copyright 2009, Gaussian, Inc.),
 the Gaussian(R) 03 system (copyright 2003, Gaussian, Inc.),
 the Gaussian(R) 98 system (copyright 1998, Gaussian, Inc.),
 the Gaussian(R) 94 system (copyright 1995, Gaussian, Inc.),
 the Gaussian 92(TM) system (copyright 1992, Gaussian, Inc.),
 the Gaussian 90(TM) system (copyright 1990, Gaussian, Inc.),
 the Gaussian 88(TM) system (copyright 1988, Gaussian, Inc.),
 the Gaussian 86(TM) system (copyright 1986, Carnegie Mellon
 University), and the Gaussian 82(TM) system (copyright 1983,
 Carnegie Mellon University). Gaussian is a federally registered
 trademark of Gaussian, Inc.
  
 This software contains proprietary and confidential information,
 including trade secrets, belonging to Gaussian, Inc.
  
 This software is provided under written license and may be
 used, copied, transmitted, or stored only in accord with that
 written license.
  
 The following legend is applicable only to US Government
 contracts under FAR:
  
                    RESTRICTED RIGHTS LEGEND
  
 Use, reproduction and disclosure by the US Government is
 subject to restrictions as set forth in subparagraphs (a)
 and (c) of the Commercial Computer Software - Restricted
 Rights clause in FAR 52.227-19.
  
 Gaussian, Inc.
 340 Quinnipiac St., Bldg. 40, Wallingford CT 06492
  
  
 ---------------------------------------------------------------
 Warning -- This program may not be used in any manner that
 competes with the business of Gaussian, Inc. or will provide
 assistance to any competitor of Gaussian, Inc.  The licensee
 of this program is prohibited from giving any competitor of
 Gaussian, Inc. access to this program.  By using this program,
 the user acknowledges that Gaussian, Inc. is engaged in the
 business of creating and licensing software in the field of
 computational chemistry and represents and warrants to the
 licensee that it is not a competitor of Gaussian, Inc. and that
 it will not use this program in any manner prohibited above.
 ---------------------------------------------------------------
  

 Cite this work as:
 Gaussian 16, Revision B.01,
 M. J. Frisch, G. W. Trucks, H. B. Schlegel, G. E. Scuseria, 
 M. A. Robb, J. R. Cheeseman, G. Scalmani, V. Barone, 
 G. A. Petersson, H. Nakatsuji, X. Li, M. Caricato, A. V. Marenich, 
 J. Bloino, B. G. Janesko, R. Gomperts, B. Mennucci, H. P. Hratchian, 
 J. V. Ortiz, A. F. Izmaylov, J. L. Sonnenberg, D. Williams-Young, 
 F. Ding, F. Lipparini, F. Egidi, J. Goings, B. Peng, A. Petrone, 
 T. Henderson, D. Ranasinghe, V. G. Zakrzewski, J. Gao, N. Rega, 
 G. Zheng, W. Liang, M. Hada, M. Ehara, K. Toyota, R. Fukuda, 
 J. Hasegawa, M. Ishida, T. Nakajima, Y. Honda, O. Kitao, H. Nakai, 
 T. Vreven, K. Throssell, J. A. Montgomery, Jr., J. E. Peralta, 
 F. Ogliaro, M. J. Bearpark, J. J. Heyd, E. N. Brothers, K. N. Kudin, 
 V. N. Staroverov, T. A. Keith, R. Kobayashi, J. Normand, 
 K. Raghavachari, A. P. Rendell, J. C. Burant, S. S. Iyengar, 
 J. Tomasi, M. Cossi, J. M. Millam, M. Klene, C. Adamo, R. Cammi, 
 J. W. Ochterski, R. L. Martin, K. Morokuma, O. Farkas, 
 J. B. Foresman, and D. J. Fox, Gaussian, Inc., Wallingford CT, 2016.
 
 ******************************************
 Gaussian 16:  ES64L-G16RevB.01 20-Dec-2017
                12-Feb-2019 
 ******************************************
 %chk=amide-monoBIP-E2PT.chk
 %mem=10GB
 %nprocshared=16
 Will use up to   16 processors via shared memory.
 ----------------------------------------------------------------------
 #p opt=(tight) freq=internalmodes b3lyp/6-31g(d,p) scrf=(cpcm,solvent=
 dichloromethane,read) nosymm empiricaldispersion=gd3bj int=grid=ultraf
 ine
 ----------------------------------------------------------------------
 1/7=10,18=20,19=15,26=6,38=1,40=2/1,3;
 2/9=110,12=2,15=1,17=6,18=5,40=1/2;
 3/5=1,6=6,7=101,11=2,25=1,30=1,70=2103,71=1,72=9,74=-5,75=-5,124=41/1,2,3;
 4//1;
 5/5=2,38=5,53=9/2;
 6/7=2,8=2,9=2,10=2,28=1/1;
 7/30=1/1,2,3,16;
 1/7=10,18=20,19=15,26=6/3(2);
 2/9=110,15=1/2;
 99//99;
 2/9=110,15=1/2;
 3/5=1,6=6,7=101,11=2,25=1,30=1,70=2105,71=1,72=9,74=-5,75=-5,124=41/1,2,3;
 4/5=5,16=3,69=1/1;
 5/5=2,38=5,53=9/2;
 7/30=1/1,2,3,16;
 1/7=10,18=20,19=15,26=6/3(-5);
 2/9=110,15=1/2;
 6/7=2,8=2,9=2,10=2,19=2,28=1/1;
 99/9=1/99;
 Leave Link    1 at Tue Feb 12 16:38:51 2019, MaxMem=  1342177280 cpu:               8.9 elap:               0.6
 (Enter /gpfs/apps/hpc/Apps/Restricted/Gaussian/g16/Rev_B.01-AVX/g16/l101.exe)
 --------------------------------------
 Simple amide-monoBIP E2PT optimization
 --------------------------------------
 Symbolic Z-matrix:
 Charge =  1 Multiplicity = 2
 C                    -0.46043   2.73552   0.44632 
 C                    -1.86938   2.86098   0.31912 
 C                    -2.45923   4.12806   0.21212 
 C                    -1.61183   5.2264    0.23978 
 C                    -0.21295   5.08783   0.36666 
 C                     0.40348   3.84109   0.47084 
 C                    -1.40216   0.73696   0.43937 
 H                    -3.53118   4.23901   0.11128 
 H                    -2.02798   6.22321   0.16285 
 H                     0.38515   5.99075   0.38624 
 N                    -2.41829   1.60056   0.32007 
 C                    -2.98182  -1.17836   0.35049 
 C                    -1.61015  -0.69135   0.4564 
 C                    -0.57508  -1.6008    0.54441 
 C                    -0.8251   -2.9862    0.53631 
 C                    -2.16795  -3.43647   0.44223 
 C                    -3.25664  -2.59666   0.3529 
 H                     0.44529  -1.24766   0.61456 
 H                    -2.34015  -4.49989   0.44021 
 C                     0.34458  -3.95344   0.60054 
 C                    -4.68749  -3.12415   0.25374 
 O                    -3.96411  -0.33474   0.24371 
 N                    -0.20671   1.39093   0.52119 
 C                     1.86856   3.58919   0.59277 
 C                     1.23136  -3.71279  -0.64446 
 H                     1.5986   -2.68539  -0.68099 
 H                     2.09334  -4.38335  -0.60486 
 H                     0.67709  -3.91621  -1.5635 
 C                     1.17192  -3.66553   1.87407 
 H                     0.57311  -3.82569   2.77332 
 H                     2.02653  -4.34577   1.90307 
 H                     1.55379  -2.64293   1.88896 
 C                    -0.09979  -5.42173   0.62071 
 H                    -0.71756  -5.64563   1.49408 
 H                    -0.65775  -5.68884  -0.28029 
 H                     0.78521  -6.05917   0.66566 
 C                    -5.31826  -2.68134  -1.08627 
 H                    -6.3275   -3.0945   -1.15551 
 H                    -5.38528  -1.59744  -1.16896 
 H                    -4.73623  -3.06142  -1.92932 
 C                    -5.52564  -2.59131   1.4386 
 H                    -5.6152   -1.50635   1.41633 
 H                    -6.5285   -3.02215   1.38675 
 H                    -5.07547  -2.8852    2.3899 
 C                    -4.71416  -4.6602    0.30564 
 H                    -4.1592   -5.1041   -0.52484 
 H                    -4.29884  -5.03995   1.24254 
 H                    -5.75016  -4.99682   0.23544 
 O                     2.29259   2.42583   0.70211 
 N                     2.69305   4.65335   0.58715 
 H                     2.3741    5.59327   0.41983 
 H                     3.68763   4.48726   0.62033 
 H                    -3.38917   1.37272   0.24597 
 H                     1.71595   1.73401   1.03449 
 
 ITRead=  0  0  0  0  0  0  0  0  0  0  0  0  0  0  0  0  0  0  0  0
 ITRead=  0  0  0  0  0  0  0  0  0  0  0  0  0  0  0  0  0  0  0  0
 ITRead=  0  0  0  0  0  0  0  0  0  0  0  0  0  0
 MicOpt= -1 -1 -1 -1 -1 -1 -1 -1 -1 -1 -1 -1 -1 -1 -1 -1 -1 -1 -1 -1
 MicOpt= -1 -1 -1 -1 -1 -1 -1 -1 -1 -1 -1 -1 -1 -1 -1 -1 -1 -1 -1 -1
 MicOpt= -1 -1 -1 -1 -1 -1 -1 -1 -1 -1 -1 -1 -1 -1
 NAtoms=     54 NQM=       54 NQMF=       0 NMMI=      0 NMMIF=      0
                NMic=       0 NMicF=      0.
                    Isotopes and Nuclear Properties:
 (Nuclear quadrupole moments (NQMom) in fm**2, nuclear magnetic moments (NMagM)
  in nuclear magnetons)

  Atom         1           2           3           4           5           6           7           8           9          10
 IAtWgt=          12          12          12          12          12          12          12           1           1           1
 AtmWgt=  12.0000000  12.0000000  12.0000000  12.0000000  12.0000000  12.0000000  12.0000000   1.0078250   1.0078250   1.0078250
 NucSpn=           0           0           0           0           0           0           0           1           1           1
 AtZEff=  -0.0000000  -0.0000000  -0.0000000  -0.0000000  -0.0000000  -0.0000000  -0.0000000  -0.0000000  -0.0000000  -0.0000000
 NQMom=    0.0000000   0.0000000   0.0000000   0.0000000   0.0000000   0.0000000   0.0000000   0.0000000   0.0000000   0.0000000
 NMagM=    0.0000000   0.0000000   0.0000000   0.0000000   0.0000000   0.0000000   0.0000000   2.7928460   2.7928460   2.7928460
 AtZNuc=   6.0000000   6.0000000   6.0000000   6.0000000   6.0000000   6.0000000   6.0000000   1.0000000   1.0000000   1.0000000

  Atom        11          12          13          14          15          16          17          18          19          20
 IAtWgt=          14          12          12          12          12          12          12           1           1          12
 AtmWgt=  14.0030740  12.0000000  12.0000000  12.0000000  12.0000000  12.0000000  12.0000000   1.0078250   1.0078250  12.0000000
 NucSpn=           2           0           0           0           0           0           0           1           1           0
 AtZEff=  -0.0000000  -0.0000000  -0.0000000  -0.0000000  -0.0000000  -0.0000000  -0.0000000  -0.0000000  -0.0000000  -0.0000000
 NQMom=    2.0440000   0.0000000   0.0000000   0.0000000   0.0000000   0.0000000   0.0000000   0.0000000   0.0000000   0.0000000
 NMagM=    0.4037610   0.0000000   0.0000000   0.0000000   0.0000000   0.0000000   0.0000000   2.7928460   2.7928460   0.0000000
 AtZNuc=   7.0000000   6.0000000   6.0000000   6.0000000   6.0000000   6.0000000   6.0000000   1.0000000   1.0000000   6.0000000

  Atom        21          22          23          24          25          26          27          28          29          30
 IAtWgt=          12          16          14          12          12           1           1           1          12           1
 AtmWgt=  12.0000000  15.9949146  14.0030740  12.0000000  12.0000000   1.0078250   1.0078250   1.0078250  12.0000000   1.0078250
 NucSpn=           0           0           2           0           0           1           1           1           0           1
 AtZEff=  -0.0000000  -0.0000000  -0.0000000  -0.0000000  -0.0000000  -0.0000000  -0.0000000  -0.0000000  -0.0000000  -0.0000000
 NQMom=    0.0000000   0.0000000   2.0440000   0.0000000   0.0000000   0.0000000   0.0000000   0.0000000   0.0000000   0.0000000
 NMagM=    0.0000000   0.0000000   0.4037610   0.0000000   0.0000000   2.7928460   2.7928460   2.7928460   0.0000000   2.7928460
 AtZNuc=   6.0000000   8.0000000   7.0000000   6.0000000   6.0000000   1.0000000   1.0000000   1.0000000   6.0000000   1.0000000

  Atom        31          32          33          34          35          36          37          38          39          40
 IAtWgt=           1           1          12           1           1           1          12           1           1           1
 AtmWgt=   1.0078250   1.0078250  12.0000000   1.0078250   1.0078250   1.0078250  12.0000000   1.0078250   1.0078250   1.0078250
 NucSpn=           1           1           0           1           1           1           0           1           1           1
 AtZEff=  -0.0000000  -0.0000000  -0.0000000  -0.0000000  -0.0000000  -0.0000000  -0.0000000  -0.0000000  -0.0000000  -0.0000000
 NQMom=    0.0000000   0.0000000   0.0000000   0.0000000   0.0000000   0.0000000   0.0000000   0.0000000   0.0000000   0.0000000
 NMagM=    2.7928460   2.7928460   0.0000000   2.7928460   2.7928460   2.7928460   0.0000000   2.7928460   2.7928460   2.7928460
 AtZNuc=   1.0000000   1.0000000   6.0000000   1.0000000   1.0000000   1.0000000   6.0000000   1.0000000   1.0000000   1.0000000

  Atom        41          42          43          44          45          46          47          48          49          50
 IAtWgt=          12           1           1           1          12           1           1           1          16          14
 AtmWgt=  12.0000000   1.0078250   1.0078250   1.0078250  12.0000000   1.0078250   1.0078250   1.0078250  15.9949146  14.0030740
 NucSpn=           0           1           1           1           0           1           1           1           0           2
 AtZEff=  -0.0000000  -0.0000000  -0.0000000  -0.0000000  -0.0000000  -0.0000000  -0.0000000  -0.0000000  -0.0000000  -0.0000000
 NQMom=    0.0000000   0.0000000   0.0000000   0.0000000   0.0000000   0.0000000   0.0000000   0.0000000   0.0000000   2.0440000
 NMagM=    0.0000000   2.7928460   2.7928460   2.7928460   0.0000000   2.7928460   2.7928460   2.7928460   0.0000000   0.4037610
 AtZNuc=   6.0000000   1.0000000   1.0000000   1.0000000   6.0000000   1.0000000   1.0000000   1.0000000   8.0000000   7.0000000

  Atom        51          52          53          54
 IAtWgt=           1           1           1           1
 AtmWgt=   1.0078250   1.0078250   1.0078250   1.0078250
 NucSpn=           1           1           1           1
 AtZEff=  -0.0000000  -0.0000000  -0.0000000  -0.0000000
 NQMom=    0.0000000   0.0000000   0.0000000   0.0000000
 NMagM=    2.7928460   2.7928460   2.7928460   2.7928460
 AtZNuc=   1.0000000   1.0000000   1.0000000   1.0000000
 Leave Link  101 at Tue Feb 12 16:38:51 2019, MaxMem=  1342177280 cpu:               3.7 elap:               0.3
 (Enter /gpfs/apps/hpc/Apps/Restricted/Gaussian/g16/Rev_B.01-AVX/g16/l103.exe)

 GradGradGradGradGradGradGradGradGradGradGradGradGradGradGradGradGradGrad
 Berny optimization.
 Initialization pass.
                           ----------------------------
                           !    Initial Parameters    !
                           ! (Angstroms and Degrees)  !
 --------------------------                            --------------------------
 ! Name  Definition              Value          Derivative Info.                !
 --------------------------------------------------------------------------------
 ! R1    R(1,2)                  1.4202         estimate D2E/DX2                !
 ! R2    R(1,6)                  1.4033         estimate D2E/DX2                !
 ! R3    R(1,23)                 1.3704         estimate D2E/DX2                !
 ! R4    R(2,3)                  1.4017         estimate D2E/DX2                !
 ! R5    R(2,11)                 1.3748         estimate D2E/DX2                !
 ! R6    R(3,4)                  1.3875         estimate D2E/DX2                !
 ! R7    R(3,8)                  1.0824         estimate D2E/DX2                !
 ! R8    R(4,5)                  1.4114         estimate D2E/DX2                !
 ! R9    R(4,9)                  1.0829         estimate D2E/DX2                !
 ! R10   R(5,6)                  1.3947         estimate D2E/DX2                !
 ! R11   R(5,10)                 1.0832         estimate D2E/DX2                !
 ! R12   R(6,24)                 1.4916         estimate D2E/DX2                !
 ! R13   R(7,11)                 1.3389         estimate D2E/DX2                !
 ! R14   R(7,13)                 1.4435         estimate D2E/DX2                !
 ! R15   R(7,23)                 1.3651         estimate D2E/DX2                !
 ! R16   R(11,53)                1.0            estimate D2E/DX2                !
 ! R17   R(12,13)                1.4594         estimate D2E/DX2                !
 ! R18   R(12,17)                1.4447         estimate D2E/DX2                !
 ! R19   R(12,22)                1.2992         estimate D2E/DX2                !
 ! R20   R(13,14)                1.3807         estimate D2E/DX2                !
 ! R21   R(14,15)                1.4078         estimate D2E/DX2                !
 ! R22   R(14,18)                1.082          estimate D2E/DX2                !
 ! R23   R(15,16)                1.4194         estimate D2E/DX2                !
 ! R24   R(15,20)                1.5191         estimate D2E/DX2                !
 ! R25   R(16,17)                1.3779         estimate D2E/DX2                !
 ! R26   R(16,19)                1.0773         estimate D2E/DX2                !
 ! R27   R(17,21)                1.5282         estimate D2E/DX2                !
 ! R28   R(20,25)                1.5474         estimate D2E/DX2                !
 ! R29   R(20,29)                1.5457         estimate D2E/DX2                !
 ! R30   R(20,33)                1.5342         estimate D2E/DX2                !
 ! R31   R(21,37)                1.5458         estimate D2E/DX2                !
 ! R32   R(21,41)                1.5461         estimate D2E/DX2                !
 ! R33   R(21,45)                1.5372         estimate D2E/DX2                !
 ! R34   R(24,49)                1.243          estimate D2E/DX2                !
 ! R35   R(24,50)                1.3462         estimate D2E/DX2                !
 ! R36   R(25,26)                1.0917         estimate D2E/DX2                !
 ! R37   R(25,27)                1.0928         estimate D2E/DX2                !
 ! R38   R(25,28)                1.0924         estimate D2E/DX2                !
 ! R39   R(29,30)                1.0922         estimate D2E/DX2                !
 ! R40   R(29,31)                1.0927         estimate D2E/DX2                !
 ! R41   R(29,32)                1.0917         estimate D2E/DX2                !
 ! R42   R(33,34)                1.093          estimate D2E/DX2                !
 ! R43   R(33,35)                1.0929         estimate D2E/DX2                !
 ! R44   R(33,36)                1.0916         estimate D2E/DX2                !
 ! R45   R(37,38)                1.0927         estimate D2E/DX2                !
 ! R46   R(37,39)                1.0891         estimate D2E/DX2                !
 ! R47   R(37,40)                1.0927         estimate D2E/DX2                !
 ! R48   R(41,42)                1.0889         estimate D2E/DX2                !
 ! R49   R(41,43)                1.0927         estimate D2E/DX2                !
 ! R50   R(41,44)                1.0927         estimate D2E/DX2                !
 ! R51   R(45,46)                1.093          estimate D2E/DX2                !
 ! R52   R(45,47)                1.0929         estimate D2E/DX2                !
 ! R53   R(45,48)                1.0916         estimate D2E/DX2                !
 ! R54   R(49,54)                0.96           estimate D2E/DX2                !
 ! R55   R(50,51)                1.0066         estimate D2E/DX2                !
 ! R56   R(50,52)                1.0089         estimate D2E/DX2                !
 ! A1    A(2,1,6)              122.8684         estimate D2E/DX2                !
 ! A2    A(2,1,23)             105.9761         estimate D2E/DX2                !
 ! A3    A(6,1,23)             131.1544         estimate D2E/DX2                !
 ! A4    A(1,2,3)              120.2741         estimate D2E/DX2                !
 ! A5    A(1,2,11)             108.3643         estimate D2E/DX2                !
 ! A6    A(3,2,11)             131.3606         estimate D2E/DX2                !
 ! A7    A(2,3,4)              117.1953         estimate D2E/DX2                !
 ! A8    A(2,3,8)              121.0981         estimate D2E/DX2                !
 ! A9    A(4,3,8)              121.7065         estimate D2E/DX2                !
 ! A10   A(3,4,5)              121.9634         estimate D2E/DX2                !
 ! A11   A(3,4,9)              119.5065         estimate D2E/DX2                !
 ! A12   A(5,4,9)              118.5301         estimate D2E/DX2                !
 ! A13   A(4,5,6)              122.176          estimate D2E/DX2                !
 ! A14   A(4,5,10)             117.8414         estimate D2E/DX2                !
 ! A15   A(6,5,10)             119.982          estimate D2E/DX2                !
 ! A16   A(1,6,5)              115.5221         estimate D2E/DX2                !
 ! A17   A(1,6,24)             118.2338         estimate D2E/DX2                !
 ! A18   A(5,6,24)             126.2423         estimate D2E/DX2                !
 ! A19   A(11,7,13)            122.0016         estimate D2E/DX2                !
 ! A20   A(11,7,23)            111.1596         estimate D2E/DX2                !
 ! A21   A(13,7,23)            126.8347         estimate D2E/DX2                !
 ! A22   A(2,11,7)             106.7626         estimate D2E/DX2                !
 ! A23   A(2,11,53)            126.6187         estimate D2E/DX2                !
 ! A24   A(7,11,53)            126.6187         estimate D2E/DX2                !
 ! A25   A(13,12,17)           120.4168         estimate D2E/DX2                !
 ! A26   A(13,12,22)           119.9924         estimate D2E/DX2                !
 ! A27   A(17,12,22)           119.589          estimate D2E/DX2                !
 ! A28   A(7,13,12)            117.6952         estimate D2E/DX2                !
 ! A29   A(7,13,14)            122.992          estimate D2E/DX2                !
 ! A30   A(12,13,14)           119.3032         estimate D2E/DX2                !
 ! A31   A(13,14,15)           120.9789         estimate D2E/DX2                !
 ! A32   A(13,14,18)           119.7438         estimate D2E/DX2                !
 ! A33   A(15,14,18)           119.2762         estimate D2E/DX2                !
 ! A34   A(14,15,16)           118.7215         estimate D2E/DX2                !
 ! A35   A(14,15,20)           119.313          estimate D2E/DX2                !
 ! A36   A(16,15,20)           121.9544         estimate D2E/DX2                !
 ! A37   A(15,16,17)           123.9488         estimate D2E/DX2                !
 ! A38   A(15,16,19)           117.6765         estimate D2E/DX2                !
 ! A39   A(17,16,19)           118.3747         estimate D2E/DX2                !
 ! A40   A(12,17,16)           116.6261         estimate D2E/DX2                !
 ! A41   A(12,17,21)           121.1227         estimate D2E/DX2                !
 ! A42   A(16,17,21)           122.2505         estimate D2E/DX2                !
 ! A43   A(15,20,25)           107.952          estimate D2E/DX2                !
 ! A44   A(15,20,29)           109.1692         estimate D2E/DX2                !
 ! A45   A(15,20,33)           112.7607         estimate D2E/DX2                !
 ! A46   A(25,20,29)           109.0989         estimate D2E/DX2                !
 ! A47   A(25,20,33)           108.9906         estimate D2E/DX2                !
 ! A48   A(29,20,33)           108.8116         estimate D2E/DX2                !
 ! A49   A(17,21,37)           109.8416         estimate D2E/DX2                !
 ! A50   A(17,21,41)           109.8095         estimate D2E/DX2                !
 ! A51   A(17,21,45)           111.0376         estimate D2E/DX2                !
 ! A52   A(37,21,41)           110.145          estimate D2E/DX2                !
 ! A53   A(37,21,45)           107.9652         estimate D2E/DX2                !
 ! A54   A(41,21,45)           108.0059         estimate D2E/DX2                !
 ! A55   A(1,23,7)             107.7369         estimate D2E/DX2                !
 ! A56   A(6,24,49)            120.0208         estimate D2E/DX2                !
 ! A57   A(6,24,50)            117.8876         estimate D2E/DX2                !
 ! A58   A(49,24,50)           122.0906         estimate D2E/DX2                !
 ! A59   A(20,25,26)           111.4739         estimate D2E/DX2                !
 ! A60   A(20,25,27)           109.1145         estimate D2E/DX2                !
 ! A61   A(20,25,28)           110.9275         estimate D2E/DX2                !
 ! A62   A(26,25,27)           108.2617         estimate D2E/DX2                !
 ! A63   A(26,25,28)           108.5295         estimate D2E/DX2                !
 ! A64   A(27,25,28)           108.4484         estimate D2E/DX2                !
 ! A65   A(20,29,30)           110.952          estimate D2E/DX2                !
 ! A66   A(20,29,31)           108.9378         estimate D2E/DX2                !
 ! A67   A(20,29,32)           111.897          estimate D2E/DX2                !
 ! A68   A(30,29,31)           108.4019         estimate D2E/DX2                !
 ! A69   A(30,29,32)           108.5371         estimate D2E/DX2                !
 ! A70   A(31,29,32)           108.0112         estimate D2E/DX2                !
 ! A71   A(20,33,34)           111.7332         estimate D2E/DX2                !
 ! A72   A(20,33,35)           111.7733         estimate D2E/DX2                !
 ! A73   A(20,33,36)           108.9406         estimate D2E/DX2                !
 ! A74   A(34,33,35)           108.6712         estimate D2E/DX2                !
 ! A75   A(34,33,36)           107.8015         estimate D2E/DX2                !
 ! A76   A(35,33,36)           107.7658         estimate D2E/DX2                !
 ! A77   A(21,37,38)           108.8737         estimate D2E/DX2                !
 ! A78   A(21,37,39)           112.0867         estimate D2E/DX2                !
 ! A79   A(21,37,40)           110.5985         estimate D2E/DX2                !
 ! A80   A(38,37,39)           108.3398         estimate D2E/DX2                !
 ! A81   A(38,37,40)           108.1531         estimate D2E/DX2                !
 ! A82   A(39,37,40)           108.686          estimate D2E/DX2                !
 ! A83   A(21,41,42)           111.859          estimate D2E/DX2                !
 ! A84   A(21,41,43)           108.9829         estimate D2E/DX2                !
 ! A85   A(21,41,44)           110.5587         estimate D2E/DX2                !
 ! A86   A(42,41,43)           108.4454         estimate D2E/DX2                !
 ! A87   A(42,41,44)           108.6433         estimate D2E/DX2                !
 ! A88   A(43,41,44)           108.2623         estimate D2E/DX2                !
 ! A89   A(21,45,46)           111.7996         estimate D2E/DX2                !
 ! A90   A(21,45,47)           111.6889         estimate D2E/DX2                !
 ! A91   A(21,45,48)           108.8116         estimate D2E/DX2                !
 ! A92   A(46,45,47)           108.4975         estimate D2E/DX2                !
 ! A93   A(46,45,48)           107.9249         estimate D2E/DX2                !
 ! A94   A(47,45,48)           107.9778         estimate D2E/DX2                !
 ! A95   A(24,49,54)           120.0            estimate D2E/DX2                !
 ! A96   A(24,50,51)           123.01           estimate D2E/DX2                !
 ! A97   A(24,50,52)           118.2615         estimate D2E/DX2                !
 ! A98   A(51,50,52)           118.1352         estimate D2E/DX2                !
 ! D1    D(6,1,2,3)             -0.0562         estimate D2E/DX2                !
 ! D2    D(6,1,2,11)           179.6197         estimate D2E/DX2                !
 ! D3    D(23,1,2,3)          -179.7173         estimate D2E/DX2                !
 ! D4    D(23,1,2,11)           -0.0414         estimate D2E/DX2                !
 ! D5    D(2,1,6,5)              0.2436         estimate D2E/DX2                !
 ! D6    D(2,1,6,24)          -179.3126         estimate D2E/DX2                !
 ! D7    D(23,1,6,5)           179.8109         estimate D2E/DX2                !
 ! D8    D(23,1,6,24)            0.2548         estimate D2E/DX2                !
 ! D9    D(2,1,23,7)             0.166          estimate D2E/DX2                !
 ! D10   D(6,1,23,7)          -179.4561         estimate D2E/DX2                !
 ! D11   D(1,2,3,4)             -0.1424         estimate D2E/DX2                !
 ! D12   D(1,2,3,8)            179.7924         estimate D2E/DX2                !
 ! D13   D(11,2,3,4)          -179.7325         estimate D2E/DX2                !
 ! D14   D(11,2,3,8)             0.2022         estimate D2E/DX2                !
 ! D15   D(1,2,11,7)            -0.1013         estimate D2E/DX2                !
 ! D16   D(1,2,11,53)          179.8987         estimate D2E/DX2                !
 ! D17   D(3,2,11,7)           179.5258         estimate D2E/DX2                !
 ! D18   D(3,2,11,53)           -0.4742         estimate D2E/DX2                !
 ! D19   D(2,3,4,5)              0.1458         estimate D2E/DX2                !
 ! D20   D(2,3,4,9)           -179.8185         estimate D2E/DX2                !
 ! D21   D(8,3,4,5)           -179.7885         estimate D2E/DX2                !
 ! D22   D(8,3,4,9)              0.2472         estimate D2E/DX2                !
 ! D23   D(3,4,5,6)              0.0521         estimate D2E/DX2                !
 ! D24   D(3,4,5,10)          -179.6795         estimate D2E/DX2                !
 ! D25   D(9,4,5,6)           -179.9833         estimate D2E/DX2                !
 ! D26   D(9,4,5,10)             0.2851         estimate D2E/DX2                !
 ! D27   D(4,5,6,1)             -0.2408         estimate D2E/DX2                !
 ! D28   D(4,5,6,24)           179.2743         estimate D2E/DX2                !
 ! D29   D(10,5,6,1)           179.4851         estimate D2E/DX2                !
 ! D30   D(10,5,6,24)           -0.9997         estimate D2E/DX2                !
 ! D31   D(1,6,24,49)           -1.7432         estimate D2E/DX2                !
 ! D32   D(1,6,24,50)          178.6243         estimate D2E/DX2                !
 ! D33   D(5,6,24,49)          178.7534         estimate D2E/DX2                !
 ! D34   D(5,6,24,50)           -0.8791         estimate D2E/DX2                !
 ! D35   D(13,7,11,2)         -179.0988         estimate D2E/DX2                !
 ! D36   D(13,7,11,53)           0.9012         estimate D2E/DX2                !
 ! D37   D(23,7,11,2)            0.2116         estimate D2E/DX2                !
 ! D38   D(23,7,11,53)        -179.7884         estimate D2E/DX2                !
 ! D39   D(11,7,13,12)          -0.5491         estimate D2E/DX2                !
 ! D40   D(11,7,13,14)         178.3123         estimate D2E/DX2                !
 ! D41   D(23,7,13,12)        -179.7457         estimate D2E/DX2                !
 ! D42   D(23,7,13,14)          -0.8842         estimate D2E/DX2                !
 ! D43   D(11,7,23,1)           -0.2413         estimate D2E/DX2                !
 ! D44   D(13,7,23,1)          179.0281         estimate D2E/DX2                !
 ! D45   D(17,12,13,7)         179.6043         estimate D2E/DX2                !
 ! D46   D(17,12,13,14)          0.6993         estimate D2E/DX2                !
 ! D47   D(22,12,13,7)           0.0917         estimate D2E/DX2                !
 ! D48   D(22,12,13,14)       -178.8132         estimate D2E/DX2                !
 ! D49   D(13,12,17,16)         -0.7726         estimate D2E/DX2                !
 ! D50   D(13,12,17,21)        179.5212         estimate D2E/DX2                !
 ! D51   D(22,12,17,16)        178.7419         estimate D2E/DX2                !
 ! D52   D(22,12,17,21)         -0.9643         estimate D2E/DX2                !
 ! D53   D(7,13,14,15)        -178.9849         estimate D2E/DX2                !
 ! D54   D(7,13,14,18)           0.6274         estimate D2E/DX2                !
 ! D55   D(12,13,14,15)         -0.1409         estimate D2E/DX2                !
 ! D56   D(12,13,14,18)        179.4714         estimate D2E/DX2                !
 ! D57   D(13,14,15,16)         -0.3096         estimate D2E/DX2                !
 ! D58   D(13,14,15,20)        178.5021         estimate D2E/DX2                !
 ! D59   D(18,14,15,16)       -179.9237         estimate D2E/DX2                !
 ! D60   D(18,14,15,20)         -1.112          estimate D2E/DX2                !
 ! D61   D(14,15,16,17)          0.2172         estimate D2E/DX2                !
 ! D62   D(14,15,16,19)       -179.8339         estimate D2E/DX2                !
 ! D63   D(20,15,16,17)       -178.5616         estimate D2E/DX2                !
 ! D64   D(20,15,16,19)          1.3873         estimate D2E/DX2                !
 ! D65   D(14,15,20,25)        -61.0841         estimate D2E/DX2                !
 ! D66   D(14,15,20,29)         57.3904         estimate D2E/DX2                !
 ! D67   D(14,15,20,33)        178.4592         estimate D2E/DX2                !
 ! D68   D(16,15,20,25)        117.6877         estimate D2E/DX2                !
 ! D69   D(16,15,20,29)       -123.8378         estimate D2E/DX2                !
 ! D70   D(16,15,20,33)         -2.769          estimate D2E/DX2                !
 ! D71   D(15,16,17,12)          0.3226         estimate D2E/DX2                !
 ! D72   D(15,16,17,21)       -179.9748         estimate D2E/DX2                !
 ! D73   D(19,16,17,12)       -179.626          estimate D2E/DX2                !
 ! D74   D(19,16,17,21)          0.0767         estimate D2E/DX2                !
 ! D75   D(12,17,21,37)         61.8026         estimate D2E/DX2                !
 ! D76   D(12,17,21,41)        -59.472          estimate D2E/DX2                !
 ! D77   D(12,17,21,45)       -178.8498         estimate D2E/DX2                !
 ! D78   D(16,17,21,37)       -117.8869         estimate D2E/DX2                !
 ! D79   D(16,17,21,41)        120.8385         estimate D2E/DX2                !
 ! D80   D(16,17,21,45)          1.4608         estimate D2E/DX2                !
 ! D81   D(15,20,25,26)         59.114          estimate D2E/DX2                !
 ! D82   D(15,20,25,27)        178.6331         estimate D2E/DX2                !
 ! D83   D(15,20,25,28)        -61.9539         estimate D2E/DX2                !
 ! D84   D(29,20,25,26)        -59.4054         estimate D2E/DX2                !
 ! D85   D(29,20,25,27)         60.1137         estimate D2E/DX2                !
 ! D86   D(29,20,25,28)        179.5267         estimate D2E/DX2                !
 ! D87   D(33,20,25,26)       -178.094          estimate D2E/DX2                !
 ! D88   D(33,20,25,27)        -58.5748         estimate D2E/DX2                !
 ! D89   D(33,20,25,28)         60.8382         estimate D2E/DX2                !
 ! D90   D(15,20,29,30)         62.201          estimate D2E/DX2                !
 ! D91   D(15,20,29,31)       -178.5403         estimate D2E/DX2                !
 ! D92   D(15,20,29,32)        -59.185          estimate D2E/DX2                !
 ! D93   D(25,20,29,30)        179.9562         estimate D2E/DX2                !
 ! D94   D(25,20,29,31)        -60.7851         estimate D2E/DX2                !
 ! D95   D(25,20,29,32)         58.5701         estimate D2E/DX2                !
 ! D96   D(33,20,29,30)        -61.2436         estimate D2E/DX2                !
 ! D97   D(33,20,29,31)         58.0151         estimate D2E/DX2                !
 ! D98   D(33,20,29,32)        177.3704         estimate D2E/DX2                !
 ! D99   D(15,20,33,34)        -61.0795         estimate D2E/DX2                !
 ! D100  D(15,20,33,35)         60.9483         estimate D2E/DX2                !
 ! D101  D(15,20,33,36)        179.9246         estimate D2E/DX2                !
 ! D102  D(25,20,33,34)        179.0609         estimate D2E/DX2                !
 ! D103  D(25,20,33,35)        -58.9113         estimate D2E/DX2                !
 ! D104  D(25,20,33,36)         60.065          estimate D2E/DX2                !
 ! D105  D(29,20,33,34)         60.1928         estimate D2E/DX2                !
 ! D106  D(29,20,33,35)       -177.7794         estimate D2E/DX2                !
 ! D107  D(29,20,33,36)        -58.8031         estimate D2E/DX2                !
 ! D108  D(17,21,37,38)        178.1154         estimate D2E/DX2                !
 ! D109  D(17,21,37,39)        -62.0439         estimate D2E/DX2                !
 ! D110  D(17,21,37,40)         59.4146         estimate D2E/DX2                !
 ! D111  D(41,21,37,38)        -60.8115         estimate D2E/DX2                !
 ! D112  D(41,21,37,39)         59.0291         estimate D2E/DX2                !
 ! D113  D(41,21,37,40)       -179.5123         estimate D2E/DX2                !
 ! D114  D(45,21,37,38)         56.9039         estimate D2E/DX2                !
 ! D115  D(45,21,37,39)        176.7446         estimate D2E/DX2                !
 ! D116  D(45,21,37,40)        -61.7969         estimate D2E/DX2                !
 ! D117  D(17,21,41,42)         63.3417         estimate D2E/DX2                !
 ! D118  D(17,21,41,43)       -176.7565         estimate D2E/DX2                !
 ! D119  D(17,21,41,44)        -57.8784         estimate D2E/DX2                !
 ! D120  D(37,21,41,42)        -57.7505         estimate D2E/DX2                !
 ! D121  D(37,21,41,43)         62.1514         estimate D2E/DX2                !
 ! D122  D(37,21,41,44)       -178.9706         estimate D2E/DX2                !
 ! D123  D(45,21,41,42)       -175.4408         estimate D2E/DX2                !
 ! D124  D(45,21,41,43)        -55.5389         estimate D2E/DX2                !
 ! D125  D(45,21,41,44)         63.3391         estimate D2E/DX2                !
 ! D126  D(17,21,45,46)        -61.0697         estimate D2E/DX2                !
 ! D127  D(17,21,45,47)         60.7202         estimate D2E/DX2                !
 ! D128  D(17,21,45,48)        179.8241         estimate D2E/DX2                !
 ! D129  D(37,21,45,46)         59.3952         estimate D2E/DX2                !
 ! D130  D(37,21,45,47)       -178.8149         estimate D2E/DX2                !
 ! D131  D(37,21,45,48)        -59.711          estimate D2E/DX2                !
 ! D132  D(41,21,45,46)        178.4788         estimate D2E/DX2                !
 ! D133  D(41,21,45,47)        -59.7313         estimate D2E/DX2                !
 ! D134  D(41,21,45,48)         59.3726         estimate D2E/DX2                !
 ! D135  D(6,24,49,54)         -23.0166         estimate D2E/DX2                !
 ! D136  D(50,24,49,54)        156.6            estimate D2E/DX2                !
 ! D137  D(6,24,50,51)          -5.8415         estimate D2E/DX2                !
 ! D138  D(6,24,50,52)        -176.8346         estimate D2E/DX2                !
 ! D139  D(49,24,50,51)        174.5341         estimate D2E/DX2                !
 ! D140  D(49,24,50,52)          3.541          estimate D2E/DX2                !
 --------------------------------------------------------------------------------
 Trust Radius=3.00D-01 FncErr=5.00D-06 GrdErr=5.00D-06 EigMax=2.50D+02 EigMin=1.00D-04
 Number of steps in this run=    304 maximum allowed number of steps=    324.
 GradGradGradGradGradGradGradGradGradGradGradGradGradGradGradGradGradGrad

 Leave Link  103 at Tue Feb 12 16:38:51 2019, MaxMem=  1342177280 cpu:               0.9 elap:               0.1
 (Enter /gpfs/apps/hpc/Apps/Restricted/Gaussian/g16/Rev_B.01-AVX/g16/l202.exe)
 Symmetry turned off by external request.
 Stoichiometry    C22H27N3O2(1+,2)
 Framework group  C1[X(C22H27N3O2)]
 Deg. of freedom   156
 Full point group                 C1      NOp   1
                          Input orientation:                          
 ---------------------------------------------------------------------
 Center     Atomic      Atomic             Coordinates (Angstroms)
 Number     Number       Type             X           Y           Z
 ---------------------------------------------------------------------
      1          6           0       -0.460428    2.735524    0.446323
      2          6           0       -1.869381    2.860977    0.319116
      3          6           0       -2.459229    4.128064    0.212122
      4          6           0       -1.611825    5.226396    0.239775
      5          6           0       -0.212952    5.087825    0.366656
      6          6           0        0.403475    3.841091    0.470839
      7          6           0       -1.402162    0.736962    0.439368
      8          1           0       -3.531181    4.239008    0.111281
      9          1           0       -2.027980    6.223212    0.162846
     10          1           0        0.385150    5.990746    0.386241
     11          7           0       -2.418291    1.600557    0.320074
     12          6           0       -2.981818   -1.178361    0.350492
     13          6           0       -1.610147   -0.691347    0.456400
     14          6           0       -0.575082   -1.600797    0.544414
     15          6           0       -0.825096   -2.986204    0.536308
     16          6           0       -2.167945   -3.436468    0.442229
     17          6           0       -3.256643   -2.596661    0.352900
     18          1           0        0.445286   -1.247657    0.614560
     19          1           0       -2.340147   -4.499892    0.440209
     20          6           0        0.344584   -3.953436    0.600540
     21          6           0       -4.687489   -3.124153    0.253744
     22          8           0       -3.964111   -0.334742    0.243709
     23          7           0       -0.206714    1.390931    0.521193
     24          6           0        1.868559    3.589190    0.592767
     25          6           0        1.231363   -3.712792   -0.644456
     26          1           0        1.598602   -2.685387   -0.680988
     27          1           0        2.093341   -4.383355   -0.604858
     28          1           0        0.677091   -3.916210   -1.563500
     29          6           0        1.171921   -3.665529    1.874069
     30          1           0        0.573105   -3.825688    2.773317
     31          1           0        2.026535   -4.345768    1.903067
     32          1           0        1.553789   -2.642932    1.888956
     33          6           0       -0.099791   -5.421726    0.620713
     34          1           0       -0.717561   -5.645629    1.494084
     35          1           0       -0.657753   -5.688837   -0.280285
     36          1           0        0.785206   -6.059173    0.665660
     37          6           0       -5.318263   -2.681335   -1.086270
     38          1           0       -6.327499   -3.094500   -1.155507
     39          1           0       -5.385280   -1.597440   -1.168956
     40          1           0       -4.736228   -3.061421   -1.929322
     41          6           0       -5.525635   -2.591310    1.438600
     42          1           0       -5.615197   -1.506346    1.416332
     43          1           0       -6.528499   -3.022146    1.386748
     44          1           0       -5.075469   -2.885195    2.389898
     45          6           0       -4.714164   -4.660197    0.305642
     46          1           0       -4.159200   -5.104099   -0.524840
     47          1           0       -4.298835   -5.039954    1.242535
     48          1           0       -5.750160   -4.996818    0.235438
     49          8           0        2.292593    2.425832    0.702114
     50          7           0        2.693045    4.653346    0.587152
     51          1           0        2.374103    5.593270    0.419830
     52          1           0        3.687634    4.487258    0.620330
     53          1           0       -3.389166    1.372717    0.245970
     54          1           0        1.715953    1.734014    1.034490
 ---------------------------------------------------------------------
 Rotational constants (GHZ):           0.2891732           0.1098311           0.0825224
 Leave Link  202 at Tue Feb 12 16:38:51 2019, MaxMem=  1342177280 cpu:               0.2 elap:               0.1
 (Enter /gpfs/apps/hpc/Apps/Restricted/Gaussian/g16/Rev_B.01-AVX/g16/l301.exe)
 Standard basis: 6-31G(d,p) (6D, 7F)
 Ernie: Thresh=  0.10000D-02 Tol=  0.10000D-05 Strict=F.
   540 basis functions,   945 primitive gaussians,   540 cartesian basis functions
    98 alpha electrons       97 beta electrons
       nuclear repulsion energy      2452.9727111186 Hartrees.
 IExCor=  402 DFT=T Ex+Corr=B3LYP ExCW=0 ScaHFX=  0.200000
 ScaDFX=  0.800000  0.720000  1.000000  0.810000 ScalE2=  1.000000  1.000000
 IRadAn=      5 IRanWt=     -1 IRanGd=            0 ICorTp=0 IEmpDi=141
 NAtoms=   54 NActive=   54 NUniq=   54 SFac= 1.00D+00 NAtFMM=   60 NAOKFM=F Big=F
 Integral buffers will be    131072 words long.
 Raffenetti 2 integral format.
 Two-electron integral symmetry is turned off.
 R6Disp:  Grimme-D3(BJ) Dispersion energy=       -0.1192199641 Hartrees.
 Nuclear repulsion after empirical dispersion term =     2452.8534911546 Hartrees.
 Using the following non-standard input for PCM:
 radii=bondi
 dis
 rep
 cav
 --- end of non-standard input.
 ------------------------------------------------------------------------------
 Polarizable Continuum Model (PCM)
 =================================
 Model                : C-PCM.
 Atomic radii         : Bondi.
 Polarization charges : Total charges.
 Charge compensation  : None.
 Solution method      : On-the-fly selection.
 Cavity type          : Scaled VdW (van der Waals Surface) (Alpha=1.100).
 Cavity algorithm     : GePol (No added spheres)
                        Default sphere list used, NSphG=   54.
                        Lebedev-Laikov grids with approx.  5.0 points / Ang**2.
                        Smoothing algorithm: York/Karplus (Gamma=1.0000).
                        Polarization charges: spherical gaussians, with
                                              point-specific exponents (IZeta= 3).
                        Self-potential: point-specific (ISelfS= 7).
                        Self-field    : sphere-specific E.n sum rule (ISelfD= 2).
 1st derivatives      : Analytical E(r).r(x)/FMM algorithm (CHGder, D1EAlg=3).
                        Cavity 1st derivative terms included.
 Solvent              : Dichloromethane, Eps=   8.930000 Eps(inf)=   2.028346
 ------------------------------------------------------------------------------
 GePol: Number of generator spheres                  =      54
 GePol: Total number of spheres                      =      54
 GePol: Number of exposed spheres                    =      54 (100.00%)
 GePol: Number of points                             =    3495
 GePol: Average weight of points                     =       0.12
 GePol: Minimum weight of points                     =   0.19D-10
 GePol: Maximum weight of points                     =    0.21770
 GePol: Number of points with low weight             =     243
 GePol: Fraction of low-weight points (<1% of avg)   =       6.95%
 GePol: Cavity surface area                          =    420.165 Ang**2
 GePol: Cavity volume                                =    404.700 Ang**3
 PCM non-electrostatic energy =         0.0176587381 Hartrees.
 Nuclear repulsion after PCM non-electrostatic terms =     2452.8711498927 Hartrees.
 Leave Link  301 at Tue Feb 12 16:38:52 2019, MaxMem=  1342177280 cpu:               3.6 elap:               0.3
 (Enter /gpfs/apps/hpc/Apps/Restricted/Gaussian/g16/Rev_B.01-AVX/g16/l302.exe)
 NPDir=0 NMtPBC=     1 NCelOv=     1 NCel=       1 NClECP=     1 NCelD=      1
         NCelK=      1 NCelE2=     1 NClLst=     1 CellRange=     0.0.
 One-electron integrals computed using PRISM.
 NBasis=   540 RedAO= T EigKep=  3.08D-04  NBF=   540
 NBsUse=   540 1.00D-06 EigRej= -1.00D+00 NBFU=   540
 Precomputing XC quadrature grid using
 IXCGrd= 4 IRadAn=           5 IRanWt=          -1 IRanGd=           0 AccXCQ= 0.00D+00.
 Generated NRdTot=       0 NPtTot=           0 NUsed=           0 NTot=          32
 NSgBfM=   533   533   533   533   533 MxSgAt=    54 MxSgA2=    54.
 Leave Link  302 at Tue Feb 12 16:38:53 2019, MaxMem=  1342177280 cpu:              13.1 elap:               0.9
 (Enter /gpfs/apps/hpc/Apps/Restricted/Gaussian/g16/Rev_B.01-AVX/g16/l303.exe)
 DipDrv:  MaxL=1.
 Leave Link  303 at Tue Feb 12 16:38:53 2019, MaxMem=  1342177280 cpu:               2.7 elap:               0.2
 (Enter /gpfs/apps/hpc/Apps/Restricted/Gaussian/g16/Rev_B.01-AVX/g16/l401.exe)
 ExpMin= 1.61D-01 ExpMax= 5.48D+03 ExpMxC= 8.25D+02 IAcc=3 IRadAn=         5 AccDes= 0.00D+00
 Harris functional with IExCor=  402 and IRadAn=       5 diagonalized for initial guess.
 HarFok:  IExCor=  402 AccDes= 0.00D+00 IRadAn=         5 IDoV= 1 UseB2=F ITyADJ=14
 ICtDFT=  3500011 ScaDFX=  1.000000  1.000000  1.000000  1.000000
 FoFCou: FMM=F IPFlag=           0 FMFlag=      100000 FMFlg1=           0
         NFxFlg=           0 DoJE=T BraDBF=F KetDBF=T FulRan=T
         wScrn=  0.000000 ICntrl=       500 IOpCl=  0 I1Cent=   200000004 NGrid=           0
         NMat0=    1 NMatS0=      1 NMatT0=    0 NMatD0=    1 NMtDS0=    0 NMtDT0=    0
 Symmetry not used in FoFCou.
 Harris En= -1169.28241415136    
 JPrj=0 DoOrth=F DoCkMO=F.
 Initial guess <Sx>= 0.0000 <Sy>= 0.0000 <Sz>= 0.5000 <S**2>= 0.7500 S= 0.5000
 Leave Link  401 at Tue Feb 12 16:38:56 2019, MaxMem=  1342177280 cpu:              36.6 elap:               2.3
 (Enter /gpfs/apps/hpc/Apps/Restricted/Gaussian/g16/Rev_B.01-AVX/g16/l502.exe)
 Two-electron integral symmetry not used.
 UHF open shell SCF:
 Using DIIS extrapolation, IDIIS=  1040.
 NGot=  1342177280 LenX=  1341580900 LenY=  1341288760
 Requested convergence on RMS density matrix=1.00D-08 within 128 cycles.
 Requested convergence on MAX density matrix=1.00D-06.
 Requested convergence on             energy=1.00D-06.
 No special actions if energy rises.
 Fock matrices will be formed incrementally for  20 cycles.

 Cycle   1  Pass 1  IDiag  1:
 FoFJK:  IHMeth= 1 ICntrl=       0 DoSepK=F KAlg= 0 I1Cent=           0 FoldK=F
 IRaf= 620000000 NMat=       1 IRICut=       1 DoRegI=T DoRafI=F ISym2E= 0 IDoP0=0 IntGTp=1.
 FoFCou: FMM=F IPFlag=           0 FMFlag=      100000 FMFlg1=           0
         NFxFlg=           0 DoJE=F BraDBF=F KetDBF=F FulRan=T
         wScrn=  0.000000 ICntrl=         0 IOpCl=  1 I1Cent=           0 NGrid=           0
         NMat0=    1 NMatS0=      1 NMatT0=    0 NMatD0=    1 NMtDS0=    0 NMtDT0=    0
 Symmetry not used in FoFCou.
 Inv3:  Mode=1 IEnd=    36645075.
 Iteration    1 A*A^-1 deviation from unit magnitude is 7.99D-15 for   3473.
 Iteration    1 A*A^-1 deviation from orthogonality  is 4.11D-15 for   3470   1542.
 Iteration    1 A^-1*A deviation from unit magnitude is 9.33D-15 for   3477.
 Iteration    1 A^-1*A deviation from orthogonality  is 2.58D-15 for   3477   3360.
 E= -1168.65755056555    
 DIIS: error= 2.77D-02 at cycle   1 NSaved=   1.
 NSaved= 1 IEnMin= 1 EnMin= -1168.65755056555     IErMin= 1 ErrMin= 2.77D-02
 ErrMax= 2.77D-02  0.00D+00 EMaxC= 1.00D-01 BMatC= 2.68D+00 BMatP= 2.68D+00
 IDIUse=3 WtCom= 7.23D-01 WtEn= 2.77D-01
 Coeff-Com:  0.100D+01
 Coeff-En:   0.100D+01
 Coeff:      0.100D+01
 Gap=     0.109 Goal=   None    Shift=    0.000
 Gap=     0.076 Goal=   None    Shift=    0.000
 GapD=    0.076 DampG=0.500 DampE=0.500 DampFc=0.2500 IDamp=-1.
 Damping current iteration by 2.50D-01
 RMSDP=3.50D-03 MaxDP=1.97D-01              OVMax= 3.65D-01

 Cycle   2  Pass 1  IDiag  1:
 RMSU=  8.50D-04    CP:  9.85D-01
 E= -1168.89960613650     Delta-E=       -0.242055570947 Rises=F Damp=T
 DIIS: error= 1.63D-02 at cycle   2 NSaved=   2.
 NSaved= 2 IEnMin= 2 EnMin= -1168.89960613650     IErMin= 2 ErrMin= 1.63D-02
 ErrMax= 1.63D-02  0.00D+00 EMaxC= 1.00D-01 BMatC= 6.79D-01 BMatP= 2.68D+00
 IDIUse=3 WtCom= 8.37D-01 WtEn= 1.63D-01
 Coeff-Com: -0.805D+00 0.180D+01
 Coeff-En:   0.000D+00 0.100D+01
 Coeff:     -0.674D+00 0.167D+01
 Gap=     0.136 Goal=   None    Shift=    0.000
 Gap=     0.119 Goal=   None    Shift=    0.000
 RMSDP=1.36D-03 MaxDP=8.45D-02 DE=-2.42D-01 OVMax= 1.82D-01

 Cycle   3  Pass 1  IDiag  1:
 RMSU=  9.74D-04    CP:  9.54D-01  1.99D+00
 E= -1169.29372413535     Delta-E=       -0.394117998853 Rises=F Damp=F
 DIIS: error= 8.12D-03 at cycle   3 NSaved=   3.
 NSaved= 3 IEnMin= 3 EnMin= -1169.29372413535     IErMin= 3 ErrMin= 8.12D-03
 ErrMax= 8.12D-03  0.00D+00 EMaxC= 1.00D-01 BMatC= 1.38D-01 BMatP= 6.79D-01
 IDIUse=3 WtCom= 9.19D-01 WtEn= 8.12D-02
 Coeff-Com: -0.372D+00 0.829D+00 0.544D+00
 Coeff-En:   0.000D+00 0.000D+00 0.100D+01
 Coeff:     -0.342D+00 0.761D+00 0.581D+00
 Gap=     0.127 Goal=   None    Shift=    0.000
 Gap=     0.081 Goal=   None    Shift=    0.000
 RMSDP=5.66D-04 MaxDP=7.56D-02 DE=-3.94D-01 OVMax= 1.07D-01

 Cycle   4  Pass 1  IDiag  1:
 RMSU=  4.56D-04    CP:  9.57D-01  2.03D+00  6.60D-01
 E= -1169.31471223850     Delta-E=       -0.020988103150 Rises=F Damp=F
 DIIS: error= 7.43D-03 at cycle   4 NSaved=   4.
 NSaved= 4 IEnMin= 4 EnMin= -1169.31471223850     IErMin= 4 ErrMin= 7.43D-03
 ErrMax= 7.43D-03  0.00D+00 EMaxC= 1.00D-01 BMatC= 6.08D-02 BMatP= 1.38D-01
 IDIUse=3 WtCom= 9.26D-01 WtEn= 7.43D-02
 Coeff-Com: -0.498D-01 0.133D+00 0.390D+00 0.526D+00
 Coeff-En:   0.000D+00 0.000D+00 0.295D+00 0.705D+00
 Coeff:     -0.461D-01 0.123D+00 0.383D+00 0.539D+00
 Gap=     0.130 Goal=   None    Shift=    0.000
 Gap=     0.080 Goal=   None    Shift=    0.000
 RMSDP=2.70D-04 MaxDP=3.48D-02 DE=-2.10D-02 OVMax= 4.37D-02

 Cycle   5  Pass 1  IDiag  1:
 RMSU=  1.54D-04    CP:  9.56D-01  1.98D+00  7.80D-01  5.97D-01
 E= -1169.32631536911     Delta-E=       -0.011603130615 Rises=F Damp=F
 DIIS: error= 1.86D-03 at cycle   5 NSaved=   5.
 NSaved= 5 IEnMin= 5 EnMin= -1169.32631536911     IErMin= 5 ErrMin= 1.86D-03
 ErrMax= 1.86D-03  0.00D+00 EMaxC= 1.00D-01 BMatC= 4.58D-03 BMatP= 6.08D-02
 IDIUse=3 WtCom= 9.81D-01 WtEn= 1.86D-02
 Coeff-Com:  0.761D-02-0.257D-02 0.177D+00 0.311D+00 0.507D+00
 Coeff-En:   0.000D+00 0.000D+00 0.000D+00 0.000D+00 0.100D+01
 Coeff:      0.747D-02-0.253D-02 0.174D+00 0.305D+00 0.516D+00
 Gap=     0.129 Goal=   None    Shift=    0.000
 Gap=     0.084 Goal=   None    Shift=    0.000
 RMSDP=8.37D-05 MaxDP=1.21D-02 DE=-1.16D-02 OVMax= 2.13D-02

 Cycle   6  Pass 1  IDiag  1:
 RMSU=  5.79D-05    CP:  9.56D-01  1.98D+00  7.92D-01  6.53D-01  6.54D-01
 E= -1169.32740803956     Delta-E=       -0.001092670447 Rises=F Damp=F
 DIIS: error= 5.22D-04 at cycle   6 NSaved=   6.
 NSaved= 6 IEnMin= 6 EnMin= -1169.32740803956     IErMin= 6 ErrMin= 5.22D-04
 ErrMax= 5.22D-04  0.00D+00 EMaxC= 1.00D-01 BMatC= 5.09D-04 BMatP= 4.58D-03
 IDIUse=3 WtCom= 9.95D-01 WtEn= 5.22D-03
 Coeff-Com:  0.939D-02-0.152D-01 0.477D-01 0.869D-01 0.276D+00 0.596D+00
 Coeff-En:   0.000D+00 0.000D+00 0.000D+00 0.000D+00 0.000D+00 0.100D+01
 Coeff:      0.934D-02-0.152D-01 0.475D-01 0.864D-01 0.274D+00 0.598D+00
 Gap=     0.130 Goal=   None    Shift=    0.000
 Gap=     0.084 Goal=   None    Shift=    0.000
 RMSDP=3.02D-05 MaxDP=3.33D-03 DE=-1.09D-03 OVMax= 1.05D-02

 Cycle   7  Pass 1  IDiag  1:
 RMSU=  2.46D-05    CP:  9.56D-01  1.98D+00  7.96D-01  6.53D-01  7.63D-01
                    CP:  1.01D+00
 E= -1169.32758000725     Delta-E=       -0.000171967686 Rises=F Damp=F
 DIIS: error= 2.51D-04 at cycle   7 NSaved=   7.
 NSaved= 7 IEnMin= 7 EnMin= -1169.32758000725     IErMin= 7 ErrMin= 2.51D-04
 ErrMax= 2.51D-04  0.00D+00 EMaxC= 1.00D-01 BMatC= 8.41D-05 BMatP= 5.09D-04
 IDIUse=3 WtCom= 9.97D-01 WtEn= 2.51D-03
 Coeff-Com:  0.212D-02-0.541D-02-0.234D-01-0.520D-01-0.778D-02 0.228D+00
 Coeff-Com:  0.859D+00
 Coeff-En:   0.000D+00 0.000D+00 0.000D+00 0.000D+00 0.000D+00 0.000D+00
 Coeff-En:   0.100D+01
 Coeff:      0.212D-02-0.539D-02-0.234D-01-0.519D-01-0.776D-02 0.227D+00
 Coeff:      0.859D+00
 Gap=     0.131 Goal=   None    Shift=    0.000
 Gap=     0.086 Goal=   None    Shift=    0.000
 RMSDP=2.27D-05 MaxDP=3.19D-03 DE=-1.72D-04 OVMax= 9.49D-03

 Cycle   8  Pass 1  IDiag  1:
 RMSU=  1.25D-05    CP:  9.56D-01  1.98D+00  8.00D-01  6.61D-01  8.25D-01
                    CP:  1.27D+00  1.09D+00
 E= -1169.32764622556     Delta-E=       -0.000066218311 Rises=F Damp=F
 DIIS: error= 1.25D-04 at cycle   8 NSaved=   8.
 NSaved= 8 IEnMin= 8 EnMin= -1169.32764622556     IErMin= 8 ErrMin= 1.25D-04
 ErrMax= 1.25D-04  0.00D+00 EMaxC= 1.00D-01 BMatC= 3.42D-05 BMatP= 8.41D-05
 IDIUse=3 WtCom= 9.99D-01 WtEn= 1.25D-03
 Coeff-Com: -0.134D-02 0.175D-02-0.239D-01-0.554D-01-0.811D-01-0.982D-01
 Coeff-Com:  0.439D+00 0.820D+00
 Coeff-En:   0.000D+00 0.000D+00 0.000D+00 0.000D+00 0.000D+00 0.000D+00
 Coeff-En:   0.000D+00 0.100D+01
 Coeff:     -0.134D-02 0.175D-02-0.239D-01-0.553D-01-0.810D-01-0.981D-01
 Coeff:      0.438D+00 0.820D+00
 Gap=     0.131 Goal=   None    Shift=    0.000
 Gap=     0.086 Goal=   None    Shift=    0.000
 RMSDP=1.55D-05 MaxDP=1.74D-03 DE=-6.62D-05 OVMax= 6.21D-03

 Cycle   9  Pass 1  IDiag  1:
 RMSU=  6.62D-06    CP:  9.56D-01  1.98D+00  8.03D-01  6.61D-01  8.71D-01
                    CP:  1.40D+00  1.44D+00  1.16D+00
 E= -1169.32766894117     Delta-E=       -0.000022715612 Rises=F Damp=F
 DIIS: error= 7.05D-05 at cycle   9 NSaved=   9.
 NSaved= 9 IEnMin= 9 EnMin= -1169.32766894117     IErMin= 9 ErrMin= 7.05D-05
 ErrMax= 7.05D-05  0.00D+00 EMaxC= 1.00D-01 BMatC= 9.55D-06 BMatP= 3.42D-05
 IDIUse=1 WtCom= 1.00D+00 WtEn= 0.00D+00
 Coeff-Com: -0.861D-03 0.171D-02-0.743D-02-0.202D-01-0.430D-01-0.125D+00
 Coeff-Com:  0.483D-01 0.476D+00 0.671D+00
 Coeff:     -0.861D-03 0.171D-02-0.743D-02-0.202D-01-0.430D-01-0.125D+00
 Coeff:      0.483D-01 0.476D+00 0.671D+00
 Gap=     0.131 Goal=   None    Shift=    0.000
 Gap=     0.086 Goal=   None    Shift=    0.000
 RMSDP=6.77D-06 MaxDP=9.30D-04 DE=-2.27D-05 OVMax= 2.38D-03

 Cycle  10  Pass 1  IDiag  1:
 RMSU=  3.36D-06    CP:  9.56D-01  1.98D+00  8.04D-01  6.61D-01  8.86D-01
                    CP:  1.46D+00  1.56D+00  1.40D+00  8.82D-01
 E= -1169.32767372886     Delta-E=       -0.000004787690 Rises=F Damp=F
 DIIS: error= 2.52D-05 at cycle  10 NSaved=  10.
 NSaved=10 IEnMin=10 EnMin= -1169.32767372886     IErMin=10 ErrMin= 2.52D-05
 ErrMax= 2.52D-05  0.00D+00 EMaxC= 1.00D-01 BMatC= 1.41D-06 BMatP= 9.55D-06
 IDIUse=1 WtCom= 1.00D+00 WtEn= 0.00D+00
 Coeff-Com:  0.303D-04 0.144D-03 0.931D-03 0.528D-03-0.383D-02-0.412D-01
 Coeff-Com: -0.509D-01 0.495D-01 0.308D+00 0.737D+00
 Coeff:      0.303D-04 0.144D-03 0.931D-03 0.528D-03-0.383D-02-0.412D-01
 Coeff:     -0.509D-01 0.495D-01 0.308D+00 0.737D+00
 Gap=     0.131 Goal=   None    Shift=    0.000
 Gap=     0.086 Goal=   None    Shift=    0.000
 RMSDP=2.73D-06 MaxDP=4.44D-04 DE=-4.79D-06 OVMax= 6.26D-04

 Cycle  11  Pass 1  IDiag  1:
 RMSU=  1.62D-06    CP:  9.56D-01  1.98D+00  8.04D-01  6.60D-01  8.90D-01
                    CP:  1.48D+00  1.59D+00  1.47D+00  1.09D+00  9.52D-01
 E= -1169.32767441875     Delta-E=       -0.000000689885 Rises=F Damp=F
 DIIS: error= 1.34D-05 at cycle  11 NSaved=  11.
 NSaved=11 IEnMin=11 EnMin= -1169.32767441875     IErMin=11 ErrMin= 1.34D-05
 ErrMax= 1.34D-05  0.00D+00 EMaxC= 1.00D-01 BMatC= 3.99D-07 BMatP= 1.41D-06
 IDIUse=1 WtCom= 1.00D+00 WtEn= 0.00D+00
 Coeff-Com:  0.241D-03-0.336D-03 0.280D-02 0.615D-02 0.109D-01 0.130D-01
 Coeff-Com: -0.379D-01-0.107D+00-0.944D-02 0.419D+00 0.703D+00
 Coeff:      0.241D-03-0.336D-03 0.280D-02 0.615D-02 0.109D-01 0.130D-01
 Coeff:     -0.379D-01-0.107D+00-0.944D-02 0.419D+00 0.703D+00
 Gap=     0.131 Goal=   None    Shift=    0.000
 Gap=     0.086 Goal=   None    Shift=    0.000
 RMSDP=1.19D-06 MaxDP=1.49D-04 DE=-6.90D-07 OVMax= 3.63D-04

 Cycle  12  Pass 1  IDiag  1:
 RMSU=  5.64D-07    CP:  9.56D-01  1.98D+00  8.04D-01  6.60D-01  8.91D-01
                    CP:  1.47D+00  1.60D+00  1.50D+00  1.15D+00  1.19D+00
                    CP:  9.12D-01
 E= -1169.32767460060     Delta-E=       -0.000000181859 Rises=F Damp=F
 DIIS: error= 4.70D-06 at cycle  12 NSaved=  12.
 NSaved=12 IEnMin=12 EnMin= -1169.32767460060     IErMin=12 ErrMin= 4.70D-06
 ErrMax= 4.70D-06  0.00D+00 EMaxC= 1.00D-01 BMatC= 4.30D-08 BMatP= 3.99D-07
 IDIUse=1 WtCom= 1.00D+00 WtEn= 0.00D+00
 Coeff-Com:  0.596D-04-0.116D-03 0.849D-03 0.220D-02 0.454D-02 0.114D-01
 Coeff-Com: -0.682D-02-0.467D-01-0.479D-01 0.328D-01 0.263D+00 0.787D+00
 Coeff:      0.596D-04-0.116D-03 0.849D-03 0.220D-02 0.454D-02 0.114D-01
 Coeff:     -0.682D-02-0.467D-01-0.479D-01 0.328D-01 0.263D+00 0.787D+00
 Gap=     0.131 Goal=   None    Shift=    0.000
 Gap=     0.086 Goal=   None    Shift=    0.000
 RMSDP=4.67D-07 MaxDP=5.66D-05 DE=-1.82D-07 OVMax= 1.28D-04

 Cycle  13  Pass 1  IDiag  1:
 RMSU=  3.13D-07    CP:  9.56D-01  1.98D+00  8.04D-01  6.60D-01  8.91D-01
                    CP:  1.47D+00  1.61D+00  1.51D+00  1.17D+00  1.24D+00
                    CP:  1.04D+00  9.67D-01
 E= -1169.32767462290     Delta-E=       -0.000000022291 Rises=F Damp=F
 DIIS: error= 3.15D-06 at cycle  13 NSaved=  13.
 NSaved=13 IEnMin=13 EnMin= -1169.32767462290     IErMin=13 ErrMin= 3.15D-06
 ErrMax= 3.15D-06  0.00D+00 EMaxC= 1.00D-01 BMatC= 2.15D-08 BMatP= 4.30D-08
 IDIUse=1 WtCom= 1.00D+00 WtEn= 0.00D+00
 Coeff-Com: -0.286D-04 0.183D-04-0.113D-03 0.195D-04 0.318D-03 0.453D-02
 Coeff-Com:  0.389D-02-0.519D-02-0.275D-01-0.795D-01 0.118D-01 0.493D+00
 Coeff-Com:  0.599D+00
 Coeff:     -0.286D-04 0.183D-04-0.113D-03 0.195D-04 0.318D-03 0.453D-02
 Coeff:      0.389D-02-0.519D-02-0.275D-01-0.795D-01 0.118D-01 0.493D+00
 Coeff:      0.599D+00
 Gap=     0.131 Goal=   None    Shift=    0.000
 Gap=     0.086 Goal=   None    Shift=    0.000
 RMSDP=2.39D-07 MaxDP=3.47D-05 DE=-2.23D-08 OVMax= 5.23D-05

 Cycle  14  Pass 1  IDiag  1:
 RMSU=  1.39D-07    CP:  9.56D-01  1.98D+00  8.04D-01  6.60D-01  8.91D-01
                    CP:  1.47D+00  1.61D+00  1.51D+00  1.19D+00  1.26D+00
                    CP:  1.08D+00  1.21D+00  8.60D-01
 E= -1169.32767463133     Delta-E=       -0.000000008430 Rises=F Damp=F
 DIIS: error= 1.10D-06 at cycle  14 NSaved=  14.
 NSaved=14 IEnMin=14 EnMin= -1169.32767463133     IErMin=14 ErrMin= 1.10D-06
 ErrMax= 1.10D-06  0.00D+00 EMaxC= 1.00D-01 BMatC= 2.56D-09 BMatP= 2.15D-08
 IDIUse=1 WtCom= 1.00D+00 WtEn= 0.00D+00
 Coeff-Com: -0.293D-04 0.391D-04-0.212D-03-0.386D-03-0.803D-03-0.197D-03
 Coeff-Com:  0.254D-02 0.680D-02-0.168D-02-0.406D-01-0.372D-01 0.465D-01
 Coeff-Com:  0.237D+00 0.788D+00
 Coeff:     -0.293D-04 0.391D-04-0.212D-03-0.386D-03-0.803D-03-0.197D-03
 Coeff:      0.254D-02 0.680D-02-0.168D-02-0.406D-01-0.372D-01 0.465D-01
 Coeff:      0.237D+00 0.788D+00
 Gap=     0.131 Goal=   None    Shift=    0.000
 Gap=     0.086 Goal=   None    Shift=    0.000
 RMSDP=1.15D-07 MaxDP=1.32D-05 DE=-8.43D-09 OVMax= 3.11D-05

 Cycle  15  Pass 1  IDiag  1:
 RMSU=  6.37D-08    CP:  9.56D-01  1.98D+00  8.04D-01  6.60D-01  8.91D-01
                    CP:  1.47D+00  1.61D+00  1.52D+00  1.19D+00  1.26D+00
                    CP:  1.11D+00  1.28D+00  1.06D+00  1.07D+00
 E= -1169.32767463299     Delta-E=       -0.000000001667 Rises=F Damp=F
 DIIS: error= 6.14D-07 at cycle  15 NSaved=  15.
 NSaved=15 IEnMin=15 EnMin= -1169.32767463299     IErMin=15 ErrMin= 6.14D-07
 ErrMax= 6.14D-07  0.00D+00 EMaxC= 1.00D-01 BMatC= 9.54D-10 BMatP= 2.56D-09
 IDIUse=1 WtCom= 1.00D+00 WtEn= 0.00D+00
 Coeff-Com: -0.868D-05 0.171D-04-0.769D-04-0.184D-03-0.515D-03-0.118D-02
 Coeff-Com:  0.216D-03 0.500D-02 0.603D-02-0.294D-02-0.214D-01-0.114D+00
 Coeff-Com: -0.350D-01 0.444D+00 0.720D+00
 Coeff:     -0.868D-05 0.171D-04-0.769D-04-0.184D-03-0.515D-03-0.118D-02
 Coeff:      0.216D-03 0.500D-02 0.603D-02-0.294D-02-0.214D-01-0.114D+00
 Coeff:     -0.350D-01 0.444D+00 0.720D+00
 Gap=     0.131 Goal=   None    Shift=    0.000
 Gap=     0.086 Goal=   None    Shift=    0.000
 RMSDP=7.23D-08 MaxDP=7.27D-06 DE=-1.67D-09 OVMax= 2.34D-05

 Cycle  16  Pass 1  IDiag  1:
 RMSU=  3.38D-08    CP:  9.56D-01  1.98D+00  8.04D-01  6.60D-01  8.91D-01
                    CP:  1.48D+00  1.61D+00  1.52D+00  1.19D+00  1.26D+00
                    CP:  1.11D+00  1.33D+00  1.15D+00  1.37D+00  9.67D-01
 E= -1169.32767463362     Delta-E=       -0.000000000632 Rises=F Damp=F
 DIIS: error= 3.90D-07 at cycle  16 NSaved=  16.
 NSaved=16 IEnMin=16 EnMin= -1169.32767463362     IErMin=16 ErrMin= 3.90D-07
 ErrMax= 3.90D-07  0.00D+00 EMaxC= 1.00D-01 BMatC= 1.76D-10 BMatP= 9.54D-10
 IDIUse=1 WtCom= 1.00D+00 WtEn= 0.00D+00
 Coeff-Com:  0.564D-05-0.611D-05 0.329D-04 0.569D-04 0.375D-04-0.328D-03
 Coeff-Com: -0.768D-03-0.209D-03 0.266D-02 0.105D-01 0.466D-02-0.549D-01
 Coeff-Com: -0.788D-01-0.679D-01 0.290D+00 0.895D+00
 Coeff:      0.564D-05-0.611D-05 0.329D-04 0.569D-04 0.375D-04-0.328D-03
 Coeff:     -0.768D-03-0.209D-03 0.266D-02 0.105D-01 0.466D-02-0.549D-01
 Coeff:     -0.788D-01-0.679D-01 0.290D+00 0.895D+00
 Gap=     0.131 Goal=   None    Shift=    0.000
 Gap=     0.086 Goal=   None    Shift=    0.000
 RMSDP=4.12D-08 MaxDP=4.51D-06 DE=-6.32D-10 OVMax= 1.33D-05

 Cycle  17  Pass 1  IDiag  1:
 RMSU=  1.61D-08    CP:  9.56D-01  1.98D+00  8.04D-01  6.60D-01  8.91D-01
                    CP:  1.48D+00  1.61D+00  1.52D+00  1.19D+00  1.27D+00
                    CP:  1.12D+00  1.35D+00  1.21D+00  1.49D+00  1.28D+00
                    CP:  1.20D+00
 E= -1169.32767463379     Delta-E=       -0.000000000166 Rises=F Damp=F
 DIIS: error= 2.01D-07 at cycle  17 NSaved=  17.
 NSaved=17 IEnMin=17 EnMin= -1169.32767463379     IErMin=17 ErrMin= 2.01D-07
 ErrMax= 2.01D-07  0.00D+00 EMaxC= 1.00D-01 BMatC= 4.06D-11 BMatP= 1.76D-10
 IDIUse=1 WtCom= 1.00D+00 WtEn= 0.00D+00
 Coeff-Com:  0.305D-05-0.414D-05 0.260D-04 0.552D-04 0.987D-04 0.683D-04
 Coeff-Com: -0.348D-03-0.900D-03 0.395D-04 0.472D-02 0.544D-02-0.392D-02
 Coeff-Com: -0.268D-01-0.112D+00 0.541D-02 0.391D+00 0.737D+00
 Coeff:      0.305D-05-0.414D-05 0.260D-04 0.552D-04 0.987D-04 0.683D-04
 Coeff:     -0.348D-03-0.900D-03 0.395D-04 0.472D-02 0.544D-02-0.392D-02
 Coeff:     -0.268D-01-0.112D+00 0.541D-02 0.391D+00 0.737D+00
 Gap=     0.131 Goal=   None    Shift=    0.000
 Gap=     0.086 Goal=   None    Shift=    0.000
 RMSDP=1.63D-08 MaxDP=1.94D-06 DE=-1.66D-10 OVMax= 5.25D-06

 Cycle  18  Pass 1  IDiag  1:
 RMSU=  8.32D-09    CP:  9.56D-01  1.98D+00  8.04D-01  6.60D-01  8.91D-01
                    CP:  1.48D+00  1.61D+00  1.52D+00  1.19D+00  1.27D+00
                    CP:  1.12D+00  1.36D+00  1.23D+00  1.54D+00  1.38D+00
                    CP:  1.43D+00  1.12D+00
 E= -1169.32767463384     Delta-E=       -0.000000000052 Rises=F Damp=F
 DIIS: error= 1.03D-07 at cycle  18 NSaved=  18.
 NSaved=18 IEnMin=18 EnMin= -1169.32767463384     IErMin=18 ErrMin= 1.03D-07
 ErrMax= 1.03D-07  0.00D+00 EMaxC= 1.00D-01 BMatC= 1.29D-11 BMatP= 4.06D-11
 IDIUse=1 WtCom= 1.00D+00 WtEn= 0.00D+00
 Coeff-Com: -0.436D-06-0.533D-07 0.186D-05 0.891D-05 0.418D-04 0.169D-03
 Coeff-Com:  0.112D-03-0.393D-03-0.102D-02-0.149D-02 0.959D-03 0.188D-01
 Coeff-Com:  0.174D-01-0.334D-01-0.105D+00-0.142D+00 0.376D+00 0.869D+00
 Coeff:     -0.436D-06-0.533D-07 0.186D-05 0.891D-05 0.418D-04 0.169D-03
 Coeff:      0.112D-03-0.393D-03-0.102D-02-0.149D-02 0.959D-03 0.188D-01
 Coeff:      0.174D-01-0.334D-01-0.105D+00-0.142D+00 0.376D+00 0.869D+00
 Gap=     0.131 Goal=   None    Shift=    0.000
 Gap=     0.086 Goal=   None    Shift=    0.000
 RMSDP=1.13D-08 MaxDP=1.47D-06 DE=-5.23D-11 OVMax= 3.73D-06

 Cycle  19  Pass 1  IDiag  1:
 RMSU=  4.10D-09    CP:  9.56D-01  1.98D+00  8.04D-01  6.60D-01  8.91D-01
                    CP:  1.48D+00  1.61D+00  1.52D+00  1.19D+00  1.27D+00
                    CP:  1.12D+00  1.36D+00  1.23D+00  1.56D+00  1.45D+00
                    CP:  1.59D+00  1.49D+00  1.13D+00
 E= -1169.32767463384     Delta-E=        0.000000000001 Rises=F Damp=F
 DIIS: error= 4.36D-08 at cycle  19 NSaved=  19.
 NSaved=19 IEnMin=18 EnMin= -1169.32767463384     IErMin=19 ErrMin= 4.36D-08
 ErrMax= 4.36D-08  0.00D+00 EMaxC= 1.00D-01 BMatC= 2.93D-12 BMatP= 1.29D-11
 IDIUse=1 WtCom= 1.00D+00 WtEn= 0.00D+00
 Coeff-Com: -0.828D-06 0.840D-06-0.445D-05-0.774D-05 0.665D-06 0.694D-04
 Coeff-Com:  0.131D-03 0.393D-05-0.528D-03-0.176D-02-0.803D-03 0.980D-02
 Coeff-Com:  0.146D-01 0.842D-02-0.502D-01-0.153D+00 0.282D-01 0.403D+00
 Coeff-Com:  0.742D+00
 Coeff:     -0.828D-06 0.840D-06-0.445D-05-0.774D-05 0.665D-06 0.694D-04
 Coeff:      0.131D-03 0.393D-05-0.528D-03-0.176D-02-0.803D-03 0.980D-02
 Coeff:      0.146D-01 0.842D-02-0.502D-01-0.153D+00 0.282D-01 0.403D+00
 Coeff:      0.742D+00
 Gap=     0.131 Goal=   None    Shift=    0.000
 Gap=     0.086 Goal=   None    Shift=    0.000
 RMSDP=4.55D-09 MaxDP=6.02D-07 DE= 9.09D-13 OVMax= 1.61D-06

 Error on total polarization charges =  0.03693
 SCF Done:  E(UB3LYP) =  -1169.32767463     A.U. after   19 cycles
            NFock= 19  Conv=0.45D-08     -V/T= 2.0095
 <Sx>= 0.0000 <Sy>= 0.0000 <Sz>= 0.5000 <S**2>= 0.7737 S= 0.5118
 <L.S>=  0.00000000000    
 KE= 1.158330259814D+03 PE=-7.598094347619D+03 EE= 2.817565263278D+03
 Annihilation of the first spin contaminant:
 S**2 before annihilation     0.7737,   after     0.7504
 Leave Link  502 at Tue Feb 12 16:41:37 2019, MaxMem=  1342177280 cpu:            2515.0 elap:             161.1
 (Enter /gpfs/apps/hpc/Apps/Restricted/Gaussian/g16/Rev_B.01-AVX/g16/l601.exe)
 Copying SCF densities to generalized density rwf, IOpCl= 1 IROHF=0.

 **********************************************************************

            Population analysis using the SCF Density.

 **********************************************************************

 Alpha  occ. eigenvalues --  -19.25342 -19.16256 -14.41873 -14.40411 -14.35443
 Alpha  occ. eigenvalues --  -10.38106 -10.29176 -10.28349 -10.25359 -10.25135
 Alpha  occ. eigenvalues --  -10.24304 -10.23861 -10.23468 -10.23169 -10.22717
 Alpha  occ. eigenvalues --  -10.22444 -10.21900 -10.21851 -10.21658 -10.21293
 Alpha  occ. eigenvalues --  -10.20765 -10.18306 -10.18280 -10.17955 -10.17640
 Alpha  occ. eigenvalues --  -10.17424 -10.17384  -1.18024  -1.05528  -1.03320
 Alpha  occ. eigenvalues --   -0.97912  -0.91024  -0.89135  -0.87798  -0.83958
 Alpha  occ. eigenvalues --   -0.82918  -0.79792  -0.78679  -0.75503  -0.73795
 Alpha  occ. eigenvalues --   -0.72773  -0.69946  -0.69403  -0.69001  -0.68714
 Alpha  occ. eigenvalues --   -0.67703  -0.65991  -0.64954  -0.63076  -0.62013
 Alpha  occ. eigenvalues --   -0.60513  -0.59455  -0.57588  -0.55543  -0.54245
 Alpha  occ. eigenvalues --   -0.52952  -0.52046  -0.51275  -0.50540  -0.49962
 Alpha  occ. eigenvalues --   -0.48805  -0.47919  -0.47507  -0.46866  -0.45892
 Alpha  occ. eigenvalues --   -0.45180  -0.45047  -0.44316  -0.44036  -0.43365
 Alpha  occ. eigenvalues --   -0.42811  -0.42601  -0.41338  -0.40391  -0.40012
 Alpha  occ. eigenvalues --   -0.39602  -0.39382  -0.38893  -0.38409  -0.37903
 Alpha  occ. eigenvalues --   -0.37804  -0.37347  -0.36735  -0.35768  -0.35641
 Alpha  occ. eigenvalues --   -0.35424  -0.34232  -0.34113  -0.33918  -0.33593
 Alpha  occ. eigenvalues --   -0.33088  -0.32415  -0.30795  -0.29746  -0.27642
 Alpha  occ. eigenvalues --   -0.26745  -0.25137  -0.22827
 Alpha virt. eigenvalues --   -0.09726  -0.05213  -0.02407  -0.00847   0.01317
 Alpha virt. eigenvalues --    0.04338   0.05488   0.07337   0.08810   0.09169
 Alpha virt. eigenvalues --    0.09929   0.11534   0.11786   0.12307   0.12782
 Alpha virt. eigenvalues --    0.13109   0.13208   0.13648   0.14168   0.14817
 Alpha virt. eigenvalues --    0.15568   0.15686   0.16036   0.16161   0.16686
 Alpha virt. eigenvalues --    0.17109   0.17428   0.17641   0.17965   0.19326
 Alpha virt. eigenvalues --    0.19801   0.19828   0.19989   0.20379   0.20630
 Alpha virt. eigenvalues --    0.21307   0.21420   0.21891   0.22302   0.22494
 Alpha virt. eigenvalues --    0.23247   0.23443   0.24456   0.24681   0.25138
 Alpha virt. eigenvalues --    0.25246   0.25845   0.27141   0.27429   0.28482
 Alpha virt. eigenvalues --    0.30935   0.32805   0.33604   0.33924   0.35794
 Alpha virt. eigenvalues --    0.36546   0.37940   0.39207   0.40186   0.44286
 Alpha virt. eigenvalues --    0.44604   0.45900   0.47386   0.47752   0.47874
 Alpha virt. eigenvalues --    0.48294   0.49070   0.49715   0.49801   0.49842
 Alpha virt. eigenvalues --    0.50052   0.51191   0.51289   0.51836   0.52317
 Alpha virt. eigenvalues --    0.52663   0.53000   0.53528   0.54040   0.54854
 Alpha virt. eigenvalues --    0.56308   0.57108   0.58108   0.58346   0.58851
 Alpha virt. eigenvalues --    0.58997   0.59440   0.59973   0.60342   0.60457
 Alpha virt. eigenvalues --    0.61115   0.61144   0.61970   0.62096   0.62763
 Alpha virt. eigenvalues --    0.63246   0.63549   0.65430   0.66202   0.66667
 Alpha virt. eigenvalues --    0.66971   0.68454   0.69100   0.70161   0.70449
 Alpha virt. eigenvalues --    0.71236   0.71373   0.72850   0.74574   0.75190
 Alpha virt. eigenvalues --    0.76532   0.76551   0.76908   0.77728   0.78177
 Alpha virt. eigenvalues --    0.79097   0.79872   0.80308   0.81589   0.81791
 Alpha virt. eigenvalues --    0.82466   0.83349   0.83669   0.84314   0.84517
 Alpha virt. eigenvalues --    0.84684   0.84988   0.85303   0.85717   0.86709
 Alpha virt. eigenvalues --    0.86951   0.87721   0.87912   0.88066   0.88331
 Alpha virt. eigenvalues --    0.88445   0.88836   0.89203   0.89964   0.90486
 Alpha virt. eigenvalues --    0.91011   0.91375   0.91754   0.92188   0.92843
 Alpha virt. eigenvalues --    0.93587   0.93885   0.94406   0.94910   0.96090
 Alpha virt. eigenvalues --    0.96172   0.97006   0.97301   0.98058   0.99088
 Alpha virt. eigenvalues --    1.00359   1.00612   1.02649   1.02966   1.04402
 Alpha virt. eigenvalues --    1.05786   1.07529   1.08275   1.09373   1.11088
 Alpha virt. eigenvalues --    1.12263   1.14479   1.14787   1.15698   1.16381
 Alpha virt. eigenvalues --    1.17910   1.18651   1.19118   1.20066   1.21223
 Alpha virt. eigenvalues --    1.22441   1.23643   1.24693   1.24996   1.25428
 Alpha virt. eigenvalues --    1.26126   1.27056   1.27976   1.28318   1.30305
 Alpha virt. eigenvalues --    1.31823   1.32977   1.34190   1.35381   1.37173
 Alpha virt. eigenvalues --    1.38001   1.38248   1.38453   1.39031   1.40714
 Alpha virt. eigenvalues --    1.41617   1.42942   1.43792   1.44960   1.45844
 Alpha virt. eigenvalues --    1.46462   1.47040   1.47293   1.49019   1.49448
 Alpha virt. eigenvalues --    1.49553   1.50354   1.52730   1.53941   1.54182
 Alpha virt. eigenvalues --    1.57730   1.58598   1.59809   1.60692   1.67735
 Alpha virt. eigenvalues --    1.68087   1.69973   1.70706   1.72536   1.73142
 Alpha virt. eigenvalues --    1.73323   1.74643   1.75635   1.76315   1.76974
 Alpha virt. eigenvalues --    1.77608   1.78192   1.78883   1.80026   1.80268
 Alpha virt. eigenvalues --    1.80837   1.81835   1.82288   1.82725   1.83437
 Alpha virt. eigenvalues --    1.83746   1.83986   1.84543   1.84825   1.85894
 Alpha virt. eigenvalues --    1.86414   1.87538   1.87825   1.88619   1.89947
 Alpha virt. eigenvalues --    1.90278   1.91518   1.92457   1.93377   1.95593
 Alpha virt. eigenvalues --    1.95876   1.96845   1.97873   1.98937   1.99274
 Alpha virt. eigenvalues --    2.00433   2.01151   2.02174   2.03289   2.03717
 Alpha virt. eigenvalues --    2.04158   2.04284   2.04567   2.04869   2.05175
 Alpha virt. eigenvalues --    2.05412   2.06811   2.07092   2.07591   2.08066
 Alpha virt. eigenvalues --    2.08874   2.08934   2.09677   2.09926   2.10281
 Alpha virt. eigenvalues --    2.10502   2.10892   2.11287   2.12312   2.13129
 Alpha virt. eigenvalues --    2.13435   2.13688   2.14682   2.14785   2.15752
 Alpha virt. eigenvalues --    2.16805   2.17800   2.19228   2.20060   2.21211
 Alpha virt. eigenvalues --    2.22035   2.23127   2.23817   2.24119   2.24575
 Alpha virt. eigenvalues --    2.26263   2.26809   2.27924   2.28557   2.29462
 Alpha virt. eigenvalues --    2.30405   2.31075   2.31305   2.32197   2.34558
 Alpha virt. eigenvalues --    2.35198   2.36024   2.36876   2.37381   2.39682
 Alpha virt. eigenvalues --    2.39934   2.40944   2.41131   2.42364   2.43427
 Alpha virt. eigenvalues --    2.44886   2.46850   2.47195   2.47471   2.49808
 Alpha virt. eigenvalues --    2.51250   2.51592   2.52663   2.52787   2.52955
 Alpha virt. eigenvalues --    2.53822   2.54455   2.56813   2.57805   2.58089
 Alpha virt. eigenvalues --    2.59599   2.60567   2.61225   2.61526   2.61816
 Alpha virt. eigenvalues --    2.62226   2.63785   2.64039   2.65406   2.66211
 Alpha virt. eigenvalues --    2.67507   2.68178   2.69314   2.69849   2.70983
 Alpha virt. eigenvalues --    2.71914   2.72456   2.73057   2.73589   2.74187
 Alpha virt. eigenvalues --    2.74579   2.74844   2.76258   2.76672   2.76874
 Alpha virt. eigenvalues --    2.76939   2.78953   2.79282   2.81230   2.84770
 Alpha virt. eigenvalues --    2.86760   2.86890   2.87450   2.87870   2.88025
 Alpha virt. eigenvalues --    2.88721   2.89042   2.90130   2.90856   2.93306
 Alpha virt. eigenvalues --    2.93779   2.94138   2.95665   2.96474   2.97023
 Alpha virt. eigenvalues --    2.99863   3.02289   3.02785   3.04338   3.05166
 Alpha virt. eigenvalues --    3.05608   3.10014   3.15828   3.17762   3.17883
 Alpha virt. eigenvalues --    3.18879   3.20774   3.22451   3.23800   3.24985
 Alpha virt. eigenvalues --    3.25000   3.26400   3.27342   3.29870   3.35636
 Alpha virt. eigenvalues --    3.40414   3.41474   3.41514   3.42050   3.42794
 Alpha virt. eigenvalues --    3.43197   3.43432   3.43602   3.44779   3.44861
 Alpha virt. eigenvalues --    3.45829   3.48040   3.51063   3.52200   3.53242
 Alpha virt. eigenvalues --    3.55587   3.60121   3.62691   3.68830   3.79409
 Alpha virt. eigenvalues --    3.98289   4.02742   4.06555   4.10709   4.11267
 Alpha virt. eigenvalues --    4.14785   4.15797   4.22963   4.25104   4.30348
 Alpha virt. eigenvalues --    4.36279   4.38754   4.43997   4.45582   4.47642
 Alpha virt. eigenvalues --    4.50773   4.53671   4.54701   4.55356   4.60138
 Alpha virt. eigenvalues --    4.61799   4.63741   4.66242   4.73317   4.78902
 Alpha virt. eigenvalues --    4.85354   4.91001
  Beta  occ. eigenvalues --  -19.25342 -19.15345 -14.41870 -14.40386 -14.35337
  Beta  occ. eigenvalues --  -10.38105 -10.29240 -10.28353 -10.25332 -10.25148
  Beta  occ. eigenvalues --  -10.24291 -10.23593 -10.23152 -10.23002 -10.22719
  Beta  occ. eigenvalues --  -10.22131 -10.22002 -10.21827 -10.21677 -10.21308
  Beta  occ. eigenvalues --  -10.20921 -10.18267 -10.18246 -10.17954 -10.17640
  Beta  occ. eigenvalues --  -10.17403 -10.17364  -1.18021  -1.05245  -1.01858
  Beta  occ. eigenvalues --   -0.97905  -0.90901  -0.88653  -0.87581  -0.83671
  Beta  occ. eigenvalues --   -0.82621  -0.79744  -0.78549  -0.75410  -0.73182
  Beta  occ. eigenvalues --   -0.72584  -0.69846  -0.69296  -0.68973  -0.68643
  Beta  occ. eigenvalues --   -0.67673  -0.65916  -0.64899  -0.62823  -0.61851
  Beta  occ. eigenvalues --   -0.60384  -0.59434  -0.57477  -0.55505  -0.54134
  Beta  occ. eigenvalues --   -0.52836  -0.51987  -0.51092  -0.50462  -0.49793
  Beta  occ. eigenvalues --   -0.48718  -0.47593  -0.47408  -0.46785  -0.45594
  Beta  occ. eigenvalues --   -0.44958  -0.44780  -0.44110  -0.43958  -0.42808
  Beta  occ. eigenvalues --   -0.42571  -0.41857  -0.41086  -0.39967  -0.39925
  Beta  occ. eigenvalues --   -0.39556  -0.39222  -0.38719  -0.38359  -0.37798
  Beta  occ. eigenvalues --   -0.37430  -0.37284  -0.36572  -0.35414  -0.35346
  Beta  occ. eigenvalues --   -0.34538  -0.34099  -0.33780  -0.33551  -0.33508
  Beta  occ. eigenvalues --   -0.32284  -0.31556  -0.30687  -0.29082  -0.26855
  Beta  occ. eigenvalues --   -0.26519  -0.24395
  Beta virt. eigenvalues --   -0.15766  -0.09509  -0.04515  -0.00813   0.00090
  Beta virt. eigenvalues --    0.01641   0.04948   0.05562   0.07343   0.08834
  Beta virt. eigenvalues --    0.09206   0.09942   0.11545   0.11874   0.12374
  Beta virt. eigenvalues --    0.12890   0.13275   0.13484   0.13687   0.14534
  Beta virt. eigenvalues --    0.14874   0.15642   0.15801   0.16101   0.16227
  Beta virt. eigenvalues --    0.16738   0.17441   0.17542   0.17692   0.18027
[...]
 ! D102  D(25,20,33,34)        178.409          calculate D2E/DX2 analytically  !
 ! D103  D(25,20,33,35)        -59.8407         calculate D2E/DX2 analytically  !
 ! D104  D(25,20,33,36)         59.2432         calculate D2E/DX2 analytically  !
 ! D105  D(29,20,33,34)         59.6763         calculate D2E/DX2 analytically  !
 ! D106  D(29,20,33,35)       -178.5733         calculate D2E/DX2 analytically  !
 ! D107  D(29,20,33,36)        -59.4895         calculate D2E/DX2 analytically  !
 ! D108  D(17,21,37,38)        179.3495         calculate D2E/DX2 analytically  !
 ! D109  D(17,21,37,39)        -60.5702         calculate D2E/DX2 analytically  !
 ! D110  D(17,21,37,40)         60.5183         calculate D2E/DX2 analytically  !
 ! D111  D(41,21,37,38)        -60.0186         calculate D2E/DX2 analytically  !
 ! D112  D(41,21,37,39)         60.0617         calculate D2E/DX2 analytically  !
 ! D113  D(41,21,37,40)       -178.8498         calculate D2E/DX2 analytically  !
 ! D114  D(45,21,37,38)         57.5047         calculate D2E/DX2 analytically  !
 ! D115  D(45,21,37,39)        177.585          calculate D2E/DX2 analytically  !
 ! D116  D(45,21,37,40)        -61.3265         calculate D2E/DX2 analytically  !
 ! D117  D(17,21,41,42)         61.8546         calculate D2E/DX2 analytically  !
 ! D118  D(17,21,41,43)       -177.9553         calculate D2E/DX2 analytically  !
 ! D119  D(17,21,41,44)        -58.9779         calculate D2E/DX2 analytically  !
 ! D120  D(37,21,41,42)        -58.8555         calculate D2E/DX2 analytically  !
 ! D121  D(37,21,41,43)         61.3346         calculate D2E/DX2 analytically  !
 ! D122  D(37,21,41,44)       -179.688          calculate D2E/DX2 analytically  !
 ! D123  D(45,21,41,42)       -176.3514         calculate D2E/DX2 analytically  !
 ! D124  D(45,21,41,43)        -56.1614         calculate D2E/DX2 analytically  !
 ! D125  D(45,21,41,44)         62.8161         calculate D2E/DX2 analytically  !
 ! D126  D(17,21,45,46)        -61.167          calculate D2E/DX2 analytically  !
 ! D127  D(17,21,45,47)         60.4626         calculate D2E/DX2 analytically  !
 ! D128  D(17,21,45,48)        179.6584         calculate D2E/DX2 analytically  !
 ! D129  D(37,21,45,46)         59.5096         calculate D2E/DX2 analytically  !
 ! D130  D(37,21,45,47)       -178.8607         calculate D2E/DX2 analytically  !
 ! D131  D(37,21,45,48)        -59.6649         calculate D2E/DX2 analytically  !
 ! D132  D(41,21,45,46)        178.288          calculate D2E/DX2 analytically  !
 ! D133  D(41,21,45,47)        -60.0823         calculate D2E/DX2 analytically  !
 ! D134  D(41,21,45,48)         59.1135         calculate D2E/DX2 analytically  !
 ! D135  D(6,24,49,54)          -0.7493         calculate D2E/DX2 analytically  !
 ! D136  D(50,24,49,54)        178.9574         calculate D2E/DX2 analytically  !
 ! D137  D(6,24,50,51)           1.0343         calculate D2E/DX2 analytically  !
 ! D138  D(6,24,50,52)        -179.8925         calculate D2E/DX2 analytically  !
 ! D139  D(49,24,50,51)       -178.6601         calculate D2E/DX2 analytically  !
 ! D140  D(49,24,50,52)          0.4131         calculate D2E/DX2 analytically  !
 --------------------------------------------------------------------------------
 Trust Radius=3.00D-01 FncErr=1.00D-07 GrdErr=1.00D-07 EigMax=2.50D+02 EigMin=1.00D-04
 Number of steps in this run=      2 maximum allowed number of steps=      2.
 GradGradGradGradGradGradGradGradGradGradGradGradGradGradGradGradGradGrad

 Leave Link  103 at Tue Feb 12 17:12:35 2019, MaxMem=  1342177280 cpu:               1.1 elap:               0.1
 (Enter /gpfs/apps/hpc/Apps/Restricted/Gaussian/g16/Rev_B.01-AVX/g16/l202.exe)
 Symmetry turned off by external request.
 Stoichiometry    C22H27N3O2(1+,2)
 Framework group  C1[X(C22H27N3O2)]
 Deg. of freedom   156
 Full point group                 C1      NOp   1
                          Input orientation:                          
 ---------------------------------------------------------------------
 Center     Atomic      Atomic             Coordinates (Angstroms)
 Number     Number       Type             X           Y           Z
 ---------------------------------------------------------------------
      1          6           0       -0.527014    2.714588    0.427516
      2          6           0       -1.909055    2.974525    0.291997
      3          6           0       -2.394626    4.274071    0.180270
      4          6           0       -1.453489    5.308416    0.206050
      5          6           0       -0.079948    5.067957    0.344054
      6          6           0        0.414124    3.761689    0.462404
      7          6           0       -1.505324    0.789626    0.416936
      8          1           0       -3.452029    4.478784    0.071821
      9          1           0       -1.796353    6.331300    0.117990
     10          1           0        0.594180    5.915516    0.355087
     11          7           0       -2.490361    1.726673    0.292805
     12          6           0       -3.119246   -1.161314    0.336256
     13          6           0       -1.748567   -0.640870    0.433854
     14          6           0       -0.677667   -1.505850    0.521103
     15          6           0       -0.858727   -2.903849    0.524037
     16          6           0       -2.173186   -3.414399    0.443508
     17          6           0       -3.298416   -2.618375    0.354005
     18          1           0        0.322045   -1.094590    0.580987
     19          1           0       -2.298893   -4.485612    0.451438
     20          6           0        0.366826   -3.805547    0.590679
     21          6           0       -4.702515   -3.213817    0.274013
     22          8           0       -4.096245   -0.373870    0.237528
     23          7           0       -0.296396    1.366735    0.503430
     24          6           0        1.814594    3.395675    0.621095
     25          6           0        1.248233   -3.515747   -0.645225
     26          1           0        1.553213   -2.467599   -0.679165
     27          1           0        2.149838   -4.132485   -0.604236
     28          1           0        0.713217   -3.749581   -1.568936
     29          6           0        1.168231   -3.477392    1.869023
     30          1           0        0.576762   -3.679859    2.764990
     31          1           0        2.065985   -4.099936    1.902576
     32          1           0        1.481018   -2.431276    1.891175
     33          6           0        0.004137   -5.296029    0.602903
     34          1           0       -0.598207   -5.558767    1.476421
     35          1           0       -0.544674   -5.584532   -0.297177
     36          1           0        0.921353   -5.887654    0.638954
     37          6           0       -5.368251   -2.804110   -1.059228
     38          1           0       -6.367788   -3.244277   -1.112485
     39          1           0       -5.458700   -1.722329   -1.142961
     40          1           0       -4.788652   -3.174730   -1.908879
     41          6           0       -5.549864   -2.706825    1.463678
     42          1           0       -5.660407   -1.624206    1.434827
     43          1           0       -6.542340   -3.163781    1.422880
     44          1           0       -5.084500   -2.986786    2.412439
     45          6           0       -4.670899   -4.749397    0.334707
     46          1           0       -4.109725   -5.177305   -0.500123
     47          1           0       -4.227618   -5.107421    1.267530
     48          1           0       -5.694261   -5.126489    0.280422
     49          8           0        2.152359    2.137227    0.689980
     50          7           0        2.789425    4.270832    0.708043
     51          1           0        2.622135    5.265214    0.684808
     52          1           0        3.741021    3.946652    0.815779
     53          1           0       -3.465489    1.449139    0.218568
     54          1           0        1.324753    1.545401    0.629920
 ---------------------------------------------------------------------
 Rotational constants (GHZ):           0.2889561           0.1120749           0.0837599
 Leave Link  202 at Tue Feb 12 17:12:36 2019, MaxMem=  1342177280 cpu:               0.1 elap:               0.0
 (Enter /gpfs/apps/hpc/Apps/Restricted/Gaussian/g16/Rev_B.01-AVX/g16/l301.exe)
 Standard basis: 6-31G(d,p) (6D, 7F)
 Ernie: Thresh=  0.10000D-02 Tol=  0.10000D-05 Strict=F.
   540 basis functions,   945 primitive gaussians,   540 cartesian basis functions
    98 alpha electrons       97 beta electrons
       nuclear repulsion energy      2459.5417579759 Hartrees.
 IExCor=  402 DFT=T Ex+Corr=B3LYP ExCW=0 ScaHFX=  0.200000
 ScaDFX=  0.800000  0.720000  1.000000  0.810000 ScalE2=  1.000000  1.000000
 IRadAn=      5 IRanWt=     -1 IRanGd=            0 ICorTp=0 IEmpDi=141
 NAtoms=   54 NActive=   54 NUniq=   54 SFac= 1.00D+00 NAtFMM=   60 NAOKFM=F Big=F
 Integral buffers will be    131072 words long.
 Raffenetti 2 integral format.
 Two-electron integral symmetry is turned off.
 R6Disp:  Grimme-D3(BJ) Dispersion energy=       -0.1194894807 Hartrees.
 Nuclear repulsion after empirical dispersion term =     2459.4222684952 Hartrees.
 Force inversion solution in PCM.
 ------------------------------------------------------------------------------
 Polarizable Continuum Model (PCM)
 =================================
 Model                : C-PCM.
 Atomic radii         : Bondi.
 Polarization charges : Total charges.
 Charge compensation  : None.
 Solution method      : Matrix inversion.
 Cavity type          : Scaled VdW (van der Waals Surface) (Alpha=1.100).
 Cavity algorithm     : GePol (No added spheres)
                        Default sphere list used, NSphG=   54.
                        Lebedev-Laikov grids with approx.  5.0 points / Ang**2.
                        Smoothing algorithm: York/Karplus (Gamma=1.0000).
                        Polarization charges: spherical gaussians, with
                                              point-specific exponents (IZeta= 3).
                        Self-potential: point-specific (ISelfS= 7).
                        Self-field    : sphere-specific E.n sum rule (ISelfD= 2).
 1st derivatives      : Analytical E(r).r(x)/FMM algorithm (CHGder, D1EAlg=3).
                        Cavity 1st derivative terms included.
 2nd derivatives      : Analytical E(r).r(xy)/FMM algorithm (CHGder, D2EAlg=3).
                        Cavity 2nd derivative terms included.
 Solvent              : Dichloromethane, Eps=   8.930000 Eps(inf)=   2.028346
 ------------------------------------------------------------------------------
 GePol: Number of generator spheres                  =      54
 GePol: Total number of spheres                      =      54
 GePol: Number of exposed spheres                    =      54 (100.00%)
 GePol: Number of points                             =    3472
 GePol: Average weight of points                     =       0.12
 GePol: Minimum weight of points                     =   0.78D-10
 GePol: Maximum weight of points                     =    0.21770
 GePol: Number of points with low weight             =     222
 GePol: Fraction of low-weight points (<1% of avg)   =       6.39%
 GePol: Cavity surface area                          =    418.695 Ang**2
 GePol: Cavity volume                                =    403.797 Ang**3
 PCM non-electrostatic energy =         0.0175487810 Hartrees.
 Nuclear repulsion after PCM non-electrostatic terms =     2459.4398172762 Hartrees.
 Leave Link  301 at Tue Feb 12 17:12:36 2019, MaxMem=  1342177280 cpu:               2.8 elap:               0.2
 (Enter /gpfs/apps/hpc/Apps/Restricted/Gaussian/g16/Rev_B.01-AVX/g16/l302.exe)
 NPDir=0 NMtPBC=     1 NCelOv=     1 NCel=       1 NClECP=     1 NCelD=      1
         NCelK=      1 NCelE2=     1 NClLst=     1 CellRange=     0.0.
 One-electron integrals computed using PRISM.
 NBasis=   540 RedAO= T EigKep=  3.07D-04  NBF=   540
 NBsUse=   540 1.00D-06 EigRej= -1.00D+00 NBFU=   540
 Precomputing XC quadrature grid using
 IXCGrd= 4 IRadAn=           5 IRanWt=          -1 IRanGd=           0 AccXCQ= 0.00D+00.
 Generated NRdTot=       0 NPtTot=           0 NUsed=           0 NTot=          32
 NSgBfM=   534   534   534   534   534 MxSgAt=    54 MxSgA2=    54.
 Leave Link  302 at Tue Feb 12 17:12:38 2019, MaxMem=  1342177280 cpu:              27.1 elap:               1.9
 (Enter /gpfs/apps/hpc/Apps/Restricted/Gaussian/g16/Rev_B.01-AVX/g16/l303.exe)
 DipDrv:  MaxL=1.
 Leave Link  303 at Tue Feb 12 17:12:38 2019, MaxMem=  1342177280 cpu:               1.1 elap:               0.1
 (Enter /gpfs/apps/hpc/Apps/Restricted/Gaussian/g16/Rev_B.01-AVX/g16/l401.exe)
 Initial guess from the checkpoint file:  "amide-monoBIP-E2PT.chk"
 B after Tr=     0.000000   -0.000000   -0.000000
         Rot=    1.000000   -0.000000   -0.000000    0.000000 Ang=   0.00 deg.
 Guess basis will be translated and rotated to current coordinates.
 JPrj=2 DoOrth=T DoCkMO=T.
 Initial guess <Sx>= 0.0000 <Sy>= 0.0000 <Sz>= 0.5000 <S**2>= 0.7733 S= 0.5116
 Leave Link  401 at Tue Feb 12 17:12:41 2019, MaxMem=  1342177280 cpu:              55.0 elap:               3.7
 (Enter /gpfs/apps/hpc/Apps/Restricted/Gaussian/g16/Rev_B.01-AVX/g16/l502.exe)
 Two-electron integral symmetry not used.
 UHF open shell SCF:
 Using DIIS extrapolation, IDIIS=  1040.
 NGot=  1342177280 LenX=  1341580900 LenY=  1341288760
 Requested convergence on RMS density matrix=1.00D-08 within 128 cycles.
 Requested convergence on MAX density matrix=1.00D-06.
 Requested convergence on             energy=1.00D-06.
 No special actions if energy rises.
 Fock matrices will be formed incrementally for  20 cycles.

 Cycle   1  Pass 1  IDiag  1:
 FoFJK:  IHMeth= 1 ICntrl=       0 DoSepK=F KAlg= 0 I1Cent=           0 FoldK=F
 IRaf= 630000000 NMat=       1 IRICut=       1 DoRegI=T DoRafI=F ISym2E= 0 IDoP0=0 IntGTp=1.
 FoFCou: FMM=F IPFlag=           0 FMFlag=      100000 FMFlg1=           0
         NFxFlg=           0 DoJE=F BraDBF=F KetDBF=F FulRan=T
         wScrn=  0.000000 ICntrl=         0 IOpCl=  1 I1Cent=           0 NGrid=           0
         NMat0=    1 NMatS0=      1 NMatT0=    0 NMatD0=    1 NMtDS0=    0 NMtDT0=    0
 Symmetry not used in FoFCou.
 Inv3:  Mode=1 IEnd=    36164352.
 Iteration    1 A*A^-1 deviation from unit magnitude is 6.44D-15 for   3452.
 Iteration    1 A*A^-1 deviation from orthogonality  is 2.22D-15 for   3471   1542.
 Iteration    1 A^-1*A deviation from unit magnitude is 6.66D-15 for   3467.
 Iteration    1 A^-1*A deviation from orthogonality  is 2.01D-15 for   3458   3368.
 E= -1169.35567447879    
 DIIS: error= 3.35D-08 at cycle   1 NSaved=   1.
 NSaved= 1 IEnMin= 1 EnMin= -1169.35567447879     IErMin= 1 ErrMin= 3.35D-08
 ErrMax= 3.35D-08  0.00D+00 EMaxC= 1.00D-01 BMatC= 9.68D-13 BMatP= 9.68D-13
 IDIUse=1 WtCom= 1.00D+00 WtEn= 0.00D+00
 Coeff-Com:  0.100D+01
 Coeff:      0.100D+01
 Gap=     0.130 Goal=   None    Shift=    0.000
 Gap=     0.092 Goal=   None    Shift=    0.000
 RMSDP=2.63D-09 MaxDP=3.74D-07              OVMax= 5.63D-07

 Error on total polarization charges =  0.03682
 SCF Done:  E(UB3LYP) =  -1169.35567448     A.U. after    1 cycles
            NFock=  1  Conv=0.26D-08     -V/T= 2.0096
 <Sx>= 0.0000 <Sy>= 0.0000 <Sz>= 0.5000 <S**2>= 0.7733 S= 0.5116
 <L.S>=  0.00000000000    
 KE= 1.158277289045D+03 PE=-7.610751583678D+03 EE= 2.823678802878D+03
 Annihilation of the first spin contaminant:
 S**2 before annihilation     0.7733,   after     0.7504
 Leave Link  502 at Tue Feb 12 17:12:56 2019, MaxMem=  1342177280 cpu:             206.9 elap:              14.8
 (Enter /gpfs/apps/hpc/Apps/Restricted/Gaussian/g16/Rev_B.01-AVX/g16/l801.exe)
 DoSCS=F DFT=T ScalE2(SS,OS)=  1.000000  1.000000
 Range of M.O.s used for correlation:     1   540
 NBasis=   540 NAE=    98 NBE=    97 NFC=     0 NFV=     0
 NROrb=    540 NOA=    98 NOB=    97 NVA=   442 NVB=   443

 **** Warning!!: The smallest beta delta epsilon is  0.91530587D-01

 Leave Link  801 at Tue Feb 12 17:12:57 2019, MaxMem=  1342177280 cpu:               1.0 elap:               0.1
 (Enter /gpfs/apps/hpc/Apps/Restricted/Gaussian/g16/Rev_B.01-AVX/g16/l1101.exe)
 Using compressed storage, NAtomX=    54.
 Will process     55 centers per pass.
 R6Disp: Adding Grimme-D3(BJ) dispersion energy 1st derivatives to the gradient.
 Leave Link 1101 at Tue Feb 12 17:12:58 2019, MaxMem=  1342177280 cpu:              13.3 elap:               0.9
 (Enter /gpfs/apps/hpc/Apps/Restricted/Gaussian/g16/Rev_B.01-AVX/g16/l1102.exe)
 Symmetrizing basis deriv contribution to polar:
 IMax=3 JMax=2 DiffMx= 0.00D+00
 Leave Link 1102 at Tue Feb 12 17:12:58 2019, MaxMem=  1342177280 cpu:               2.3 elap:               0.2
 (Enter /gpfs/apps/hpc/Apps/Restricted/Gaussian/g16/Rev_B.01-AVX/g16/l1110.exe)
 Forming Gx(P) for the SCF density, NAtomX=    54.
 Integral derivatives from FoFJK, PRISM(SPDF).
 Do as many integral derivatives as possible in FoFJK.
 G2DrvN: MDV=    1342172824.
 G2DrvN: will do    55 centers at a time, making    1 passes.
 Calling FoFCou, ICntrl=  3107 FMM=F I1Cent=   0 AccDes= 0.00D+00.
 FoFJK:  IHMeth= 1 ICntrl=    3107 DoSepK=F KAlg= 0 I1Cent=           0 FoldK=F
 IRaf=         0 NMat=       1 IRICut=       1 DoRegI=T DoRafI=F ISym2E= 0 IDoP0=0 IntGTp=1.
 FoFCou: FMM=F IPFlag=           0 FMFlag=      100000 FMFlg1=           0
         NFxFlg=           0 DoJE=F BraDBF=F KetDBF=F FulRan=T
         wScrn=  0.000000 ICntrl=      3107 IOpCl=  1 I1Cent=           0 NGrid=           0
         NMat0=    1 NMatS0=      1 NMatT0=    0 NMatD0=    1 NMtDS0=    0 NMtDT0=    0
 Symmetry not used in FoFCou.
 NEqPCM:  Using equilibrium solvation (IEInf=0, Eps=   8.9300, EpsInf=   2.0283)
 G2PCM: DoFxE=T DoFxN=T DoGrad=T DoDP/DQ/DG/TGxP=FFFF NFrqRd=   0 IEInf=0 SqF1=F DoCFld=F IF1Alg=4.
 GePol: Maximum number of non-zero 1st derivatives   =     198
 End of G2Drv F.D. properties file   721 does not exist.
 End of G2Drv F.D. properties file   722 does not exist.
 End of G2Drv F.D. properties file   788 does not exist.
 Leave Link 1110 at Tue Feb 12 17:20:01 2019, MaxMem=  1342177280 cpu:            6695.8 elap:             422.8
 (Enter /gpfs/apps/hpc/Apps/Restricted/Gaussian/g16/Rev_B.01-AVX/g16/l1002.exe)
 Minotr:  UHF open shell wavefunction.
          IDoAtm=11111111111111111111111111111111111111111111111111
          IDoAtm=1111
 NEqPCM:  Using equilibrium solvation (IEInf=0, Eps=   8.9300, EpsInf=   2.0283)
          Direct CPHF calculation.
          Differentiating once with respect to electric field.
                with respect to dipole field.
          Differentiating once with respect to nuclear coordinates.
          Requested convergence is 1.0D-08 RMS, and 1.0D-07 maximum.
          Secondary convergence is 1.0D-12 RMS, and 1.0D-12 maximum.
          NewPWx=T KeepS1=F KeepF1=F KeepIn=T MapXYZ=F SortEE=F KeepMc=T.
        16387 words used for storage of precomputed grid.
 Two-electron integral symmetry not used.
          MDV=    1342177280 using IRadAn=       1.
          Solving linear equations simultaneously, MaxMat=     384.
 FoF2E skips out because all densities are zero.
 CalDSu exits because no D1Ps are significant.
 FoFJK:  IHMeth= 1 ICntrl=       0 DoSepK=F KAlg= 0 I1Cent=           0 FoldK=F
 IRaf= 590000000 NMat=      96 IRICut=     240 DoRegI=T DoRafI=T ISym2E= 0 IDoP0=0 IntGTp=1.
          There are   165 degrees of freedom in the 1st order CPHF.  IDoFFX=6 NUNeed=     3.
    162 vectors produced by pass  0 Test12= 8.63D-14 1.00D-09 XBig12= 1.49D+03 2.28D+01.
 AX will form    80 AO Fock derivatives at one time.
    162 vectors produced by pass  1 Test12= 8.63D-14 1.00D-09 XBig12= 1.40D+02 1.99D+00.
    162 vectors produced by pass  2 Test12= 8.63D-14 1.00D-09 XBig12= 2.71D+00 2.54D-01.
    162 vectors produced by pass  3 Test12= 8.63D-14 1.00D-09 XBig12= 1.78D-02 1.79D-02.
