 Entering Gaussian System, Link 0=g16
 Input=cyclohexyl-monoBIP-neutral.com
 Output=cyclohexyl-monoBIP-neutral.log
 Initial command:
 /gpfs/apps/hpc/Apps/Restricted/Gaussian/Rev_A.03/g16/l1.exe "/gpfs/scratch60/fas/hammes_schiffer/jg2487/c42n01/Gau-72363.inp" -scrdir="/gpfs/scratch60/fas/hammes_schiffer/jg2487/c42n01/"
 Entering Link 1 = /gpfs/apps/hpc/Apps/Restricted/Gaussian/Rev_A.03/g16/l1.exe PID=     72364.
  
 Copyright (c) 1988,1990,1992,1993,1995,1998,2003,2009,2016,
            Gaussian, Inc.  All Rights Reserved.
  
 This is part of the Gaussian(R) 16 program.  It is based on
 the Gaussian(R) 09 system (copyright 2009, Gaussian, Inc.),
 the Gaussian(R) 03 system (copyright 2003, Gaussian, Inc.),
 the Gaussian(R) 98 system (copyright 1998, Gaussian, Inc.),
 the Gaussian(R) 94 system (copyright 1995, Gaussian, Inc.),
 the Gaussian 92(TM) system (copyright 1992, Gaussian, Inc.),
 the Gaussian 90(TM) system (copyright 1990, Gaussian, Inc.),
 the Gaussian 88(TM) system (copyright 1988, Gaussian, Inc.),
 the Gaussian 86(TM) system (copyright 1986, Carnegie Mellon
 University), and the Gaussian 82(TM) system (copyright 1983,
 Carnegie Mellon University). Gaussian is a federally registered
 trademark of Gaussian, Inc.
  
 This software contains proprietary and confidential information,
 including trade secrets, belonging to Gaussian, Inc.
  
 This software is provided under written license and may be
 used, copied, transmitted, or stored only in accord with that
 written license.
  
 The following legend is applicable only to US Government
 contracts under FAR:
  
                    RESTRICTED RIGHTS LEGEND
  
 Use, reproduction and disclosure by the US Government is
 subject to restrictions as set forth in subparagraphs (a)
 and (c) of the Commercial Computer Software - Restricted
 Rights clause in FAR 52.227-19.
  
 Gaussian, Inc.
 340 Quinnipiac St., Bldg. 40, Wallingford CT 06492
  
  
 ---------------------------------------------------------------
 Warning -- This program may not be used in any manner that
 competes with the business of Gaussian, Inc. or will provide
 assistance to any competitor of Gaussian, Inc.  The licensee
 of this program is prohibited from giving any competitor of
 Gaussian, Inc. access to this program.  By using this program,
 the user acknowledges that Gaussian, Inc. is engaged in the
 business of creating and licensing software in the field of
 computational chemistry and represents and warrants to the
 licensee that it is not a competitor of Gaussian, Inc. and that
 it will not use this program in any manner prohibited above.
 ---------------------------------------------------------------
  

 Cite this work as:
 Gaussian 16, Revision A.03,
 M. J. Frisch, G. W. Trucks, H. B. Schlegel, G. E. Scuseria, 
 M. A. Robb, J. R. Cheeseman, G. Scalmani, V. Barone, 
 G. A. Petersson, H. Nakatsuji, X. Li, M. Caricato, A. V. Marenich, 
 J. Bloino, B. G. Janesko, R. Gomperts, B. Mennucci, H. P. Hratchian, 
 J. V. Ortiz, A. F. Izmaylov, J. L. Sonnenberg, D. Williams-Young, 
 F. Ding, F. Lipparini, F. Egidi, J. Goings, B. Peng, A. Petrone, 
 T. Henderson, D. Ranasinghe, V. G. Zakrzewski, J. Gao, N. Rega, 
 G. Zheng, W. Liang, M. Hada, M. Ehara, K. Toyota, R. Fukuda, 
 J. Hasegawa, M. Ishida, T. Nakajima, Y. Honda, O. Kitao, H. Nakai, 
 T. Vreven, K. Throssell, J. A. Montgomery, Jr., J. E. Peralta, 
 F. Ogliaro, M. J. Bearpark, J. J. Heyd, E. N. Brothers, K. N. Kudin, 
 V. N. Staroverov, T. A. Keith, R. Kobayashi, J. Normand, 
 K. Raghavachari, A. P. Rendell, J. C. Burant, S. S. Iyengar, 
 J. Tomasi, M. Cossi, J. M. Millam, M. Klene, C. Adamo, R. Cammi, 
 J. W. Ochterski, R. L. Martin, K. Morokuma, O. Farkas, 
 J. B. Foresman, and D. J. Fox, Gaussian, Inc., Wallingford CT, 2016.
 
 ******************************************
 Gaussian 16:  ES64L-G16RevA.03 25-Dec-2016
                21-Dec-2018 
 ******************************************
 %chk=cyclohexyl-monoBIP-neutral.chk
 %mem=10GB
 %nprocshared=16
 Will use up to   16 processors via shared memory.
 ----------------------------------------------------------------
 #p freq(ReadFC,InternalModes) Geom(AllCheck) NoSymm scale=0.9631
 ----------------------------------------------------------------
 1/18=20,29=7,38=1,114=963100/1,3;
 2/9=110,12=2,15=1,40=1/2;
 7/8=21,25=11,30=1/16;
 99/5=2/99;
 Leave Link    1 at Fri Dec 21 18:10:28 2018, MaxMem=  1342177280 cpu:               8.0 elap:               0.6
 (Enter /gpfs/apps/hpc/Apps/Restricted/Gaussian/Rev_A.03/g16/l101.exe)
 Structure from the checkpoint file:  "cyclohexyl-monoBIP-neutral.chk"
 --------------------------------------------
 cyclohexylimine monoBIP neutral optimization
 --------------------------------------------
 Charge =  0 Multiplicity = 1
 Redundant internal coordinates found in file.  (old form).
 C,0,-0.483053,2.715584,0.416145
 C,0,-1.881052,2.898359,0.327601
 C,0,-2.412894,4.190122,0.243421
 C,0,-1.520456,5.261988,0.256277
 C,0,-0.133595,5.064531,0.350314
 C,0,0.427051,3.782688,0.429804
 C,0,-1.518543,0.752015,0.424651
 H,0,-3.482079,4.346339,0.169021
 H,0,-1.905266,6.273153,0.194132
 H,0,0.529539,5.922761,0.360617
 N,0,-2.496427,1.656282,0.336302
 C,0,-3.063668,-1.189037,0.352314
 C,0,-1.739219,-0.685003,0.447265
 C,0,-0.658724,-1.573623,0.540497
 C,0,-0.848757,-2.950289,0.541355
 C,0,-2.167874,-3.417641,0.446447
 C,0,-3.286126,-2.585001,0.353326
 H,0,0.347044,-1.175374,0.61268
 H,0,-2.332312,-4.483825,0.445491
 C,0,0.36142,-3.887798,0.614442
 C,0,-4.7052,-3.167413,0.253385
 O,0,-4.117255,-0.346876,0.257497
 H,0,-3.767809,0.591511,0.268641
 N,0,-0.287014,1.3566,0.476439
 H,0,0.63826,0.947632,0.528152
 C,0,1.86964,3.57707,0.516071
 H,0,2.471751,4.490981,0.533986
 N,0,2.383342,2.403646,0.562666
 C,0,3.846217,2.273148,0.605015
 C,0,4.417796,2.330347,-0.823282
 C,0,4.574369,3.275291,1.514632
 H,0,4.045818,1.268606,0.997125
 C,0,5.93059,2.085737,-0.82662
 H,0,4.198843,3.321293,-1.239881
 H,0,3.906197,1.596844,-1.453374
 C,0,6.083737,3.008,1.52053
 H,0,4.402404,4.296059,1.156042
 H,0,4.163006,3.214757,2.526856
 C,0,6.660178,3.063293,0.101127
 H,0,6.316771,2.164127,-1.847368
 H,0,6.127826,1.059566,-0.492795
 H,0,6.58531,3.735122,2.166713
 H,0,6.276761,2.017185,1.950502
 H,0,7.732058,2.843665,0.116826
 H,0,6.551014,4.082402,-0.290657
 C,0,1.245777,-3.654521,-0.627285
 H,0,1.575562,-2.614306,-0.683508
 H,0,2.133816,-4.292376,-0.588643
 H,0,0.697384,-3.887082,-1.544179
 C,0,1.182786,-3.575549,1.880731
 H,0,0.588653,-3.743887,2.782861
 H,0,2.064321,-4.221634,1.926387
 H,0,1.524899,-2.537627,1.887374
 C,0,-0.04946,-5.366088,0.6521
 H,0,-0.664682,-5.591665,1.527396
 H,0,-0.608161,-5.65207,-0.243331
 H,0,0.84524,-5.991639,0.701283
 C,0,-5.359002,-2.732161,-1.075251
 H,0,-6.372934,-3.138229,-1.139958
 H,0,-5.413698,-1.647265,-1.155355
 H,0,-4.786354,-3.113816,-1.925275
 C,0,-5.557474,-2.682549,1.445687
 H,0,-5.658132,-1.598206,1.446625
 H,0,-6.556546,-3.125767,1.394151
 H,0,-5.097957,-2.986879,2.390277
 C,0,-4.694231,-4.704659,0.283816
 H,0,-4.126052,-5.1234,-0.551056
 H,0,-4.268835,-5.089758,1.214382
 H,0,-5.721459,-5.069139,0.20754
 Recover connectivity data from disk.
 ITRead=  0  0  0  0  0  0  0  0  0  0  0  0  0  0  0  0  0  0  0  0
 ITRead=  0  0  0  0  0  0  0  0  0  0  0  0  0  0  0  0  0  0  0  0
 ITRead=  0  0  0  0  0  0  0  0  0  0  0  0  0  0  0  0  0  0  0  0
 ITRead=  0  0  0  0  0  0  0  0  0
 MicOpt= -1 -1 -1 -1 -1 -1 -1 -1 -1 -1 -1 -1 -1 -1 -1 -1 -1 -1 -1 -1
 MicOpt= -1 -1 -1 -1 -1 -1 -1 -1 -1 -1 -1 -1 -1 -1 -1 -1 -1 -1 -1 -1
 MicOpt= -1 -1 -1 -1 -1 -1 -1 -1 -1 -1 -1 -1 -1 -1 -1 -1 -1 -1 -1 -1
 MicOpt= -1 -1 -1 -1 -1 -1 -1 -1 -1
 NAtoms=     69 NQM=       69 NQMF=       0 NMMI=      0 NMMIF=      0
                NMic=       0 NMicF=      0.
                    Isotopes and Nuclear Properties:
 (Nuclear quadrupole moments (NQMom) in fm**2, nuclear magnetic moments (NMagM)
  in nuclear magnetons)

  Atom         1           2           3           4           5           6           7           8           9          10
 IAtWgt=          12          12          12          12          12          12          12           1           1           1
 AtmWgt=  12.0000000  12.0000000  12.0000000  12.0000000  12.0000000  12.0000000  12.0000000   1.0078250   1.0078250   1.0078250
 NucSpn=           0           0           0           0           0           0           0           1           1           1
 AtZEff=   3.6000000   3.6000000   3.6000000   3.6000000   3.6000000   3.6000000   3.6000000   1.0000000   1.0000000   1.0000000
 NQMom=    0.0000000   0.0000000   0.0000000   0.0000000   0.0000000   0.0000000   0.0000000   0.0000000   0.0000000   0.0000000
 NMagM=    0.0000000   0.0000000   0.0000000   0.0000000   0.0000000   0.0000000   0.0000000   2.7928460   2.7928460   2.7928460
 AtZNuc=   6.0000000   6.0000000   6.0000000   6.0000000   6.0000000   6.0000000   6.0000000   1.0000000   1.0000000   1.0000000

  Atom        11          12          13          14          15          16          17          18          19          20
 IAtWgt=          14          12          12          12          12          12          12           1           1          12
 AtmWgt=  14.0030740  12.0000000  12.0000000  12.0000000  12.0000000  12.0000000  12.0000000   1.0078250   1.0078250  12.0000000
 NucSpn=           2           0           0           0           0           0           0           1           1           0
 AtZEff=   4.5500000   3.6000000   3.6000000   3.6000000   3.6000000   3.6000000   3.6000000   1.0000000   1.0000000   3.6000000
 NQMom=    2.0440000   0.0000000   0.0000000   0.0000000   0.0000000   0.0000000   0.0000000   0.0000000   0.0000000   0.0000000
 NMagM=    0.4037610   0.0000000   0.0000000   0.0000000   0.0000000   0.0000000   0.0000000   2.7928460   2.7928460   0.0000000
 AtZNuc=   7.0000000   6.0000000   6.0000000   6.0000000   6.0000000   6.0000000   6.0000000   1.0000000   1.0000000   6.0000000

  Atom        21          22          23          24          25          26          27          28          29          30
 IAtWgt=          12          16           1          14           1          12           1          14          12          12
 AtmWgt=  12.0000000  15.9949146   1.0078250  14.0030740   1.0078250  12.0000000   1.0078250  14.0030740  12.0000000  12.0000000
 NucSpn=           0           0           1           2           1           0           1           2           0           0
 AtZEff=   3.6000000   5.6000000   1.0000000   4.5500000   1.0000000   3.6000000   1.0000000   4.5500000   3.6000000   3.6000000
 NQMom=    0.0000000   0.0000000   0.0000000   2.0440000   0.0000000   0.0000000   0.0000000   2.0440000   0.0000000   0.0000000
 NMagM=    0.0000000   0.0000000   2.7928460   0.4037610   2.7928460   0.0000000   2.7928460   0.4037610   0.0000000   0.0000000
 AtZNuc=   6.0000000   8.0000000   1.0000000   7.0000000   1.0000000   6.0000000   1.0000000   7.0000000   6.0000000   6.0000000

  Atom        31          32          33          34          35          36          37          38          39          40
 IAtWgt=          12           1          12           1           1          12           1           1          12           1
 AtmWgt=  12.0000000   1.0078250  12.0000000   1.0078250   1.0078250  12.0000000   1.0078250   1.0078250  12.0000000   1.0078250
 NucSpn=           0           1           0           1           1           0           1           1           0           1
 AtZEff=   3.6000000   1.0000000   3.6000000   1.0000000   1.0000000   3.6000000   1.0000000   1.0000000   3.6000000   1.0000000
 NQMom=    0.0000000   0.0000000   0.0000000   0.0000000   0.0000000   0.0000000   0.0000000   0.0000000   0.0000000   0.0000000
 NMagM=    0.0000000   2.7928460   0.0000000   2.7928460   2.7928460   0.0000000   2.7928460   2.7928460   0.0000000   2.7928460
 AtZNuc=   6.0000000   1.0000000   6.0000000   1.0000000   1.0000000   6.0000000   1.0000000   1.0000000   6.0000000   1.0000000

  Atom        41          42          43          44          45          46          47          48          49          50
 IAtWgt=           1           1           1           1           1          12           1           1           1          12
 AtmWgt=   1.0078250   1.0078250   1.0078250   1.0078250   1.0078250  12.0000000   1.0078250   1.0078250   1.0078250  12.0000000
 NucSpn=           1           1           1           1           1           0           1           1           1           0
 AtZEff=   1.0000000   1.0000000   1.0000000   1.0000000   1.0000000   3.6000000   1.0000000   1.0000000   1.0000000   3.6000000
 NQMom=    0.0000000   0.0000000   0.0000000   0.0000000   0.0000000   0.0000000   0.0000000   0.0000000   0.0000000   0.0000000
 NMagM=    2.7928460   2.7928460   2.7928460   2.7928460   2.7928460   0.0000000   2.7928460   2.7928460   2.7928460   0.0000000
 AtZNuc=   1.0000000   1.0000000   1.0000000   1.0000000   1.0000000   6.0000000   1.0000000   1.0000000   1.0000000   6.0000000

  Atom        51          52          53          54          55          56          57          58          59          60
 IAtWgt=           1           1           1          12           1           1           1          12           1           1
 AtmWgt=   1.0078250   1.0078250   1.0078250  12.0000000   1.0078250   1.0078250   1.0078250  12.0000000   1.0078250   1.0078250
 NucSpn=           1           1           1           0           1           1           1           0           1           1
 AtZEff=   1.0000000   1.0000000   1.0000000   3.6000000   1.0000000   1.0000000   1.0000000   3.6000000   1.0000000   1.0000000
 NQMom=    0.0000000   0.0000000   0.0000000   0.0000000   0.0000000   0.0000000   0.0000000   0.0000000   0.0000000   0.0000000
 NMagM=    2.7928460   2.7928460   2.7928460   0.0000000   2.7928460   2.7928460   2.7928460   0.0000000   2.7928460   2.7928460
 AtZNuc=   1.0000000   1.0000000   1.0000000   6.0000000   1.0000000   1.0000000   1.0000000   6.0000000   1.0000000   1.0000000

  Atom        61          62          63          64          65          66          67          68          69
 IAtWgt=           1          12           1           1           1          12           1           1           1
 AtmWgt=   1.0078250  12.0000000   1.0078250   1.0078250   1.0078250  12.0000000   1.0078250   1.0078250   1.0078250
 NucSpn=           1           0           1           1           1           0           1           1           1
 AtZEff=   1.0000000   3.6000000   1.0000000   1.0000000   1.0000000   3.6000000   1.0000000   1.0000000   1.0000000
 NQMom=    0.0000000   0.0000000   0.0000000   0.0000000   0.0000000   0.0000000   0.0000000   0.0000000   0.0000000
 NMagM=    2.7928460   0.0000000   2.7928460   2.7928460   2.7928460   0.0000000   2.7928460   2.7928460   2.7928460
 AtZNuc=   1.0000000   6.0000000   1.0000000   1.0000000   1.0000000   6.0000000   1.0000000   1.0000000   1.0000000
 Leave Link  101 at Fri Dec 21 18:10:29 2018, MaxMem=  1342177280 cpu:               5.9 elap:               0.4
 (Enter /gpfs/apps/hpc/Apps/Restricted/Gaussian/Rev_A.03/g16/l103.exe)

 GradGradGradGradGradGradGradGradGradGradGradGradGradGradGradGradGradGrad
 Berny optimization.
 Initialization pass.
                           ----------------------------
                           !    Initial Parameters    !
                           ! (Angstroms and Degrees)  !
 --------------------------                            --------------------------
 ! Name  Definition              Value          Derivative Info.                !
 --------------------------------------------------------------------------------
 ! R1    R(1,2)                  1.4127         estimate D2E/DX2                !
 ! R2    R(1,6)                  1.4026         estimate D2E/DX2                !
 ! R3    R(1,24)                 1.3744         estimate D2E/DX2                !
 ! R4    R(2,3)                  1.3995         estimate D2E/DX2                !
 ! R5    R(2,11)                 1.3862         estimate D2E/DX2                !
 ! R6    R(3,4)                  1.3948         estimate D2E/DX2                !
 ! R7    R(3,8)                  1.0831         estimate D2E/DX2                !
 ! R8    R(4,5)                  1.404          estimate D2E/DX2                !
 ! R9    R(4,9)                  1.0837         estimate D2E/DX2                !
 ! R10   R(5,6)                  1.4013         estimate D2E/DX2                !
 ! R11   R(5,10)                 1.0846         estimate D2E/DX2                !
 ! R12   R(6,26)                 1.4597         estimate D2E/DX2                !
 ! R13   R(7,11)                 1.3348         estimate D2E/DX2                !
 ! R14   R(7,13)                 1.454          estimate D2E/DX2                !
 ! R15   R(7,24)                 1.3729         estimate D2E/DX2                !
 ! R16   R(12,13)                1.4203         estimate D2E/DX2                !
 ! R17   R(12,17)                1.4136         estimate D2E/DX2                !
 ! R18   R(12,22)                1.3521         estimate D2E/DX2                !
 ! R19   R(13,14)                1.4021         estimate D2E/DX2                !
 ! R20   R(14,15)                1.3897         estimate D2E/DX2                !
 ! R21   R(14,18)                1.0842         estimate D2E/DX2                !
 ! R22   R(15,16)                1.4027         estimate D2E/DX2                !
 ! R23   R(15,20)                1.5326         estimate D2E/DX2                !
 ! R24   R(16,17)                1.3973         estimate D2E/DX2                !
 ! R25   R(16,19)                1.0788         estimate D2E/DX2                !
 ! R26   R(17,21)                1.5372         estimate D2E/DX2                !
 ! R27   R(20,46)                1.5422         estimate D2E/DX2                !
 ! R28   R(20,50)                1.5413         estimate D2E/DX2                !
 ! R29   R(20,54)                1.5348         estimate D2E/DX2                !
 ! R30   R(21,58)                1.5434         estimate D2E/DX2                !
 ! R31   R(21,62)                1.5437         estimate D2E/DX2                !
 ! R32   R(21,66)                1.5376         estimate D2E/DX2                !
 ! R33   R(22,23)                1.0014         estimate D2E/DX2                !
 ! R34   R(24,25)                1.0129         estimate D2E/DX2                !
 ! R35   R(26,27)                1.0946         estimate D2E/DX2                !
 ! R36   R(26,28)                1.2818         estimate D2E/DX2                !
 ! R37   R(28,29)                1.4693         estimate D2E/DX2                !
 ! R38   R(29,30)                1.5395         estimate D2E/DX2                !
 ! R39   R(29,31)                1.5368         estimate D2E/DX2                !
 ! R40   R(29,32)                1.0967         estimate D2E/DX2                !
 ! R41   R(30,33)                1.5324         estimate D2E/DX2                !
 ! R42   R(30,34)                1.097          estimate D2E/DX2                !
 ! R43   R(30,35)                1.094          estimate D2E/DX2                !
 ! R44   R(31,36)                1.5329         estimate D2E/DX2                !
 ! R45   R(31,37)                1.0955         estimate D2E/DX2                !
 ! R46   R(31,38)                1.0943         estimate D2E/DX2                !
 ! R47   R(33,39)                1.5325         estimate D2E/DX2                !
 ! R48   R(33,40)                1.0942         estimate D2E/DX2                !
 ! R49   R(33,41)                1.097          estimate D2E/DX2                !
 ! R50   R(36,39)                1.533          estimate D2E/DX2                !
 ! R51   R(36,42)                1.0945         estimate D2E/DX2                !
 ! R52   R(36,43)                1.0972         estimate D2E/DX2                !
 ! R53   R(39,44)                1.0943         estimate D2E/DX2                !
 ! R54   R(39,45)                1.0973         estimate D2E/DX2                !
 ! R55   R(46,47)                1.0927         estimate D2E/DX2                !
 ! R56   R(46,48)                1.0941         estimate D2E/DX2                !
 ! R57   R(46,49)                1.0934         estimate D2E/DX2                !
 ! R58   R(50,51)                1.0932         estimate D2E/DX2                !
 ! R59   R(50,52)                1.0939         estimate D2E/DX2                !
 ! R60   R(50,53)                1.0929         estimate D2E/DX2                !
 ! R61   R(54,55)                1.0934         estimate D2E/DX2                !
 ! R62   R(54,56)                1.0935         estimate D2E/DX2                !
 ! R63   R(54,57)                1.0928         estimate D2E/DX2                !
 ! R64   R(58,59)                1.0941         estimate D2E/DX2                !
 ! R65   R(58,60)                1.0892         estimate D2E/DX2                !
 ! R66   R(58,61)                1.0937         estimate D2E/DX2                !
 ! R67   R(62,63)                1.089          estimate D2E/DX2                !
 ! R68   R(62,64)                1.0942         estimate D2E/DX2                !
 ! R69   R(62,65)                1.0936         estimate D2E/DX2                !
 ! R70   R(66,67)                1.0932         estimate D2E/DX2                !
 ! R71   R(66,68)                1.0933         estimate D2E/DX2                !
 ! R72   R(66,69)                1.0926         estimate D2E/DX2                !
 ! A1    A(2,1,6)              122.9781         estimate D2E/DX2                !
 ! A2    A(2,1,24)             105.7738         estimate D2E/DX2                !
 ! A3    A(6,1,24)             131.2481         estimate D2E/DX2                !
 ! A4    A(1,2,3)              119.9516         estimate D2E/DX2                !
 ! A5    A(1,2,11)             108.8443         estimate D2E/DX2                !
 ! A6    A(3,2,11)             131.2033         estimate D2E/DX2                !
 ! A7    A(2,3,4)              117.7494         estimate D2E/DX2                !
 ! A8    A(2,3,8)              120.8241         estimate D2E/DX2                !
 ! A9    A(4,3,8)              121.4265         estimate D2E/DX2                !
 ! A10   A(3,4,5)              121.6384         estimate D2E/DX2                !
 ! A11   A(3,4,9)              119.2951         estimate D2E/DX2                !
 ! A12   A(5,4,9)              119.0664         estimate D2E/DX2                !
 ! A13   A(4,5,6)              121.8461         estimate D2E/DX2                !
 ! A14   A(4,5,10)             119.5567         estimate D2E/DX2                !
 ! A15   A(6,5,10)             118.5972         estimate D2E/DX2                !
 ! A16   A(1,6,5)              115.8354         estimate D2E/DX2                !
 ! A17   A(1,6,26)             122.3219         estimate D2E/DX2                !
 ! A18   A(5,6,26)             121.8423         estimate D2E/DX2                !
 ! A19   A(11,7,13)            124.0113         estimate D2E/DX2                !
 ! A20   A(11,7,24)            111.1816         estimate D2E/DX2                !
 ! A21   A(13,7,24)            124.8037         estimate D2E/DX2                !
 ! A22   A(2,11,7)             106.3919         estimate D2E/DX2                !
 ! A23   A(13,12,17)           119.8125         estimate D2E/DX2                !
 ! A24   A(13,12,22)           120.6822         estimate D2E/DX2                !
 ! A25   A(17,12,22)           119.5052         estimate D2E/DX2                !
 ! A26   A(7,13,12)            119.4203         estimate D2E/DX2                !
 ! A27   A(7,13,14)            120.6936         estimate D2E/DX2                !
 ! A28   A(12,13,14)           119.8785         estimate D2E/DX2                !
 ! A29   A(13,14,15)           121.5            estimate D2E/DX2                !
 ! A30   A(13,14,18)           119.1133         estimate D2E/DX2                !
 ! A31   A(15,14,18)           119.3867         estimate D2E/DX2                !
 ! A32   A(14,15,16)           117.2975         estimate D2E/DX2                !
 ! A33   A(14,15,20)           119.8696         estimate D2E/DX2                !
 ! A34   A(16,15,20)           122.8203         estimate D2E/DX2                !
 ! A35   A(15,16,17)           123.9582         estimate D2E/DX2                !
 ! A36   A(15,16,19)           118.2098         estimate D2E/DX2                !
 ! A37   A(17,16,19)           117.8321         estimate D2E/DX2                !
 ! A38   A(12,17,16)           117.5531         estimate D2E/DX2                !
 ! A39   A(12,17,21)           121.2915         estimate D2E/DX2                !
 ! A40   A(16,17,21)           121.1554         estimate D2E/DX2                !
 ! A41   A(15,20,46)           108.7766         estimate D2E/DX2                !
 ! A42   A(15,20,50)           109.6365         estimate D2E/DX2                !
 ! A43   A(15,20,54)           112.2704         estimate D2E/DX2                !
 ! A44   A(46,20,50)           108.9818         estimate D2E/DX2                !
 ! A45   A(46,20,54)           108.6003         estimate D2E/DX2                !
 ! A46   A(50,20,54)           108.5199         estimate D2E/DX2                !
 ! A47   A(17,21,58)           109.8876         estimate D2E/DX2                !
 ! A48   A(17,21,62)           109.9045         estimate D2E/DX2                !
 ! A49   A(17,21,66)           111.7726         estimate D2E/DX2                !
 ! A50   A(58,21,62)           110.025          estimate D2E/DX2                !
 ! A51   A(58,21,66)           107.5778         estimate D2E/DX2                !
 ! A52   A(62,21,66)           107.6182         estimate D2E/DX2                !
 ! A53   A(12,22,23)           108.1169         estimate D2E/DX2                !
 ! A54   A(1,24,7)             107.8083         estimate D2E/DX2                !
 ! A55   A(1,24,25)            122.1239         estimate D2E/DX2                !
 ! A56   A(7,24,25)            130.0545         estimate D2E/DX2                !
 ! A57   A(6,26,27)            115.2765         estimate D2E/DX2                !
 ! A58   A(6,26,28)            121.8142         estimate D2E/DX2                !
 ! A59   A(27,26,28)           122.9089         estimate D2E/DX2                !
 ! A60   A(26,28,29)           118.7752         estimate D2E/DX2                !
 ! A61   A(28,29,30)           109.8535         estimate D2E/DX2                !
 ! A62   A(28,29,31)           115.5228         estimate D2E/DX2                !
 ! A63   A(28,29,32)           105.8352         estimate D2E/DX2                !
 ! A64   A(30,29,31)           110.4254         estimate D2E/DX2                !
 ! A65   A(30,29,32)           107.3483         estimate D2E/DX2                !
 ! A66   A(31,29,32)           107.4241         estimate D2E/DX2                !
 ! A67   A(29,30,33)           111.2605         estimate D2E/DX2                !
 ! A68   A(29,30,34)           108.1668         estimate D2E/DX2                !
 ! A69   A(29,30,35)           109.6228         estimate D2E/DX2                !
 ! A70   A(33,30,34)           109.9004         estimate D2E/DX2                !
 ! A71   A(33,30,35)           110.6939         estimate D2E/DX2                !
 ! A72   A(34,30,35)           107.0734         estimate D2E/DX2                !
 ! A73   A(29,31,36)           110.7999         estimate D2E/DX2                !
 ! A74   A(29,31,37)           109.8453         estimate D2E/DX2                !
 ! A75   A(29,31,38)           109.4694         estimate D2E/DX2                !
 ! A76   A(36,31,37)           108.5604         estimate D2E/DX2                !
 ! A77   A(36,31,38)           110.9129         estimate D2E/DX2                !
 ! A78   A(37,31,38)           107.1764         estimate D2E/DX2                !
 ! A79   A(30,33,39)           111.5201         estimate D2E/DX2                !
 ! A80   A(30,33,40)           109.8168         estimate D2E/DX2                !
 ! A81   A(30,33,41)           109.0351         estimate D2E/DX2                !
 ! A82   A(39,33,40)           110.55           estimate D2E/DX2                !
 ! A83   A(39,33,41)           109.0795         estimate D2E/DX2                !
 ! A84   A(40,33,41)           106.7055         estimate D2E/DX2                !
 ! A85   A(31,36,39)           111.1253         estimate D2E/DX2                !
 ! A86   A(31,36,42)           109.7358         estimate D2E/DX2                !
 ! A87   A(31,36,43)           109.4025         estimate D2E/DX2                !
 ! A88   A(39,36,42)           110.5105         estimate D2E/DX2                !
 ! A89   A(39,36,43)           109.2242         estimate D2E/DX2                !
 ! A90   A(42,36,43)           106.7356         estimate D2E/DX2                !
 ! A91   A(33,39,36)           111.0079         estimate D2E/DX2                !
 ! A92   A(33,39,44)           110.3033         estimate D2E/DX2                !
 ! A93   A(33,39,45)           109.2035         estimate D2E/DX2                !
 ! A94   A(36,39,44)           110.3535         estimate D2E/DX2                !
 ! A95   A(36,39,45)           109.068          estimate D2E/DX2                !
 ! A96   A(44,39,45)           106.7973         estimate D2E/DX2                !
 ! A97   A(20,46,47)           111.0079         estimate D2E/DX2                !
 ! A98   A(20,46,48)           110.4156         estimate D2E/DX2                !
 ! A99   A(20,46,49)           110.8186         estimate D2E/DX2                !
 ! A100  A(47,46,48)           108.1713         estimate D2E/DX2                !
 ! A101  A(47,46,49)           108.1019         estimate D2E/DX2                !
 ! A102  A(48,46,49)           108.2231         estimate D2E/DX2                !
 ! A103  A(20,50,51)           110.9249         estimate D2E/DX2                !
 ! A104  A(20,50,52)           110.1259         estimate D2E/DX2                !
 ! A105  A(20,50,53)           111.3593         estimate D2E/DX2                !
 ! A106  A(51,50,52)           108.2142         estimate D2E/DX2                !
 ! A107  A(51,50,53)           108.1405         estimate D2E/DX2                !
 ! A108  A(52,50,53)           107.9633         estimate D2E/DX2                !
 ! A109  A(20,54,55)           111.6532         estimate D2E/DX2                !
 ! A110  A(20,54,56)           111.6288         estimate D2E/DX2                !
 ! A111  A(20,54,57)           109.4679         estimate D2E/DX2                !
 ! A112  A(55,54,56)           108.3057         estimate D2E/DX2                !
 ! A113  A(55,54,57)           107.851          estimate D2E/DX2                !
 ! A114  A(56,54,57)           107.7857         estimate D2E/DX2                !
 ! A115  A(21,58,59)           109.8038         estimate D2E/DX2                !
 ! A116  A(21,58,60)           111.436          estimate D2E/DX2                !
 ! A117  A(21,58,61)           110.4168         estimate D2E/DX2                !
 ! A118  A(59,58,60)           108.5887         estimate D2E/DX2                !
 ! A119  A(59,58,61)           108.0436         estimate D2E/DX2                !
 ! A120  A(60,58,61)           108.4643         estimate D2E/DX2                !
 ! A121  A(21,62,63)           111.3732         estimate D2E/DX2                !
 ! A122  A(21,62,64)           109.9071         estimate D2E/DX2                !
 ! A123  A(21,62,65)           110.3481         estimate D2E/DX2                !
 ! A124  A(63,62,64)           108.601          estimate D2E/DX2                !
 ! A125  A(63,62,65)           108.3715         estimate D2E/DX2                !
 ! A126  A(64,62,65)           108.1565         estimate D2E/DX2                !
 ! A127  A(21,66,67)           111.8103         estimate D2E/DX2                !
 ! A128  A(21,66,68)           111.8262         estimate D2E/DX2                !
 ! A129  A(21,66,69)           108.9907         estimate D2E/DX2                !
 ! A130  A(67,66,68)           108.2325         estimate D2E/DX2                !
 ! A131  A(67,66,69)           107.9102         estimate D2E/DX2                !
 ! A132  A(68,66,69)           107.9226         estimate D2E/DX2                !
 ! D1    D(6,1,2,3)              0.2438         estimate D2E/DX2                !
 ! D2    D(6,1,2,11)           179.9405         estimate D2E/DX2                !
 ! D3    D(24,1,2,3)          -179.6885         estimate D2E/DX2                !
 ! D4    D(24,1,2,11)            0.0082         estimate D2E/DX2                !
 ! D5    D(2,1,6,5)              0.0379         estimate D2E/DX2                !
 ! D6    D(2,1,6,26)          -179.7344         estimate D2E/DX2                !
 ! D7    D(24,1,6,5)           179.9512         estimate D2E/DX2                !
 ! D8    D(24,1,6,26)            0.1789         estimate D2E/DX2                !
 ! D9    D(2,1,24,7)             0.0559         estimate D2E/DX2                !
 ! D10   D(2,1,24,25)          178.8517         estimate D2E/DX2                !
 ! D11   D(6,1,24,7)          -179.8685         estimate D2E/DX2                !
 ! D12   D(6,1,24,25)           -1.0727         estimate D2E/DX2                !
 ! D13   D(1,2,3,4)             -0.2517         estimate D2E/DX2                !
 ! D14   D(1,2,3,8)            179.6311         estimate D2E/DX2                !
 ! D15   D(11,2,3,4)          -179.8701         estimate D2E/DX2                !
 ! D16   D(11,2,3,8)             0.0127         estimate D2E/DX2                !
 ! D17   D(1,2,11,7)            -0.0703         estimate D2E/DX2                !
 ! D18   D(3,2,11,7)           179.5804         estimate D2E/DX2                !
 ! D19   D(2,3,4,5)             -0.0101         estimate D2E/DX2                !
 ! D20   D(2,3,4,9)           -179.8914         estimate D2E/DX2                !
 ! D21   D(8,3,4,5)           -179.8921         estimate D2E/DX2                !
 ! D22   D(8,3,4,9)              0.2265         estimate D2E/DX2                !
 ! D23   D(3,4,5,6)              0.3026         estimate D2E/DX2                !
 ! D24   D(3,4,5,10)          -179.8059         estimate D2E/DX2                !
 ! D25   D(9,4,5,6)           -179.8158         estimate D2E/DX2                !
 ! D26   D(9,4,5,10)             0.0758         estimate D2E/DX2                !
 ! D27   D(4,5,6,1)             -0.306          estimate D2E/DX2                !
 ! D28   D(4,5,6,26)           179.4674         estimate D2E/DX2                !
 ! D29   D(10,5,6,1)           179.8014         estimate D2E/DX2                !
 ! D30   D(10,5,6,26)           -0.4251         estimate D2E/DX2                !
 ! D31   D(1,6,26,27)         -179.078          estimate D2E/DX2                !
 ! D32   D(1,6,26,28)            1.1339         estimate D2E/DX2                !
 ! D33   D(5,6,26,27)            1.1633         estimate D2E/DX2                !
 ! D34   D(5,6,26,28)         -178.6248         estimate D2E/DX2                !
 ! D35   D(13,7,11,2)         -179.2549         estimate D2E/DX2                !
 ! D36   D(24,7,11,2)            0.1079         estimate D2E/DX2                !
 ! D37   D(11,7,13,12)           0.9293         estimate D2E/DX2                !
 ! D38   D(11,7,13,14)         179.9279         estimate D2E/DX2                !
 ! D39   D(24,7,13,12)        -178.3471         estimate D2E/DX2                !
 ! D40   D(24,7,13,14)           0.6515         estimate D2E/DX2                !
 ! D41   D(11,7,24,1)           -0.105          estimate D2E/DX2                !
 ! D42   D(11,7,24,25)        -178.7727         estimate D2E/DX2                !
 ! D43   D(13,7,24,1)          179.2517         estimate D2E/DX2                !
 ! D44   D(13,7,24,25)           0.584          estimate D2E/DX2                !
 ! D45   D(17,12,13,7)         179.0558         estimate D2E/DX2                !
 ! D46   D(17,12,13,14)          0.0489         estimate D2E/DX2                !
 ! D47   D(22,12,13,7)          -0.7867         estimate D2E/DX2                !
 ! D48   D(22,12,13,14)       -179.7936         estimate D2E/DX2                !
 ! D49   D(13,12,17,16)         -0.1531         estimate D2E/DX2                !
 ! D50   D(13,12,17,21)        179.9458         estimate D2E/DX2                !
 ! D51   D(22,12,17,16)        179.6912         estimate D2E/DX2                !
 ! D52   D(22,12,17,21)         -0.2098         estimate D2E/DX2                !
 ! D53   D(13,12,22,23)          0.0849         estimate D2E/DX2                !
 ! D54   D(17,12,22,23)       -179.7581         estimate D2E/DX2                !
 ! D55   D(7,13,14,15)        -178.9292         estimate D2E/DX2                !
 ! D56   D(7,13,14,18)           1.0221         estimate D2E/DX2                !
 ! D57   D(12,13,14,15)          0.0648         estimate D2E/DX2                !
 ! D58   D(12,13,14,18)       -179.9839         estimate D2E/DX2                !
 ! D59   D(13,14,15,16)         -0.0661         estimate D2E/DX2                !
 ! D60   D(13,14,15,20)        178.681          estimate D2E/DX2                !
 ! D61   D(18,14,15,16)        179.9828         estimate D2E/DX2                !
 ! D62   D(18,14,15,20)         -1.2702         estimate D2E/DX2                !
 ! D63   D(14,15,16,17)         -0.0479         estimate D2E/DX2                !
 ! D64   D(14,15,16,19)        179.9813         estimate D2E/DX2                !
 ! D65   D(20,15,16,17)       -178.755          estimate D2E/DX2                !
 ! D66   D(20,15,16,19)          1.2742         estimate D2E/DX2                !
 ! D67   D(14,15,20,46)        -61.714          estimate D2E/DX2                !
 ! D68   D(14,15,20,50)         57.3684         estimate D2E/DX2                !
 ! D69   D(14,15,20,54)        178.069          estimate D2E/DX2                !
 ! D70   D(16,15,20,46)        116.9611         estimate D2E/DX2                !
 ! D71   D(16,15,20,50)       -123.9565         estimate D2E/DX2                !
 ! D72   D(16,15,20,54)         -3.2559         estimate D2E/DX2                !
 ! D73   D(15,16,17,12)          0.1569         estimate D2E/DX2                !
 ! D74   D(15,16,17,21)       -179.9419         estimate D2E/DX2                !
 ! D75   D(19,16,17,12)       -179.8722         estimate D2E/DX2                !
 ! D76   D(19,16,17,21)          0.0289         estimate D2E/DX2                !
 ! D77   D(12,17,21,58)         61.037          estimate D2E/DX2                !
 ! D78   D(12,17,21,62)        -60.1791         estimate D2E/DX2                !
 ! D79   D(12,17,21,66)       -179.602          estimate D2E/DX2                !
 ! D80   D(16,17,21,58)       -118.8605         estimate D2E/DX2                !
 ! D81   D(16,17,21,62)        119.9235         estimate D2E/DX2                !
 ! D82   D(16,17,21,66)          0.5005         estimate D2E/DX2                !
 ! D83   D(15,20,46,47)         58.4954         estimate D2E/DX2                !
 ! D84   D(15,20,46,48)        178.4551         estimate D2E/DX2                !
 ! D85   D(15,20,46,49)        -61.6435         estimate D2E/DX2                !
 ! D86   D(50,20,46,47)        -60.996          estimate D2E/DX2                !
 ! D87   D(50,20,46,48)         58.9637         estimate D2E/DX2                !
 ! D88   D(50,20,46,49)        178.8652         estimate D2E/DX2                !
 ! D89   D(54,20,46,47)       -179.0416         estimate D2E/DX2                !
 ! D90   D(54,20,46,48)        -59.0819         estimate D2E/DX2                !
 ! D91   D(54,20,46,49)         60.8196         estimate D2E/DX2                !
 ! D92   D(15,20,50,51)         61.8079         estimate D2E/DX2                !
 ! D93   D(15,20,50,52)       -178.4219         estimate D2E/DX2                !
 ! D94   D(15,20,50,53)        -58.686          estimate D2E/DX2                !
 ! D95   D(46,20,50,51)       -179.2362         estimate D2E/DX2                !
 ! D96   D(46,20,50,52)        -59.466          estimate D2E/DX2                !
 ! D97   D(46,20,50,53)         60.2699         estimate D2E/DX2                !
 ! D98   D(54,20,50,51)        -61.14           estimate D2E/DX2                !
 ! D99   D(54,20,50,52)         58.6302         estimate D2E/DX2                !
 ! D100  D(54,20,50,53)        178.3661         estimate D2E/DX2                !
 ! D101  D(15,20,54,55)        -60.7885         estimate D2E/DX2                !
 ! D102  D(15,20,54,56)         60.6072         estimate D2E/DX2                !
 ! D103  D(15,20,54,57)        179.861          estimate D2E/DX2                !
 ! D104  D(46,20,54,55)        178.8923         estimate D2E/DX2                !
 ! D105  D(46,20,54,56)        -59.712          estimate D2E/DX2                !
 ! D106  D(46,20,54,57)         59.5418         estimate D2E/DX2                !
 ! D107  D(50,20,54,55)         60.5543         estimate D2E/DX2                !
 ! D108  D(50,20,54,56)       -178.0501         estimate D2E/DX2                !
 ! D109  D(50,20,54,57)        -58.7962         estimate D2E/DX2                !
 ! D110  D(17,21,58,59)       -179.376          estimate D2E/DX2                !
 ! D111  D(17,21,58,60)        -59.02           estimate D2E/DX2                !
 ! D112  D(17,21,58,61)         61.5907         estimate D2E/DX2                !
 ! D113  D(62,21,58,59)        -58.2323         estimate D2E/DX2                !
 ! D114  D(62,21,58,60)         62.1237         estimate D2E/DX2                !
 ! D115  D(62,21,58,61)       -177.2656         estimate D2E/DX2                !
 ! D116  D(66,21,58,59)         58.7289         estimate D2E/DX2                !
 ! D117  D(66,21,58,60)        179.0848         estimate D2E/DX2                !
 ! D118  D(66,21,58,61)        -60.3044         estimate D2E/DX2                !
 ! D119  D(17,21,62,63)         61.6293         estimate D2E/DX2                !
 ! D120  D(17,21,62,64)       -177.9712         estimate D2E/DX2                !
 ! D121  D(17,21,62,65)        -58.7765         estimate D2E/DX2                !
 ! D122  D(58,21,62,63)        -59.5042         estimate D2E/DX2                !
 ! D123  D(58,21,62,64)         60.8953         estimate D2E/DX2                !
 ! D124  D(58,21,62,65)       -179.91           estimate D2E/DX2                !
 ! D125  D(66,21,62,63)       -176.4401         estimate D2E/DX2                !
 ! D126  D(66,21,62,64)        -56.0406         estimate D2E/DX2                !
 ! D127  D(66,21,62,65)         63.1541         estimate D2E/DX2                !
 ! D128  D(17,21,66,67)        -60.6327         estimate D2E/DX2                !
 ! D129  D(17,21,66,68)         60.9206         estimate D2E/DX2                !
 ! D130  D(17,21,66,69)       -179.8434         estimate D2E/DX2                !
 ! D131  D(58,21,66,67)         60.0831         estimate D2E/DX2                !
 ! D132  D(58,21,66,68)       -178.3636         estimate D2E/DX2                !
 ! D133  D(58,21,66,69)        -59.1276         estimate D2E/DX2                !
 ! D134  D(62,21,66,67)        178.6042         estimate D2E/DX2                !
 ! D135  D(62,21,66,68)        -59.8425         estimate D2E/DX2                !
 ! D136  D(62,21,66,69)         59.3935         estimate D2E/DX2                !
 ! D137  D(6,26,28,29)         178.0453         estimate D2E/DX2                !
 ! D138  D(27,26,28,29)         -1.7265         estimate D2E/DX2                !
 ! D139  D(26,28,29,30)        -84.262          estimate D2E/DX2                !
 ! D140  D(26,28,29,31)         41.4397         estimate D2E/DX2                !
 ! D141  D(26,28,29,32)        160.1471         estimate D2E/DX2                !
 ! D142  D(28,29,30,33)       -175.484          estimate D2E/DX2                !
 ! D143  D(28,29,30,34)         63.7134         estimate D2E/DX2                !
 ! D144  D(28,29,30,35)        -52.7128         estimate D2E/DX2                !
 ! D145  D(31,29,30,33)         55.9587         estimate D2E/DX2                !
 ! D146  D(31,29,30,34)        -64.8439         estimate D2E/DX2                !
 ! D147  D(31,29,30,35)        178.7299         estimate D2E/DX2                !
 ! D148  D(32,29,30,33)        -60.8552         estimate D2E/DX2                !
 ! D149  D(32,29,30,34)        178.3422         estimate D2E/DX2                !
 ! D150  D(32,29,30,35)         61.916          estimate D2E/DX2                !
 ! D151  D(28,29,31,36)        177.7741         estimate D2E/DX2                !
 ! D152  D(28,29,31,37)        -62.2859         estimate D2E/DX2                !
 ! D153  D(28,29,31,38)         55.1394         estimate D2E/DX2                !
 ! D154  D(30,29,31,36)        -56.8176         estimate D2E/DX2                !
 ! D155  D(30,29,31,37)         63.1224         estimate D2E/DX2                !
 ! D156  D(30,29,31,38)       -179.4523         estimate D2E/DX2                !
 ! D157  D(32,29,31,36)         59.9493         estimate D2E/DX2                !
 ! D158  D(32,29,31,37)        179.8893         estimate D2E/DX2                !
 ! D159  D(32,29,31,38)        -62.6854         estimate D2E/DX2                !
 ! D160  D(29,30,33,39)        -55.247          estimate D2E/DX2                !
 ! D161  D(29,30,33,40)       -178.1469         estimate D2E/DX2                !
 ! D162  D(29,30,33,41)         65.2667         estimate D2E/DX2                !
 ! D163  D(34,30,33,39)         64.5318         estimate D2E/DX2                !
 ! D164  D(34,30,33,40)        -58.3681         estimate D2E/DX2                !
 ! D165  D(34,30,33,41)       -174.9546         estimate D2E/DX2                !
 ! D166  D(35,30,33,39)       -177.4            estimate D2E/DX2                !
 ! D167  D(35,30,33,40)         59.7            estimate D2E/DX2                !
 ! D168  D(35,30,33,41)        -56.8864         estimate D2E/DX2                !
 ! D169  D(29,31,36,39)         57.0472         estimate D2E/DX2                !
 ! D170  D(29,31,36,42)        179.573          estimate D2E/DX2                !
 ! D171  D(29,31,36,43)        -63.6383         estimate D2E/DX2                !
 ! D172  D(37,31,36,39)        -63.658          estimate D2E/DX2                !
 ! D173  D(37,31,36,42)         58.8678         estimate D2E/DX2                !
 ! D174  D(37,31,36,43)        175.6565         estimate D2E/DX2                !
 ! D175  D(38,31,36,39)        178.8392         estimate D2E/DX2                !
 ! D176  D(38,31,36,42)        -58.6349         estimate D2E/DX2                !
 ! D177  D(38,31,36,43)         58.1538         estimate D2E/DX2                !
 ! D178  D(30,33,39,36)         54.9319         estimate D2E/DX2                !
 ! D179  D(30,33,39,44)        177.5705         estimate D2E/DX2                !
 ! D180  D(30,33,39,45)        -65.3548         estimate D2E/DX2                !
 ! D181  D(40,33,39,36)        177.4119         estimate D2E/DX2                !
 ! D182  D(40,33,39,44)        -59.9495         estimate D2E/DX2                !
 ! D183  D(40,33,39,45)         57.1252         estimate D2E/DX2                !
 ! D184  D(41,33,39,36)        -65.5557         estimate D2E/DX2                !
 ! D185  D(41,33,39,44)         57.0829         estimate D2E/DX2                !
 ! D186  D(41,33,39,45)        174.1576         estimate D2E/DX2                !
 ! D187  D(31,36,39,33)        -55.8301         estimate D2E/DX2                !
 ! D188  D(31,36,39,44)       -178.4397         estimate D2E/DX2                !
 ! D189  D(31,36,39,45)         64.537          estimate D2E/DX2                !
 ! D190  D(42,36,39,33)       -177.907          estimate D2E/DX2                !
 ! D191  D(42,36,39,44)         59.4835         estimate D2E/DX2                !
 ! D192  D(42,36,39,45)        -57.5399         estimate D2E/DX2                !
 ! D193  D(43,36,39,33)         64.9604         estimate D2E/DX2                !
 ! D194  D(43,36,39,44)        -57.6491         estimate D2E/DX2                !
 ! D195  D(43,36,39,45)       -174.6725         estimate D2E/DX2                !
 --------------------------------------------------------------------------------
 Trust Radius=3.00D-01 FncErr=1.00D-07 GrdErr=1.00D-07 EigMax=2.50D+02 EigMin=1.00D-04
 Number of steps in this run=    409 maximum allowed number of steps=    414.
 GradGradGradGradGradGradGradGradGradGradGradGradGradGradGradGradGradGrad

 Leave Link  103 at Fri Dec 21 18:10:29 2018, MaxMem=  1342177280 cpu:               0.6 elap:               0.1
 (Enter /gpfs/apps/hpc/Apps/Restricted/Gaussian/Rev_A.03/g16/l202.exe)
 Symmetry turned off by external request.
 Stoichiometry    C28H37N3O
 Framework group  C1[X(C28H37N3O)]
 Deg. of freedom   201
 Full point group                 C1      NOp   1
                          Input orientation:                          
 ---------------------------------------------------------------------
 Center     Atomic      Atomic             Coordinates (Angstroms)
 Number     Number       Type             X           Y           Z
 ---------------------------------------------------------------------
      1          6           0       -0.483053    2.715584    0.416145
      2          6           0       -1.881052    2.898359    0.327601
      3          6           0       -2.412894    4.190122    0.243421
      4          6           0       -1.520456    5.261988    0.256277
      5          6           0       -0.133595    5.064531    0.350314
      6          6           0        0.427051    3.782688    0.429804
      7          6           0       -1.518543    0.752015    0.424651
      8          1           0       -3.482079    4.346339    0.169021
      9          1           0       -1.905266    6.273153    0.194132
     10          1           0        0.529539    5.922761    0.360617
     11          7           0       -2.496427    1.656282    0.336302
     12          6           0       -3.063668   -1.189037    0.352314
     13          6           0       -1.739219   -0.685003    0.447265
     14          6           0       -0.658724   -1.573623    0.540497
     15          6           0       -0.848757   -2.950289    0.541355
     16          6           0       -2.167874   -3.417641    0.446447
     17          6           0       -3.286126   -2.585001    0.353326
     18          1           0        0.347044   -1.175374    0.612680
     19          1           0       -2.332312   -4.483825    0.445491
     20          6           0        0.361420   -3.887798    0.614442
     21          6           0       -4.705200   -3.167413    0.253385
     22          8           0       -4.117255   -0.346876    0.257497
     23          1           0       -3.767809    0.591511    0.268641
     24          7           0       -0.287014    1.356600    0.476439
     25          1           0        0.638260    0.947632    0.528152
     26          6           0        1.869640    3.577070    0.516071
     27          1           0        2.471751    4.490981    0.533986
     28          7           0        2.383342    2.403646    0.562666
     29          6           0        3.846217    2.273148    0.605015
     30          6           0        4.417796    2.330347   -0.823282
     31          6           0        4.574369    3.275291    1.514632
     32          1           0        4.045818    1.268606    0.997125
     33          6           0        5.930590    2.085737   -0.826620
     34          1           0        4.198843    3.321293   -1.239881
     35          1           0        3.906197    1.596844   -1.453374
     36          6           0        6.083737    3.008000    1.520530
     37          1           0        4.402404    4.296059    1.156042
     38          1           0        4.163006    3.214757    2.526856
     39          6           0        6.660178    3.063293    0.101127
     40          1           0        6.316771    2.164127   -1.847368
     41          1           0        6.127826    1.059566   -0.492795
     42          1           0        6.585310    3.735122    2.166713
     43          1           0        6.276761    2.017185    1.950502
     44          1           0        7.732058    2.843665    0.116826
     45          1           0        6.551014    4.082402   -0.290657
     46          6           0        1.245777   -3.654521   -0.627285
     47          1           0        1.575562   -2.614306   -0.683508
     48          1           0        2.133816   -4.292376   -0.588643
     49          1           0        0.697384   -3.887082   -1.544179
     50          6           0        1.182786   -3.575549    1.880731
     51          1           0        0.588653   -3.743887    2.782861
     52          1           0        2.064321   -4.221634    1.926387
     53          1           0        1.524899   -2.537627    1.887374
     54          6           0       -0.049460   -5.366088    0.652100
     55          1           0       -0.664682   -5.591665    1.527396
     56          1           0       -0.608161   -5.652070   -0.243331
     57          1           0        0.845240   -5.991639    0.701283
     58          6           0       -5.359002   -2.732161   -1.075251
     59          1           0       -6.372934   -3.138229   -1.139958
     60          1           0       -5.413698   -1.647265   -1.155355
     61          1           0       -4.786354   -3.113816   -1.925275
     62          6           0       -5.557474   -2.682549    1.445687
     63          1           0       -5.658132   -1.598206    1.446625
     64          1           0       -6.556546   -3.125767    1.394151
     65          1           0       -5.097957   -2.986879    2.390277
     66          6           0       -4.694231   -4.704659    0.283816
     67          1           0       -4.126052   -5.123400   -0.551056
     68          1           0       -4.268835   -5.089758    1.214382
     69          1           0       -5.721459   -5.069139    0.207540
 ---------------------------------------------------------------------
 Rotational constants (GHZ):           0.1846884           0.0719214           0.0540704
 Leave Link  202 at Fri Dec 21 18:10:29 2018, MaxMem=  1342177280 cpu:               0.5 elap:               0.1
 (Enter /gpfs/apps/hpc/Apps/Restricted/Gaussian/Rev_A.03/g16/l716.exe)
 Electric field and nuclear coordinate derivatives read from checkpoint file.
 Dipole        = 2.50803665D+00 6.51434797D-01 6.43680073D-02
 Polarizability= 5.48825364D+02 9.39362860D+00 6.02920191D+02
                 1.39194114D+01-6.01063332D+00 2.66746542D+02
 Full mass-weighted force constant matrix:
 Low frequencies ---  -13.7385   -4.3895   -0.0022   -0.0002    0.0026    4.8434
 Low frequencies ---   23.2909   34.7049   42.4727
 Diagonal vibrational polarizability:
       40.9826236      39.6242448      56.7865630
 Harmonic frequencies (cm**-1), IR intensities (KM/Mole), Raman scattering
 activities (A**4/AMU), depolarization ratios for plane and unpolarized
 incident light, reduced masses (AMU), force constants (mDyne/A),
 and normal coordinates:
                      1                      2                      3
                      A                      A                      A
 Frequencies --     18.5948                34.4768                41.6466
 Red. masses --      4.1764                 4.4863                 4.1171
 Frc consts  --      0.0009                 0.0031                 0.0042
 IR Inten    --      0.0175                 0.2361                 0.9000
  Atom  AN      X      Y      Z        X      Y      Z        X      Y      Z
     1   6    -0.01   0.01   0.04     0.03  -0.04  -0.00     0.01  -0.01  -0.01
     2   6    -0.01   0.01   0.07     0.03  -0.04   0.01     0.01  -0.00  -0.01
     3   6    -0.01   0.01   0.11     0.02  -0.05   0.01     0.00  -0.00   0.07
     4   6    -0.01   0.01   0.11     0.01  -0.04  -0.00    -0.00   0.00   0.15
     5   6    -0.01   0.01   0.08     0.01  -0.04  -0.02    -0.00   0.00   0.15
     6   6    -0.00   0.00   0.04     0.02  -0.03  -0.02     0.00  -0.00   0.06
     7   6    -0.00   0.01   0.04     0.03  -0.04   0.02     0.01  -0.01  -0.11
     8   1    -0.01   0.01   0.13     0.02  -0.06   0.03     0.00  -0.00   0.07
     9   1    -0.01   0.01   0.14     0.00  -0.04  -0.00    -0.01   0.00   0.22
    10   1    -0.01   0.01   0.08     0.01  -0.03  -0.02    -0.01   0.00   0.22
    11   7    -0.01   0.01   0.07     0.03  -0.04   0.03     0.01  -0.01  -0.09
    12   6     0.00   0.00  -0.01    -0.00  -0.01   0.02     0.00  -0.00  -0.11
    13   6    -0.00   0.00   0.03     0.01  -0.04   0.02     0.01  -0.01  -0.12
    14   6    -0.00   0.01   0.07    -0.01  -0.07   0.02     0.00  -0.01  -0.09
    15   6     0.00   0.01   0.06    -0.05  -0.07   0.01    -0.01  -0.01  -0.04
    16   6     0.01   0.00   0.00    -0.06  -0.03  -0.00    -0.01  -0.01   0.00
    17   6     0.01  -0.00  -0.04    -0.03  -0.01  -0.00    -0.01  -0.00  -0.02
    18   1    -0.01   0.01   0.11    -0.00  -0.09   0.04     0.01  -0.02  -0.11
    19   1     0.01   0.00  -0.01    -0.08  -0.03  -0.02    -0.02  -0.00   0.07
    20   6     0.00   0.01   0.12    -0.07  -0.10   0.02    -0.01  -0.01   0.01
    21   6     0.02  -0.00  -0.12    -0.05   0.03  -0.02    -0.02  -0.00   0.06
    22   8     0.00  -0.00  -0.03     0.01   0.00   0.03     0.01  -0.00  -0.17
    23   1    -0.00   0.00   0.01     0.03  -0.00   0.03     0.01  -0.00  -0.15
    24   7    -0.00   0.01   0.02     0.03  -0.04  -0.00     0.01  -0.01  -0.08
    25   1    -0.00   0.01  -0.01     0.03  -0.05  -0.02     0.01  -0.01  -0.08
    26   6    -0.00  -0.00  -0.01     0.03   0.00  -0.02     0.00   0.00   0.04
    27   1     0.00  -0.00  -0.03    -0.00   0.02  -0.02    -0.00   0.01   0.08
    28   7    -0.01  -0.00  -0.03     0.07   0.02  -0.03     0.01   0.01  -0.01
    29   6    -0.00  -0.01  -0.07     0.07   0.09  -0.02     0.01   0.02  -0.01
    30   6    -0.03  -0.01  -0.08     0.08   0.10  -0.01     0.01   0.03  -0.01
    31   6     0.02  -0.01  -0.08     0.03   0.13  -0.02     0.01   0.02  -0.01
    32   1    -0.00  -0.01  -0.07     0.11   0.10  -0.01     0.02   0.02  -0.01
    33   6    -0.03  -0.02  -0.10     0.09   0.16  -0.00     0.01   0.03  -0.01
    34   1    -0.03  -0.01  -0.07     0.05   0.09  -0.02     0.01   0.03  -0.00
    35   1    -0.05  -0.00  -0.07     0.12   0.07  -0.01     0.01   0.03  -0.01
    36   6     0.02  -0.03  -0.10     0.04   0.18  -0.01     0.01   0.02  -0.01
    37   1     0.02  -0.01  -0.08    -0.00   0.12  -0.04     0.01   0.02  -0.00
    38   1     0.03  -0.01  -0.07     0.02   0.13  -0.03     0.01   0.01  -0.01
    39   6    -0.01  -0.03  -0.11     0.05   0.19  -0.00     0.01   0.02  -0.01
    40   1    -0.05  -0.03  -0.11     0.10   0.16   0.00     0.01   0.03  -0.01
    41   1    -0.04  -0.03  -0.10     0.13   0.17   0.01     0.01   0.02  -0.02
    42   1     0.03  -0.03  -0.11     0.01   0.20  -0.01     0.01   0.01  -0.00
    43   1     0.01  -0.03  -0.11     0.07   0.19   0.00     0.01   0.01  -0.01
    44   1    -0.01  -0.04  -0.13     0.06   0.23   0.01     0.01   0.02  -0.01
    45   1    -0.00  -0.03  -0.11     0.01   0.18  -0.01     0.01   0.02  -0.00
    46   6     0.07   0.03   0.16    -0.06  -0.12   0.03     0.06   0.02   0.07
    47   1     0.07   0.03   0.20    -0.02  -0.13   0.04     0.08   0.02   0.12
    48   1     0.06   0.03   0.20    -0.08  -0.15   0.03     0.05   0.01   0.10
    49   1     0.11   0.05   0.13    -0.06  -0.09   0.02     0.11   0.05   0.03
    50   6    -0.07   0.00   0.16    -0.08  -0.14   0.03    -0.09  -0.03   0.07
    51   1    -0.11  -0.02   0.13    -0.09  -0.13   0.02    -0.14  -0.08   0.03
    52   1    -0.06   0.01   0.20    -0.10  -0.17   0.04    -0.08  -0.02   0.10
    53   1    -0.08   0.01   0.20    -0.05  -0.15   0.04    -0.12  -0.03   0.12
    54   6     0.01   0.01   0.08    -0.12  -0.09   0.00    -0.01  -0.01  -0.05
    55   1    -0.03  -0.00   0.05    -0.14  -0.08  -0.01    -0.05  -0.04  -0.08
    56   1     0.06   0.01   0.05    -0.12  -0.07  -0.01     0.02   0.02  -0.08
    57   1     0.01   0.01   0.12    -0.14  -0.12   0.01    -0.02  -0.01  -0.03
    58   6     0.08   0.01  -0.14    -0.04   0.08  -0.01    -0.03  -0.14   0.02
    59   1     0.08   0.02  -0.20    -0.05   0.11  -0.01    -0.03  -0.15   0.07
    60   1     0.09   0.01  -0.14    -0.01   0.08   0.02    -0.05  -0.15  -0.08
    61   1     0.12   0.02  -0.12    -0.05   0.09  -0.02    -0.04  -0.21   0.05
    62   6    -0.05  -0.02  -0.16    -0.03   0.01  -0.00    -0.00   0.12   0.02
    63   1    -0.06  -0.02  -0.16    -0.02   0.01   0.02     0.02   0.12  -0.07
    64   1    -0.04  -0.03  -0.21    -0.04   0.03  -0.01    -0.01   0.14   0.06
    65   1    -0.09  -0.01  -0.13    -0.03  -0.02  -0.01    -0.01   0.18   0.04
    66   6     0.02  -0.00  -0.13    -0.08   0.03  -0.07    -0.02  -0.00   0.22
    67   1     0.06   0.01  -0.11    -0.08   0.04  -0.08    -0.04  -0.10   0.26
    68   1    -0.03  -0.01  -0.12    -0.10  -0.02  -0.08     0.00   0.11   0.26
    69   1     0.02  -0.00  -0.19    -0.09   0.05  -0.09    -0.02  -0.01   0.29
                      4                      5                      6
                      A                      A                      A
 Frequencies --     43.8019                54.9355                57.8927
 Red. masses --      2.8481                 3.7562                 3.3916
 Frc consts  --      0.0032                 0.0067                 0.0067
 IR Inten    --      0.0085                 0.1464                 0.5562
  Atom  AN      X      Y      Z        X      Y      Z        X      Y      Z
     1   6     0.00  -0.00   0.03     0.01  -0.01   0.06    -0.00   0.00  -0.01
     2   6     0.00  -0.00   0.02     0.01  -0.01  -0.02    -0.00   0.00   0.04
     3   6     0.00  -0.00   0.02     0.02  -0.01  -0.11     0.00   0.01   0.02
     4   6    -0.00   0.00   0.04     0.02  -0.01  -0.12     0.01   0.00  -0.03
     5   6    -0.00   0.00   0.05     0.01  -0.01  -0.03     0.01  -0.00  -0.08
     6   6     0.00   0.00   0.04     0.01  -0.01   0.07     0.01  -0.00  -0.07
     7   6     0.00  -0.00   0.00     0.00  -0.00   0.05    -0.01   0.00   0.07
     8   1     0.00  -0.00   0.02     0.02  -0.01  -0.18    -0.00   0.01   0.06
     9   1    -0.00   0.00   0.04     0.02  -0.01  -0.19     0.01   0.00  -0.05
    10   1    -0.00   0.00   0.06     0.01  -0.01  -0.05     0.01  -0.01  -0.12
    11   7     0.00  -0.00   0.00     0.01  -0.00  -0.03    -0.01   0.01   0.08
    12   6     0.00   0.00  -0.02    -0.00   0.00   0.02    -0.01   0.00   0.07
    13   6     0.00  -0.00   0.00    -0.00  -0.00   0.04    -0.01   0.00   0.08
    14   6    -0.00  -0.00   0.02    -0.00  -0.00   0.03    -0.01   0.01   0.05
    15   6    -0.00  -0.00   0.03    -0.00  -0.00  -0.01    -0.00   0.01   0.02
    16   6    -0.00   0.00   0.03    -0.00  -0.00  -0.00    -0.00   0.01   0.03
    17   6    -0.00   0.00   0.00    -0.00   0.00   0.01    -0.01   0.00   0.06
    18   1    -0.00   0.00   0.03    -0.00  -0.01   0.02    -0.01   0.00   0.05
    19   1    -0.01   0.00   0.04    -0.00  -0.00  -0.03     0.00   0.00   0.00
    20   6    -0.01  -0.01   0.00    -0.00  -0.00  -0.04    -0.00   0.00  -0.04
    21   6    -0.00  -0.00  -0.02    -0.00  -0.00  -0.00    -0.00  -0.01   0.01
    22   8     0.01   0.00  -0.05     0.00   0.00   0.00    -0.01   0.01   0.06
    23   1     0.01   0.00  -0.04     0.00   0.00  -0.02    -0.01   0.00   0.07
    24   7     0.00  -0.00   0.02    -0.00  -0.00   0.12    -0.00   0.00   0.01
    25   1     0.00  -0.00   0.02    -0.01  -0.01   0.17    -0.00   0.00  -0.02
    26   6     0.00   0.00   0.04     0.00   0.00   0.11     0.01  -0.01  -0.09
    27   1    -0.00   0.01   0.04     0.00   0.01   0.08     0.01  -0.01  -0.10
    28   7     0.01   0.01   0.03     0.01   0.01   0.16     0.00  -0.01  -0.08
    29   6     0.01   0.01   0.02     0.01   0.02   0.11     0.00  -0.01  -0.06
    30   6    -0.01  -0.01   0.01    -0.08  -0.08   0.07     0.05   0.06  -0.04
    31   6     0.02   0.03  -0.01     0.07   0.09  -0.01    -0.03  -0.05   0.01
    32   1     0.01   0.02   0.03     0.04   0.05   0.17    -0.01  -0.03  -0.10
    33   6    -0.01  -0.00  -0.01    -0.08  -0.07  -0.02     0.05   0.06   0.01
    34   1    -0.02  -0.01  -0.00    -0.11  -0.11   0.01     0.06   0.07  -0.00
    35   1    -0.02  -0.02   0.02    -0.11  -0.13   0.15     0.07   0.08  -0.09
    36   6     0.02   0.03  -0.03     0.07   0.10  -0.10    -0.03  -0.05   0.06
    37   1     0.01   0.02  -0.02     0.04   0.07  -0.08    -0.03  -0.04   0.05
    38   1     0.03   0.04  -0.00     0.13   0.16   0.02    -0.07  -0.10  -0.00
    39   6    -0.00   0.01  -0.03    -0.03   0.01  -0.14     0.02   0.01   0.08
    40   1    -0.03  -0.01  -0.02    -0.14  -0.14  -0.05     0.09   0.10   0.02
    41   1    -0.00   0.00   0.00    -0.04  -0.04   0.05     0.04   0.04  -0.03
    42   1     0.03   0.04  -0.04     0.10   0.14  -0.17    -0.06  -0.07   0.10
    43   1     0.02   0.04  -0.02     0.10   0.13  -0.05    -0.04  -0.06   0.02
    44   1    -0.00   0.02  -0.05    -0.02   0.03  -0.20     0.02   0.01   0.11
    45   1    -0.01   0.01  -0.05    -0.08  -0.02  -0.20     0.04   0.03   0.12
    46   6    -0.13  -0.14  -0.11     0.03   0.07  -0.00    -0.00   0.08  -0.03
    47   1    -0.14  -0.14  -0.24     0.04   0.07   0.08     0.00   0.08   0.04
    48   1    -0.12  -0.13  -0.12     0.02   0.06  -0.03    -0.01   0.07  -0.07
    49   1    -0.21  -0.23  -0.03     0.04   0.14  -0.03    -0.01   0.15  -0.04
    50   6     0.13   0.08  -0.11    -0.04  -0.08   0.00    -0.00  -0.07  -0.02
    51   1     0.21   0.18  -0.03    -0.06  -0.14  -0.02    -0.00  -0.12  -0.03
    52   1     0.11   0.05  -0.14    -0.03  -0.07  -0.01    -0.00  -0.07  -0.06
    53   1     0.17   0.06  -0.24    -0.05  -0.07   0.08    -0.01  -0.07   0.04
    54   6    -0.03  -0.01   0.16    -0.00  -0.01  -0.14    -0.00   0.00  -0.13
    55   1     0.03   0.09   0.23    -0.02  -0.06  -0.16     0.00  -0.05  -0.14
    56   1    -0.09  -0.08   0.23     0.01   0.05  -0.16    -0.00   0.05  -0.14
    57   1    -0.03  -0.01   0.16    -0.00  -0.01  -0.16    -0.00  -0.00  -0.17
    58   6     0.07  -0.07  -0.08     0.04  -0.05  -0.04     0.12  -0.11  -0.09
    59   1     0.07  -0.07  -0.11     0.04  -0.05  -0.06     0.12  -0.12  -0.14
    60   1     0.07  -0.08  -0.14     0.04  -0.05  -0.08     0.12  -0.12  -0.18
    61   1     0.11  -0.12  -0.03     0.07  -0.08  -0.01     0.19  -0.18  -0.01
    62   6    -0.06   0.06  -0.10    -0.05   0.04  -0.05    -0.12   0.07  -0.11
    63   1    -0.06   0.06  -0.16    -0.05   0.04  -0.09    -0.13   0.07  -0.20
    64   1    -0.06   0.06  -0.13    -0.04   0.04  -0.07    -0.10   0.06  -0.18
    65   1    -0.12   0.11  -0.05    -0.08   0.07  -0.02    -0.20   0.15  -0.04
    66   6    -0.00   0.00   0.07    -0.01  -0.00   0.06     0.00  -0.01   0.14
    67   1     0.03  -0.05   0.12     0.00  -0.04   0.08     0.04  -0.09   0.20
    68   1    -0.04   0.06   0.11    -0.01   0.04   0.08    -0.03   0.09   0.20
    69   1    -0.00  -0.00   0.05    -0.00  -0.00   0.06     0.01  -0.02   0.13
                      7                      8                      9
                      A                      A                      A
 Frequencies --     79.8460                88.3711               107.5673
 Red. masses --      4.3566                 3.4236                 5.3441
 Frc consts  --      0.0164                 0.0158                 0.0364
 IR Inten    --      1.6666                 0.2692                 0.0574
  Atom  AN      X      Y      Z        X      Y      Z        X      Y      Z
     1   6    -0.00  -0.04  -0.01     0.01  -0.02   0.06     0.01  -0.01  -0.08
     2   6    -0.00   0.01   0.01     0.02  -0.00  -0.03     0.01  -0.01  -0.12
     3   6     0.05   0.04   0.05     0.04   0.01  -0.10     0.00  -0.02  -0.07
     4   6     0.10   0.00   0.05     0.06  -0.01  -0.08    -0.01  -0.01   0.05
     5   6     0.09  -0.06   0.02     0.05  -0.03  -0.00    -0.02   0.00   0.11
     6   6     0.04  -0.08  -0.01     0.03  -0.03   0.07    -0.00   0.01   0.03
     7   6    -0.08   0.00  -0.01    -0.02  -0.00   0.01     0.02  -0.01  -0.14
     8   1     0.06   0.08   0.07     0.05   0.02  -0.18     0.00  -0.03  -0.09
     9   1     0.13   0.02   0.07     0.08  -0.00  -0.13    -0.02  -0.01   0.11
    10   1     0.12  -0.08   0.02     0.06  -0.04  -0.01    -0.03   0.01   0.21
    11   7    -0.05   0.03   0.01    -0.00   0.01  -0.06     0.02  -0.02  -0.16
    12   6    -0.09  -0.02   0.01    -0.03  -0.01  -0.02    -0.01  -0.00   0.13
    13   6    -0.10   0.01  -0.02    -0.03  -0.00   0.00     0.01  -0.01  -0.07
    14   6    -0.08   0.03  -0.04    -0.03   0.01   0.02     0.01  -0.01  -0.17
    15   6    -0.04   0.03  -0.02    -0.02   0.01   0.02     0.00  -0.01  -0.05
    16   6    -0.03  -0.00  -0.00    -0.02  -0.00   0.01    -0.01  -0.01   0.07
    17   6    -0.06  -0.02   0.00    -0.02  -0.01  -0.01    -0.01  -0.00   0.13
    18   1    -0.09   0.05  -0.07    -0.03   0.01   0.02     0.03  -0.02  -0.33
    19   1    -0.01  -0.01   0.00    -0.01  -0.00   0.01    -0.02  -0.01   0.11
    20   6     0.00   0.09  -0.01    -0.01   0.02   0.02     0.00  -0.01  -0.01
    21   6    -0.04  -0.07  -0.00    -0.02  -0.02  -0.00    -0.01   0.01   0.03
    22   8    -0.10  -0.02   0.04    -0.03  -0.01  -0.05    -0.02   0.00   0.31
    23   1    -0.11  -0.03   0.04    -0.03  -0.01  -0.07    -0.01   0.00   0.16
    24   7    -0.06  -0.05  -0.03    -0.02  -0.02   0.09     0.02  -0.01  -0.12
    25   1    -0.08  -0.09  -0.02    -0.03  -0.04   0.13     0.01  -0.01  -0.06
    26   6     0.04  -0.10  -0.02     0.02  -0.04   0.06    -0.00   0.02   0.08
    27   1     0.03  -0.09  -0.03     0.03  -0.05   0.02    -0.01   0.02   0.14
    28   7     0.06  -0.09  -0.01     0.02  -0.04   0.07     0.00   0.02   0.03
    29   6     0.07  -0.03   0.01     0.03  -0.03  -0.02    -0.00   0.02   0.02
    30   6     0.09  -0.09   0.02    -0.03   0.19  -0.04    -0.03   0.05   0.01
    31   6     0.03   0.05  -0.03     0.04  -0.13   0.08     0.03  -0.01   0.03
    32   1     0.11   0.00   0.08     0.06  -0.07  -0.16     0.00   0.01  -0.01
    33   6     0.11  -0.01   0.04    -0.04   0.19  -0.12    -0.03   0.02  -0.03
    34   1     0.04  -0.13  -0.05    -0.05   0.24   0.11    -0.02   0.07   0.05
    35   1     0.14  -0.16   0.06    -0.06   0.27  -0.12    -0.05   0.08  -0.00
    36   6     0.04   0.13  -0.01     0.05  -0.11  -0.01     0.02  -0.04  -0.00
    37   1    -0.01   0.03  -0.09     0.01  -0.09   0.20     0.03   0.00   0.05
    38   1     0.03   0.09  -0.03     0.08  -0.25   0.08     0.04  -0.02   0.03
    39   6     0.05   0.09  -0.01     0.00   0.06  -0.02     0.00  -0.02  -0.01
    40   1     0.11  -0.04   0.04    -0.07   0.32  -0.13    -0.05   0.05  -0.03
    41   1     0.17   0.03   0.11    -0.03   0.14  -0.27    -0.05   0.01  -0.06
    42   1     0.00   0.18  -0.04     0.06  -0.17   0.06     0.05  -0.06   0.00
    43   1     0.09   0.16   0.03     0.07  -0.15  -0.12     0.01  -0.05  -0.03
    44   1     0.06   0.16   0.00    -0.00   0.04  -0.07    -0.00  -0.04  -0.03
    45   1    -0.02   0.06  -0.06     0.01   0.11   0.11     0.02  -0.00   0.02
    46   6    -0.01   0.13  -0.01    -0.02   0.03   0.02     0.04  -0.03   0.01
    47   1    -0.08   0.15  -0.03    -0.04   0.03   0.00     0.03  -0.03  -0.00
    48   1     0.03   0.18   0.01    -0.00   0.05   0.02     0.05  -0.02   0.07
    49   1     0.01   0.08  -0.01    -0.01   0.01   0.02     0.08  -0.07   0.00
    50   6    -0.01   0.17  -0.01    -0.01   0.05   0.02    -0.04   0.04   0.01
    51   1    -0.01   0.16  -0.01     0.00   0.05   0.02    -0.07   0.04  -0.01
    52   1     0.02   0.21   0.00     0.00   0.06   0.02    -0.02   0.07   0.05
    53   1    -0.06   0.18  -0.04    -0.02   0.05   0.01    -0.08   0.05  -0.01
    54   6     0.08   0.08   0.02     0.02   0.02   0.04     0.01  -0.01   0.02
    55   1     0.09   0.06   0.03     0.02   0.02   0.04     0.01   0.01   0.03
    56   1     0.08   0.04   0.03     0.02   0.00   0.04     0.01  -0.02   0.03
    57   1     0.11   0.12   0.02     0.02   0.03   0.04     0.01  -0.00   0.03
    58   6    -0.05  -0.08  -0.00    -0.04  -0.03   0.01     0.14   0.06  -0.03
    59   1    -0.03  -0.11  -0.01    -0.04  -0.04   0.02     0.14   0.10  -0.15
    60   1    -0.08  -0.08   0.00    -0.06  -0.03   0.01     0.19   0.06  -0.01
    61   1    -0.03  -0.05  -0.01    -0.05  -0.02  -0.00     0.22   0.06   0.02
    62   6    -0.06  -0.10  -0.01    -0.00  -0.03   0.01    -0.14  -0.03  -0.05
    63   1    -0.09  -0.10  -0.00    -0.00  -0.03   0.01    -0.16  -0.04  -0.04
    64   1    -0.05  -0.13  -0.02    -0.00  -0.03   0.02    -0.13  -0.05  -0.17
    65   1    -0.06  -0.09  -0.01     0.01  -0.03   0.00    -0.24  -0.04  -0.00
    66   6     0.00  -0.07  -0.02    -0.00  -0.02  -0.01    -0.02   0.01  -0.02
    67   1     0.01  -0.04  -0.02    -0.01  -0.02  -0.01     0.05   0.03   0.02
    68   1     0.01  -0.07  -0.02     0.01  -0.02  -0.01    -0.10  -0.03   0.01
    69   1     0.01  -0.09  -0.02    -0.00  -0.03   0.00    -0.01   0.01  -0.12
                     10                     11                     12
                      A                      A                      A
 Frequencies --    119.9852               125.8440               135.5065
 Red. masses --      3.7154                 3.7464                 3.7521
 Frc consts  --      0.0315                 0.0350                 0.0406
 IR Inten    --      2.4854                 0.9213                 1.8074
  Atom  AN      X      Y      Z        X      Y      Z        X      Y      Z
     1   6     0.02  -0.01  -0.02     0.01  -0.03  -0.07     0.01   0.05  -0.06
     2   6     0.02   0.00   0.05     0.01  -0.03  -0.07     0.01   0.07  -0.05
     3   6     0.03   0.01   0.08     0.01  -0.02  -0.01     0.04   0.08   0.01
     4   6     0.05   0.00   0.01     0.01  -0.02   0.07     0.05   0.07   0.05
     5   6     0.05  -0.01  -0.08     0.01  -0.02   0.07     0.05   0.05   0.03
     6   6     0.03  -0.02  -0.08     0.00  -0.03  -0.01     0.03   0.03  -0.03
     7   6     0.02   0.00   0.00     0.01  -0.02  -0.06    -0.02   0.06  -0.04
     8   1     0.03   0.03   0.15     0.01  -0.02  -0.00     0.04   0.11   0.03
     9   1     0.06   0.01   0.02     0.01  -0.02   0.13     0.07   0.08   0.10
    10   1     0.07  -0.02  -0.13     0.01  -0.02   0.13     0.07   0.03   0.07
    11   7     0.01   0.01   0.07     0.01  -0.03  -0.08    -0.01   0.07  -0.04
    12   6     0.03   0.01  -0.00     0.02  -0.01  -0.00    -0.01   0.03   0.01
    13   6     0.03   0.00  -0.03     0.01  -0.02   0.02    -0.01   0.05   0.01
    14   6     0.03  -0.00  -0.08     0.00  -0.01   0.11     0.00   0.05   0.06
    15   6     0.02  -0.00  -0.07    -0.00  -0.01   0.15     0.00   0.05   0.06
    16   6     0.02   0.01  -0.06    -0.01  -0.01   0.15     0.01   0.05   0.05
    17   6     0.02   0.01  -0.03     0.00  -0.01   0.07     0.01   0.03   0.02
    18   1     0.03  -0.00  -0.09     0.01  -0.02   0.11     0.00   0.06   0.08
    19   1     0.01   0.01  -0.06    -0.02  -0.02   0.19     0.03   0.06   0.06
    20   6     0.02  -0.01  -0.01     0.03   0.02   0.03    -0.06  -0.03   0.02
    21   6     0.01   0.04  -0.00    -0.01   0.05   0.01     0.05  -0.07   0.00
    22   8     0.03   0.02   0.05     0.03  -0.01  -0.11    -0.02   0.02  -0.01
    23   1     0.03   0.02   0.06     0.04  -0.01  -0.11    -0.04   0.02  -0.02
    24   7     0.02  -0.00  -0.04     0.01  -0.02  -0.07    -0.01   0.05  -0.08
    25   1     0.02  -0.00  -0.03     0.01  -0.02  -0.05    -0.01   0.04  -0.05
    26   6     0.02  -0.07  -0.12    -0.00  -0.05  -0.01     0.02   0.00  -0.03
    27   1     0.06  -0.10  -0.32     0.01  -0.06  -0.01     0.04  -0.01  -0.07
    28   7    -0.04  -0.09   0.11    -0.02  -0.06   0.00    -0.01  -0.01   0.04
    29   6    -0.04  -0.10   0.07    -0.02  -0.06   0.01    -0.01  -0.02   0.03
    30   6    -0.09  -0.07   0.05    -0.03  -0.05   0.01    -0.03  -0.02   0.02
    31   6    -0.07  -0.09   0.07    -0.05  -0.04   0.01     0.00  -0.03   0.03
    32   1    -0.02  -0.10   0.05    -0.01  -0.05   0.01    -0.01  -0.02   0.02
    33   6    -0.08   0.06  -0.01    -0.01   0.03  -0.00    -0.02   0.01  -0.00
    34   1    -0.19  -0.09   0.05    -0.07  -0.07  -0.01    -0.05  -0.02   0.02
    35   1    -0.06  -0.11   0.07     0.01  -0.08   0.02    -0.02  -0.03   0.03
    36   6    -0.05   0.05  -0.01    -0.04   0.03  -0.01     0.01   0.01  -0.01
    37   1    -0.16  -0.09   0.12    -0.09  -0.04   0.03    -0.03  -0.02   0.05
    38   1    -0.02  -0.16   0.09    -0.04  -0.07   0.01     0.02  -0.05   0.03
    39   6    -0.14   0.14  -0.04    -0.06   0.08  -0.01    -0.03   0.03  -0.02
    40   1    -0.12   0.09  -0.02    -0.02   0.04  -0.00    -0.04   0.02  -0.01
    41   1     0.03   0.08  -0.01     0.05   0.04   0.01     0.01   0.02  -0.00
    42   1    -0.08   0.08  -0.02    -0.07   0.05  -0.00     0.00   0.01  -0.01
    43   1     0.07   0.05  -0.04     0.02   0.03  -0.02     0.04   0.01  -0.02
    44   1    -0.11   0.28  -0.11    -0.05   0.16  -0.04    -0.02   0.07  -0.05
    45   1    -0.30   0.13  -0.02    -0.15   0.07  -0.01    -0.08   0.03  -0.02
    46   6     0.07  -0.07   0.02    -0.08   0.15  -0.02    -0.08  -0.06  -0.00
    47   1     0.07  -0.07  -0.02    -0.08   0.15   0.07     0.03  -0.09   0.04
    48   1     0.07  -0.07   0.09    -0.07   0.14  -0.16    -0.15  -0.16  -0.07
    49   1     0.11  -0.12   0.01    -0.15   0.25   0.00    -0.14   0.05   0.01
    50   6    -0.03   0.03   0.01     0.12  -0.05  -0.01    -0.01  -0.15   0.01
    51   1    -0.08   0.08  -0.01     0.22  -0.17   0.03     0.00  -0.17   0.01
    52   1    -0.05   0.02   0.08     0.16  -0.01  -0.15    -0.04  -0.19  -0.05
    53   1    -0.02   0.03  -0.02     0.07  -0.04   0.05     0.03  -0.16   0.05
    54   6    -0.00  -0.01   0.04     0.07   0.00  -0.06    -0.17  -0.01  -0.04
    55   1    -0.03   0.04   0.02     0.15  -0.09  -0.03    -0.17  -0.01  -0.04
    56   1     0.03  -0.04   0.03     0.01   0.06  -0.04    -0.19   0.05  -0.04
    57   1    -0.01  -0.01   0.09     0.09   0.02  -0.18    -0.21  -0.07  -0.06
    58   6     0.02   0.03  -0.01     0.04   0.13   0.01     0.02  -0.11   0.01
    59   1     0.01   0.05  -0.00     0.03   0.17  -0.03     0.06  -0.22  -0.01
    60   1     0.05   0.03  -0.03     0.09   0.13   0.06    -0.10  -0.12   0.03
    61   1     0.01  -0.01  -0.00     0.05   0.14   0.01     0.06  -0.04   0.01
    62   6     0.02   0.07  -0.01    -0.02   0.04   0.01     0.03  -0.16   0.01
    63   1     0.03   0.07  -0.03     0.03   0.05   0.04    -0.03  -0.16   0.03
    64   1     0.02   0.08   0.01    -0.04   0.10  -0.04     0.05  -0.21   0.01
    65   1     0.02   0.09  -0.00    -0.07  -0.02   0.01     0.05  -0.15   0.01
    66   6    -0.01   0.04   0.04    -0.06   0.05  -0.06     0.17  -0.08  -0.03
    67   1    -0.03   0.01   0.04    -0.03   0.07  -0.04     0.20  -0.01  -0.04
    68   1    -0.01   0.06   0.04    -0.13  -0.02  -0.05     0.19  -0.07  -0.04
    69   1    -0.02   0.05   0.06    -0.07   0.08  -0.13     0.20  -0.15  -0.05
                     13                     14                     15
                      A                      A                      A
 Frequencies --    150.0749               187.5057               206.7847
 Red. masses --      4.2290                 3.7448                 3.0385
 Frc consts  --      0.0561                 0.0776                 0.0765
[...]
 ! A10   A(3,4,5)               -0.049                   2.5                    !
 ! A12   A(5,4,9)                0.0394                  2.0                    !
 ! A13   A(4,5,6)                0.0627                  3.2                    !
 ! A14   A(4,5,10)              -0.0418                  2.2                    !
 ! A16   A(1,6,5)               -0.025                   1.3                    !
 ! A18   A(5,6,26)               0.0265                  1.4                    !
 --------------------------------------------------------------------------------
                           ----------------------------
                           ! Normal Mode   197        !
 --------------------------                            --------------------------
 ! Name  Definition              Value          Relative Weight (%)             !
 --------------------------------------------------------------------------------
 ! R19   R(13,14)               -0.0438                  2.8                    !
 ! R20   R(14,15)               -0.0452                  2.8                    !
 ! R21   R(14,18)                1.0807                 67.9                    !
 ! R55   R(46,47)                0.0176                  1.1                    !
 ! R58   R(50,51)               -0.0128                  0.8                    !
 ! R60   R(50,53)                0.0403                  2.5                    !
 ! A27   A(7,13,14)              0.029                   1.8                    !
 ! A28   A(12,13,14)            -0.027                   1.7                    !
 ! A29   A(13,14,15)             0.0558                  3.5                    !
 ! A30   A(13,14,18)            -0.031                   1.9                    !
 ! A31   A(15,14,18)            -0.0249                  1.6                    !
 ! A32   A(14,15,16)            -0.0264                  1.7                    !
 ! A33   A(14,15,20)             0.0286                  1.8                    !
 --------------------------------------------------------------------------------
                           ----------------------------
                           ! Normal Mode   198        !
 --------------------------                            --------------------------
 ! Name  Definition              Value          Relative Weight (%)             !
 --------------------------------------------------------------------------------
 ! R7    R(3,8)                 -0.5888                 26.7                    !
 ! R8    R(4,5)                 -0.0508                  2.3                    !
 ! R9    R(4,9)                  0.8217                 37.2                    !
 ! R11   R(5,10)                 0.3877                 17.6                    !
 ! A7    A(2,3,4)               -0.052                   2.4                    !
 ! A9    A(4,3,8)                0.042                   1.9                    !
 ! A10   A(3,4,5)                0.0485                  2.2                    !
 ! A11   A(3,4,9)               -0.0389                  1.8                    !
 --------------------------------------------------------------------------------
                           ----------------------------
                           ! Normal Mode   199        !
 --------------------------                            --------------------------
 ! Name  Definition              Value          Relative Weight (%)             !
 --------------------------------------------------------------------------------
 ! R4    R(2,3)                  0.0407                  2.0                    !
 ! R6    R(3,4)                  0.0653                  3.3                    !
 ! R7    R(3,8)                 -0.9051                 45.6                    !
 ! R8    R(4,5)                  0.0291                  1.5                    !
 ! R9    R(4,9)                 -0.5823                 29.3                    !
 ! R11   R(5,10)                -0.1402                  7.1                    !
 ! A6    A(3,2,11)              -0.0251                  1.3                    !
 ! A7    A(2,3,4)               -0.0323                  1.6                    !
 --------------------------------------------------------------------------------
                           ----------------------------
                           ! Normal Mode   200        !
 --------------------------                            --------------------------
 ! Name  Definition              Value          Relative Weight (%)             !
 --------------------------------------------------------------------------------
 ! R22   R(15,16)                0.0422                  2.7                    !
 ! R24   R(16,17)                0.0419                  2.6                    !
 ! R25   R(16,19)               -1.0806                 68.4                    !
 ! R62   R(54,56)               -0.0166                  1.0                    !
 ! R70   R(66,67)               -0.0165                  1.0                    !
 ! R71   R(66,68)               -0.0209                  1.3                    !
 ! A32   A(14,15,16)             0.0273                  1.7                    !
 ! A34   A(16,15,20)            -0.0287                  1.8                    !
 ! A35   A(15,16,17)            -0.0563                  3.6                    !
 ! A36   A(15,16,19)             0.0262                  1.7                    !
 ! A37   A(17,16,19)             0.0301                  1.9                    !
 ! A38   A(12,17,16)             0.0276                  1.7                    !
 ! A40   A(16,17,21)            -0.0291                  1.8                    !
 --------------------------------------------------------------------------------
                           ----------------------------
                           ! Normal Mode   201        !
 --------------------------                            --------------------------
 ! Name  Definition              Value          Relative Weight (%)             !
 --------------------------------------------------------------------------------
 ! R3    R(1,24)                -0.0432                  3.1                    !
 ! R15   R(7,24)                -0.048                   3.4                    !
 ! R34   R(24,25)                1.0719                 75.9                    !
 ! A2    A(2,1,24)              -0.0238                  1.7                    !
 ! A3    A(6,1,24)               0.0246                  1.7                    !
 ! A20   A(11,7,24)             -0.0229                  1.6                    !
 ! A21   A(13,7,24)              0.0237                  1.7                    !
 ! A54   A(1,24,7)               0.0473                  3.4                    !
 ! A56   A(7,24,25)             -0.0438                  3.1                    !
 --------------------------------------------------------------------------------
 -------------------------------------------------------------------
 Center     Atomic                   Forces (Hartrees/Bohr)
 Number     Number              X              Y              Z
 -------------------------------------------------------------------
      1        6           0.000000897    0.000001385    0.000002027
      2        6           0.000001605    0.000000590    0.000002530
      3        6           0.000000624    0.000001033    0.000003246
      4        6           0.000003031    0.000000511    0.000004154
      5        6           0.000001151    0.000000198    0.000003452
      6        6           0.000001295   -0.000000593    0.000002570
      7        6           0.000000863    0.000000364    0.000000975
      8        1           0.000002165    0.000001367    0.000003793
      9        1           0.000002330    0.000000896    0.000004701
     10        1           0.000002406   -0.000000091    0.000003975
     11        7          -0.000000079    0.000001615    0.000001634
     12        6          -0.000000981    0.000000763   -0.000000082
     13        6          -0.000000576    0.000000611    0.000000181
     14        6          -0.000000108    0.000000216   -0.000000815
     15        6          -0.000000574   -0.000000350   -0.000001562
     16        6          -0.000001918    0.000001048   -0.000001692
     17        6          -0.000000595    0.000001298   -0.000000842
     18        1          -0.000000174   -0.000000244   -0.000000671
     19        1          -0.000001491    0.000000941   -0.000002405
     20        6          -0.000001113    0.000000209   -0.000002685
     21        6          -0.000000937    0.000001701   -0.000000776
     22        8           0.000000546    0.000001769    0.000000678
     23        1           0.000000056    0.000001497    0.000001385
     24        7           0.000001741   -0.000000982    0.000001221
     25        1          -0.000000101    0.000000005    0.000000628
     26        6           0.000001969   -0.000000752    0.000002385
     27        1           0.000001656   -0.000001229    0.000002653
     28        7           0.000000365   -0.000000642    0.000001285
     29        6           0.000001298   -0.000002174    0.000001099
     30        6           0.000000810   -0.000000191    0.000000858
     31        6           0.000001665   -0.000002637    0.000001829
     32        1           0.000000532   -0.000001409   -0.000000001
     33        6           0.000000646   -0.000002034    0.000000111
     34        1           0.000001090   -0.000000818    0.000001575
     35        1           0.000000343   -0.000000313    0.000000346
     36        6           0.000001349   -0.000002932    0.000000896
     37        1           0.000001696   -0.000001819    0.000002087
     38        1           0.000001799   -0.000002920    0.000001197
     39        6           0.000000992   -0.000002125    0.000001093
     40        1           0.000000414   -0.000000775    0.000000400
     41        1           0.000000230   -0.000001344   -0.000000466
     42        1           0.000001772   -0.000003696    0.000001260
     43        1           0.000001127   -0.000003348    0.000000366
     44        1           0.000001036   -0.000002645    0.000000490
     45        1           0.000001585   -0.000001818    0.000001454
     46        6          -0.000002240   -0.000000038   -0.000002711
     47        1          -0.000000981    0.000000536   -0.000001816
     48        1          -0.000001357   -0.000000308   -0.000003106
     49        1          -0.000001641    0.000001068   -0.000002344
     50        6          -0.000001687   -0.000001220   -0.000001818
     51        1          -0.000000415   -0.000001676   -0.000002913
     52        1          -0.000000894   -0.000001976   -0.000003045
     53        1          -0.000000566   -0.000001589   -0.000001852
     54        6          -0.000001763   -0.000000356   -0.000003854
     55        1          -0.000001872   -0.000000524   -0.000003209
     56        1          -0.000002098    0.000000753   -0.000003266
     57        1          -0.000002192   -0.000000378   -0.000003928
     58        6          -0.000000867    0.000003220   -0.000000783
     59        1          -0.000001686    0.000003351   -0.000000631
     60        1          -0.000000876    0.000002904    0.000000163
     61        1          -0.000001566    0.000003377   -0.000000964
     62        6          -0.000001138    0.000001526   -0.000000595
     63        1          -0.000000353    0.000001439    0.000000330
     64        1          -0.000000672    0.000001877   -0.000000598
     65        1          -0.000000508    0.000000508   -0.000000710
     66        6          -0.000001646    0.000001652   -0.000001919
     67        1          -0.000002076    0.000002183   -0.000002440
     68        1          -0.000001655    0.000001161   -0.000002393
     69        1          -0.000001686    0.000002376   -0.000002137
 -------------------------------------------------------------------
 Cartesian Forces:  Max     0.000004701 RMS     0.000001718
 FormGI is forming the generalized inverse of G from B-inverse, IUseBI=4.
 GSVD:  received Info=                   1 from GESDD.
 Leave Link  716 at Fri Dec 21 18:10:29 2018, MaxMem=  1342177280 cpu:               6.1 elap:               0.4
 (Enter /gpfs/apps/hpc/Apps/Restricted/Gaussian/Rev_A.03/g16/l9999.exe)

 ----------------------------------------------------------------------

 Electric dipole moment (input orientation):
 (Debye = 10**-18 statcoulomb cm , SI units = C m)
                  (au)            (Debye)         (10**-30 SI)
   Tot        0.259206D+01      0.658835D+01      0.219764D+02
   x          0.250804D+01      0.637479D+01      0.212640D+02
   y          0.651435D+00      0.165578D+01      0.552309D+01
   z          0.643680D-01      0.163607D+00      0.545735D+00

 Dipole polarizability, Alpha (input orientation).
 (esu units = cm**3 , SI units = C**2 m**2 J**-1)
 Alpha(0;0):
               (au)            (10**-24 esu)      (10**-40 SI)
   iso        0.472831D+03      0.700663D+02      0.779593D+02
   aniso      0.314178D+03      0.465564D+02      0.518010D+02
   xx         0.548825D+03      0.813275D+02      0.904891D+02
   yx         0.939363D+01      0.139199D+01      0.154880D+01
   yy         0.602920D+03      0.893436D+02      0.994081D+02
   zx         0.139194D+02      0.206264D+01      0.229500D+01
   zy        -0.601063D+01     -0.890684D+00     -0.991020D+00
   zz         0.266747D+03      0.395278D+02      0.439806D+02

 ----------------------------------------------------------------------

 Dipole orientation:
     6         -2.05749366          4.83439834          0.42597934
     6         -2.20597237          5.82741483         -2.04757286
     6         -2.71817220          8.39650179         -2.41049028
     6         -3.07648120          9.89092794         -0.26903311
     6         -2.93328281          8.87426192          2.17743850
     6         -2.41224917          6.31207750          2.59751439
     6         -1.36178218          1.81274929         -2.39953422
     1         -2.82687838          9.18826783         -4.29476473
     1         -3.47912839         11.88604810         -0.49533573
     1         -3.22859690         10.09388731          3.79803886
     7         -1.76548764          3.89668839         -3.76225409
     6         -0.61161891         -0.90205860         -6.15000078
     6         -0.79483514         -0.64724733         -3.48444903
     6         -0.39030823         -2.75176964         -1.92644755
     6          0.19436430         -5.10815418         -2.92769076
     6          0.36192506         -5.30032999         -5.56606987
     6         -0.02387284         -3.27819742         -7.21969006
     1         -0.53653052         -2.53083433          0.10509661
     1          0.81487761         -7.11676432         -6.37314272
     6          0.67883654         -7.34795092         -1.15673339
     6          0.18815077         -3.62719394        -10.09571881
     8         -0.98801909          1.10876713         -7.68094068
     1         -1.37206743          2.61078875         -6.59580188
     7         -1.52634523          2.30802781          0.14184464
     1         -1.28633804          1.14337221          1.64187942
     6         -2.24207863          5.25964185          5.14164257
     1         -2.58624891          6.60175148          6.67746563
     7         -1.71718237          2.92638470          5.52582994
     6         -1.49707792          2.01891798          8.14066594
     6          1.18226691          2.54238738          9.14592126
     6         -3.49066869          3.03747779          9.99070007
     1         -1.73099398         -0.03811964          8.04694892
     6          1.54523253          1.43188482         11.79569409
     1          1.46389483          4.59562356          9.19664741
     1          2.57968031          1.77034122          7.83254941
     6         -3.13498056          1.88390571         12.62387020
     1         -3.32080314          5.09497697         10.14422787
     1         -5.38156225          2.63385796          9.25728616
     6         -0.47024909          2.39759119         13.63752771
     1          3.43959086          1.88250775         12.49114368
     1          1.42720087         -0.63476517         11.68464542
     1         -4.56059286          2.64149029         13.91663440
     1         -3.44535598         -0.16382289         12.52642337
     1         -0.22533621          1.52005111         15.49385973
     1         -0.22868412          4.43975349         13.90353976
     6          2.98919651         -6.74110460          0.51280673
     1          2.67945508         -5.01770522          1.60719530
     1          3.34965171         -8.28873264          1.83544076
     1          4.68038700         -6.47214242         -0.64339068
     6         -1.64234269         -7.76394204          0.55282939
     1         -3.31345697         -8.22448667         -0.57113953
     1         -1.29208480         -9.32657878          1.85999155
     1         -2.06399034         -6.07999323          1.67162047
     6          1.20570423         -9.80299161         -2.60832597
     1         -0.39412490        -10.34283551         -3.79929902
     1          2.87991974         -9.63433003         -3.80773505
     1          1.54245681        -11.33679442         -1.26717435
     6          2.31553211         -1.93121387        -11.14681418
     1          2.45025681         -2.16590413        -13.19664860
     1          1.96660010          0.05515795        -10.73533876
     1          4.13447617         -2.46106263        -10.32089039
     6         -2.34860635         -2.95150209        -11.36785212
     1         -2.85298327         -0.98399060        -11.03687647
     1         -2.21887853         -3.26498737        -13.40754084
     1         -3.86422018         -4.14581362        -10.62784538
     6          0.82359566         -6.37250206        -10.80431128
     1          2.63073372         -6.97330614        -10.00346096
     1         -0.63573432         -7.68807798        -10.16571118
     1          0.95865358         -6.52198969        -12.85924876

 Electric dipole moment (dipole orientation):
 (Debye = 10**-18 statcoulomb cm , SI units = C m)
                  (au)            (Debye)         (10**-30 SI)
   Tot        0.259206D+01      0.658835D+01      0.219764D+02
   x          0.000000D+00      0.000000D+00      0.000000D+00
   y          0.000000D+00      0.000000D+00      0.000000D+00
   z          0.259206D+01      0.658835D+01      0.219764D+02

 Dipole polarizability, Alpha (dipole orientation).
 (esu units = cm**3 , SI units = C**2 m**2 J**-1)
 Alpha(0;0):
               (au)            (10**-24 esu)      (10**-40 SI)
   iso        0.472831D+03      0.700663D+02      0.779593D+02
   aniso      0.314178D+03      0.465564D+02      0.518010D+02
   xx         0.282308D+03      0.418338D+02      0.465463D+02
   yx        -0.713554D+02     -0.105738D+02     -0.117649D+02
   yy         0.578953D+03      0.857920D+02      0.954565D+02
   zx        -0.990539D+01     -0.146783D+01     -0.163318D+01
   zy         0.192592D+02      0.285392D+01      0.317541D+01
   zz         0.557231D+03      0.825731D+02      0.918749D+02

 ----------------------------------------------------------------------

 This type of calculation cannot be archived.


 EVERYTHING'S GOT A MORAL, IF ONLY YOU CAN FIND IT.

                                    -- LEWIS CARROL, ALICE IN WONDERLAND
 Job cpu time:       0 days  0 hours  0 minutes 21.7 seconds.
 Elapsed time:       0 days  0 hours  0 minutes  1.5 seconds.
 File lengths (MBytes):  RWF=     72 Int=      0 D2E=      0 Chk=     64 Scr=      8
 Normal termination of Gaussian 16 at Fri Dec 21 18:10:29 2018.
