 Entering Gaussian System, Link 0=g16
 Input=cyclohexyl-monoBIP-neutral.com
 Output=cyclohexyl-monoBIP-neutral.log
 Initial command:
 /gpfs/apps/hpc/Apps/Restricted/Gaussian/Rev_A.03/g16/l1.exe "/gpfs/scratch60/fas/hammes_schiffer/jg2487/c44n01/Gau-172898.inp" -scrdir="/gpfs/scratch60/fas/hammes_schiffer/jg2487/c44n01/"
 Entering Link 1 = /gpfs/apps/hpc/Apps/Restricted/Gaussian/Rev_A.03/g16/l1.exe PID=    172904.
  
 Copyright (c) 1988,1990,1992,1993,1995,1998,2003,2009,2016,
            Gaussian, Inc.  All Rights Reserved.
  
 This is part of the Gaussian(R) 16 program.  It is based on
 the Gaussian(R) 09 system (copyright 2009, Gaussian, Inc.),
 the Gaussian(R) 03 system (copyright 2003, Gaussian, Inc.),
 the Gaussian(R) 98 system (copyright 1998, Gaussian, Inc.),
 the Gaussian(R) 94 system (copyright 1995, Gaussian, Inc.),
 the Gaussian 92(TM) system (copyright 1992, Gaussian, Inc.),
 the Gaussian 90(TM) system (copyright 1990, Gaussian, Inc.),
 the Gaussian 88(TM) system (copyright 1988, Gaussian, Inc.),
 the Gaussian 86(TM) system (copyright 1986, Carnegie Mellon
 University), and the Gaussian 82(TM) system (copyright 1983,
 Carnegie Mellon University). Gaussian is a federally registered
 trademark of Gaussian, Inc.
  
 This software contains proprietary and confidential information,
 including trade secrets, belonging to Gaussian, Inc.
  
 This software is provided under written license and may be
 used, copied, transmitted, or stored only in accord with that
 written license.
  
 The following legend is applicable only to US Government
 contracts under FAR:
  
                    RESTRICTED RIGHTS LEGEND
  
 Use, reproduction and disclosure by the US Government is
 subject to restrictions as set forth in subparagraphs (a)
 and (c) of the Commercial Computer Software - Restricted
 Rights clause in FAR 52.227-19.
  
 Gaussian, Inc.
 340 Quinnipiac St., Bldg. 40, Wallingford CT 06492
  
  
 ---------------------------------------------------------------
 Warning -- This program may not be used in any manner that
 competes with the business of Gaussian, Inc. or will provide
 assistance to any competitor of Gaussian, Inc.  The licensee
 of this program is prohibited from giving any competitor of
 Gaussian, Inc. access to this program.  By using this program,
 the user acknowledges that Gaussian, Inc. is engaged in the
 business of creating and licensing software in the field of
 computational chemistry and represents and warrants to the
 licensee that it is not a competitor of Gaussian, Inc. and that
 it will not use this program in any manner prohibited above.
 ---------------------------------------------------------------
  

 Cite this work as:
 Gaussian 16, Revision A.03,
 M. J. Frisch, G. W. Trucks, H. B. Schlegel, G. E. Scuseria, 
 M. A. Robb, J. R. Cheeseman, G. Scalmani, V. Barone, 
 G. A. Petersson, H. Nakatsuji, X. Li, M. Caricato, A. V. Marenich, 
 J. Bloino, B. G. Janesko, R. Gomperts, B. Mennucci, H. P. Hratchian, 
 J. V. Ortiz, A. F. Izmaylov, J. L. Sonnenberg, D. Williams-Young, 
 F. Ding, F. Lipparini, F. Egidi, J. Goings, B. Peng, A. Petrone, 
 T. Henderson, D. Ranasinghe, V. G. Zakrzewski, J. Gao, N. Rega, 
 G. Zheng, W. Liang, M. Hada, M. Ehara, K. Toyota, R. Fukuda, 
 J. Hasegawa, M. Ishida, T. Nakajima, Y. Honda, O. Kitao, H. Nakai, 
 T. Vreven, K. Throssell, J. A. Montgomery, Jr., J. E. Peralta, 
 F. Ogliaro, M. J. Bearpark, J. J. Heyd, E. N. Brothers, K. N. Kudin, 
 V. N. Staroverov, T. A. Keith, R. Kobayashi, J. Normand, 
 K. Raghavachari, A. P. Rendell, J. C. Burant, S. S. Iyengar, 
 J. Tomasi, M. Cossi, J. M. Millam, M. Klene, C. Adamo, R. Cammi, 
 J. W. Ochterski, R. L. Martin, K. Morokuma, O. Farkas, 
 J. B. Foresman, and D. J. Fox, Gaussian, Inc., Wallingford CT, 2016.
 
 ******************************************
 Gaussian 16:  ES64L-G16RevA.03 25-Dec-2016
                14-Dec-2018 
 ******************************************
 %chk=cyclohexyl-monoBIP-neutral.chk
 %mem=10GB
 %nprocshared=16
 Will use up to   16 processors via shared memory.
 ----------------------------------------------------------------
 #p freq(ReadFC,InternalModes) Geom(AllCheck) NoSymm scale=0.9649
 ----------------------------------------------------------------
 1/18=20,29=7,38=1,114=964900/1,3;
 2/9=110,12=2,15=1,40=1/2;
 7/8=21,25=11,30=1/16;
 99/5=2/99;
 Leave Link    1 at Fri Dec 14 13:01:07 2018, MaxMem=  1342177280 cpu:               7.1 elap:               0.5
 (Enter /gpfs/apps/hpc/Apps/Restricted/Gaussian/Rev_A.03/g16/l101.exe)
 Structure from the checkpoint file:  "cyclohexyl-monoBIP-neutral.chk"
 --------------------------------------------
 cyclohexylimine monoBIP neutral optimization
 --------------------------------------------
 Charge =  0 Multiplicity = 1
 Redundant internal coordinates found in file.  (old form).
 C,0,-0.464016,2.687907,0.302918
 C,0,-1.865592,2.861694,0.266958
 C,0,-2.406128,4.150853,0.194177
 C,0,-1.51927,5.227263,0.165183
 C,0,-0.128231,5.0378,0.200664
 C,0,0.44092,3.759294,0.268134
 C,0,-1.486085,0.71971,0.368798
 H,0,-3.478186,4.302097,0.162417
 H,0,-1.911621,6.236101,0.112988
 H,0,0.530326,5.899288,0.176209
 N,0,-2.473534,1.616523,0.308464
 C,0,-3.027505,-1.214277,0.365002
 C,0,-1.702172,-0.716102,0.417776
 C,0,-0.628631,-1.619999,0.499398
 C,0,-0.838191,-2.994148,0.533102
 C,0,-2.162132,-3.457845,0.476757
 C,0,-3.257186,-2.60175,0.396295
 H,0,0.385673,-1.236769,0.542363
 H,0,-2.342285,-4.528541,0.501258
 C,0,0.316003,-3.960563,0.6294
 H,0,1.05119,-3.789018,-0.162099
 H,0,0.842452,-3.860889,1.583888
 H,0,-0.034136,-4.991455,0.548166
 C,0,-4.667919,-3.118784,0.339484
 H,0,-5.2736,-2.703515,1.150189
 H,0,-5.159514,-2.833373,-0.595691
 H,0,-4.683477,-4.206905,0.418466
 O,0,-4.104821,-0.402634,0.284758
 H,0,-3.773832,0.540227,0.280353
 N,0,-0.25751,1.330909,0.368136
 H,0,0.672409,0.929681,0.395081
 C,0,1.885543,3.552563,0.294638
 H,0,2.495162,4.46137,0.240612
 N,0,2.393902,2.378618,0.377624
 C,0,3.859284,2.262967,0.403824
 C,0,4.498506,2.699094,-0.924819
 C,0,4.498399,3.01984,1.580094
 H,0,4.075136,1.197155,0.541106
 C,0,6.015675,2.482711,-0.895801
 H,0,4.279374,3.76153,-1.085188
 H,0,4.041718,2.145649,-1.750758
 C,0,6.014261,2.795815,1.613456
 H,0,4.295379,4.091638,1.467922
 H,0,4.031049,2.701085,2.516487
 C,0,6.66129,3.212743,0.287433
 H,0,6.461519,2.812467,-1.839203
 H,0,6.219816,1.407819,-0.809903
 H,0,6.454588,3.351723,2.447047
 H,0,6.218205,1.733493,1.797219
 H,0,7.738403,3.020732,0.311445
 H,0,6.534339,4.2944,0.152747
 Recover connectivity data from disk.
 ITRead=  0  0  0  0  0  0  0  0  0  0  0  0  0  0  0  0  0  0  0  0
 ITRead=  0  0  0  0  0  0  0  0  0  0  0  0  0  0  0  0  0  0  0  0
 ITRead=  0  0  0  0  0  0  0  0  0  0  0
 MicOpt= -1 -1 -1 -1 -1 -1 -1 -1 -1 -1 -1 -1 -1 -1 -1 -1 -1 -1 -1 -1
 MicOpt= -1 -1 -1 -1 -1 -1 -1 -1 -1 -1 -1 -1 -1 -1 -1 -1 -1 -1 -1 -1
 MicOpt= -1 -1 -1 -1 -1 -1 -1 -1 -1 -1 -1
 NAtoms=     51 NQM=       51 NQMF=       0 NMMI=      0 NMMIF=      0
                NMic=       0 NMicF=      0.
                    Isotopes and Nuclear Properties:
 (Nuclear quadrupole moments (NQMom) in fm**2, nuclear magnetic moments (NMagM)
  in nuclear magnetons)

  Atom         1           2           3           4           5           6           7           8           9          10
 IAtWgt=          12          12          12          12          12          12          12           1           1           1
 AtmWgt=  12.0000000  12.0000000  12.0000000  12.0000000  12.0000000  12.0000000  12.0000000   1.0078250   1.0078250   1.0078250
 NucSpn=           0           0           0           0           0           0           0           1           1           1
 AtZEff=   3.6000000   3.6000000   3.6000000   3.6000000   3.6000000   3.6000000   3.6000000   1.0000000   1.0000000   1.0000000
 NQMom=    0.0000000   0.0000000   0.0000000   0.0000000   0.0000000   0.0000000   0.0000000   0.0000000   0.0000000   0.0000000
 NMagM=    0.0000000   0.0000000   0.0000000   0.0000000   0.0000000   0.0000000   0.0000000   2.7928460   2.7928460   2.7928460
 AtZNuc=   6.0000000   6.0000000   6.0000000   6.0000000   6.0000000   6.0000000   6.0000000   1.0000000   1.0000000   1.0000000

  Atom        11          12          13          14          15          16          17          18          19          20
 IAtWgt=          14          12          12          12          12          12          12           1           1          12
 AtmWgt=  14.0030740  12.0000000  12.0000000  12.0000000  12.0000000  12.0000000  12.0000000   1.0078250   1.0078250  12.0000000
 NucSpn=           2           0           0           0           0           0           0           1           1           0
 AtZEff=   4.5500000   3.6000000   3.6000000   3.6000000   3.6000000   3.6000000   3.6000000   1.0000000   1.0000000   3.6000000
 NQMom=    2.0440000   0.0000000   0.0000000   0.0000000   0.0000000   0.0000000   0.0000000   0.0000000   0.0000000   0.0000000
 NMagM=    0.4037610   0.0000000   0.0000000   0.0000000   0.0000000   0.0000000   0.0000000   2.7928460   2.7928460   0.0000000
 AtZNuc=   7.0000000   6.0000000   6.0000000   6.0000000   6.0000000   6.0000000   6.0000000   1.0000000   1.0000000   6.0000000

  Atom        21          22          23          24          25          26          27          28          29          30
 IAtWgt=           1           1           1          12           1           1           1          16           1          14
 AtmWgt=   1.0078250   1.0078250   1.0078250  12.0000000   1.0078250   1.0078250   1.0078250  15.9949146   1.0078250  14.0030740
 NucSpn=           1           1           1           0           1           1           1           0           1           2
 AtZEff=   1.0000000   1.0000000   1.0000000   3.6000000   1.0000000   1.0000000   1.0000000   5.6000000   1.0000000   4.5500000
 NQMom=    0.0000000   0.0000000   0.0000000   0.0000000   0.0000000   0.0000000   0.0000000   0.0000000   0.0000000   2.0440000
 NMagM=    2.7928460   2.7928460   2.7928460   0.0000000   2.7928460   2.7928460   2.7928460   0.0000000   2.7928460   0.4037610
 AtZNuc=   1.0000000   1.0000000   1.0000000   6.0000000   1.0000000   1.0000000   1.0000000   8.0000000   1.0000000   7.0000000

  Atom        31          32          33          34          35          36          37          38          39          40
 IAtWgt=           1          12           1          14          12          12          12           1          12           1
 AtmWgt=   1.0078250  12.0000000   1.0078250  14.0030740  12.0000000  12.0000000  12.0000000   1.0078250  12.0000000   1.0078250
 NucSpn=           1           0           1           2           0           0           0           1           0           1
 AtZEff=   1.0000000   3.6000000   1.0000000   4.5500000   3.6000000   3.6000000   3.6000000   1.0000000   3.6000000   1.0000000
 NQMom=    0.0000000   0.0000000   0.0000000   2.0440000   0.0000000   0.0000000   0.0000000   0.0000000   0.0000000   0.0000000
 NMagM=    2.7928460   0.0000000   2.7928460   0.4037610   0.0000000   0.0000000   0.0000000   2.7928460   0.0000000   2.7928460
 AtZNuc=   1.0000000   6.0000000   1.0000000   7.0000000   6.0000000   6.0000000   6.0000000   1.0000000   6.0000000   1.0000000

  Atom        41          42          43          44          45          46          47          48          49          50
 IAtWgt=           1          12           1           1          12           1           1           1           1           1
 AtmWgt=   1.0078250  12.0000000   1.0078250   1.0078250  12.0000000   1.0078250   1.0078250   1.0078250   1.0078250   1.0078250
 NucSpn=           1           0           1           1           0           1           1           1           1           1
 AtZEff=   1.0000000   3.6000000   1.0000000   1.0000000   3.6000000   1.0000000   1.0000000   1.0000000   1.0000000   1.0000000
 NQMom=    0.0000000   0.0000000   0.0000000   0.0000000   0.0000000   0.0000000   0.0000000   0.0000000   0.0000000   0.0000000
 NMagM=    2.7928460   0.0000000   2.7928460   2.7928460   0.0000000   2.7928460   2.7928460   2.7928460   2.7928460   2.7928460
 AtZNuc=   1.0000000   6.0000000   1.0000000   1.0000000   6.0000000   1.0000000   1.0000000   1.0000000   1.0000000   1.0000000

  Atom        51
 IAtWgt=           1
 AtmWgt=   1.0078250
 NucSpn=           1
 AtZEff=   1.0000000
 NQMom=    0.0000000
 NMagM=    2.7928460
 AtZNuc=   1.0000000
 Leave Link  101 at Fri Dec 14 13:01:08 2018, MaxMem=  1342177280 cpu:               3.8 elap:               0.3
 (Enter /gpfs/apps/hpc/Apps/Restricted/Gaussian/Rev_A.03/g16/l103.exe)

 GradGradGradGradGradGradGradGradGradGradGradGradGradGradGradGradGradGrad
 Berny optimization.
 Initialization pass.
                           ----------------------------
                           !    Initial Parameters    !
                           ! (Angstroms and Degrees)  !
 --------------------------                            --------------------------
 ! Name  Definition              Value          Derivative Info.                !
 --------------------------------------------------------------------------------
 ! R1    R(1,2)                  1.4128         estimate D2E/DX2                !
 ! R2    R(1,6)                  1.4029         estimate D2E/DX2                !
 ! R3    R(1,30)                 1.3742         estimate D2E/DX2                !
 ! R4    R(2,3)                  1.3998         estimate D2E/DX2                !
 ! R5    R(2,11)                 1.3863         estimate D2E/DX2                !
 ! R6    R(3,4)                  1.395          estimate D2E/DX2                !
 ! R7    R(3,8)                  1.0831         estimate D2E/DX2                !
 ! R8    R(4,5)                  1.4043         estimate D2E/DX2                !
 ! R9    R(4,9)                  1.0837         estimate D2E/DX2                !
 ! R10   R(5,6)                  1.4011         estimate D2E/DX2                !
 ! R11   R(5,10)                 1.0846         estimate D2E/DX2                !
 ! R12   R(6,32)                 1.4596         estimate D2E/DX2                !
 ! R13   R(7,11)                 1.3353         estimate D2E/DX2                !
 ! R14   R(7,13)                 1.4528         estimate D2E/DX2                !
 ! R15   R(7,30)                 1.3722         estimate D2E/DX2                !
 ! R16   R(12,13)                1.4169         estimate D2E/DX2                !
 ! R17   R(12,17)                1.4067         estimate D2E/DX2                !
 ! R18   R(12,28)                1.3512         estimate D2E/DX2                !
 ! R19   R(13,14)                1.4058         estimate D2E/DX2                !
 ! R20   R(14,15)                1.3904         estimate D2E/DX2                !
 ! R21   R(14,18)                1.0851         estimate D2E/DX2                !
 ! R22   R(15,16)                1.4039         estimate D2E/DX2                !
 ! R23   R(15,20)                1.5084         estimate D2E/DX2                !
 ! R24   R(16,17)                1.3923         estimate D2E/DX2                !
 ! R25   R(16,19)                1.086          estimate D2E/DX2                !
 ! R26   R(17,24)                1.5036         estimate D2E/DX2                !
 ! R27   R(20,21)                1.0938         estimate D2E/DX2                !
 ! R28   R(20,22)                1.0946         estimate D2E/DX2                !
 ! R29   R(20,23)                1.0918         estimate D2E/DX2                !
 ! R30   R(24,25)                1.0939         estimate D2E/DX2                !
 ! R31   R(24,26)                1.0944         estimate D2E/DX2                !
 ! R32   R(24,27)                1.0911         estimate D2E/DX2                !
 ! R33   R(28,29)                0.9993         estimate D2E/DX2                !
 ! R34   R(30,31)                1.0131         estimate D2E/DX2                !
 ! R35   R(32,33)                1.0957         estimate D2E/DX2                !
 ! R36   R(32,34)                1.282          estimate D2E/DX2                !
 ! R37   R(34,35)                1.4702         estimate D2E/DX2                !
 ! R38   R(35,36)                1.5376         estimate D2E/DX2                !
 ! R39   R(35,37)                1.5378         estimate D2E/DX2                !
 ! R40   R(35,38)                1.0961         estimate D2E/DX2                !
 ! R41   R(36,39)                1.5328         estimate D2E/DX2                !
 ! R42   R(36,40)                1.0966         estimate D2E/DX2                !
 ! R43   R(36,41)                1.0941         estimate D2E/DX2                !
 ! R44   R(37,42)                1.5327         estimate D2E/DX2                !
 ! R45   R(37,43)                1.0966         estimate D2E/DX2                !
 ! R46   R(37,44)                1.094          estimate D2E/DX2                !
 ! R47   R(39,45)                1.5329         estimate D2E/DX2                !
 ! R48   R(39,46)                1.0943         estimate D2E/DX2                !
 ! R49   R(39,47)                1.0975         estimate D2E/DX2                !
 ! R50   R(42,45)                1.5332         estimate D2E/DX2                !
 ! R51   R(42,48)                1.0944         estimate D2E/DX2                !
 ! R52   R(42,49)                1.0972         estimate D2E/DX2                !
 ! R53   R(45,50)                1.0944         estimate D2E/DX2                !
 ! R54   R(45,51)                1.0974         estimate D2E/DX2                !
 ! A1    A(2,1,6)              123.0508         estimate D2E/DX2                !
 ! A2    A(2,1,30)             105.7696         estimate D2E/DX2                !
 ! A3    A(6,1,30)             131.1792         estimate D2E/DX2                !
 ! A4    A(1,2,3)              119.8486         estimate D2E/DX2                !
 ! A5    A(1,2,11)             108.8939         estimate D2E/DX2                !
 ! A6    A(3,2,11)             131.2568         estimate D2E/DX2                !
 ! A7    A(2,3,4)              117.7894         estimate D2E/DX2                !
 ! A8    A(2,3,8)              120.819          estimate D2E/DX2                !
 ! A9    A(4,3,8)              121.3915         estimate D2E/DX2                !
 ! A10   A(3,4,5)              121.6748         estimate D2E/DX2                !
 ! A11   A(3,4,9)              119.2846         estimate D2E/DX2                !
 ! A12   A(5,4,9)              119.0406         estimate D2E/DX2                !
 ! A13   A(4,5,6)              121.7828         estimate D2E/DX2                !
 ! A14   A(4,5,10)             119.5835         estimate D2E/DX2                !
 ! A15   A(6,5,10)             118.6337         estimate D2E/DX2                !
 ! A16   A(1,6,5)              115.8524         estimate D2E/DX2                !
 ! A17   A(1,6,32)             121.9945         estimate D2E/DX2                !
 ! A18   A(5,6,32)             122.1526         estimate D2E/DX2                !
 ! A19   A(11,7,13)            123.7316         estimate D2E/DX2                !
 ! A20   A(11,7,30)            111.28           estimate D2E/DX2                !
 ! A21   A(13,7,30)            124.9867         estimate D2E/DX2                !
 ! A22   A(2,11,7)             106.2789         estimate D2E/DX2                !
 ! A23   A(13,12,17)           119.9141         estimate D2E/DX2                !
 ! A24   A(13,12,28)           122.466          estimate D2E/DX2                !
 ! A25   A(17,12,28)           117.6198         estimate D2E/DX2                !
 ! A26   A(7,13,12)            119.0366         estimate D2E/DX2                !
 ! A27   A(7,13,14)            121.5903         estimate D2E/DX2                !
 ! A28   A(12,13,14)           119.3684         estimate D2E/DX2                !
 ! A29   A(13,14,15)           121.4509         estimate D2E/DX2                !
 ! A30   A(13,14,18)           119.2774         estimate D2E/DX2                !
 ! A31   A(15,14,18)           119.2709         estimate D2E/DX2                !
 ! A32   A(14,15,16)           117.8767         estimate D2E/DX2                !
 ! A33   A(14,15,20)           121.2913         estimate D2E/DX2                !
 ! A34   A(16,15,20)           120.8319         estimate D2E/DX2                !
 ! A35   A(15,16,17)           122.7469         estimate D2E/DX2                !
 ! A36   A(15,16,19)           118.7606         estimate D2E/DX2                !
 ! A37   A(17,16,19)           118.4919         estimate D2E/DX2                !
 ! A38   A(12,17,16)           118.6422         estimate D2E/DX2                !
 ! A39   A(12,17,24)           119.4408         estimate D2E/DX2                !
 ! A40   A(16,17,24)           121.9168         estimate D2E/DX2                !
 ! A41   A(15,20,21)           111.5688         estimate D2E/DX2                !
 ! A42   A(15,20,22)           111.4281         estimate D2E/DX2                !
 ! A43   A(15,20,23)           110.7818         estimate D2E/DX2                !
 ! A44   A(21,20,22)           107.0647         estimate D2E/DX2                !
 ! A45   A(21,20,23)           108.0478         estimate D2E/DX2                !
 ! A46   A(22,20,23)           107.765          estimate D2E/DX2                !
 ! A47   A(17,24,25)           111.1598         estimate D2E/DX2                !
 ! A48   A(17,24,26)           111.3503         estimate D2E/DX2                !
 ! A49   A(17,24,27)           110.7063         estimate D2E/DX2                !
 ! A50   A(25,24,26)           106.594          estimate D2E/DX2                !
 ! A51   A(25,24,27)           108.4849         estimate D2E/DX2                !
 ! A52   A(26,24,27)           108.3932         estimate D2E/DX2                !
 ! A53   A(12,28,29)           107.634          estimate D2E/DX2                !
 ! A54   A(1,30,7)             107.7776         estimate D2E/DX2                !
 ! A55   A(1,30,31)            122.0236         estimate D2E/DX2                !
 ! A56   A(7,30,31)            130.1937         estimate D2E/DX2                !
 ! A57   A(6,32,33)            115.6144         estimate D2E/DX2                !
 ! A58   A(6,32,34)            121.5577         estimate D2E/DX2                !
 ! A59   A(33,32,34)           122.8279         estimate D2E/DX2                !
 ! A60   A(32,34,35)           117.9331         estimate D2E/DX2                !
 ! A61   A(34,35,36)           112.1275         estimate D2E/DX2                !
 ! A62   A(34,35,37)           112.9019         estimate D2E/DX2                !
 ! A63   A(34,35,38)           105.9628         estimate D2E/DX2                !
 ! A64   A(36,35,37)           110.4002         estimate D2E/DX2                !
 ! A65   A(36,35,38)           107.5882         estimate D2E/DX2                !
 ! A66   A(37,35,38)           107.5136         estimate D2E/DX2                !
 ! A67   A(35,36,39)           110.7994         estimate D2E/DX2                !
 ! A68   A(35,36,40)           108.5486         estimate D2E/DX2                !
 ! A69   A(35,36,41)           109.5886         estimate D2E/DX2                !
 ! A70   A(39,36,40)           109.7145         estimate D2E/DX2                !
 ! A71   A(39,36,41)           110.8618         estimate D2E/DX2                !
 ! A72   A(40,36,41)           107.2326         estimate D2E/DX2                !
 ! A73   A(35,37,42)           110.839          estimate D2E/DX2                !
 ! A74   A(35,37,43)           109.0172         estimate D2E/DX2                !
 ! A75   A(35,37,44)           109.4966         estimate D2E/DX2                !
 ! A76   A(42,37,43)           109.1587         estimate D2E/DX2                !
 ! A77   A(42,37,44)           111.179          estimate D2E/DX2                !
 ! A78   A(43,37,44)           107.0519         estimate D2E/DX2                !
 ! A79   A(36,39,45)           111.362          estimate D2E/DX2                !
 ! A80   A(36,39,46)           110.1455         estimate D2E/DX2                !
 ! A81   A(36,39,47)           108.8965         estimate D2E/DX2                !
 ! A82   A(45,39,46)           110.5081         estimate D2E/DX2                !
 ! A83   A(45,39,47)           109.1283         estimate D2E/DX2                !
 ! A84   A(46,39,47)           106.6681         estimate D2E/DX2                !
 ! A85   A(37,42,45)           111.0264         estimate D2E/DX2                !
 ! A86   A(37,42,48)           109.8921         estimate D2E/DX2                !
 ! A87   A(37,42,49)           109.2077         estimate D2E/DX2                !
 ! A88   A(45,42,48)           110.5373         estimate D2E/DX2                !
 ! A89   A(45,42,49)           109.2497         estimate D2E/DX2                !
 ! A90   A(48,42,49)           106.8243         estimate D2E/DX2                !
 ! A91   A(39,45,42)           111.1206         estimate D2E/DX2                !
 ! A92   A(39,45,50)           110.3596         estimate D2E/DX2                !
 ! A93   A(39,45,51)           109.0235         estimate D2E/DX2                !
 ! A94   A(42,45,50)           110.4057         estimate D2E/DX2                !
 ! A95   A(42,45,51)           108.9873         estimate D2E/DX2                !
 ! A96   A(50,45,51)           106.8279         estimate D2E/DX2                !
 ! D1    D(6,1,2,3)             -0.0461         estimate D2E/DX2                !
 ! D2    D(6,1,2,11)           179.668          estimate D2E/DX2                !
 ! D3    D(30,1,2,3)          -179.8157         estimate D2E/DX2                !
 ! D4    D(30,1,2,11)           -0.1016         estimate D2E/DX2                !
 ! D5    D(2,1,6,5)              0.2871         estimate D2E/DX2                !
 ! D6    D(2,1,6,32)          -179.4493         estimate D2E/DX2                !
 ! D7    D(30,1,6,5)           179.9925         estimate D2E/DX2                !
 ! D8    D(30,1,6,32)            0.2561         estimate D2E/DX2                !
 ! D9    D(2,1,30,7)             0.0955         estimate D2E/DX2                !
 ! D10   D(2,1,30,31)          179.3483         estimate D2E/DX2                !
 ! D11   D(6,1,30,7)          -179.648          estimate D2E/DX2                !
 ! D12   D(6,1,30,31)           -0.3951         estimate D2E/DX2                !
 ! D13   D(1,2,3,4)             -0.2523         estimate D2E/DX2                !
 ! D14   D(1,2,3,8)            179.7926         estimate D2E/DX2                !
 ! D15   D(11,2,3,4)          -179.8925         estimate D2E/DX2                !
 ! D16   D(11,2,3,8)             0.1524         estimate D2E/DX2                !
 ! D17   D(1,2,11,7)             0.0676         estimate D2E/DX2                !
 ! D18   D(3,2,11,7)           179.7377         estimate D2E/DX2                !
 ! D19   D(2,3,4,5)              0.3045         estimate D2E/DX2                !
 ! D20   D(2,3,4,9)           -179.7559         estimate D2E/DX2                !
 ! D21   D(8,3,4,5)           -179.7407         estimate D2E/DX2                !
 ! D22   D(8,3,4,9)              0.199          estimate D2E/DX2                !
 ! D23   D(3,4,5,6)             -0.0564         estimate D2E/DX2                !
 ! D24   D(3,4,5,10)           179.9852         estimate D2E/DX2                !
 ! D25   D(9,4,5,6)           -179.9962         estimate D2E/DX2                !
 ! D26   D(9,4,5,10)             0.0454         estimate D2E/DX2                !
 ! D27   D(4,5,6,1)             -0.2354         estimate D2E/DX2                !
 ! D28   D(4,5,6,32)           179.5006         estimate D2E/DX2                !
 ! D29   D(10,5,6,1)           179.7233         estimate D2E/DX2                !
 ! D30   D(10,5,6,32)           -0.5406         estimate D2E/DX2                !
 ! D31   D(1,6,32,33)          178.6912         estimate D2E/DX2                !
 ! D32   D(1,6,32,34)           -1.3907         estimate D2E/DX2                !
 ! D33   D(5,6,32,33)           -1.0287         estimate D2E/DX2                !
 ! D34   D(5,6,32,34)          178.8894         estimate D2E/DX2                !
 ! D35   D(13,7,11,2)         -179.5624         estimate D2E/DX2                !
 ! D36   D(30,7,11,2)           -0.0069         estimate D2E/DX2                !
 ! D37   D(11,7,13,12)           1.6929         estimate D2E/DX2                !
 ! D38   D(11,7,13,14)        -179.1044         estimate D2E/DX2                !
 ! D39   D(30,7,13,12)        -177.8015         estimate D2E/DX2                !
 ! D40   D(30,7,13,14)           1.4012         estimate D2E/DX2                !
 ! D41   D(11,7,30,1)           -0.0577         estimate D2E/DX2                !
 ! D42   D(11,7,30,31)        -179.2284         estimate D2E/DX2                !
 ! D43   D(13,7,30,1)          179.491          estimate D2E/DX2                !
 ! D44   D(13,7,30,31)           0.3203         estimate D2E/DX2                !
 ! D45   D(17,12,13,7)         179.3029         estimate D2E/DX2                !
 ! D46   D(17,12,13,14)          0.0822         estimate D2E/DX2                !
 ! D47   D(28,12,13,7)          -0.7205         estimate D2E/DX2                !
 ! D48   D(28,12,13,14)       -179.9412         estimate D2E/DX2                !
 ! D49   D(13,12,17,16)         -0.119          estimate D2E/DX2                !
 ! D50   D(13,12,17,24)       -179.9902         estimate D2E/DX2                !
 ! D51   D(28,12,17,16)        179.9032         estimate D2E/DX2                !
 ! D52   D(28,12,17,24)          0.032          estimate D2E/DX2                !
 ! D53   D(13,12,28,29)         -0.4528         estimate D2E/DX2                !
 ! D54   D(17,12,28,29)        179.5244         estimate D2E/DX2                !
 ! D55   D(7,13,14,15)        -179.3705         estimate D2E/DX2                !
 ! D56   D(7,13,14,18)           0.9591         estimate D2E/DX2                !
 ! D57   D(12,13,14,15)         -0.1703         estimate D2E/DX2                !
 ! D58   D(12,13,14,18)       -179.8408         estimate D2E/DX2                !
 ! D59   D(13,14,15,16)          0.2863         estimate D2E/DX2                !
 ! D60   D(13,14,15,20)       -179.6132         estimate D2E/DX2                !
 ! D61   D(18,14,15,16)        179.9568         estimate D2E/DX2                !
 ! D62   D(18,14,15,20)          0.0573         estimate D2E/DX2                !
 ! D63   D(14,15,16,17)         -0.3302         estimate D2E/DX2                !
 ! D64   D(14,15,16,19)        179.949          estimate D2E/DX2                !
 ! D65   D(20,15,16,17)        179.5699         estimate D2E/DX2                !
 ! D66   D(20,15,16,19)         -0.1509         estimate D2E/DX2                !
 ! D67   D(14,15,20,21)        -54.2081         estimate D2E/DX2                !
 ! D68   D(14,15,20,22)         65.4035         estimate D2E/DX2                !
 ! D69   D(14,15,20,23)       -174.6282         estimate D2E/DX2                !
 ! D70   D(16,15,20,21)        125.8953         estimate D2E/DX2                !
 ! D71   D(16,15,20,22)       -114.4931         estimate D2E/DX2                !
 ! D72   D(16,15,20,23)          5.4751         estimate D2E/DX2                !
 ! D73   D(15,16,17,12)          0.2487         estimate D2E/DX2                !
 ! D74   D(15,16,17,24)       -179.8834         estimate D2E/DX2                !
 ! D75   D(19,16,17,12)        179.9702         estimate D2E/DX2                !
 ! D76   D(19,16,17,24)         -0.1619         estimate D2E/DX2                !
 ! D77   D(12,17,24,25)        -56.7769         estimate D2E/DX2                !
 ! D78   D(12,17,24,26)         61.9153         estimate D2E/DX2                !
 ! D79   D(12,17,24,27)       -177.425          estimate D2E/DX2                !
 ! D80   D(16,17,24,25)        123.3563         estimate D2E/DX2                !
 ! D81   D(16,17,24,26)       -117.9516         estimate D2E/DX2                !
 ! D82   D(16,17,24,27)          2.7082         estimate D2E/DX2                !
 ! D83   D(6,32,34,35)        -179.7533         estimate D2E/DX2                !
 ! D84   D(33,32,34,35)          0.1589         estimate D2E/DX2                !
 ! D85   D(32,34,35,36)        -66.4293         estimate D2E/DX2                !
 ! D86   D(32,34,35,37)         59.0402         estimate D2E/DX2                !
 ! D87   D(32,34,35,38)        176.4678         estimate D2E/DX2                !
 ! D88   D(34,35,36,39)       -176.3994         estimate D2E/DX2                !
 ! D89   D(34,35,36,40)         63.0647         estimate D2E/DX2                !
 ! D90   D(34,35,36,41)        -53.7486         estimate D2E/DX2                !
 ! D91   D(37,35,36,39)         56.7716         estimate D2E/DX2                !
 ! D92   D(37,35,36,40)        -63.7642         estimate D2E/DX2                !
 ! D93   D(37,35,36,41)        179.4224         estimate D2E/DX2                !
 ! D94   D(38,35,36,39)        -60.2743         estimate D2E/DX2                !
 ! D95   D(38,35,36,40)        179.1898         estimate D2E/DX2                !
 ! D96   D(38,35,36,41)         62.3765         estimate D2E/DX2                !
 ! D97   D(34,35,37,42)        176.4333         estimate D2E/DX2                !
 ! D98   D(34,35,37,43)        -63.393          estimate D2E/DX2                !
 ! D99   D(34,35,37,44)         53.4187         estimate D2E/DX2                !
 ! D100  D(36,35,37,42)        -57.1698         estimate D2E/DX2                !
 ! D101  D(36,35,37,43)         63.0039         estimate D2E/DX2                !
 ! D102  D(36,35,37,44)        179.8157         estimate D2E/DX2                !
 ! D103  D(38,35,37,42)         59.9223         estimate D2E/DX2                !
 ! D104  D(38,35,37,43)       -179.904          estimate D2E/DX2                !
 ! D105  D(38,35,37,44)        -63.0922         estimate D2E/DX2                !
 ! D106  D(35,36,39,45)        -56.0527         estimate D2E/DX2                !
 ! D107  D(35,36,39,46)       -179.0216         estimate D2E/DX2                !
 ! D108  D(35,36,39,47)         64.3311         estimate D2E/DX2                !
 ! D109  D(40,36,39,45)         63.7879         estimate D2E/DX2                !
 ! D110  D(40,36,39,46)        -59.181          estimate D2E/DX2                !
 ! D111  D(40,36,39,47)       -175.8283         estimate D2E/DX2                !
 ! D112  D(41,36,39,45)       -177.9608         estimate D2E/DX2                !
 ! D113  D(41,36,39,46)         59.0702         estimate D2E/DX2                !
 ! D114  D(41,36,39,47)        -57.5771         estimate D2E/DX2                !
 ! D115  D(35,37,42,45)         56.6217         estimate D2E/DX2                !
 ! D116  D(35,37,42,48)        179.2222         estimate D2E/DX2                !
 ! D117  D(35,37,42,49)        -63.9052         estimate D2E/DX2                !
 ! D118  D(43,37,42,45)        -63.4676         estimate D2E/DX2                !
 ! D119  D(43,37,42,48)         59.1329         estimate D2E/DX2                !
 ! D120  D(43,37,42,49)        176.0055         estimate D2E/DX2                !
 ! D121  D(44,37,42,45)        178.6583         estimate D2E/DX2                !
 ! D122  D(44,37,42,48)        -58.7412         estimate D2E/DX2                !
 ! D123  D(44,37,42,49)         58.1314         estimate D2E/DX2                !
 ! D124  D(36,39,45,42)         55.3289         estimate D2E/DX2                !
 ! D125  D(36,39,45,50)        178.1507         estimate D2E/DX2                !
 ! D126  D(36,39,45,51)        -64.8117         estimate D2E/DX2                !
 ! D127  D(46,39,45,42)        178.0899         estimate D2E/DX2                !
 ! D128  D(46,39,45,50)        -59.0883         estimate D2E/DX2                !
 ! D129  D(46,39,45,51)         57.9494         estimate D2E/DX2                !
 ! D130  D(47,39,45,42)        -64.9182         estimate D2E/DX2                !
 ! D131  D(47,39,45,50)         57.9035         estimate D2E/DX2                !
 ! D132  D(47,39,45,51)        174.9412         estimate D2E/DX2                !
 ! D133  D(37,42,45,39)        -55.5122         estimate D2E/DX2                !
 ! D134  D(37,42,45,50)       -178.3073         estimate D2E/DX2                !
 ! D135  D(37,42,45,51)         64.6499         estimate D2E/DX2                !
 ! D136  D(48,42,45,39)       -177.7385         estimate D2E/DX2                !
 ! D137  D(48,42,45,50)         59.4663         estimate D2E/DX2                !
 ! D138  D(48,42,45,51)        -57.5765         estimate D2E/DX2                !
 ! D139  D(49,42,45,39)         64.9899         estimate D2E/DX2                !
 ! D140  D(49,42,45,50)        -57.8053         estimate D2E/DX2                !
 ! D141  D(49,42,45,51)       -174.8481         estimate D2E/DX2                !
 --------------------------------------------------------------------------------
 Trust Radius=3.00D-01 FncErr=1.00D-07 GrdErr=1.00D-07 EigMax=2.50D+02 EigMin=1.00D-04
 Number of steps in this run=    301 maximum allowed number of steps=    306.
 GradGradGradGradGradGradGradGradGradGradGradGradGradGradGradGradGradGrad

 Leave Link  103 at Fri Dec 14 13:01:08 2018, MaxMem=  1342177280 cpu:               0.6 elap:               0.1
 (Enter /gpfs/apps/hpc/Apps/Restricted/Gaussian/Rev_A.03/g16/l202.exe)
 Symmetry turned off by external request.
 Stoichiometry    C22H25N3O
 Framework group  C1[X(C22H25N3O)]
 Deg. of freedom   147
 Full point group                 C1      NOp   1
                          Input orientation:                          
 ---------------------------------------------------------------------
 Center     Atomic      Atomic             Coordinates (Angstroms)
 Number     Number       Type             X           Y           Z
 ---------------------------------------------------------------------
      1          6           0       -0.464016    2.687907    0.302918
      2          6           0       -1.865592    2.861694    0.266958
      3          6           0       -2.406128    4.150853    0.194177
      4          6           0       -1.519270    5.227263    0.165183
      5          6           0       -0.128231    5.037800    0.200664
      6          6           0        0.440920    3.759294    0.268134
      7          6           0       -1.486085    0.719710    0.368798
      8          1           0       -3.478186    4.302097    0.162417
      9          1           0       -1.911621    6.236101    0.112988
     10          1           0        0.530326    5.899288    0.176209
     11          7           0       -2.473534    1.616523    0.308464
     12          6           0       -3.027505   -1.214277    0.365002
     13          6           0       -1.702172   -0.716102    0.417776
     14          6           0       -0.628631   -1.619999    0.499398
     15          6           0       -0.838191   -2.994148    0.533102
     16          6           0       -2.162132   -3.457845    0.476757
     17          6           0       -3.257186   -2.601750    0.396295
     18          1           0        0.385673   -1.236769    0.542363
     19          1           0       -2.342285   -4.528541    0.501258
     20          6           0        0.316003   -3.960563    0.629400
     21          1           0        1.051190   -3.789018   -0.162099
     22          1           0        0.842452   -3.860889    1.583888
     23          1           0       -0.034136   -4.991455    0.548166
     24          6           0       -4.667919   -3.118784    0.339484
     25          1           0       -5.273600   -2.703515    1.150189
     26          1           0       -5.159514   -2.833373   -0.595691
     27          1           0       -4.683477   -4.206905    0.418466
     28          8           0       -4.104821   -0.402634    0.284758
     29          1           0       -3.773832    0.540227    0.280353
     30          7           0       -0.257510    1.330909    0.368136
     31          1           0        0.672409    0.929681    0.395081
     32          6           0        1.885543    3.552563    0.294638
     33          1           0        2.495162    4.461370    0.240612
     34          7           0        2.393902    2.378618    0.377624
     35          6           0        3.859284    2.262967    0.403824
     36          6           0        4.498506    2.699094   -0.924819
     37          6           0        4.498399    3.019840    1.580094
     38          1           0        4.075136    1.197155    0.541106
     39          6           0        6.015675    2.482711   -0.895801
     40          1           0        4.279374    3.761530   -1.085188
     41          1           0        4.041718    2.145649   -1.750758
     42          6           0        6.014261    2.795815    1.613456
     43          1           0        4.295379    4.091638    1.467922
     44          1           0        4.031049    2.701085    2.516487
     45          6           0        6.661290    3.212743    0.287433
     46          1           0        6.461519    2.812467   -1.839203
     47          1           0        6.219816    1.407819   -0.809903
     48          1           0        6.454588    3.351723    2.447047
     49          1           0        6.218205    1.733493    1.797219
     50          1           0        7.738403    3.020732    0.311445
     51          1           0        6.534339    4.294400    0.152747
 ---------------------------------------------------------------------
 Rotational constants (GHZ):           0.2888500           0.1041760           0.0790835
 Leave Link  202 at Fri Dec 14 13:01:08 2018, MaxMem=  1342177280 cpu:               1.1 elap:               0.1
 (Enter /gpfs/apps/hpc/Apps/Restricted/Gaussian/Rev_A.03/g16/l716.exe)
 Electric field and nuclear coordinate derivatives read from checkpoint file.
 Dipole        = 2.43006950D+00 6.24151214D-01 1.16559133D-02
 Polarizability= 4.50797630D+02 9.71078756D+00 5.13075746D+02
                 7.78680329D+00-1.27309902D+01 1.79254984D+02
 Full mass-weighted force constant matrix:
 Low frequencies ---   -6.2312   -0.0017    0.0007    0.0021    4.4639   10.7688
 Low frequencies ---   23.5440   36.7568   61.1665
 Diagonal vibrational polarizability:
       41.7504648      31.2768593      57.1327208
 Harmonic frequencies (cm**-1), IR intensities (KM/Mole), Raman scattering
 activities (A**4/AMU), depolarization ratios for plane and unpolarized
 incident light, reduced masses (AMU), force constants (mDyne/A),
 and normal coordinates:
                      1                      2                      3
                      A                      A                      A
 Frequencies --     22.6923                35.8182                60.0409
 Red. masses --      4.3219                 4.6304                 4.3871
 Frc consts  --      0.0013                 0.0035                 0.0093
 IR Inten    --      0.1424                 0.3734                 2.3143
  Atom  AN      X      Y      Z        X      Y      Z        X      Y      Z
     1   6     0.02  -0.02  -0.06     0.03  -0.06   0.04     0.00   0.00   0.04
     2   6     0.02  -0.02  -0.05     0.03  -0.04   0.01    -0.00  -0.00   0.08
     3   6     0.01  -0.02  -0.04     0.05  -0.04  -0.01    -0.00  -0.01  -0.02
     4   6     0.01  -0.02  -0.04     0.06  -0.04  -0.01    -0.01  -0.01  -0.14
     5   6     0.01  -0.02  -0.04     0.05  -0.06   0.02    -0.01  -0.01  -0.17
     6   6     0.01  -0.02  -0.05     0.04  -0.07   0.04    -0.00   0.00  -0.08
     7   6     0.01  -0.02  -0.06    -0.00  -0.04   0.03     0.00   0.00   0.18
     8   1     0.01  -0.02  -0.03     0.05  -0.03  -0.03    -0.01  -0.01  -0.00
     9   1     0.01  -0.02  -0.03     0.07  -0.04  -0.02    -0.01  -0.01  -0.22
    10   1     0.01  -0.02  -0.03     0.06  -0.07   0.02    -0.01  -0.01  -0.27
    11   7     0.01  -0.02  -0.04     0.01  -0.03   0.00     0.00   0.00   0.17
    12   6    -0.02   0.00   0.08    -0.05  -0.01  -0.03     0.00   0.01   0.08
    13   6    -0.01  -0.02  -0.04    -0.04  -0.04   0.02     0.00   0.00   0.15
    14   6    -0.01  -0.04  -0.14    -0.07  -0.07   0.06     0.00  -0.00   0.11
    15   6    -0.04  -0.04  -0.12    -0.11  -0.06   0.05    -0.00  -0.01  -0.04
    16   6    -0.05  -0.01   0.01    -0.12  -0.03  -0.00     0.00  -0.00  -0.12
    17   6    -0.04   0.01   0.11    -0.09   0.00  -0.04     0.00   0.00  -0.07
    18   1    -0.00  -0.06  -0.23    -0.06  -0.10   0.10    -0.00  -0.00   0.17
    19   1    -0.07  -0.01   0.03    -0.15  -0.02  -0.01     0.00  -0.00  -0.24
    20   6    -0.05  -0.06  -0.23    -0.14  -0.10   0.08    -0.01  -0.03  -0.14
    21   1    -0.12  -0.08  -0.30    -0.13  -0.14   0.08    -0.15  -0.15  -0.30
    22   1     0.05  -0.08  -0.28    -0.13  -0.08   0.08     0.18   0.07  -0.26
    23   1    -0.08  -0.06  -0.20    -0.17  -0.09   0.11    -0.06  -0.03   0.04
    24   6    -0.06   0.03   0.24    -0.10   0.04  -0.09     0.01   0.01  -0.17
    25   1     0.03   0.02   0.31    -0.13   0.07  -0.13    -0.04  -0.02  -0.19
    26   1    -0.14   0.07   0.29    -0.06   0.03  -0.12     0.06   0.03  -0.19
    27   1    -0.07   0.03   0.21    -0.14   0.04  -0.08     0.00   0.00  -0.21
    28   8    -0.01   0.02   0.16    -0.03   0.02  -0.07     0.00   0.01   0.13
    29   1     0.00   0.01   0.10    -0.00   0.01  -0.05     0.00   0.01   0.16
    30   7     0.01  -0.03  -0.07     0.01  -0.06   0.05     0.00   0.01   0.12
    31   1     0.01  -0.03  -0.06    -0.00  -0.09   0.05     0.00   0.01   0.09
    32   6     0.01  -0.01  -0.02     0.04  -0.05   0.03    -0.00   0.00  -0.11
    33   1     0.00  -0.00  -0.01     0.02  -0.03   0.02    -0.00  -0.00  -0.19
    34   7     0.03  -0.00  -0.01     0.08  -0.03   0.04    -0.00   0.01  -0.03
    35   6     0.03   0.03   0.02     0.09   0.03   0.00    -0.00   0.01  -0.02
    36   6     0.06   0.03   0.04     0.03   0.08  -0.01     0.03  -0.02  -0.01
    37   6    -0.01   0.04   0.03     0.07   0.05  -0.00    -0.03   0.03  -0.02
    38   1     0.05   0.03   0.03     0.14   0.04  -0.01    -0.00   0.01   0.01
    39   6     0.06   0.06   0.08     0.04   0.18  -0.05     0.03  -0.03   0.04
    40   1     0.04   0.03   0.03    -0.04   0.07   0.00     0.04  -0.02  -0.04
    41   1     0.09   0.02   0.03     0.04   0.06  -0.00     0.05  -0.03  -0.01
    42   6    -0.01   0.07   0.07     0.09   0.15  -0.05    -0.03   0.03   0.03
    43   1    -0.03   0.04   0.02     0.00   0.04   0.02    -0.03   0.03  -0.05
    44   1    -0.03   0.04   0.03     0.12   0.01   0.00    -0.05   0.05  -0.02
    45   6     0.02   0.07   0.09     0.03   0.21  -0.06     0.01  -0.01   0.04
    46   1     0.08   0.06   0.09    -0.01   0.22  -0.06     0.06  -0.06   0.04
    47   1     0.07   0.06   0.09     0.12   0.19  -0.07     0.02  -0.03   0.07
    48   1    -0.04   0.08   0.08     0.08   0.17  -0.05    -0.05   0.06   0.03
    49   1     0.00   0.07   0.09     0.16   0.16  -0.07    -0.04   0.04   0.07
    50   1     0.02   0.08   0.12     0.04   0.28  -0.09     0.00  -0.01   0.07
    51   1     0.01   0.07   0.08    -0.05   0.20  -0.05     0.02  -0.01   0.01
                      4                      5                      6
                      A                      A                      A
 Frequencies --     62.4225                77.7892                82.0901
 Red. masses --      4.1911                 1.1351                 2.9576
 Frc consts  --      0.0096                 0.0040                 0.0117
 IR Inten    --      0.1079                 0.1796                 0.0354
  Atom  AN      X      Y      Z        X      Y      Z        X      Y      Z
     1   6    -0.00   0.01   0.07     0.00   0.00  -0.01     0.00  -0.00  -0.01
     2   6     0.00   0.00  -0.07    -0.00  -0.00   0.00     0.00  -0.01   0.02
     3   6     0.00  -0.00  -0.18    -0.00  -0.00   0.02    -0.01  -0.01   0.07
     4   6     0.00  -0.00  -0.15    -0.01   0.00   0.03    -0.02  -0.00   0.08
     5   6    -0.00   0.01  -0.00    -0.00   0.00   0.02    -0.02   0.00   0.04
     6   6    -0.00   0.01   0.10    -0.00   0.00   0.00    -0.01   0.01   0.00
     7   6     0.01   0.01   0.02     0.00  -0.00  -0.01     0.01  -0.01  -0.02
     8   1     0.00  -0.01  -0.31    -0.00  -0.00   0.03    -0.01  -0.02   0.10
     9   1     0.00  -0.01  -0.23    -0.01   0.00   0.05    -0.03  -0.01   0.11
    10   1    -0.01   0.01   0.01    -0.01   0.00   0.03    -0.02   0.01   0.05
    11   7     0.01   0.00  -0.09     0.00  -0.00  -0.00     0.01  -0.01   0.01
    12   6     0.01   0.00   0.01     0.00  -0.00  -0.02     0.00  -0.00  -0.02
    13   6     0.01   0.01   0.01     0.00  -0.00  -0.01     0.01  -0.01  -0.03
    14   6     0.01   0.01  -0.01     0.00  -0.00   0.02    -0.00  -0.02  -0.02
    15   6     0.02   0.01  -0.04    -0.00  -0.00   0.03    -0.01  -0.02  -0.02
    16   6     0.02   0.00  -0.02    -0.00   0.00   0.03    -0.02  -0.01  -0.02
    17   6     0.01   0.00   0.01     0.00   0.00   0.01    -0.01   0.00  -0.02
    18   1     0.01   0.01  -0.01     0.00   0.00   0.04     0.00  -0.03  -0.03
    19   1     0.02   0.00  -0.03    -0.00   0.00   0.06    -0.02  -0.01  -0.01
    20   6     0.02  -0.00  -0.11    -0.00  -0.01  -0.01    -0.02  -0.03  -0.01
    21   1    -0.11  -0.11  -0.26    -0.29  -0.36  -0.36    -0.00  -0.02   0.01
    22   1     0.18   0.11  -0.22     0.36   0.37  -0.25    -0.04  -0.04   0.01
    23   1    -0.01  -0.00   0.06    -0.08  -0.02   0.54    -0.03  -0.02  -0.03
    24   6     0.01   0.00   0.03    -0.00   0.00   0.02    -0.01   0.01  -0.02
    25   1     0.03  -0.01   0.05     0.00   0.02   0.01    -0.01   0.02  -0.02
    26   1    -0.01   0.01   0.05    -0.00  -0.01   0.01    -0.01   0.01  -0.02
    27   1     0.02   0.00   0.02    -0.00   0.00   0.03    -0.02   0.01  -0.01
    28   8     0.01   0.00   0.01     0.01  -0.00  -0.06     0.01   0.00  -0.03
    29   1     0.01   0.00  -0.04     0.01  -0.00  -0.04     0.01   0.00  -0.01
    30   7     0.00   0.02   0.12     0.00   0.00  -0.02     0.01  -0.00  -0.03
    31   1     0.00   0.03   0.20     0.00   0.00  -0.02     0.01  -0.00  -0.03
    32   6    -0.00   0.01   0.16    -0.00   0.00  -0.00    -0.00   0.03   0.01
    33   1     0.00   0.00   0.11    -0.00   0.01   0.01    -0.02   0.03   0.02
    34   7    -0.01   0.01   0.20    -0.00   0.00  -0.02     0.01   0.03   0.02
    35   6    -0.02  -0.01   0.12    -0.00   0.00  -0.01     0.01   0.04   0.06
    36   6    -0.12  -0.05   0.06     0.01   0.01  -0.01     0.02  -0.16   0.00
    37   6     0.08   0.00   0.06    -0.01  -0.00  -0.01     0.01   0.20  -0.05
    38   1    -0.02  -0.01   0.13    -0.00   0.00  -0.02     0.01   0.06   0.21
    39   6    -0.12  -0.04  -0.07     0.01   0.00   0.00     0.01  -0.19   0.04
    40   1    -0.13  -0.05   0.05     0.01   0.01  -0.00     0.04  -0.17  -0.14
    41   1    -0.19  -0.07   0.11     0.01   0.01  -0.01     0.01  -0.25   0.07
    42   6     0.08   0.00  -0.07    -0.01  -0.01   0.00     0.01   0.18  -0.01
    43   1     0.07   0.00   0.07    -0.00  -0.00  -0.01     0.04   0.19  -0.20
    44   1     0.16   0.01   0.10    -0.02  -0.00  -0.01     0.00   0.34  -0.00
    45   6    -0.03  -0.01  -0.13     0.00  -0.01   0.01     0.02  -0.03  -0.07
    46   1    -0.20  -0.05  -0.11     0.01   0.00   0.01     0.03  -0.34  -0.01
    47   1    -0.10  -0.04  -0.07     0.00  -0.00   0.00    -0.02  -0.18   0.20
    48   1     0.16   0.00  -0.11    -0.01  -0.01   0.01     0.01   0.30  -0.08
    49   1     0.10   0.00  -0.09    -0.01  -0.01   0.00    -0.01   0.21   0.16
    50   1    -0.02   0.00  -0.22     0.00  -0.01   0.02     0.02  -0.05  -0.03
    51   1    -0.06  -0.02  -0.14     0.01  -0.01   0.01     0.04  -0.05  -0.23
                      7                      8                      9
                      A                      A                      A
 Frequencies --     96.5821               121.4976               133.9741
 Red. masses --      3.6502                 4.3320                 4.9476
 Frc consts  --      0.0201                 0.0377                 0.0523
 IR Inten    --      0.5042                 2.8350                 0.4175
  Atom  AN      X      Y      Z        X      Y      Z        X      Y      Z
     1   6    -0.01  -0.01  -0.02    -0.05  -0.02  -0.00     0.02  -0.00  -0.13
     2   6    -0.00   0.04   0.00    -0.05   0.02  -0.03     0.02  -0.01  -0.10
     3   6     0.06   0.07   0.03    -0.01   0.03  -0.04    -0.00  -0.02  -0.01
     4   6     0.10   0.03   0.02     0.03   0.01  -0.01    -0.01  -0.00   0.06
     5   6     0.10  -0.02   0.00     0.02  -0.03   0.03    -0.01   0.01   0.06
     6   6     0.04  -0.05  -0.02    -0.01  -0.05   0.03     0.00   0.01  -0.03
     7   6    -0.06   0.03  -0.01    -0.12   0.01  -0.01     0.04  -0.01  -0.10
     8   1     0.06   0.12   0.04    -0.00   0.07  -0.07    -0.00  -0.03   0.02
     9   1     0.14   0.05   0.04     0.06   0.02  -0.02    -0.03  -0.00   0.14
    10   1     0.13  -0.05   0.00     0.04  -0.05   0.05    -0.02   0.02   0.15
    11   7    -0.04   0.05   0.01    -0.10   0.03  -0.03     0.03  -0.02  -0.09
    12   6    -0.03  -0.00   0.00    -0.09  -0.05   0.02     0.02   0.01   0.11
    13   6    -0.04   0.03  -0.01    -0.12   0.01  -0.00     0.03  -0.01  -0.01
    14   6    -0.02   0.07  -0.01    -0.08   0.06  -0.01     0.02  -0.02  -0.03
    15   6     0.03   0.06  -0.02    -0.01   0.05  -0.01    -0.01  -0.02   0.02
    16   6     0.05   0.02  -0.01     0.02  -0.01  -0.02    -0.01  -0.00  -0.05
    17   6     0.02  -0.01  -0.00    -0.02  -0.06  -0.01     0.00   0.01  -0.04
    18   1    -0.03   0.10  -0.01    -0.09   0.10  -0.01     0.02  -0.03  -0.05
    19   1     0.08   0.02  -0.02     0.07  -0.02  -0.04    -0.02  -0.00  -0.11
    20   6     0.07   0.11  -0.02     0.06   0.13   0.01    -0.02  -0.03   0.14
    21   1     0.02   0.09  -0.07     0.01   0.12  -0.03    -0.08  -0.23   0.05
    22   1     0.12   0.20  -0.05     0.09   0.26  -0.02     0.05   0.17   0.08
    23   1     0.11   0.09   0.07     0.12   0.10   0.12    -0.06  -0.04   0.39
    24   6     0.04  -0.07   0.00     0.01  -0.16  -0.03     0.01   0.03  -0.21
    25   1     0.03  -0.10   0.01    -0.02  -0.23  -0.02    -0.10   0.05  -0.30
    26   1     0.02  -0.07   0.01    -0.01  -0.16  -0.02     0.13   0.03  -0.28
    27   1     0.08  -0.07  -0.01     0.09  -0.16  -0.07    -0.02   0.03  -0.20
    28   8    -0.05  -0.02   0.03    -0.13  -0.08   0.09     0.01   0.03   0.35
    29   1    -0.08  -0.02   0.03    -0.17  -0.08   0.06     0.03   0.03   0.25
    30   7    -0.05  -0.01  -0.03    -0.10  -0.03   0.00     0.03  -0.00  -0.17
    31   1    -0.05  -0.03  -0.03    -0.12  -0.07   0.00     0.04   0.01  -0.11
    32   6     0.03  -0.12  -0.02     0.00  -0.02   0.04    -0.00   0.02   0.04
    33   1     0.06  -0.14  -0.02    -0.04   0.02   0.06     0.01   0.02   0.10
    34   7    -0.01  -0.14   0.00     0.07   0.01   0.00    -0.01   0.01   0.03
    35   6    -0.01  -0.13   0.02     0.09   0.08  -0.00    -0.02  -0.00   0.04
    36   6    -0.02  -0.16   0.01     0.10   0.09   0.00    -0.05  -0.01   0.03
    37   6    -0.05  -0.07   0.01     0.11   0.09  -0.02     0.01  -0.01   0.04
    38   1     0.01  -0.12   0.06     0.12   0.09  -0.00    -0.03  -0.01   0.04
    39   6    -0.00   0.02   0.02     0.09  -0.01  -0.01    -0.05   0.01  -0.01
    40   1    -0.13  -0.19  -0.07     0.16   0.11   0.04    -0.06  -0.01   0.03
    41   1     0.04  -0.26   0.04     0.07   0.15  -0.02    -0.07  -0.01   0.04
    42   6    -0.03   0.11  -0.00     0.10  -0.02   0.00     0.01  -0.01  -0.01
    43   1    -0.17  -0.10   0.02     0.18   0.10  -0.07     0.00  -0.01   0.06
    44   1    -0.01  -0.12   0.02     0.08   0.16  -0.01     0.03  -0.03   0.04
    45   6    -0.10   0.17  -0.02     0.16  -0.09   0.01    -0.03   0.01  -0.02
    46   1    -0.04   0.02   0.00     0.11  -0.03   0.00    -0.08   0.03  -0.02
    47   1     0.13   0.05   0.09     0.00  -0.03  -0.04    -0.03   0.01  -0.03
    48   1    -0.09   0.19  -0.02     0.13  -0.03  -0.00     0.03  -0.03  -0.02
    49   1     0.11   0.14   0.01     0.01  -0.03   0.03     0.02  -0.02  -0.04
    50   1    -0.07   0.33  -0.02     0.14  -0.22   0.02    -0.03   0.03  -0.05
    51   1    -0.27   0.14  -0.06     0.28  -0.08   0.01    -0.05   0.01  -0.01
                     10                     11                     12
                      A                      A                      A
 Frequencies --    146.9375               170.0669               182.3034
 Red. masses --      4.6228                 1.5412                 2.1598
 Frc consts  --      0.0588                 0.0263                 0.0423
 IR Inten    --      2.9363                 0.5718                 0.6589
  Atom  AN      X      Y      Z        X      Y      Z        X      Y      Z
     1   6    -0.00  -0.01  -0.09     0.00   0.00   0.04     0.00  -0.00  -0.11
     2   6    -0.01   0.00   0.08     0.00  -0.00   0.03     0.00  -0.00  -0.08
     3   6    -0.01   0.01   0.17     0.00  -0.01  -0.00    -0.00   0.00  -0.01
     4   6    -0.00   0.00   0.01    -0.00  -0.00  -0.03    -0.00   0.01   0.06
     5   6     0.00  -0.01  -0.19    -0.00   0.00  -0.02    -0.00   0.00   0.05
     6   6     0.00  -0.01  -0.17     0.00   0.00   0.02     0.00  -0.00  -0.04
     7   6    -0.01  -0.00  -0.01     0.01  -0.00   0.00    -0.00   0.00   0.01
     8   1    -0.01   0.02   0.35     0.00  -0.01  -0.02    -0.00   0.01   0.02
     9   1    -0.00   0.00   0.04    -0.00  -0.01  -0.06    -0.00   0.01   0.14
    10   1     0.00  -0.02  -0.29    -0.00   0.00  -0.05    -0.00   0.01   0.12
    11   7    -0.01   0.01   0.13     0.01  -0.00   0.01    -0.00   0.00  -0.03
    12   6    -0.01  -0.01  -0.04     0.00   0.00  -0.04    -0.00   0.00   0.04
    13   6    -0.01  -0.00  -0.04     0.01  -0.00  -0.05    -0.01   0.01   0.12
    14   6    -0.01   0.00  -0.04     0.00  -0.01  -0.05    -0.00   0.01   0.18
    15   6    -0.00   0.00  -0.02    -0.00  -0.01  -0.04     0.00   0.01   0.07
    16   6    -0.00  -0.00   0.00    -0.00  -0.01  -0.10     0.00   0.01  -0.01
    17   6    -0.00  -0.01  -0.01     0.00   0.00  -0.07     0.00   0.00   0.01
    18   1    -0.01   0.01  -0.05     0.00  -0.01  -0.01    -0.01   0.02   0.23
    19   1     0.00  -0.00   0.04    -0.01  -0.00  -0.10     0.01   0.00  -0.10
    20   6     0.01   0.02   0.03    -0.01   0.00   0.11    -0.01  -0.02  -0.09
    21   1     0.01  -0.00   0.03     0.03  -0.10   0.12    -0.04   0.08  -0.10
    22   1    -0.00   0.06   0.03    -0.05   0.14   0.12     0.04  -0.17  -0.10
    23   1     0.02   0.01   0.06    -0.00  -0.01   0.24    -0.03  -0.00  -0.23
    24   6    -0.00  -0.02   0.03    -0.01   0.01   0.06     0.01  -0.02  -0.01
    25   1     0.02  -0.02   0.06     0.20  -0.35   0.41     0.12  -0.40   0.28
    26   1    -0.04  -0.02   0.05    -0.26   0.40   0.32    -0.15   0.37   0.20
    27   1     0.01  -0.02   0.03     0.03  -0.02  -0.39     0.06  -0.05  -0.46
    28   8    -0.01  -0.01  -0.06     0.00   0.01   0.04     0.00   0.00  -0.05
    29   1    -0.02  -0.01   0.02     0.01   0.00   0.03     0.00   0.00  -0.05
    30   7    -0.01  -0.01  -0.14     0.01   0.00   0.04    -0.00  -0.00  -0.09
    31   1    -0.01  -0.02  -0.11     0.01   0.00   0.01    -0.00  -0.01  -0.03
    32   6     0.01   0.00  -0.15     0.00   0.00  -0.00    -0.00   0.00   0.01
    33   1    -0.00  -0.01  -0.41     0.00   0.00  -0.02    -0.00   0.01   0.07
    34   7     0.01   0.03   0.22    -0.00   0.00  -0.00     0.00   0.00  -0.01
    35   6     0.01   0.02   0.14    -0.00  -0.00  -0.01     0.00   0.00   0.02
    36   6    -0.07   0.05   0.11     0.00  -0.00  -0.01    -0.01  -0.00   0.01
    37   6     0.10  -0.02   0.11    -0.01  -0.00  -0.01     0.01   0.00   0.01
    38   1     0.01   0.02   0.11    -0.00  -0.00  -0.01    -0.00   0.00   0.02
    39   6    -0.08   0.02  -0.02     0.00  -0.00   0.00    -0.01   0.00  -0.01
    40   1    -0.05   0.06   0.15     0.00  -0.00  -0.01    -0.01  -0.00   0.02
    41   1    -0.15   0.09   0.13     0.01  -0.00  -0.01    -0.02  -0.00   0.02
    42   6     0.10  -0.03  -0.01    -0.01   0.00   0.00     0.01  -0.01  -0.00
    43   1     0.08  -0.01   0.15    -0.01  -0.00  -0.01     0.02   0.01   0.02
    44   1     0.17  -0.04   0.14    -0.01  -0.00  -0.01     0.02   0.01   0.02
    45   6     0.02  -0.01  -0.05    -0.00   0.00   0.00     0.00  -0.00  -0.01
    46   1    -0.15   0.04  -0.05     0.01  -0.01   0.00    -0.02   0.01  -0.01
    47   1    -0.08   0.02  -0.07     0.00  -0.00   0.01    -0.00   0.00  -0.02
    48   1     0.18  -0.07  -0.03    -0.02   0.01   0.00     0.03  -0.02  -0.00
    49   1     0.10  -0.04  -0.06    -0.01   0.01   0.01     0.01  -0.01  -0.02
    50   1     0.02  -0.03  -0.13    -0.00   0.01   0.01     0.00  -0.00  -0.02
    51   1     0.02  -0.01  -0.02    -0.01   0.00   0.00     0.00  -0.00  -0.00
                     13                     14                     15
                      A                      A                      A
 Frequencies --    212.8677               225.1444               234.5423
 Red. masses --      3.4666                 2.9727                 2.5622
 Frc consts  --      0.0926                 0.0888                 0.0830
 IR Inten    --      0.4918                 2.6310                 1.5215
  Atom  AN      X      Y      Z        X      Y      Z        X      Y      Z
     1   6     0.04  -0.03   0.01     0.00  -0.02  -0.08     0.01   0.03   0.04
     2   6     0.06   0.01  -0.01     0.00  -0.01   0.05     0.01   0.03   0.06
     3   6     0.12   0.04   0.00     0.01  -0.01  -0.02     0.02   0.04   0.02
     4   6     0.14   0.02   0.02     0.01  -0.02  -0.10     0.02   0.04  -0.06
     5   6     0.13  -0.02   0.01     0.01  -0.02  -0.01     0.02   0.04  -0.04
     6   6     0.05  -0.05  -0.00     0.00  -0.02   0.01     0.01   0.04   0.02
     7   6     0.01  -0.00  -0.01    -0.00  -0.00   0.04     0.00   0.01  -0.02
     8   1     0.12   0.09  -0.00     0.01  -0.01  -0.01     0.02   0.04   0.01
     9   1     0.17   0.03   0.03     0.02  -0.02  -0.17     0.02   0.03  -0.12
    10   1     0.18  -0.06  -0.00     0.01  -0.02   0.06     0.03   0.03  -0.07
    11   7     0.02   0.02  -0.03    -0.00   0.00   0.17     0.01   0.03   0.05
    12   6     0.00  -0.01   0.00     0.00   0.01  -0.02    -0.01  -0.02   0.02
    13   6     0.00  -0.01  -0.00     0.00   0.00   0.02    -0.00  -0.00  -0.06
    14   6     0.00  -0.01  -0.00     0.00   0.01   0.02    -0.00  -0.02  -0.11
    15   6     0.00  -0.01   0.00     0.01   0.01  -0.03    -0.01  -0.02   0.05
    16   6     0.00  -0.01   0.01     0.01   0.00  -0.08    -0.01  -0.01   0.19
    17   6     0.00  -0.01   0.00     0.00   0.01  -0.04    -0.01  -0.02   0.07
    18   1     0.00  -0.01  -0.01    -0.00   0.01   0.08     0.01  -0.03  -0.25
    19   1     0.00  -0.01   0.01     0.01   0.00  -0.09    -0.02  -0.01   0.27
    20   6    -0.00  -0.02  -0.00     0.02   0.03   0.02    -0.05  -0.07  -0.03
    21   1    -0.00  -0.02  -0.00     0.04   0.01   0.04    -0.07  -0.06  -0.06
    22   1     0.00  -0.03  -0.00    -0.01   0.08   0.04     0.00  -0.16  -0.05
    23   1    -0.01  -0.02  -0.01     0.04   0.02   0.05    -0.10  -0.05  -0.08
    24   6     0.01  -0.02  -0.01    -0.01   0.04   0.06     0.03  -0.11  -0.12
    25   1     0.00  -0.04  -0.00     0.02   0.19   0.01    -0.05  -0.42  -0.01
    26   1     0.01  -0.01  -0.00    -0.02  -0.09   0.03     0.04   0.12  -0.05
    27   1     0.02  -0.02  -0.03    -0.05   0.05   0.23     0.13  -0.14  -0.45
    28   8     0.01  -0.00   0.00     0.01   0.01  -0.03    -0.01  -0.02  -0.00
    29   1     0.01  -0.00  -0.01     0.01   0.01   0.06    -0.02  -0.02  -0.01
    30   7     0.02  -0.03   0.02     0.00  -0.02  -0.15     0.01   0.02  -0.01
    31   1     0.01  -0.05   0.03     0.00  -0.03  -0.21     0.01   0.02  -0.05
    32   6     0.01  -0.08  -0.03    -0.01  -0.02   0.19     0.01   0.04   0.04
    33   1     0.04  -0.11  -0.11    -0.00   0.00   0.56     0.02   0.04   0.11
    34   7    -0.02  -0.09   0.04    -0.00  -0.03  -0.09    -0.00   0.03  -0.02
    35   6    -0.04   0.05  -0.01    -0.00   0.01   0.05    -0.01   0.01   0.02
    36   6    -0.11   0.16   0.00    -0.03  -0.05   0.01    -0.01  -0.07  -0.01
    37   6    -0.11   0.14  -0.03    -0.00   0.10  -0.01     0.00   0.04  -0.02
    38   1     0.09   0.07  -0.02     0.02   0.03   0.13    -0.03   0.01   0.08
    39   6    -0.14   0.02  -0.04    -0.01   0.07  -0.04     0.01   0.04  -0.01
    40   1    -0.04   0.19   0.12    -0.13  -0.08  -0.04    -0.09  -0.10  -0.09
    41   1    -0.19   0.27  -0.03    -0.00  -0.13   0.05     0.03  -0.16   0.03
    42   6    -0.14   0.05   0.03    -0.03  -0.06  -0.01    -0.02  -0.06  -0.00
    43   1    -0.06   0.13  -0.15     0.12   0.11  -0.10     0.08   0.05  -0.07
    44   1    -0.17   0.24  -0.03    -0.04   0.22   0.01    -0.04   0.12  -0.01
    45   6    -0.05  -0.13   0.01    -0.00  -0.02   0.02    -0.02   0.01   0.02
    46   1    -0.10   0.05  -0.00    -0.07   0.21  -0.02    -0.03   0.13  -0.00
    47   1    -0.26  -0.01  -0.12     0.08   0.08  -0.16     0.09   0.06  -0.08
    48   1    -0.11   0.10  -0.02     0.04  -0.16   0.03     0.02  -0.15   0.03
    49   1    -0.22   0.05   0.16    -0.13  -0.09  -0.08    -0.09  -0.08  -0.09
    50   1    -0.09  -0.34   0.04    -0.01  -0.06   0.01    -0.01   0.04   0.01
    51   1     0.17  -0.10  -0.00     0.03  -0.01   0.09    -0.04   0.02   0.08
                     16                     17                     18
                      A                      A                      A
 Frequencies --    238.8035               240.8006               266.7252
 Red. masses --      2.1809                 3.2425                 4.5120
 Frc consts  --      0.0733                 0.1108                 0.1891
 IR Inten    --      0.3757                 2.4102                 1.2022
  Atom  AN      X      Y      Z        X      Y      Z        X      Y      Z
     1   6     0.01   0.01  -0.02    -0.03  -0.05   0.02     0.15  -0.05  -0.00
     2   6     0.01   0.01   0.04    -0.03  -0.06   0.03     0.15  -0.07  -0.01
     3   6     0.01   0.01  -0.02    -0.05  -0.08   0.01     0.07  -0.11   0.00
     4   6     0.01   0.01  -0.07    -0.05  -0.09  -0.03    -0.01  -0.05   0.01
     5   6     0.01   0.01  -0.00    -0.04  -0.08  -0.02    -0.01   0.01   0.00
     6   6     0.01   0.02   0.03    -0.03  -0.08   0.02     0.06   0.04  -0.01
     7   6     0.00   0.01   0.00     0.00  -0.03  -0.02     0.08  -0.05   0.02
     8   1     0.01   0.01  -0.03    -0.05  -0.09   0.01     0.06  -0.21   0.01
     9   1     0.01   0.01  -0.13    -0.04  -0.09  -0.06    -0.07  -0.08   0.03
    10   1     0.01   0.01   0.03    -0.06  -0.08  -0.03    -0.05   0.03   0.00
    11   7     0.00   0.01   0.09    -0.01  -0.05   0.02     0.13  -0.03  -0.01
    12   6    -0.01  -0.01  -0.00     0.01   0.05   0.02    -0.09  -0.00   0.01
    13   6    -0.00  -0.00  -0.01     0.01   0.01  -0.03    -0.07  -0.01   0.02
    14   6    -0.00  -0.01  -0.02     0.02   0.03  -0.07    -0.10  -0.00   0.01
    15   6    -0.00  -0.01   0.01     0.02   0.05   0.04    -0.07   0.01  -0.01
    16   6    -0.00  -0.01   0.03     0.00   0.05   0.14    -0.06  -0.01   0.00
    17   6    -0.00  -0.01   0.01     0.00   0.06   0.06    -0.08  -0.01   0.01
    18   1    -0.00  -0.01  -0.04     0.02   0.03  -0.17    -0.10   0.00   0.00
    19   1    -0.00  -0.01   0.05    -0.00   0.05   0.20    -0.05  -0.02  -0.00
    20   6    -0.02  -0.02  -0.00     0.10   0.14  -0.04     0.09   0.22  -0.02
    21   1    -0.02  -0.03  -0.00     0.04   0.25  -0.07     0.05   0.38  -0.03
    22   1    -0.01  -0.04  -0.00     0.13   0.16  -0.06     0.08   0.36  -0.03
    23   1    -0.04  -0.02  -0.01     0.20   0.11  -0.07     0.32   0.14  -0.01
    24   6     0.01  -0.04  -0.01    -0.03   0.18  -0.10    -0.07  -0.08  -0.00
    25   1    -0.01  -0.10   0.00    -0.02   0.02  -0.01    -0.10  -0.13  -0.01
    26   1     0.00  -0.02  -0.01     0.02   0.49  -0.04    -0.07  -0.12  -0.01
    27   1     0.04  -0.05  -0.06    -0.14   0.16  -0.40    -0.00  -0.09  -0.01
    28   8    -0.01  -0.01  -0.01     0.03   0.06  -0.01    -0.08   0.03  -0.02
    29   1    -0.01  -0.01   0.02     0.06   0.06  -0.02    -0.03   0.00  -0.01
    30   7     0.01   0.00  -0.08    -0.01  -0.04  -0.01     0.13  -0.08   0.02
    31   1     0.00  -0.00  -0.13    -0.01  -0.03  -0.03     0.12  -0.10   0.01
    32   6     0.01   0.02   0.09    -0.03  -0.09   0.02     0.06   0.14  -0.01
    33   1     0.01   0.03   0.26    -0.03  -0.09   0.03     0.05   0.14   0.02
    34   7    -0.00   0.01  -0.06     0.00  -0.08   0.01     0.01   0.13  -0.03
    35   6    -0.00   0.00  -0.04     0.02  -0.02  -0.00    -0.03   0.04  -0.00
    36   6     0.01   0.12   0.01     0.01   0.04   0.01    -0.03  -0.02  -0.02
    37   6    -0.02  -0.11   0.05     0.00   0.01  -0.01    -0.03  -0.01   0.02
    38   1    -0.01  -0.01  -0.16     0.07  -0.01  -0.02    -0.08   0.03   0.00
    39   6    -0.03  -0.11   0.03     0.00   0.00  -0.00    -0.05  -0.03   0.01
    40   1     0.16   0.17   0.16     0.03   0.05   0.06    -0.02  -0.02  -0.07
    41   1    -0.08   0.29  -0.05    -0.01   0.08  -0.02    -0.05  -0.05   0.01
    42   6     0.02   0.10  -0.00     0.01   0.03   0.00    -0.05  -0.04   0.00
    43   1    -0.17  -0.12   0.22    -0.02   0.00  -0.03    -0.01   0.00   0.07
    44   1     0.07  -0.30   0.02     0.01   0.02  -0.01    -0.05  -0.04   0.00
    45   6    -0.01  -0.00  -0.05     0.03  -0.03  -0.00    -0.09   0.02   0.00
    46   1     0.05  -0.32  -0.00     0.01   0.00  -0.00    -0.02  -0.07   0.01
    47   1    -0.20  -0.13   0.21    -0.03  -0.01  -0.02    -0.05  -0.02   0.06
    48   1    -0.04   0.26  -0.07    -0.01   0.08  -0.02    -0.01  -0.09   0.02
    49   1     0.17   0.15   0.13     0.02   0.05   0.06    -0.06  -0.05  -0.06
    50   1    -0.01   0.02  -0.04     0.02  -0.09   0.01    -0.07   0.11  -0.01
    51   1    -0.03  -0.02  -0.17     0.10  -0.02  -0.02    -0.19   0.01   0.01
                     19                     20                     21
                      A                      A                      A
 Frequencies --    295.5797               311.4948               325.7191
 Red. masses --      3.5644                 3.7059                 5.1391
 Frc consts  --      0.1835                 0.2119                 0.3212
 IR Inten    --      1.0593                14.2350                 2.5554
  Atom  AN      X      Y      Z        X      Y      Z        X      Y      Z
     1   6     0.01  -0.03   0.01     0.00   0.00   0.03    -0.01   0.00  -0.18
     2   6     0.01  -0.04   0.01     0.00   0.00   0.08    -0.01   0.00  -0.15
     3   6    -0.05  -0.08   0.01     0.01  -0.01  -0.18    -0.01   0.01  -0.16
     4   6    -0.06  -0.08  -0.00    -0.00  -0.00  -0.05    -0.00   0.01   0.11
     5   6    -0.06  -0.05  -0.00    -0.01   0.01   0.21    -0.00   0.01   0.13
     6   6    -0.01  -0.03   0.01    -0.00   0.01   0.11    -0.01  -0.00  -0.14
     7   6     0.04  -0.01  -0.01     0.00  -0.00  -0.01    -0.00   0.01   0.24
     8   1    -0.05  -0.12   0.01     0.01  -0.03  -0.44    -0.01   0.02  -0.18
     9   1    -0.07  -0.08  -0.01    -0.01  -0.01  -0.17    -0.01   0.02   0.28
    10   1    -0.09  -0.03  -0.02    -0.01   0.02   0.31    -0.00   0.02   0.33
    11   7     0.03  -0.03  -0.01     0.00   0.00   0.15    -0.01   0.01   0.14
    12   6    -0.05   0.11  -0.01    -0.00  -0.00  -0.00     0.00   0.01   0.07
    13   6    -0.00   0.03  -0.02    -0.00  -0.00   0.00     0.01   0.00   0.11
    14   6     0.02   0.08   0.01    -0.00  -0.00   0.01     0.01  -0.03  -0.22
    15   6     0.01   0.09  -0.00    -0.00  -0.00   0.00    -0.01  -0.02  -0.17
    16   6     0.01   0.15  -0.03    -0.00  -0.00   0.00    -0.02  -0.01   0.04
    17   6    -0.02   0.10  -0.01    -0.00  -0.00  -0.00    -0.01   0.01   0.07
    18   1     0.01   0.10   0.03    -0.00  -0.00   0.01     0.02  -0.05  -0.34
    19   1    -0.00   0.15  -0.04    -0.00  -0.00   0.00    -0.04  -0.00   0.13
    20   6    -0.10  -0.03   0.01     0.00   0.01  -0.00     0.00   0.00   0.07
    21   1    -0.06  -0.12   0.02    -0.00   0.02  -0.00     0.10  -0.11   0.13
    22   1    -0.10  -0.10   0.01     0.01   0.01  -0.00    -0.13   0.20   0.12
    23   1    -0.23   0.02  -0.00     0.01   0.00  -0.00     0.03  -0.02   0.22
    24   6     0.10  -0.22   0.03    -0.00  -0.00   0.00     0.01  -0.04  -0.02
    25   1    -0.02  -0.33   0.01    -0.00  -0.00   0.00    -0.07  -0.13  -0.03
    26   1     0.02  -0.43   0.00    -0.01  -0.00   0.00     0.05   0.00  -0.03
    27   1     0.40  -0.21   0.11    -0.00  -0.00   0.00     0.06  -0.05  -0.11
    28   8     0.02   0.20   0.00    -0.00   0.00  -0.01     0.04   0.03  -0.09
    29   1     0.12   0.18   0.01    -0.00   0.00   0.05     0.06   0.03  -0.06
    30   7     0.03  -0.02  -0.00     0.01  -0.01  -0.19    -0.01   0.02   0.13
    31   1     0.04  -0.01  -0.01     0.01  -0.00  -0.06    -0.00   0.04   0.14
    32   6    -0.01  -0.06   0.00     0.00   0.00  -0.14    -0.01  -0.02  -0.08
    33   1     0.00  -0.06  -0.01    -0.00  -0.02  -0.61    -0.00  -0.02   0.03
    34   7    -0.00  -0.06   0.02    -0.00   0.02   0.19    -0.01  -0.02  -0.07
    35   6     0.01  -0.03  -0.00    -0.00  -0.01  -0.06    -0.00  -0.01   0.05
    36   6    -0.00   0.00   0.01     0.01  -0.01  -0.06    -0.01  -0.00   0.06
    37   6    -0.00   0.00  -0.01    -0.00  -0.01  -0.06     0.01   0.01   0.04
    38   1     0.03  -0.02  -0.00    -0.00  -0.01  -0.08    -0.00  -0.01   0.07
    39   6     0.00   0.02  -0.01     0.02   0.01   0.02    -0.01   0.01  -0.02
    40   1    -0.01   0.01   0.03     0.01  -0.02  -0.12    -0.02  -0.00   0.09
    41   1     0.01   0.02  -0.01     0.07  -0.06  -0.07    -0.04   0.02   0.06
    42   6     0.00   0.03   0.01    -0.02  -0.01   0.01     0.02   0.01  -0.01
    43   1    -0.02  -0.01  -0.04    -0.01  -0.02  -0.12    -0.01   0.00   0.06
    44   1    -0.00   0.02  -0.01    -0.06   0.03  -0.08     0.05  -0.01   0.06
    45   6     0.03  -0.02   0.00    -0.00   0.01   0.03     0.02  -0.01  -0.02
    46   1    -0.01   0.06  -0.00     0.06  -0.00   0.03    -0.06   0.06  -0.02
    47   1     0.01   0.02  -0.06     0.02   0.01   0.04     0.01   0.01  -0.07
    48   1    -0.02   0.07  -0.01    -0.06  -0.00   0.03     0.04   0.02  -0.02
    49   1     0.01   0.04   0.06    -0.02  -0.01   0.02     0.02   0.02   0.01
    50   1     0.02  -0.09   0.01     0.00   0.02   0.04     0.01  -0.05  -0.02
    51   1     0.09  -0.01   0.00    -0.01   0.01   0.05     0.06  -0.01  -0.02
                     22                     23                     24
                      A                      A                      A
 Frequencies --    340.2009               368.8495               380.9667
 Red. masses --      2.0286                 4.1713                 4.3594
 Frc consts  --      0.1383                 0.3344                 0.3728
 IR Inten    --      1.3416                 9.5803                 7.5859
  Atom  AN      X      Y      Z        X      Y      Z        X      Y      Z
     1   6     0.02   0.04   0.00    -0.05   0.04  -0.01     0.05  -0.03  -0.05
     2   6     0.01   0.02   0.00    -0.05   0.04  -0.01     0.04  -0.03  -0.05
     3   6    -0.02   0.00   0.01    -0.02   0.07   0.08     0.01  -0.05   0.08
     4   6    -0.04   0.02  -0.01     0.01   0.05  -0.03    -0.02  -0.04  -0.01
     5   6    -0.03   0.05  -0.01     0.01   0.03  -0.08    -0.01  -0.03  -0.07
     6   6     0.00   0.06   0.01    -0.03   0.02   0.05     0.03  -0.01   0.04
     7   6     0.04   0.01  -0.01     0.02  -0.01  -0.03    -0.02   0.01   0.02
     8   1    -0.02  -0.02   0.02    -0.02   0.12   0.18     0.00  -0.09   0.22
     9   1    -0.06   0.01  -0.02     0.03   0.06  -0.05    -0.03  -0.05   0.01
    10   1    -0.06   0.07  -0.02     0.03   0.01  -0.14    -0.03  -0.01  -0.11
    11   7     0.03   0.00  -0.01    -0.00  -0.00  -0.06     0.00   0.00  -0.03
    12   6    -0.00  -0.02   0.00     0.02  -0.01   0.14    -0.03   0.02   0.14
    13   6    -0.00  -0.00   0.00     0.04  -0.04   0.10    -0.04   0.04   0.10
    14   6    -0.03  -0.03   0.02    -0.02  -0.10  -0.00     0.02   0.08  -0.07
    15   6    -0.03  -0.03   0.00    -0.06  -0.10  -0.10     0.06   0.08  -0.14
    16   6    -0.02  -0.04  -0.00    -0.07  -0.08  -0.07     0.07   0.07  -0.06
    17   6    -0.02  -0.03   0.00    -0.06  -0.02   0.12     0.05   0.03   0.14
    18   1    -0.02  -0.04   0.02     0.01  -0.16  -0.02     0.00   0.13  -0.10
    19   1    -0.03  -0.04  -0.02    -0.11  -0.08  -0.19     0.10   0.06  -0.14
    20   6     0.02   0.03  -0.01     0.08   0.06   0.03    -0.08  -0.06   0.04
    21   1     0.00   0.08  -0.01     0.10   0.12   0.06     0.05  -0.30   0.11
    22   1     0.02   0.06  -0.01    -0.01   0.29   0.05    -0.18  -0.03   0.10
    23   1     0.08   0.01  -0.01     0.28  -0.01   0.13    -0.26  -0.01   0.15
    24   6    -0.03  -0.02  -0.00    -0.05  -0.10  -0.01     0.06   0.08  -0.02
    25   1    -0.03  -0.02  -0.00    -0.17  -0.19  -0.05    -0.02   0.06  -0.06
    26   1    -0.03  -0.02  -0.00     0.02  -0.10  -0.05     0.18   0.19  -0.05
    27   1    -0.03  -0.02   0.00     0.03  -0.10  -0.06    -0.01   0.08  -0.11
    28   8    -0.01  -0.03   0.00     0.16   0.13  -0.07    -0.13  -0.13  -0.09
    29   1    -0.01  -0.03  -0.00     0.27   0.11  -0.08    -0.24  -0.11  -0.10
    30   7     0.03   0.04  -0.01    -0.02   0.04  -0.06     0.01  -0.04  -0.03
    31   1     0.05   0.06   0.00     0.00   0.08   0.05    -0.00  -0.06   0.08
    32   6     0.01   0.01   0.01    -0.03  -0.05   0.10     0.03   0.05   0.12
    33   1     0.04  -0.01   0.01    -0.02  -0.06   0.01     0.02   0.05   0.02
    34   7    -0.03  -0.01   0.01    -0.03  -0.05   0.11     0.02   0.05   0.15
    35   6    -0.02  -0.10   0.01    -0.00  -0.00  -0.06     0.01  -0.01  -0.09
    36   6    -0.01  -0.05   0.02     0.01   0.03  -0.06    -0.02  -0.01  -0.11
    37   6    -0.02  -0.07  -0.02     0.02   0.00  -0.09    -0.00  -0.04  -0.08
    38   1    -0.06  -0.11   0.00     0.03  -0.00  -0.10     0.00  -0.02  -0.14
    39   6     0.02   0.09  -0.06     0.02  -0.02   0.05    -0.00   0.01   0.00
    40   1    -0.11  -0.07   0.05     0.04   0.04  -0.06    -0.05  -0.02  -0.18
    41   1     0.03  -0.06   0.00     0.07   0.04  -0.09     0.05  -0.08  -0.11
    42   6     0.01   0.11   0.03     0.00  -0.03  -0.01    -0.02   0.02   0.05
    43   1    -0.14  -0.09  -0.03     0.06   0.01  -0.14    -0.02  -0.05  -0.09
    44   1     0.03  -0.09   0.00    -0.04   0.07  -0.09    -0.08  -0.04  -0.11
    45   6     0.10  -0.09   0.01     0.01   0.04   0.03    -0.02  -0.02   0.04
    46   1    -0.08   0.33  -0.03     0.09  -0.15   0.04     0.07   0.01   0.04
    47   1     0.12   0.09  -0.32    -0.04  -0.02   0.18    -0.02   0.01   0.00
    48   1    -0.10   0.35  -0.06    -0.03  -0.08   0.04    -0.10   0.11   0.02
    49   1     0.11   0.18   0.29    -0.01  -0.04  -0.07     0.03   0.04   0.14
    50   1     0.06  -0.35   0.05     0.02   0.09   0.01    -0.02  -0.04   0.04
    51   1     0.37  -0.06  -0.00    -0.05   0.03   0.03     0.01  -0.01   0.05
                     25                     26                     27
                      A                      A                      A
 Frequencies --    396.3513               409.1485               445.9437
 Red. masses --      4.6904                 3.4725                 4.2555
 Frc consts  --      0.4341                 0.3425                 0.4986
 IR Inten    --      0.6113                 1.7607                 4.2079
[...]
 --------------------------                            --------------------------
 ! Name  Definition              Value          Relative Weight (%)             !
 --------------------------------------------------------------------------------
 ! R30   R(24,25)                0.3833                 17.1                    !
 ! R31   R(24,26)                0.3511                 15.7                    !
 ! R32   R(24,27)               -0.97                   43.4                    !
 ! R33   R(28,29)                0.0449                  2.0                    !
 ! A39   A(12,17,24)             0.0321                  1.4                    !
 ! A40   A(16,17,24)            -0.0327                  1.5                    !
 ! A47   A(17,24,25)            -0.0291                  1.3                    !
 ! A49   A(17,24,27)             0.0461                  2.1                    !
 ! A50   A(25,24,26)            -0.0402                  1.8                    !
 ! D77   D(12,17,24,25)          0.0439                  2.0                    !
 ! D78   D(12,17,24,26)         -0.0441                  2.0                    !
 ! D80   D(16,17,24,25)          0.0429                  1.9                    !
 ! D81   D(16,17,24,26)         -0.045                   2.0                    !
 --------------------------------------------------------------------------------
                           ----------------------------
                           ! Normal Mode   142        !
 --------------------------                            --------------------------
 ! Name  Definition              Value          Relative Weight (%)             !
 --------------------------------------------------------------------------------
 ! R21   R(14,18)                0.0799                  4.7                    !
 ! R22   R(15,16)                0.044                   2.6                    !
 ! R24   R(16,17)                0.0447                  2.6                    !
 ! R25   R(16,19)               -1.0772                 63.7                    !
 ! R29   R(20,23)               -0.0616                  3.6                    !
 ! R33   R(28,29)                0.0337                  2.0                    !
 ! A32   A(14,15,16)             0.0247                  1.5                    !
 ! A34   A(16,15,20)            -0.0305                  1.8                    !
 ! A35   A(15,16,17)            -0.0563                  3.3                    !
 ! A36   A(15,16,19)             0.028                   1.7                    !
 ! A37   A(17,16,19)             0.0283                  1.7                    !
 ! A38   A(12,17,16)             0.0269                  1.6                    !
 ! A40   A(16,17,24)            -0.0286                  1.7                    !
 --------------------------------------------------------------------------------
                           ----------------------------
                           ! Normal Mode   143        !
 --------------------------                            --------------------------
 ! Name  Definition              Value          Relative Weight (%)             !
 --------------------------------------------------------------------------------
 ! R19   R(13,14)               -0.0444                  2.8                    !
 ! R20   R(14,15)               -0.0457                  2.9                    !
 ! R21   R(14,18)                1.0792                 67.5                    !
 ! R25   R(16,19)                0.0786                  4.9                    !
 ! R33   R(28,29)               -0.0207                  1.3                    !
 ! A27   A(7,13,14)              0.0291                  1.8                    !
 ! A28   A(12,13,14)            -0.027                   1.7                    !
 ! A29   A(13,14,15)             0.0559                  3.5                    !
 ! A30   A(13,14,18)            -0.0317                  2.0                    !
 ! A31   A(15,14,18)            -0.0242                  1.5                    !
 ! A32   A(14,15,16)            -0.0285                  1.8                    !
 ! A33   A(14,15,20)             0.0283                  1.8                    !
 --------------------------------------------------------------------------------
                           ----------------------------
                           ! Normal Mode   144        !
 --------------------------                            --------------------------
 ! Name  Definition              Value          Relative Weight (%)             !
 --------------------------------------------------------------------------------
 ! R6    R(3,4)                  0.0156                  0.8                    !
 ! R7    R(3,8)                  0.1246                  6.2                    !
 ! R8    R(4,5)                 -0.0198                  1.0                    !
 ! R9    R(4,9)                 -0.4838                 24.0                    !
 ! R10   R(5,6)                 -0.04                    2.0                    !
 ! R11   R(5,10)                 0.9591                 47.6                    !
 ! A7    A(2,3,4)                0.018                   0.9                    !
 ! A9    A(4,3,8)               -0.016                   0.8                    !
 ! A10   A(3,4,5)               -0.0529                  2.6                    !
 ! A12   A(5,4,9)                0.0407                  2.0                    !
 ! A13   A(4,5,6)                0.0625                  3.1                    !
 ! A14   A(4,5,10)              -0.0434                  2.2                    !
 ! A15   A(6,5,10)              -0.019                   0.9                    !
 ! A16   A(1,6,5)               -0.0238                  1.2                    !
 ! A18   A(5,6,32)               0.0248                  1.2                    !
 --------------------------------------------------------------------------------
                           ----------------------------
                           ! Normal Mode   145        !
 --------------------------                            --------------------------
 ! Name  Definition              Value          Relative Weight (%)             !
 --------------------------------------------------------------------------------
 ! R7    R(3,8)                 -0.5189                 23.3                    !
 ! R8    R(4,5)                 -0.0544                  2.4                    !
 ! R9    R(4,9)                  0.8199                 36.9                    !
 ! R11   R(5,10)                 0.4809                 21.6                    !
 ! A7    A(2,3,4)               -0.0483                  2.2                    !
 ! A9    A(4,3,8)                0.04                    1.8                    !
 ! A10   A(3,4,5)                0.0442                  2.0                    !
 ! A11   A(3,4,9)               -0.0375                  1.7                    !
 --------------------------------------------------------------------------------
                           ----------------------------
                           ! Normal Mode   146        !
 --------------------------                            --------------------------
 ! Name  Definition              Value          Relative Weight (%)             !
 --------------------------------------------------------------------------------
 ! R4    R(2,3)                  0.0424                  2.2                    !
 ! R6    R(3,4)                  0.0642                  3.3                    !
 ! R7    R(3,8)                 -0.9443                 48.3                    !
 ! R8    R(4,5)                  0.0262                  1.3                    !
 ! R9    R(4,9)                 -0.5166                 26.4                    !
 ! R11   R(5,10)                -0.138                   7.1                    !
 ! A6    A(3,2,11)              -0.026                   1.3                    !
 ! A7    A(2,3,4)               -0.036                   1.8                    !
 --------------------------------------------------------------------------------
                           ----------------------------
                           ! Normal Mode   147        !
 --------------------------                            --------------------------
 ! Name  Definition              Value          Relative Weight (%)             !
 --------------------------------------------------------------------------------
 ! R3    R(1,30)                -0.0433                  3.1                    !
 ! R15   R(7,30)                -0.0481                  3.4                    !
 ! R34   R(30,31)                1.0718                 75.8                    !
 ! A2    A(2,1,30)              -0.0238                  1.7                    !
 ! A3    A(6,1,30)               0.0246                  1.7                    !
 ! A20   A(11,7,30)             -0.023                   1.6                    !
 ! A21   A(13,7,30)              0.0238                  1.7                    !
 ! A54   A(1,30,7)               0.0474                  3.4                    !
 ! A56   A(7,30,31)             -0.0463                  3.3                    !
 --------------------------------------------------------------------------------
 -------------------------------------------------------------------
 Center     Atomic                   Forces (Hartrees/Bohr)
 Number     Number              X              Y              Z
 -------------------------------------------------------------------
      1        6           0.000005421    0.000005509   -0.000006160
      2        6           0.000006452    0.000009192   -0.000009361
      3        6           0.000010947    0.000010899   -0.000012898
      4        6           0.000015135    0.000007811   -0.000012968
      5        6           0.000013218    0.000002735   -0.000009444
      6        6           0.000009668    0.000001241   -0.000005645
      7        6          -0.000000923    0.000008087   -0.000004813
      8        1           0.000011393    0.000014555   -0.000015587
      9        1           0.000018061    0.000009262   -0.000015584
     10        1           0.000017081    0.000001181   -0.000009504
     11        7           0.000001866    0.000011584   -0.000008509
     12        6          -0.000007033    0.000014297   -0.000004514
     13        6          -0.000007094    0.000008516   -0.000002551
     14        6          -0.000009139    0.000005136    0.000001418
     15        6          -0.000014270    0.000006275    0.000003358
     16        6          -0.000014875    0.000009733    0.000001393
     17        6          -0.000013706    0.000014179   -0.000002731
     18        1          -0.000008215    0.000002057    0.000003077
     19        1          -0.000019435    0.000011708    0.000002873
     20        6          -0.000017643    0.000003140    0.000008230
     21        1          -0.000015468   -0.000001558    0.000009037
     22        1          -0.000019657    0.000002322    0.000008626
     23        1          -0.000021234    0.000003087    0.000008757
     24        6          -0.000014362    0.000019607   -0.000004461
     25        1          -0.000014353    0.000022285   -0.000007311
     26        1          -0.000011113    0.000018801   -0.000006439
     27        1          -0.000018139    0.000018812   -0.000003018
     28        8          -0.000004947    0.000016818   -0.000008566
     29        1          -0.000001614    0.000015610   -0.000009480
     30        7           0.000001337    0.000003027   -0.000002768
     31        1          -0.000001039    0.000000994   -0.000000323
     32        6           0.000008258   -0.000003616   -0.000002419
     33        1           0.000011871   -0.000005645   -0.000002469
     34        7           0.000004581   -0.000005160    0.000000944
     35        6           0.000003913   -0.000009964    0.000004423
     36        6           0.000008576   -0.000014816    0.000005126
     37        6           0.000004133   -0.000009878    0.000004592
     38        1          -0.000000039   -0.000010583    0.000006917
     39        6           0.000008058   -0.000019715    0.000008587
     40        1           0.000012407   -0.000014088    0.000002755
     41        1           0.000008358   -0.000014581    0.000005131
     42        6           0.000003381   -0.000015545    0.000008534
     43        1           0.000007780   -0.000009809    0.000002213
     44        1           0.000000665   -0.000006805    0.000004129
     45        6           0.000007407   -0.000020330    0.000008846
     46        1           0.000010650   -0.000023036    0.000009590
     47        1           0.000003661   -0.000020110    0.000011377
     48        1           0.000003037   -0.000015214    0.000008345
     49        1          -0.000001044   -0.000015179    0.000010587
     50        1           0.000006555   -0.000023398    0.000011800
     51        1           0.000011472   -0.000019432    0.000006857
 -------------------------------------------------------------------
 Cartesian Forces:  Max     0.000023398 RMS     0.000010601
 FormGI is forming the generalized inverse of G from B-inverse, IUseBI=4.
 GSVD:  received Info=                   1 from GESDD.
 Leave Link  716 at Fri Dec 14 13:01:08 2018, MaxMem=  1342177280 cpu:               3.3 elap:               0.2
 (Enter /gpfs/apps/hpc/Apps/Restricted/Gaussian/Rev_A.03/g16/l9999.exe)

 ----------------------------------------------------------------------

 Electric dipole moment (input orientation):
 (Debye = 10**-18 statcoulomb cm , SI units = C m)
                  (au)            (Debye)         (10**-30 SI)
   Tot        0.250897D+01      0.637717D+01      0.212719D+02
   x          0.243007D+01      0.617662D+01      0.206030D+02
   y          0.624151D+00      0.158643D+01      0.529177D+01
   z          0.116559D-01      0.296264D-01      0.988230D-01

 Dipole polarizability, Alpha (input orientation).
 (esu units = cm**3 , SI units = C**2 m**2 J**-1)
 Alpha(0;0):
               (au)            (10**-24 esu)      (10**-40 SI)
   iso        0.381043D+03      0.564647D+02      0.628255D+02
   aniso      0.308992D+03      0.457879D+02      0.509459D+02
   xx         0.450798D+03      0.668013D+02      0.743265D+02
   yx         0.971079D+01      0.143899D+01      0.160109D+01
   yy         0.513076D+03      0.760300D+02      0.845948D+02
   zx         0.778680D+01      0.115389D+01      0.128387D+01
   zy        -0.127310D+02     -0.188654D+01     -0.209906D+01
   zz         0.179255D+03      0.265628D+02      0.295552D+02

 ----------------------------------------------------------------------

 Dipole orientation:
     6         -1.83071407          4.83441624          0.41696468
     6         -2.01911513          5.79471454         -2.06695508
     6         -2.53783551          8.35999943         -2.45089862
     6         -2.86159045          9.88051333         -0.32191520
     6         -2.66652717          8.89741714          2.13534517
     6         -2.13933200          6.34055145          2.57662407
     6         -1.18722783          1.77641745         -2.37840302
     1         -2.68245640          9.12900528         -4.34226288
     1         -3.27239354         11.87186225         -0.56623502
     1         -2.92976405         10.13814080          3.74547410
     7         -1.60686007          3.84264284         -3.76466428
     6         -0.49673301         -0.95278420         -6.10886731
     6         -0.65319338         -0.69482848         -3.44845606
     6         -0.25853656         -2.82264169         -1.90776410
     6          0.27632442         -5.18031713         -2.93701692
     6          0.42386915         -5.37608445         -5.57870354
     6          0.04606061         -3.32383483         -7.18123238
     1         -0.38388499         -2.62294647          0.12924928
     1          0.84172664         -7.20464177         -6.41155944
     6          0.68255033         -7.46244707         -1.27796698
     1          2.14551708         -7.11935359          0.14133953
     1         -1.04371744         -7.97299458         -0.25917182
     1          1.25461501         -9.09367284         -2.40416421
     6          0.20776627         -3.57463135        -10.00685220
     1         -1.54009312         -2.94483823        -10.91309254
     1          1.72852291         -2.40608013        -10.78065502
     1          0.55440933         -5.53429716        -10.54616344
     8         -0.85257378          1.01249619         -7.69982543
     1         -1.23039401          2.53655297         -6.65081387
     7         -1.30922104          2.30377340          0.15757605
     1         -1.06028475          1.15814868          1.67122309
     6         -1.91330414          5.30676868          5.12376258
     1         -2.14998919          6.66748487          6.66630558
     7         -1.46950658          2.95558080          5.50306465
     6         -1.28160230          2.07404671          8.13101262
     6          1.03257255          3.18233446          9.49433971
     6         -3.69754472          2.57360149          9.66691835
     1         -1.02280736          0.02165673          8.02625000
     6          1.26745511          2.09737493         12.16974367
     1          0.81715315          5.24107751          9.59130921
     1          2.73793304          2.79619800          8.39085442
     6         -3.46731313          1.47364047         12.33637572
     1         -4.00340500          4.61898664          9.79820184
     1         -5.32546399          1.77995504          8.66990158
     6         -1.14825510          2.54311233         13.70498944
     1          2.90052491          2.92357144         13.13250813
     1          1.62294722          0.05834656         12.03882679
     1         -5.18985599          1.86800774         13.41095752
     1         -3.29666470         -0.58901460         12.21186663
     1         -0.97034409          1.70316488         15.58637315
     1         -1.40785361          4.58208903         13.97993896

 Electric dipole moment (dipole orientation):
 (Debye = 10**-18 statcoulomb cm , SI units = C m)
                  (au)            (Debye)         (10**-30 SI)
   Tot        0.250897D+01      0.637717D+01      0.212719D+02
   x          0.000000D+00      0.000000D+00      0.000000D+00
   y          0.000000D+00      0.000000D+00      0.000000D+00
   z          0.250897D+01      0.637717D+01      0.212719D+02

 Dipole polarizability, Alpha (dipole orientation).
 (esu units = cm**3 , SI units = C**2 m**2 J**-1)
 Alpha(0;0):
               (au)            (10**-24 esu)      (10**-40 SI)
   iso        0.381043D+03      0.564647D+02      0.628255D+02
   aniso      0.308992D+03      0.457879D+02      0.509459D+02
   xx         0.192425D+03      0.285145D+02      0.317266D+02
   yx        -0.657886D+02     -0.974887D+01     -0.108471D+02
   yy         0.491337D+03      0.728086D+02      0.810105D+02
   zx        -0.881018D+01     -0.130553D+01     -0.145260D+01
   zy         0.219464D+02      0.325213D+01      0.361848D+01
   zz         0.459366D+03      0.680710D+02      0.757392D+02

 ----------------------------------------------------------------------

 This type of calculation cannot be archived.


 THEORY:  SUPPOSITION WHICH HAS SCIENTIFIC BASIS,
          BUT NOT EXPERIMENTALLY PROVEN.
 FACT:    A THEORY WHICH HAS BEEN PROVEN BY ENOUGH 
          MONEY TO PAY FOR THE EXPERIMENTS.

                          --  THE WIZARD OF ID
 Job cpu time:       0 days  0 hours  0 minutes 16.3 seconds.
 Elapsed time:       0 days  0 hours  0 minutes  1.2 seconds.
 File lengths (MBytes):  RWF=     72 Int=      0 D2E=      0 Chk=     44 Scr=      8
 Normal termination of Gaussian 16 at Fri Dec 14 13:01:08 2018.
