 Entering Gaussian System, Link 0=g16
 Input=cyclohexyl-monoBIP-E0PT.com
 Output=cyclohexyl-monoBIP-E0PT.log
 Initial command:
 /gpfs/apps/hpc/Apps/Restricted/Gaussian/Rev_A.03/g16/l1.exe "/gpfs/scratch60/fas/hammes_schiffer/jg2487/c42n01/Gau-71868.inp" -scrdir="/gpfs/scratch60/fas/hammes_schiffer/jg2487/c42n01/"
 Entering Link 1 = /gpfs/apps/hpc/Apps/Restricted/Gaussian/Rev_A.03/g16/l1.exe PID=     71869.
  
 Copyright (c) 1988,1990,1992,1993,1995,1998,2003,2009,2016,
            Gaussian, Inc.  All Rights Reserved.
  
 This is part of the Gaussian(R) 16 program.  It is based on
 the Gaussian(R) 09 system (copyright 2009, Gaussian, Inc.),
 the Gaussian(R) 03 system (copyright 2003, Gaussian, Inc.),
 the Gaussian(R) 98 system (copyright 1998, Gaussian, Inc.),
 the Gaussian(R) 94 system (copyright 1995, Gaussian, Inc.),
 the Gaussian 92(TM) system (copyright 1992, Gaussian, Inc.),
 the Gaussian 90(TM) system (copyright 1990, Gaussian, Inc.),
 the Gaussian 88(TM) system (copyright 1988, Gaussian, Inc.),
 the Gaussian 86(TM) system (copyright 1986, Carnegie Mellon
 University), and the Gaussian 82(TM) system (copyright 1983,
 Carnegie Mellon University). Gaussian is a federally registered
 trademark of Gaussian, Inc.
  
 This software contains proprietary and confidential information,
 including trade secrets, belonging to Gaussian, Inc.
  
 This software is provided under written license and may be
 used, copied, transmitted, or stored only in accord with that
 written license.
  
 The following legend is applicable only to US Government
 contracts under FAR:
  
                    RESTRICTED RIGHTS LEGEND
  
 Use, reproduction and disclosure by the US Government is
 subject to restrictions as set forth in subparagraphs (a)
 and (c) of the Commercial Computer Software - Restricted
 Rights clause in FAR 52.227-19.
  
 Gaussian, Inc.
 340 Quinnipiac St., Bldg. 40, Wallingford CT 06492
  
  
 ---------------------------------------------------------------
 Warning -- This program may not be used in any manner that
 competes with the business of Gaussian, Inc. or will provide
 assistance to any competitor of Gaussian, Inc.  The licensee
 of this program is prohibited from giving any competitor of
 Gaussian, Inc. access to this program.  By using this program,
 the user acknowledges that Gaussian, Inc. is engaged in the
 business of creating and licensing software in the field of
 computational chemistry and represents and warrants to the
 licensee that it is not a competitor of Gaussian, Inc. and that
 it will not use this program in any manner prohibited above.
 ---------------------------------------------------------------
  

 Cite this work as:
 Gaussian 16, Revision A.03,
 M. J. Frisch, G. W. Trucks, H. B. Schlegel, G. E. Scuseria, 
 M. A. Robb, J. R. Cheeseman, G. Scalmani, V. Barone, 
 G. A. Petersson, H. Nakatsuji, X. Li, M. Caricato, A. V. Marenich, 
 J. Bloino, B. G. Janesko, R. Gomperts, B. Mennucci, H. P. Hratchian, 
 J. V. Ortiz, A. F. Izmaylov, J. L. Sonnenberg, D. Williams-Young, 
 F. Ding, F. Lipparini, F. Egidi, J. Goings, B. Peng, A. Petrone, 
 T. Henderson, D. Ranasinghe, V. G. Zakrzewski, J. Gao, N. Rega, 
 G. Zheng, W. Liang, M. Hada, M. Ehara, K. Toyota, R. Fukuda, 
 J. Hasegawa, M. Ishida, T. Nakajima, Y. Honda, O. Kitao, H. Nakai, 
 T. Vreven, K. Throssell, J. A. Montgomery, Jr., J. E. Peralta, 
 F. Ogliaro, M. J. Bearpark, J. J. Heyd, E. N. Brothers, K. N. Kudin, 
 V. N. Staroverov, T. A. Keith, R. Kobayashi, J. Normand, 
 K. Raghavachari, A. P. Rendell, J. C. Burant, S. S. Iyengar, 
 J. Tomasi, M. Cossi, J. M. Millam, M. Klene, C. Adamo, R. Cammi, 
 J. W. Ochterski, R. L. Martin, K. Morokuma, O. Farkas, 
 J. B. Foresman, and D. J. Fox, Gaussian, Inc., Wallingford CT, 2016.
 
 ******************************************
 Gaussian 16:  ES64L-G16RevA.03 25-Dec-2016
                21-Dec-2018 
 ******************************************
 %chk=cyclohexyl-monoBIP-E0PT.chk
 %mem=10GB
 %nprocshared=16
 Will use up to   16 processors via shared memory.
 ----------------------------------------------------------------
 #p freq(ReadFC,InternalModes) Geom(AllCheck) NoSymm scale=0.9631
 ----------------------------------------------------------------
 1/18=20,29=7,38=1,114=963100/1,3;
 2/9=110,12=2,15=1,40=1/2;
 7/8=21,25=11,30=1/16;
 99/5=2/99;
 Leave Link    1 at Fri Dec 21 18:09:52 2018, MaxMem=  1342177280 cpu:               8.1 elap:               0.6
 (Enter /gpfs/apps/hpc/Apps/Restricted/Gaussian/Rev_A.03/g16/l101.exe)
 Structure from the checkpoint file:  "cyclohexyl-monoBIP-E0PT.chk"
 -------------------------------------------------------
 cyclohexylimine monoBIP oxidized but no PT optimization
 -------------------------------------------------------
 Charge =  1 Multiplicity = 2
 Redundant internal coordinates found in file.  (old form).
 C,0,-0.4394401257,2.7067021284,0.2334369859
 C,0,-1.8533107049,2.8504281322,0.1813401574
 C,0,-2.4292260333,4.1305519577,0.0906638034
 C,0,-1.5639005116,5.212026557,0.0635198843
 C,0,-0.1576176582,5.0522885966,0.1218584527
 C,0,0.4450599204,3.7991850542,0.2076365262
 C,0,-1.4027491368,0.7221667334,0.305223451
 H,0,-3.5030593685,4.2567979195,0.0447282266
 H,0,-1.968018481,6.2147192392,-0.0024944903
 H,0,0.4723990259,5.9340409312,0.1007201094
 N,0,-2.4152802689,1.6033164793,0.2287479362
 C,0,-2.9996495719,-1.1747859328,0.3860056322
 C,0,-1.6210653537,-0.6951042985,0.3706008628
 C,0,-0.5744641031,-1.6133814321,0.4106387224
 C,0,-0.8312371584,-2.9806750751,0.4745528653
 C,0,-2.1915782347,-3.420841878,0.5133907737
 C,0,-3.2789982463,-2.583328065,0.4798021705
 H,0,0.445111642,-1.2557105847,0.3891462164
 H,0,-2.3650607172,-4.4844691204,0.5746526151
 C,0,0.2697377611,-4.0275822833,0.4923566458
 C,0,-4.7173581478,-3.1033668041,0.5313209809
 O,0,-3.9883737653,-0.3294434471,0.3099424405
 H,0,-3.6050276898,0.6406781186,0.2576129697
 N,0,-0.1937937789,1.3659439692,0.3095531871
 H,0,0.7593809649,1.0129100368,0.3631809637
 C,0,1.8933099838,3.6095997903,0.268696254
 H,0,2.499634812,4.5198933998,0.2297570179
 N,0,2.3951021423,2.4349198575,0.3625295874
 C,0,3.858520544,2.3060490372,0.4206450127
 C,0,4.5231997585,2.7283470282,-0.9004399617
 C,0,4.4808201878,3.0694540407,1.6014966263
 H,0,4.0604505334,1.2393588088,0.5698074306
 C,0,6.0373750325,2.4983205613,-0.8424403764
 H,0,4.315097291,3.7914879923,-1.0708524089
 H,0,4.0766713801,2.1734591582,-1.730843209
 C,0,5.9940336852,2.8338104377,1.663334468
 H,0,4.2883998382,4.1414296566,1.4752452675
 H,0,3.9963183244,2.7624276442,2.5328409645
 C,0,6.6695758375,3.2318397627,0.3456415136
 H,0,6.5016088126,2.8157195991,-1.780935725
 H,0,6.2291903204,1.4224084723,-0.7441303859
 H,0,6.422654719,3.39507224,2.4992151761
 H,0,6.1858283124,1.7720566885,1.8624423263
 H,0,7.7434564964,3.0268186213,0.3916538457
 H,0,6.5577466134,4.3136645668,0.1997534748
 C,0,-5.4458732849,-2.5133204866,1.7595643352
 H,0,-5.512598215,-1.4273839288,1.7074101671
 H,0,-6.4598738825,-2.9190268477,1.8014824374
 H,0,-4.9302967084,-2.7890995246,2.682986093
 C,0,-4.7451186497,-4.6345112177,0.6582263672
 H,0,-5.7841613426,-4.9650597435,0.7092204212
 H,0,-4.2783556184,-5.1251911386,-0.1999704762
 H,0,-4.2389384754,-4.9721030769,1.566425429
 C,0,-5.460757714,-2.714376947,-0.7659946207
 H,0,-5.5483132215,-1.6339839469,-0.8735517903
 H,0,-4.9380234833,-3.1107896797,-1.6400206948
 H,0,-6.4665194965,-3.1417024569,-0.7450040721
 C,0,0.1153484263,-4.9010072977,1.7582543012
 H,0,-0.8533804979,-5.4032211891,1.7926688248
 H,0,0.8932405592,-5.6687606586,1.7585128098
 H,0,0.2240797436,-4.2982357548,2.6625569127
 C,0,1.6711916189,-3.4053209947,0.4888632952
 H,0,1.8429688973,-2.8051505249,-0.407908232
 H,0,1.83303005,-2.7757265058,1.3672531852
 H,0,2.4172162897,-4.2026560548,0.5046369601
 C,0,0.1132156923,-4.9173933904,-0.7630848589
 H,0,0.8826488074,-5.6935370767,-0.7487277262
 H,0,-0.8624729533,-5.4064520272,-0.7946563752
 H,0,0.2335345755,-4.3280058259,-1.67479368
 Recover connectivity data from disk.
 ITRead=  0  0  0  0  0  0  0  0  0  0  0  0  0  0  0  0  0  0  0  0
 ITRead=  0  0  0  0  0  0  0  0  0  0  0  0  0  0  0  0  0  0  0  0
 ITRead=  0  0  0  0  0  0  0  0  0  0  0  0  0  0  0  0  0  0  0  0
 ITRead=  0  0  0  0  0  0  0  0  0
 MicOpt= -1 -1 -1 -1 -1 -1 -1 -1 -1 -1 -1 -1 -1 -1 -1 -1 -1 -1 -1 -1
 MicOpt= -1 -1 -1 -1 -1 -1 -1 -1 -1 -1 -1 -1 -1 -1 -1 -1 -1 -1 -1 -1
 MicOpt= -1 -1 -1 -1 -1 -1 -1 -1 -1 -1 -1 -1 -1 -1 -1 -1 -1 -1 -1 -1
 MicOpt= -1 -1 -1 -1 -1 -1 -1 -1 -1
 NAtoms=     69 NQM=       69 NQMF=       0 NMMI=      0 NMMIF=      0
                NMic=       0 NMicF=      0.
                    Isotopes and Nuclear Properties:
 (Nuclear quadrupole moments (NQMom) in fm**2, nuclear magnetic moments (NMagM)
  in nuclear magnetons)

  Atom         1           2           3           4           5           6           7           8           9          10
 IAtWgt=          12          12          12          12          12          12          12           1           1           1
 AtmWgt=  12.0000000  12.0000000  12.0000000  12.0000000  12.0000000  12.0000000  12.0000000   1.0078250   1.0078250   1.0078250
 NucSpn=           0           0           0           0           0           0           0           1           1           1
 AtZEff=   3.6000000   3.6000000   3.6000000   3.6000000   3.6000000   3.6000000   3.6000000   1.0000000   1.0000000   1.0000000
 NQMom=    0.0000000   0.0000000   0.0000000   0.0000000   0.0000000   0.0000000   0.0000000   0.0000000   0.0000000   0.0000000
 NMagM=    0.0000000   0.0000000   0.0000000   0.0000000   0.0000000   0.0000000   0.0000000   2.7928460   2.7928460   2.7928460
 AtZNuc=   6.0000000   6.0000000   6.0000000   6.0000000   6.0000000   6.0000000   6.0000000   1.0000000   1.0000000   1.0000000

  Atom        11          12          13          14          15          16          17          18          19          20
 IAtWgt=          14          12          12          12          12          12          12           1           1          12
 AtmWgt=  14.0030740  12.0000000  12.0000000  12.0000000  12.0000000  12.0000000  12.0000000   1.0078250   1.0078250  12.0000000
 NucSpn=           2           0           0           0           0           0           0           1           1           0
 AtZEff=   4.5500000   3.6000000   3.6000000   3.6000000   3.6000000   3.6000000   3.6000000   1.0000000   1.0000000   3.6000000
 NQMom=    2.0440000   0.0000000   0.0000000   0.0000000   0.0000000   0.0000000   0.0000000   0.0000000   0.0000000   0.0000000
 NMagM=    0.4037610   0.0000000   0.0000000   0.0000000   0.0000000   0.0000000   0.0000000   2.7928460   2.7928460   0.0000000
 AtZNuc=   7.0000000   6.0000000   6.0000000   6.0000000   6.0000000   6.0000000   6.0000000   1.0000000   1.0000000   6.0000000

  Atom        21          22          23          24          25          26          27          28          29          30
 IAtWgt=          12          16           1          14           1          12           1          14          12          12
 AtmWgt=  12.0000000  15.9949146   1.0078250  14.0030740   1.0078250  12.0000000   1.0078250  14.0030740  12.0000000  12.0000000
 NucSpn=           0           0           1           2           1           0           1           2           0           0
 AtZEff=   3.6000000   5.6000000   1.0000000   4.5500000   1.0000000   3.6000000   1.0000000   4.5500000   3.6000000   3.6000000
 NQMom=    0.0000000   0.0000000   0.0000000   2.0440000   0.0000000   0.0000000   0.0000000   2.0440000   0.0000000   0.0000000
 NMagM=    0.0000000   0.0000000   2.7928460   0.4037610   2.7928460   0.0000000   2.7928460   0.4037610   0.0000000   0.0000000
 AtZNuc=   6.0000000   8.0000000   1.0000000   7.0000000   1.0000000   6.0000000   1.0000000   7.0000000   6.0000000   6.0000000

  Atom        31          32          33          34          35          36          37          38          39          40
 IAtWgt=          12           1          12           1           1          12           1           1          12           1
 AtmWgt=  12.0000000   1.0078250  12.0000000   1.0078250   1.0078250  12.0000000   1.0078250   1.0078250  12.0000000   1.0078250
 NucSpn=           0           1           0           1           1           0           1           1           0           1
 AtZEff=   3.6000000   1.0000000   3.6000000   1.0000000   1.0000000   3.6000000   1.0000000   1.0000000   3.6000000   1.0000000
 NQMom=    0.0000000   0.0000000   0.0000000   0.0000000   0.0000000   0.0000000   0.0000000   0.0000000   0.0000000   0.0000000
 NMagM=    0.0000000   2.7928460   0.0000000   2.7928460   2.7928460   0.0000000   2.7928460   2.7928460   0.0000000   2.7928460
 AtZNuc=   6.0000000   1.0000000   6.0000000   1.0000000   1.0000000   6.0000000   1.0000000   1.0000000   6.0000000   1.0000000

  Atom        41          42          43          44          45          46          47          48          49          50
 IAtWgt=           1           1           1           1           1          12           1           1           1          12
 AtmWgt=   1.0078250   1.0078250   1.0078250   1.0078250   1.0078250  12.0000000   1.0078250   1.0078250   1.0078250  12.0000000
 NucSpn=           1           1           1           1           1           0           1           1           1           0
 AtZEff=   1.0000000   1.0000000   1.0000000   1.0000000   1.0000000   3.6000000   1.0000000   1.0000000   1.0000000   3.6000000
 NQMom=    0.0000000   0.0000000   0.0000000   0.0000000   0.0000000   0.0000000   0.0000000   0.0000000   0.0000000   0.0000000
 NMagM=    2.7928460   2.7928460   2.7928460   2.7928460   2.7928460   0.0000000   2.7928460   2.7928460   2.7928460   0.0000000
 AtZNuc=   1.0000000   1.0000000   1.0000000   1.0000000   1.0000000   6.0000000   1.0000000   1.0000000   1.0000000   6.0000000

  Atom        51          52          53          54          55          56          57          58          59          60
 IAtWgt=           1           1           1          12           1           1           1          12           1           1
 AtmWgt=   1.0078250   1.0078250   1.0078250  12.0000000   1.0078250   1.0078250   1.0078250  12.0000000   1.0078250   1.0078250
 NucSpn=           1           1           1           0           1           1           1           0           1           1
 AtZEff=   1.0000000   1.0000000   1.0000000   3.6000000   1.0000000   1.0000000   1.0000000   3.6000000   1.0000000   1.0000000
 NQMom=    0.0000000   0.0000000   0.0000000   0.0000000   0.0000000   0.0000000   0.0000000   0.0000000   0.0000000   0.0000000
 NMagM=    2.7928460   2.7928460   2.7928460   0.0000000   2.7928460   2.7928460   2.7928460   0.0000000   2.7928460   2.7928460
 AtZNuc=   1.0000000   1.0000000   1.0000000   6.0000000   1.0000000   1.0000000   1.0000000   6.0000000   1.0000000   1.0000000

  Atom        61          62          63          64          65          66          67          68          69
 IAtWgt=           1          12           1           1           1          12           1           1           1
 AtmWgt=   1.0078250  12.0000000   1.0078250   1.0078250   1.0078250  12.0000000   1.0078250   1.0078250   1.0078250
 NucSpn=           1           0           1           1           1           0           1           1           1
 AtZEff=   1.0000000   3.6000000   1.0000000   1.0000000   1.0000000   3.6000000   1.0000000   1.0000000   1.0000000
 NQMom=    0.0000000   0.0000000   0.0000000   0.0000000   0.0000000   0.0000000   0.0000000   0.0000000   0.0000000
 NMagM=    2.7928460   0.0000000   2.7928460   2.7928460   2.7928460   0.0000000   2.7928460   2.7928460   2.7928460
 AtZNuc=   1.0000000   6.0000000   1.0000000   1.0000000   1.0000000   6.0000000   1.0000000   1.0000000   1.0000000
 Leave Link  101 at Fri Dec 21 18:09:52 2018, MaxMem=  1342177280 cpu:               5.8 elap:               0.4
 (Enter /gpfs/apps/hpc/Apps/Restricted/Gaussian/Rev_A.03/g16/l103.exe)

 GradGradGradGradGradGradGradGradGradGradGradGradGradGradGradGradGradGrad
 Berny optimization.
 Initialization pass.
                           ----------------------------
                           !    Initial Parameters    !
                           ! (Angstroms and Degrees)  !
 --------------------------                            --------------------------
 ! Name  Definition              Value          Derivative Info.                !
 --------------------------------------------------------------------------------
 ! R1    R(1,2)                  1.4221         estimate D2E/DX2                !
 ! R2    R(1,6)                  1.4059         estimate D2E/DX2                !
 ! R3    R(1,24)                 1.3652         estimate D2E/DX2                !
 ! R4    R(2,3)                  1.4066         estimate D2E/DX2                !
 ! R5    R(2,11)                 1.3687         estimate D2E/DX2                !
 ! R6    R(3,4)                  1.3853         estimate D2E/DX2                !
 ! R7    R(3,8)                  1.0822         estimate D2E/DX2                !
 ! R8    R(4,5)                  1.4165         estimate D2E/DX2                !
 ! R9    R(4,9)                  1.0831         estimate D2E/DX2                !
 ! R10   R(5,6)                  1.3931         estimate D2E/DX2                !
 ! R11   R(5,10)                 1.0839         estimate D2E/DX2                !
 ! R12   R(6,26)                 1.4619         estimate D2E/DX2                !
 ! R13   R(7,11)                 1.3444         estimate D2E/DX2                !
 ! R14   R(7,13)                 1.4355         estimate D2E/DX2                !
 ! R15   R(7,24)                 1.3697         estimate D2E/DX2                !
 ! R16   R(12,13)                1.4597         estimate D2E/DX2                !
 ! R17   R(12,17)                1.439          estimate D2E/DX2                !
 ! R18   R(12,22)                1.3031         estimate D2E/DX2                !
 ! R19   R(13,14)                1.3929         estimate D2E/DX2                !
 ! R20   R(14,15)                1.3927         estimate D2E/DX2                !
 ! R21   R(14,18)                1.0807         estimate D2E/DX2                !
 ! R22   R(15,16)                1.4303         estimate D2E/DX2                !
 ! R23   R(15,20)                1.5194         estimate D2E/DX2                !
 ! R24   R(16,17)                1.373          estimate D2E/DX2                !
 ! R25   R(16,19)                1.0794         estimate D2E/DX2                !
 ! R26   R(17,21)                1.5304         estimate D2E/DX2                !
 ! R27   R(20,58)                1.5457         estimate D2E/DX2                !
 ! R28   R(20,62)                1.5334         estimate D2E/DX2                !
 ! R29   R(20,66)                1.5467         estimate D2E/DX2                !
 ! R30   R(21,46)                1.5451         estimate D2E/DX2                !
 ! R31   R(21,50)                1.5366         estimate D2E/DX2                !
 ! R32   R(21,54)                1.545          estimate D2E/DX2                !
 ! R33   R(22,23)                1.0444         estimate D2E/DX2                !
 ! R34   R(24,25)                1.0179         estimate D2E/DX2                !
 ! R35   R(26,27)                1.0944         estimate D2E/DX2                !
 ! R36   R(26,28)                1.2808         estimate D2E/DX2                !
 ! R37   R(28,29)                1.4702         estimate D2E/DX2                !
 ! R38   R(29,30)                1.538          estimate D2E/DX2                !
 ! R39   R(29,31)                1.5377         estimate D2E/DX2                !
 ! R40   R(29,32)                1.0958         estimate D2E/DX2                !
 ! R41   R(30,33)                1.5326         estimate D2E/DX2                !
 ! R42   R(30,34)                1.0966         estimate D2E/DX2                !
 ! R43   R(30,35)                1.094          estimate D2E/DX2                !
 ! R44   R(31,36)                1.5327         estimate D2E/DX2                !
 ! R45   R(31,37)                1.0964         estimate D2E/DX2                !
 ! R46   R(31,38)                1.0938         estimate D2E/DX2                !
 ! R47   R(33,39)                1.5327         estimate D2E/DX2                !
 ! R48   R(33,40)                1.0941         estimate D2E/DX2                !
 ! R49   R(33,41)                1.0973         estimate D2E/DX2                !
 ! R50   R(36,39)                1.5333         estimate D2E/DX2                !
 ! R51   R(36,42)                1.0943         estimate D2E/DX2                !
 ! R52   R(36,43)                1.0972         estimate D2E/DX2                !
 ! R53   R(39,44)                1.0942         estimate D2E/DX2                !
 ! R54   R(39,45)                1.0973         estimate D2E/DX2                !
 ! R55   R(46,47)                1.0892         estimate D2E/DX2                !
 ! R56   R(46,48)                1.093          estimate D2E/DX2                !
 ! R57   R(46,49)                1.093          estimate D2E/DX2                !
 ! R58   R(50,51)                1.0915         estimate D2E/DX2                !
 ! R59   R(50,52)                1.0932         estimate D2E/DX2                !
 ! R60   R(50,53)                1.0932         estimate D2E/DX2                !
 ! R61   R(54,55)                1.0893         estimate D2E/DX2                !
 ! R62   R(54,56)                1.0928         estimate D2E/DX2                !
 ! R63   R(54,57)                1.093          estimate D2E/DX2                !
 ! R64   R(58,59)                1.0917         estimate D2E/DX2                !
 ! R65   R(58,60)                1.093          estimate D2E/DX2                !
 ! R66   R(58,61)                1.0922         estimate D2E/DX2                !
 ! R67   R(62,63)                1.0927         estimate D2E/DX2                !
 ! R68   R(62,64)                1.0928         estimate D2E/DX2                !
 ! R69   R(62,65)                1.092          estimate D2E/DX2                !
 ! R70   R(66,67)                1.093          estimate D2E/DX2                !
 ! R71   R(66,68)                1.0919         estimate D2E/DX2                !
 ! R72   R(66,69)                1.0923         estimate D2E/DX2                !
 ! A1    A(2,1,6)              123.1126         estimate D2E/DX2                !
 ! A2    A(2,1,24)             106.2716         estimate D2E/DX2                !
 ! A3    A(6,1,24)             130.6158         estimate D2E/DX2                !
 ! A4    A(1,2,3)              120.0922         estimate D2E/DX2                !
 ! A5    A(1,2,11)             108.3518         estimate D2E/DX2                !
 ! A6    A(3,2,11)             131.5553         estimate D2E/DX2                !
 ! A7    A(2,3,4)              117.1276         estimate D2E/DX2                !
 ! A8    A(2,3,8)              121.0083         estimate D2E/DX2                !
 ! A9    A(4,3,8)              121.8641         estimate D2E/DX2                !
 ! A10   A(3,4,5)              122.092          estimate D2E/DX2                !
 ! A11   A(3,4,9)              119.3968         estimate D2E/DX2                !
 ! A12   A(5,4,9)              118.5111         estimate D2E/DX2                !
 ! A13   A(4,5,6)              122.2383         estimate D2E/DX2                !
 ! A14   A(4,5,10)             118.9799         estimate D2E/DX2                !
 ! A15   A(6,5,10)             118.7817         estimate D2E/DX2                !
 ! A16   A(1,6,5)              115.336          estimate D2E/DX2                !
 ! A17   A(1,6,26)             121.4484         estimate D2E/DX2                !
 ! A18   A(5,6,26)             123.2156         estimate D2E/DX2                !
 ! A19   A(11,7,13)            122.3538         estimate D2E/DX2                !
 ! A20   A(11,7,24)            110.9086         estimate D2E/DX2                !
 ! A21   A(13,7,24)            126.7377         estimate D2E/DX2                !
 ! A22   A(2,11,7)             106.8537         estimate D2E/DX2                !
 ! A23   A(13,12,17)           120.3754         estimate D2E/DX2                !
 ! A24   A(13,12,22)           120.1849         estimate D2E/DX2                !
 ! A25   A(17,12,22)           119.4392         estimate D2E/DX2                !
 ! A26   A(7,13,12)            117.9404         estimate D2E/DX2                !
 ! A27   A(7,13,14)            122.5424         estimate D2E/DX2                !
 ! A28   A(12,13,14)           119.516          estimate D2E/DX2                !
 ! A29   A(13,14,15)           120.6654         estimate D2E/DX2                !
 ! A30   A(13,14,18)           119.3483         estimate D2E/DX2                !
 ! A31   A(15,14,18)           119.9862         estimate D2E/DX2                !
 ! A32   A(14,15,16)           118.6031         estimate D2E/DX2                !
 ! A33   A(14,15,20)           122.917          estimate D2E/DX2                !
 ! A34   A(16,15,20)           118.4776         estimate D2E/DX2                !
 ! A35   A(15,16,17)           124.3946         estimate D2E/DX2                !
 ! A36   A(15,16,19)           117.2347         estimate D2E/DX2                !
 ! A37   A(17,16,19)           118.3706         estimate D2E/DX2                !
 ! A38   A(12,17,16)           116.4184         estimate D2E/DX2                !
 ! A39   A(12,17,21)           121.1489         estimate D2E/DX2                !
 ! A40   A(16,17,21)           122.4321         estimate D2E/DX2                !
 ! A41   A(15,20,58)           109.0609         estimate D2E/DX2                !
 ! A42   A(15,20,62)           112.4969         estimate D2E/DX2                !
 ! A43   A(15,20,66)           108.2735         estimate D2E/DX2                !
 ! A44   A(58,20,62)           108.8119         estimate D2E/DX2                !
 ! A45   A(58,20,66)           109.2421         estimate D2E/DX2                !
 ! A46   A(62,20,66)           108.9106         estimate D2E/DX2                !
 ! A47   A(17,21,46)           109.8854         estimate D2E/DX2                !
 ! A48   A(17,21,50)           110.9995         estimate D2E/DX2                !
 ! A49   A(17,21,54)           109.7806         estimate D2E/DX2                !
 ! A50   A(46,21,50)           107.8387         estimate D2E/DX2                !
 ! A51   A(46,21,54)           110.1492         estimate D2E/DX2                !
 ! A52   A(50,21,54)           108.1514         estimate D2E/DX2                !
 ! A53   A(12,22,23)           109.0873         estimate D2E/DX2                !
 ! A54   A(1,24,7)             107.6143         estimate D2E/DX2                !
 ! A55   A(1,24,25)            120.8014         estimate D2E/DX2                !
 ! A56   A(7,24,25)            131.5827         estimate D2E/DX2                !
 ! A57   A(6,26,27)            116.0714         estimate D2E/DX2                !
 ! A58   A(6,26,28)            120.6721         estimate D2E/DX2                !
 ! A59   A(27,26,28)           123.2565         estimate D2E/DX2                !
 ! A60   A(26,28,29)           118.2454         estimate D2E/DX2                !
 ! A61   A(28,29,30)           111.8484         estimate D2E/DX2                !
 ! A62   A(28,29,31)           112.9336         estimate D2E/DX2                !
 ! A63   A(28,29,32)           105.9095         estimate D2E/DX2                !
 ! A64   A(30,29,31)           110.3908         estimate D2E/DX2                !
 ! A65   A(30,29,32)           107.7317         estimate D2E/DX2                !
 ! A66   A(31,29,32)           107.7075         estimate D2E/DX2                !
 ! A67   A(29,30,33)           110.6863         estimate D2E/DX2                !
 ! A68   A(29,30,34)           108.5215         estimate D2E/DX2                !
 ! A69   A(29,30,35)           109.6537         estimate D2E/DX2                !
 ! A70   A(33,30,34)           109.8073         estimate D2E/DX2                !
 ! A71   A(33,30,35)           110.8449         estimate D2E/DX2                !
 ! A72   A(34,30,35)           107.2359         estimate D2E/DX2                !
 ! A73   A(29,31,36)           110.745          estimate D2E/DX2                !
 ! A74   A(29,31,37)           109.0232         estimate D2E/DX2                !
 ! A75   A(29,31,38)           109.5886         estimate D2E/DX2                !
 ! A76   A(36,31,37)           109.1617         estimate D2E/DX2                !
 ! A77   A(36,31,38)           111.0886         estimate D2E/DX2                !
 ! A78   A(37,31,38)           107.1426         estimate D2E/DX2                !
 ! A79   A(30,33,39)           111.4078         estimate D2E/DX2                !
 ! A80   A(30,33,40)           110.0717         estimate D2E/DX2                !
 ! A81   A(30,33,41)           108.8597         estimate D2E/DX2                !
 ! A82   A(39,33,40)           110.552          estimate D2E/DX2                !
 ! A83   A(39,33,41)           109.129          estimate D2E/DX2                !
 ! A84   A(40,33,41)           106.6863         estimate D2E/DX2                !
 ! A85   A(31,36,39)           111.1241         estimate D2E/DX2                !
 ! A86   A(31,36,42)           109.7964         estimate D2E/DX2                !
 ! A87   A(31,36,43)           109.1895         estimate D2E/DX2                !
 ! A88   A(39,36,42)           110.5321         estimate D2E/DX2                !
 ! A89   A(39,36,43)           109.2777         estimate D2E/DX2                !
 ! A90   A(42,36,43)           106.8138         estimate D2E/DX2                !
 ! A91   A(33,39,36)           111.1112         estimate D2E/DX2                !
 ! A92   A(33,39,44)           110.3478         estimate D2E/DX2                !
 ! A93   A(33,39,45)           109.0698         estimate D2E/DX2                !
 ! A94   A(36,39,44)           110.3406         estimate D2E/DX2                !
 ! A95   A(36,39,45)           108.9819         estimate D2E/DX2                !
 ! A96   A(44,39,45)           106.8771         estimate D2E/DX2                !
 ! A97   A(21,46,47)           111.8104         estimate D2E/DX2                !
 ! A98   A(21,46,48)           109.036          estimate D2E/DX2                !
 ! A99   A(21,46,49)           110.6606         estimate D2E/DX2                !
 ! A100  A(47,46,48)           108.3657         estimate D2E/DX2                !
 ! A101  A(47,46,49)           108.7178         estimate D2E/DX2                !
 ! A102  A(48,46,49)           108.1544         estimate D2E/DX2                !
 ! A103  A(21,50,51)           108.8322         estimate D2E/DX2                !
 ! A104  A(21,50,52)           112.0049         estimate D2E/DX2                !
 ! A105  A(21,50,53)           111.59           estimate D2E/DX2                !
 ! A106  A(51,50,52)           107.8892         estimate D2E/DX2                !
 ! A107  A(51,50,53)           107.9651         estimate D2E/DX2                !
 ! A108  A(52,50,53)           108.4138         estimate D2E/DX2                !
 ! A109  A(21,54,55)           111.7969         estimate D2E/DX2                !
 ! A110  A(21,54,56)           110.4922         estimate D2E/DX2                !
 ! A111  A(21,54,57)           109.1601         estimate D2E/DX2                !
 ! A112  A(55,54,56)           108.618          estimate D2E/DX2                !
 ! A113  A(55,54,57)           108.4043         estimate D2E/DX2                !
 ! A114  A(56,54,57)           108.282          estimate D2E/DX2                !
 ! A115  A(20,58,59)           111.9867         estimate D2E/DX2                !
 ! A116  A(20,58,60)           109.0284         estimate D2E/DX2                !
 ! A117  A(20,58,61)           110.8722         estimate D2E/DX2                !
 ! A118  A(59,58,60)           107.9628         estimate D2E/DX2                !
 ! A119  A(59,58,61)           108.4282         estimate D2E/DX2                !
 ! A120  A(60,58,61)           108.4588         estimate D2E/DX2                !
 ! A121  A(20,62,63)           111.6202         estimate D2E/DX2                !
 ! A122  A(20,62,64)           111.5509         estimate D2E/DX2                !
 ! A123  A(20,62,65)           109.15           estimate D2E/DX2                !
 ! A124  A(63,62,64)           108.661          estimate D2E/DX2                !
 ! A125  A(63,62,65)           107.7883         estimate D2E/DX2                !
 ! A126  A(64,62,65)           107.9315         estimate D2E/DX2                !
 ! A127  A(20,66,67)           109.0633         estimate D2E/DX2                !
 ! A128  A(20,66,68)           111.8129         estimate D2E/DX2                !
 ! A129  A(20,66,69)           110.8501         estimate D2E/DX2                !
 ! A130  A(67,66,68)           108.1426         estimate D2E/DX2                !
 ! A131  A(67,66,69)           108.4569         estimate D2E/DX2                !
 ! A132  A(68,66,69)           108.4208         estimate D2E/DX2                !
 ! D1    D(6,1,2,3)              0.429          estimate D2E/DX2                !
 ! D2    D(6,1,2,11)          -179.8368         estimate D2E/DX2                !
 ! D3    D(24,1,2,3)          -179.662          estimate D2E/DX2                !
 ! D4    D(24,1,2,11)            0.0721         estimate D2E/DX2                !
 ! D5    D(2,1,6,5)             -0.2141         estimate D2E/DX2                !
 ! D6    D(2,1,6,26)           179.743          estimate D2E/DX2                !
 ! D7    D(24,1,6,5)           179.901          estimate D2E/DX2                !
 ! D8    D(24,1,6,26)           -0.1419         estimate D2E/DX2                !
 ! D9    D(2,1,24,7)            -0.0499         estimate D2E/DX2                !
 ! D10   D(2,1,24,25)         -179.6434         estimate D2E/DX2                !
 ! D11   D(6,1,24,7)           179.8496         estimate D2E/DX2                !
 ! D12   D(6,1,24,25)            0.2561         estimate D2E/DX2                !
 ! D13   D(1,2,3,4)             -0.3461         estimate D2E/DX2                !
 ! D14   D(1,2,3,8)            179.6673         estimate D2E/DX2                !
 ! D15   D(11,2,3,4)           179.9911         estimate D2E/DX2                !
 ! D16   D(11,2,3,8)             0.0046         estimate D2E/DX2                !
 ! D17   D(1,2,11,7)            -0.0656         estimate D2E/DX2                !
 ! D18   D(3,2,11,7)           179.627          estimate D2E/DX2                !
 ! D19   D(2,3,4,5)              0.0857         estimate D2E/DX2                !
 ! D20   D(2,3,4,9)           -179.8006         estimate D2E/DX2                !
 ! D21   D(8,3,4,5)           -179.9278         estimate D2E/DX2                !
 ! D22   D(8,3,4,9)              0.1859         estimate D2E/DX2                !
 ! D23   D(3,4,5,6)              0.1226         estimate D2E/DX2                !
 ! D24   D(3,4,5,10)          -179.7789         estimate D2E/DX2                !
 ! D25   D(9,4,5,6)           -179.9902         estimate D2E/DX2                !
 ! D26   D(9,4,5,10)             0.1084         estimate D2E/DX2                !
 ! D27   D(4,5,6,1)             -0.0581         estimate D2E/DX2                !
 ! D28   D(4,5,6,26)           179.9857         estimate D2E/DX2                !
 ! D29   D(10,5,6,1)           179.8435         estimate D2E/DX2                !
 ! D30   D(10,5,6,26)           -0.1127         estimate D2E/DX2                !
 ! D31   D(1,6,26,27)          179.254          estimate D2E/DX2                !
 ! D32   D(1,6,26,28)           -0.7667         estimate D2E/DX2                !
 ! D33   D(5,6,26,27)           -0.7924         estimate D2E/DX2                !
 ! D34   D(5,6,26,28)          179.187          estimate D2E/DX2                !
 ! D35   D(13,7,11,2)         -179.938          estimate D2E/DX2                !
 ! D36   D(24,7,11,2)            0.0351         estimate D2E/DX2                !
 ! D37   D(11,7,13,12)          -1.5075         estimate D2E/DX2                !
 ! D38   D(11,7,13,14)         178.0809         estimate D2E/DX2                !
 ! D39   D(24,7,13,12)         178.5238         estimate D2E/DX2                !
 ! D40   D(24,7,13,14)          -1.8877         estimate D2E/DX2                !
 ! D41   D(11,7,24,1)            0.0106         estimate D2E/DX2                !
 ! D42   D(11,7,24,25)         179.5438         estimate D2E/DX2                !
 ! D43   D(13,7,24,1)          179.9822         estimate D2E/DX2                !
 ! D44   D(13,7,24,25)          -0.4846         estimate D2E/DX2                !
 ! D45   D(17,12,13,7)        -178.6564         estimate D2E/DX2                !
 ! D46   D(17,12,13,14)          1.7422         estimate D2E/DX2                !
 ! D47   D(22,12,13,7)           1.5907         estimate D2E/DX2                !
 ! D48   D(22,12,13,14)       -178.0106         estimate D2E/DX2                !
 ! D49   D(13,12,17,16)         -1.7822         estimate D2E/DX2                !
 ! D50   D(13,12,17,21)        178.512          estimate D2E/DX2                !
 ! D51   D(22,12,17,16)        177.9725         estimate D2E/DX2                !
 ! D52   D(22,12,17,21)         -1.7333         estimate D2E/DX2                !
 ! D53   D(13,12,22,23)         -0.7664         estimate D2E/DX2                !
 ! D54   D(17,12,22,23)        179.4785         estimate D2E/DX2                !
 ! D55   D(7,13,14,15)         179.9641         estimate D2E/DX2                !
 ! D56   D(7,13,14,18)          -0.1889         estimate D2E/DX2                !
 ! D57   D(12,13,14,15)         -0.4537         estimate D2E/DX2                !
 ! D58   D(12,13,14,18)        179.3933         estimate D2E/DX2                !
 ! D59   D(13,14,15,16)         -0.6945         estimate D2E/DX2                !
 ! D60   D(13,14,15,20)        178.7407         estimate D2E/DX2                !
 ! D61   D(18,14,15,16)        179.4595         estimate D2E/DX2                !
 ! D62   D(18,14,15,20)         -1.1054         estimate D2E/DX2                !
 ! D63   D(14,15,16,17)          0.6179         estimate D2E/DX2                !
 ! D64   D(14,15,16,19)       -179.2893         estimate D2E/DX2                !
 ! D65   D(20,15,16,17)       -178.8427         estimate D2E/DX2                !
 ! D66   D(20,15,16,19)          1.2502         estimate D2E/DX2                !
 ! D67   D(14,15,20,58)        123.101          estimate D2E/DX2                !
 ! D68   D(14,15,20,62)          2.2796         estimate D2E/DX2                !
 ! D69   D(14,15,20,66)       -118.1296         estimate D2E/DX2                !
 ! D70   D(16,15,20,58)        -57.4632         estimate D2E/DX2                !
 ! D71   D(16,15,20,62)       -178.2846         estimate D2E/DX2                !
 ! D72   D(16,15,20,66)         61.3063         estimate D2E/DX2                !
 ! D73   D(15,16,17,12)          0.6298         estimate D2E/DX2                !
 ! D74   D(15,16,17,21)       -179.6685         estimate D2E/DX2                !
 ! D75   D(19,16,17,12)       -179.464          estimate D2E/DX2                !
 ! D76   D(19,16,17,21)          0.2377         estimate D2E/DX2                !
 ! D77   D(12,17,21,46)        -59.6719         estimate D2E/DX2                !
 ! D78   D(12,17,21,50)       -178.8667         estimate D2E/DX2                !
 ! D79   D(12,17,21,54)         61.6174         estimate D2E/DX2                !
 ! D80   D(16,17,21,46)        120.6402         estimate D2E/DX2                !
 ! D81   D(16,17,21,50)          1.4455         estimate D2E/DX2                !
 ! D82   D(16,17,21,54)       -118.0704         estimate D2E/DX2                !
 ! D83   D(15,20,58,59)         59.2649         estimate D2E/DX2                !
 ! D84   D(15,20,58,60)        178.6752         estimate D2E/DX2                !
 ! D85   D(15,20,58,61)        -61.9874         estimate D2E/DX2                !
 ! D86   D(62,20,58,59)       -177.6846         estimate D2E/DX2                !
 ! D87   D(62,20,58,60)        -58.2744         estimate D2E/DX2                !
 ! D88   D(62,20,58,61)         61.063          estimate D2E/DX2                !
 ! D89   D(66,20,58,59)        -58.8979         estimate D2E/DX2                !
 ! D90   D(66,20,58,60)         60.5124         estimate D2E/DX2                !
 ! D91   D(66,20,58,61)        179.8498         estimate D2E/DX2                !
 ! D92   D(15,20,62,63)        -61.0954         estimate D2E/DX2                !
 ! D93   D(15,20,62,64)         60.6792         estimate D2E/DX2                !
 ! D94   D(15,20,62,65)        179.8593         estimate D2E/DX2                !
 ! D95   D(58,20,62,63)        177.9404         estimate D2E/DX2                !
 ! D96   D(58,20,62,64)        -60.285          estimate D2E/DX2                !
 ! D97   D(58,20,62,65)         58.8951         estimate D2E/DX2                !
 ! D98   D(66,20,62,63)         58.9459         estimate D2E/DX2                !
 ! D99   D(66,20,62,64)       -179.2795         estimate D2E/DX2                !
 ! D100  D(66,20,62,65)        -60.0994         estimate D2E/DX2                !
 ! D101  D(15,20,66,67)       -178.4199         estimate D2E/DX2                !
 ! D102  D(15,20,66,68)        -58.8711         estimate D2E/DX2                !
 ! D103  D(15,20,66,69)         62.2365         estimate D2E/DX2                !
 ! D104  D(58,20,66,67)        -59.7653         estimate D2E/DX2                !
 ! D105  D(58,20,66,68)         59.7835         estimate D2E/DX2                !
 ! D106  D(58,20,66,69)       -179.1089         estimate D2E/DX2                !
 ! D107  D(62,20,66,67)         58.96           estimate D2E/DX2                !
 ! D108  D(62,20,66,68)        178.5088         estimate D2E/DX2                !
 ! D109  D(62,20,66,69)        -60.3836         estimate D2E/DX2                !
 ! D110  D(17,21,46,47)         62.0505         estimate D2E/DX2                !
 ! D111  D(17,21,46,48)       -178.1424         estimate D2E/DX2                !
 ! D112  D(17,21,46,49)        -59.3025         estimate D2E/DX2                !
 ! D113  D(50,21,46,47)       -176.8364         estimate D2E/DX2                !
 ! D114  D(50,21,46,48)        -57.0293         estimate D2E/DX2                !
 ! D115  D(50,21,46,49)         61.8106         estimate D2E/DX2                !
 ! D116  D(54,21,46,47)        -59.0176         estimate D2E/DX2                !
 ! D117  D(54,21,46,48)         60.7895         estimate D2E/DX2                !
 ! D118  D(54,21,46,49)        179.6294         estimate D2E/DX2                !
 ! D119  D(17,21,50,51)        179.032          estimate D2E/DX2                !
 ! D120  D(17,21,50,52)        -61.7665         estimate D2E/DX2                !
 ! D121  D(17,21,50,53)         59.9911         estimate D2E/DX2                !
 ! D122  D(46,21,50,51)         58.6166         estimate D2E/DX2                !
 ! D123  D(46,21,50,52)        177.818          estimate D2E/DX2                !
 ! D124  D(46,21,50,53)        -60.4244         estimate D2E/DX2                !
 ! D125  D(54,21,50,51)        -60.4823         estimate D2E/DX2                !
 ! D126  D(54,21,50,52)         58.7192         estimate D2E/DX2                !
 ! D127  D(54,21,50,53)       -179.5232         estimate D2E/DX2                !
 ! D128  D(17,21,54,55)        -63.4534         estimate D2E/DX2                !
 ! D129  D(17,21,54,56)         57.6461         estimate D2E/DX2                !
 ! D130  D(17,21,54,57)        176.6179         estimate D2E/DX2                !
 ! D131  D(46,21,54,55)         57.6773         estimate D2E/DX2                !
 ! D132  D(46,21,54,56)        178.7768         estimate D2E/DX2                !
 ! D133  D(46,21,54,57)        -62.2514         estimate D2E/DX2                !
 ! D134  D(50,21,54,55)        175.3028         estimate D2E/DX2                !
 ! D135  D(50,21,54,56)        -63.5977         estimate D2E/DX2                !
 ! D136  D(50,21,54,57)         55.3741         estimate D2E/DX2                !
 ! D137  D(6,26,28,29)        -179.9768         estimate D2E/DX2                !
 ! D138  D(27,26,28,29)          0.001          estimate D2E/DX2                !
 ! D139  D(26,28,29,30)        -66.8418         estimate D2E/DX2                !
 ! D140  D(26,28,29,31)         58.4154         estimate D2E/DX2                !
 ! D141  D(26,28,29,32)        176.0621         estimate D2E/DX2                !
 ! D142  D(28,29,30,33)       -176.3389         estimate D2E/DX2                !
 ! D143  D(28,29,30,34)         63.0975         estimate D2E/DX2                !
 ! D144  D(28,29,30,35)        -53.7406         estimate D2E/DX2                !
 ! D145  D(31,29,30,33)         57.0112         estimate D2E/DX2                !
 ! D146  D(31,29,30,34)        -63.5524         estimate D2E/DX2                !
 ! D147  D(31,29,30,35)        179.6096         estimate D2E/DX2                !
 ! D148  D(32,29,30,33)        -60.3456         estimate D2E/DX2                !
 ! D149  D(32,29,30,34)        179.0908         estimate D2E/DX2                !
 ! D150  D(32,29,30,35)         62.2528         estimate D2E/DX2                !
 ! D151  D(28,29,31,36)        176.632          estimate D2E/DX2                !
 ! D152  D(28,29,31,37)        -63.2449         estimate D2E/DX2                !
 ! D153  D(28,29,31,38)         53.7316         estimate D2E/DX2                !
 ! D154  D(30,29,31,36)        -57.3258         estimate D2E/DX2                !
 ! D155  D(30,29,31,37)         62.7973         estimate D2E/DX2                !
 ! D156  D(30,29,31,38)        179.7738         estimate D2E/DX2                !
 ! D157  D(32,29,31,36)         60.046          estimate D2E/DX2                !
 ! D158  D(32,29,31,37)       -179.8309         estimate D2E/DX2                !
 ! D159  D(32,29,31,38)        -62.8544         estimate D2E/DX2                !
 ! D160  D(29,30,33,39)        -56.1546         estimate D2E/DX2                !
 ! D161  D(29,30,33,40)       -179.1592         estimate D2E/DX2                !
 ! D162  D(29,30,33,41)         64.2347         estimate D2E/DX2                !
 ! D163  D(34,30,33,39)         63.6406         estimate D2E/DX2                !
 ! D164  D(34,30,33,40)        -59.364          estimate D2E/DX2                !
 ! D165  D(34,30,33,41)       -175.9702         estimate D2E/DX2                !
 ! D166  D(35,30,33,39)       -178.0564         estimate D2E/DX2                !
 ! D167  D(35,30,33,40)         58.939          estimate D2E/DX2                !
 ! D168  D(35,30,33,41)        -57.6672         estimate D2E/DX2                !
 ! D169  D(29,31,36,39)         56.5821         estimate D2E/DX2                !
 ! D170  D(29,31,36,42)        179.176          estimate D2E/DX2                !
 ! D171  D(29,31,36,43)        -64.0295         estimate D2E/DX2                !
 ! D172  D(37,31,36,39)        -63.4582         estimate D2E/DX2                !
 ! D173  D(37,31,36,42)         59.1357         estimate D2E/DX2                !
 ! D174  D(37,31,36,43)        175.9302         estimate D2E/DX2                !
 ! D175  D(38,31,36,39)        178.6086         estimate D2E/DX2                !
 ! D176  D(38,31,36,42)        -58.7975         estimate D2E/DX2                !
 ! D177  D(38,31,36,43)         57.997          estimate D2E/DX2                !
 ! D178  D(30,33,39,36)         55.2343         estimate D2E/DX2                !
 ! D179  D(30,33,39,44)        177.9584         estimate D2E/DX2                !
 ! D180  D(30,33,39,45)        -64.9236         estimate D2E/DX2                !
 ! D181  D(40,33,39,36)        177.9639         estimate D2E/DX2                !
 ! D182  D(40,33,39,44)        -59.3121         estimate D2E/DX2                !
 ! D183  D(40,33,39,45)         57.8059         estimate D2E/DX2                !
 ! D184  D(41,33,39,36)        -64.9963         estimate D2E/DX2                !
 ! D185  D(41,33,39,44)         57.7277         estimate D2E/DX2                !
 ! D186  D(41,33,39,45)        174.8457         estimate D2E/DX2                !
 ! D187  D(31,36,39,33)        -55.3529         estimate D2E/DX2                !
 ! D188  D(31,36,39,44)       -178.0811         estimate D2E/DX2                !
 ! D189  D(31,36,39,45)         64.8572         estimate D2E/DX2                !
 ! D190  D(42,36,39,33)       -177.5208         estimate D2E/DX2                !
 ! D191  D(42,36,39,44)         59.751          estimate D2E/DX2                !
 ! D192  D(42,36,39,45)        -57.3107         estimate D2E/DX2                !
 ! D193  D(43,36,39,33)         65.2066         estimate D2E/DX2                !
 ! D194  D(43,36,39,44)        -57.5216         estimate D2E/DX2                !
 ! D195  D(43,36,39,45)       -174.5833         estimate D2E/DX2                !
 --------------------------------------------------------------------------------
 Trust Radius=3.00D-01 FncErr=1.00D-07 GrdErr=1.00D-07 EigMax=2.50D+02 EigMin=1.00D-04
 Number of steps in this run=    409 maximum allowed number of steps=    414.
 GradGradGradGradGradGradGradGradGradGradGradGradGradGradGradGradGradGrad

 Leave Link  103 at Fri Dec 21 18:09:52 2018, MaxMem=  1342177280 cpu:               0.5 elap:               0.1
 (Enter /gpfs/apps/hpc/Apps/Restricted/Gaussian/Rev_A.03/g16/l202.exe)
 Symmetry turned off by external request.
 Stoichiometry    C28H37N3O(1+,2)
 Framework group  C1[X(C28H37N3O)]
 Deg. of freedom   201
 Full point group                 C1      NOp   1
                          Input orientation:                          
 ---------------------------------------------------------------------
 Center     Atomic      Atomic             Coordinates (Angstroms)
 Number     Number       Type             X           Y           Z
 ---------------------------------------------------------------------
      1          6           0       -0.439440    2.706702    0.233437
      2          6           0       -1.853311    2.850428    0.181340
      3          6           0       -2.429226    4.130552    0.090664
      4          6           0       -1.563901    5.212027    0.063520
      5          6           0       -0.157618    5.052289    0.121858
      6          6           0        0.445060    3.799185    0.207637
      7          6           0       -1.402749    0.722167    0.305223
      8          1           0       -3.503059    4.256798    0.044728
      9          1           0       -1.968018    6.214719   -0.002494
     10          1           0        0.472399    5.934041    0.100720
     11          7           0       -2.415280    1.603316    0.228748
     12          6           0       -2.999650   -1.174786    0.386006
     13          6           0       -1.621065   -0.695104    0.370601
     14          6           0       -0.574464   -1.613381    0.410639
     15          6           0       -0.831237   -2.980675    0.474553
     16          6           0       -2.191578   -3.420842    0.513391
     17          6           0       -3.278998   -2.583328    0.479802
     18          1           0        0.445112   -1.255711    0.389146
     19          1           0       -2.365061   -4.484469    0.574653
     20          6           0        0.269738   -4.027582    0.492357
     21          6           0       -4.717358   -3.103367    0.531321
     22          8           0       -3.988374   -0.329443    0.309942
     23          1           0       -3.605028    0.640678    0.257613
     24          7           0       -0.193794    1.365944    0.309553
     25          1           0        0.759381    1.012910    0.363181
     26          6           0        1.893310    3.609600    0.268696
     27          1           0        2.499635    4.519893    0.229757
     28          7           0        2.395102    2.434920    0.362530
     29          6           0        3.858521    2.306049    0.420645
     30          6           0        4.523200    2.728347   -0.900440
     31          6           0        4.480820    3.069454    1.601497
     32          1           0        4.060451    1.239359    0.569807
     33          6           0        6.037375    2.498321   -0.842440
     34          1           0        4.315097    3.791488   -1.070852
     35          1           0        4.076671    2.173459   -1.730843
     36          6           0        5.994034    2.833810    1.663334
     37          1           0        4.288400    4.141430    1.475245
     38          1           0        3.996318    2.762428    2.532841
     39          6           0        6.669576    3.231840    0.345642
     40          1           0        6.501609    2.815720   -1.780936
     41          1           0        6.229190    1.422408   -0.744130
     42          1           0        6.422655    3.395072    2.499215
     43          1           0        6.185828    1.772057    1.862442
     44          1           0        7.743456    3.026819    0.391654
     45          1           0        6.557747    4.313665    0.199753
     46          6           0       -5.445873   -2.513320    1.759564
     47          1           0       -5.512598   -1.427384    1.707410
     48          1           0       -6.459874   -2.919027    1.801482
     49          1           0       -4.930297   -2.789100    2.682986
     50          6           0       -4.745119   -4.634511    0.658226
     51          1           0       -5.784161   -4.965060    0.709220
     52          1           0       -4.278356   -5.125191   -0.199970
     53          1           0       -4.238938   -4.972103    1.566425
     54          6           0       -5.460758   -2.714377   -0.765995
     55          1           0       -5.548313   -1.633984   -0.873552
     56          1           0       -4.938023   -3.110790   -1.640021
     57          1           0       -6.466519   -3.141702   -0.745004
     58          6           0        0.115348   -4.901007    1.758254
     59          1           0       -0.853380   -5.403221    1.792669
     60          1           0        0.893241   -5.668761    1.758513
     61          1           0        0.224080   -4.298236    2.662557
     62          6           0        1.671192   -3.405321    0.488863
     63          1           0        1.842969   -2.805151   -0.407908
     64          1           0        1.833030   -2.775727    1.367253
     65          1           0        2.417216   -4.202656    0.504637
     66          6           0        0.113216   -4.917393   -0.763085
     67          1           0        0.882649   -5.693537   -0.748728
     68          1           0       -0.862473   -5.406452   -0.794656
     69          1           0        0.233535   -4.328006   -1.674794
 ---------------------------------------------------------------------
 Rotational constants (GHZ):           0.1858616           0.0709367           0.0536846
 Leave Link  202 at Fri Dec 21 18:09:52 2018, MaxMem=  1342177280 cpu:               1.1 elap:               0.1
 (Enter /gpfs/apps/hpc/Apps/Restricted/Gaussian/Rev_A.03/g16/l716.exe)
 Electric field and nuclear coordinate derivatives read from checkpoint file.
 Dipole        =-8.48959112D-01-1.26296635D-01 6.84193142D-01
 Polarizability= 5.76459526D+02 9.07518007D+01 1.06271985D+03
                 7.47003575D-01-3.66559909D+01 2.65724538D+02
 Full mass-weighted force constant matrix:
 Low frequencies ---   -6.9447   -0.0024   -0.0011    0.0026    7.9621   13.4183
 Low frequencies ---   27.2978   28.7840   51.8540
 Diagonal vibrational polarizability:
       83.0229572     362.5353506      38.8090075
 Harmonic frequencies (cm**-1), IR intensities (KM/Mole), Raman scattering
 activities (A**4/AMU), depolarization ratios for plane and unpolarized
 incident light, reduced masses (AMU), force constants (mDyne/A),
 and normal coordinates:
                      1                      2                      3
                      A                      A                      A
 Frequencies --     24.0421                28.2100                51.8214
 Red. masses --      4.1669                 4.5613                 4.1100
 Frc consts  --      0.0014                 0.0021                 0.0065
 IR Inten    --      0.0739                 2.5116                 0.2736
  Atom  AN      X      Y      Z        X      Y      Z        X      Y      Z
     1   6    -0.01   0.01   0.06     0.04  -0.05   0.02     0.00   0.00  -0.02
     2   6    -0.01   0.01   0.08     0.04  -0.04   0.01     0.00   0.00   0.01
     3   6    -0.00   0.01   0.09     0.03  -0.05   0.01     0.00  -0.00  -0.05
     4   6    -0.00   0.01   0.07     0.03  -0.04   0.00     0.00  -0.01  -0.14
     5   6     0.00   0.01   0.04     0.03  -0.04   0.01     0.00  -0.01  -0.16
     6   6    -0.00   0.00   0.03     0.03  -0.04   0.01     0.00  -0.00  -0.10
     7   6    -0.01   0.01   0.07     0.03  -0.05   0.02     0.00   0.01   0.09
     8   1    -0.00   0.02   0.10     0.03  -0.05   0.01    -0.00  -0.01  -0.04
     9   1     0.00   0.01   0.08     0.03  -0.04  -0.00     0.00  -0.01  -0.20
    10   1     0.00   0.00   0.03     0.03  -0.04   0.00     0.00  -0.01  -0.23
    11   7    -0.01   0.01   0.08     0.03  -0.04   0.01     0.00   0.00   0.08
    12   6    -0.00   0.00   0.01    -0.01  -0.02   0.00     0.00   0.01   0.12
    13   6    -0.00   0.01   0.06     0.00  -0.05   0.01     0.00   0.01   0.11
    14   6     0.00   0.02   0.09    -0.02  -0.07   0.02     0.00   0.00   0.08
    15   6     0.01   0.01   0.07    -0.05  -0.07   0.01    -0.00   0.00   0.03
    16   6     0.01   0.01   0.00    -0.06  -0.04  -0.00    -0.00   0.00   0.00
    17   6     0.00  -0.00  -0.04    -0.04  -0.01  -0.01    -0.00   0.00   0.04
    18   1    -0.00   0.02   0.13    -0.01  -0.09   0.03     0.00   0.00   0.08
    19   1     0.01   0.00  -0.02    -0.08  -0.03  -0.01     0.00  -0.00  -0.05
    20   6     0.01   0.02   0.11    -0.08  -0.09   0.02    -0.00  -0.00  -0.03
    21   6     0.00  -0.01  -0.12    -0.05   0.02  -0.02    -0.00  -0.00  -0.00
    22   8    -0.00   0.00  -0.00     0.01  -0.00  -0.01    -0.00   0.01   0.18
    23   1    -0.00   0.00   0.03     0.03  -0.00   0.00    -0.00   0.01   0.16
    24   7    -0.01   0.01   0.06     0.03  -0.05   0.02     0.00   0.00   0.04
    25   1    -0.00   0.01   0.03     0.02  -0.07   0.02     0.00   0.01   0.03
    26   6    -0.00  -0.01  -0.01     0.03  -0.01   0.00     0.00   0.00  -0.10
    27   1     0.00  -0.01  -0.04     0.00   0.01  -0.01     0.01  -0.00  -0.13
    28   7    -0.01  -0.01  -0.02     0.07   0.01   0.01    -0.00   0.00  -0.04
    29   6    -0.01  -0.02  -0.06     0.08   0.08  -0.01    -0.00   0.00  -0.01
    30   6    -0.03  -0.01  -0.07     0.05   0.12  -0.01     0.04  -0.01   0.00
    31   6     0.02  -0.03  -0.07     0.06   0.10  -0.01    -0.04   0.02  -0.00
    32   1    -0.01  -0.02  -0.08     0.14   0.09  -0.02    -0.01   0.00   0.00
    33   6    -0.03  -0.01  -0.11     0.06   0.20  -0.03     0.03  -0.02   0.05
    34   1    -0.03  -0.00  -0.06     0.00   0.11   0.00     0.05  -0.01  -0.02
    35   1    -0.06   0.00  -0.07     0.07   0.11  -0.01     0.06  -0.02  -0.00
    36   6     0.02  -0.04  -0.10     0.07   0.17  -0.03    -0.04   0.02   0.05
    37   1     0.03  -0.03  -0.05     0.01   0.09   0.00    -0.04   0.01  -0.02
    38   1     0.04  -0.04  -0.06     0.08   0.07  -0.01    -0.06   0.02  -0.01
    39   6    -0.01  -0.03  -0.11     0.04   0.22  -0.03     0.00  -0.00   0.06
    40   1    -0.05  -0.00  -0.11     0.04   0.22  -0.03     0.06  -0.03   0.06
    41   1    -0.03  -0.01  -0.12     0.12   0.20  -0.04     0.03  -0.02   0.07
    42   1     0.05  -0.05  -0.11     0.06   0.18  -0.03    -0.06   0.04   0.05
    43   1     0.02  -0.04  -0.12     0.13   0.18  -0.04    -0.04   0.03   0.07
    44   1    -0.01  -0.03  -0.14     0.05   0.28  -0.05     0.00  -0.01   0.10
    45   1    -0.01  -0.02  -0.10    -0.03   0.21  -0.02     0.02  -0.00   0.04
    46   6    -0.07  -0.04  -0.16    -0.05   0.04  -0.03    -0.02  -0.09   0.03
    47   1    -0.11  -0.04  -0.16    -0.04   0.04  -0.03    -0.04  -0.09   0.09
    48   1    -0.06  -0.08  -0.20    -0.06   0.05  -0.04    -0.00  -0.12   0.01
    49   1    -0.10  -0.02  -0.13    -0.07   0.03  -0.02    -0.01  -0.13   0.01
    50   6     0.01  -0.01  -0.14    -0.09   0.02  -0.01     0.00  -0.01  -0.12
    51   1     0.01  -0.03  -0.21    -0.10   0.04  -0.02     0.00  -0.02  -0.15
    52   1     0.06   0.00  -0.12    -0.09   0.01  -0.01     0.01   0.05  -0.15
    53   1    -0.04  -0.02  -0.12    -0.10   0.01  -0.01    -0.00  -0.08  -0.14
    54   6     0.08   0.00  -0.16    -0.03   0.03  -0.03     0.01   0.08   0.01
    55   1     0.08   0.00  -0.15    -0.01   0.03  -0.03     0.00   0.09   0.09
    56   1     0.13   0.02  -0.14    -0.03   0.02  -0.02     0.03   0.15  -0.01
    57   1     0.08  -0.00  -0.22    -0.04   0.05  -0.04     0.02   0.07  -0.03
    58   6    -0.04  -0.01   0.08    -0.11  -0.10   0.01    -0.03  -0.13  -0.13
    59   1    -0.04  -0.01   0.03    -0.12  -0.08  -0.00    -0.04  -0.11  -0.18
    60   1    -0.04  -0.00   0.10    -0.12  -0.11   0.01    -0.05  -0.15  -0.21
    61   1    -0.09  -0.02   0.10    -0.10  -0.10   0.01    -0.01  -0.24  -0.06
    62   6     0.01   0.03   0.19    -0.06  -0.13   0.03    -0.00  -0.00   0.06
    63   1     0.05   0.03   0.20    -0.04  -0.12   0.03     0.03   0.06   0.11
    64   1    -0.05   0.03   0.20    -0.05  -0.14   0.03    -0.03  -0.07   0.11
    65   1     0.01   0.04   0.23    -0.08  -0.14   0.03    -0.00  -0.01   0.03
    66   6     0.08   0.04   0.08    -0.09  -0.08   0.01     0.02   0.12  -0.12
    67   1     0.09   0.05   0.10    -0.11  -0.10   0.01     0.02   0.12  -0.19
    68   1     0.09   0.03   0.03    -0.10  -0.06  -0.00     0.02   0.12  -0.18
    69   1     0.11   0.06   0.10    -0.07  -0.08   0.01     0.02   0.21  -0.06
                      4                      5                      6
                      A                      A                      A
 Frequencies --     61.1337                63.8879                77.8785
 Red. masses --      3.8982                 3.6536                 3.0756
 Frc consts  --      0.0086                 0.0088                 0.0110
 IR Inten    --      0.0495                 0.1205                 0.2237
  Atom  AN      X      Y      Z        X      Y      Z        X      Y      Z
     1   6    -0.00   0.01   0.05     0.00  -0.01  -0.07    -0.00   0.01   0.00
     2   6     0.00  -0.00  -0.06    -0.00   0.00  -0.01    -0.00  -0.00   0.04
     3   6     0.00  -0.01  -0.14    -0.00   0.01   0.10    -0.02  -0.01   0.06
     4   6    -0.00  -0.00  -0.10    -0.00   0.01   0.14    -0.04  -0.00   0.03
     5   6    -0.01   0.01   0.01     0.00   0.00   0.08    -0.03   0.01  -0.01
     6   6    -0.01   0.01   0.09     0.00  -0.01  -0.03    -0.02   0.02  -0.02
     7   6     0.01   0.00   0.00    -0.00  -0.01  -0.10     0.02  -0.00   0.03
     8   1     0.00  -0.02  -0.23    -0.00   0.01   0.15    -0.02  -0.02   0.09
     9   1    -0.01  -0.01  -0.16    -0.00   0.01   0.23    -0.05  -0.01   0.05
    10   1    -0.01   0.01   0.03     0.00   0.00   0.12    -0.04   0.02  -0.03
    11   7     0.01  -0.01  -0.08    -0.00  -0.00  -0.04     0.01  -0.01   0.05
    12   6     0.01  -0.00  -0.04    -0.00  -0.00  -0.05     0.02   0.00   0.01
    13   6     0.01   0.00   0.00    -0.00  -0.00  -0.09     0.03  -0.00   0.03
    14   6     0.01   0.00   0.03    -0.00  -0.00  -0.06     0.02  -0.01   0.04
    15   6     0.01   0.00   0.02    -0.00   0.00  -0.00     0.01  -0.01   0.02
    16   6     0.01   0.00  -0.00    -0.00   0.00  -0.01     0.01  -0.00   0.04
    17   6     0.01   0.00  -0.01    -0.00  -0.00  -0.02     0.01   0.00   0.03
    18   1     0.01   0.00   0.06    -0.00  -0.00  -0.07     0.02  -0.02   0.04
    19   1     0.01   0.00  -0.00     0.00   0.00   0.01     0.00  -0.00   0.05
    20   6     0.00  -0.00  -0.00    -0.00   0.00   0.05    -0.00  -0.03  -0.03
    21   6     0.01   0.01   0.02     0.00   0.00   0.04     0.01   0.02   0.01
    22   8     0.01  -0.00  -0.10    -0.00  -0.00  -0.05     0.03  -0.00  -0.06
    23   1     0.01  -0.00  -0.12    -0.01  -0.00  -0.04     0.04   0.01  -0.03
    24   7     0.00   0.01   0.09    -0.00  -0.01  -0.13     0.01   0.01   0.01
    25   1     0.00   0.02   0.14    -0.00  -0.02  -0.16     0.02   0.02  -0.01
    26   6    -0.01   0.01   0.14     0.00  -0.01  -0.05    -0.01   0.03  -0.04
    27   1    -0.01   0.01   0.12    -0.00  -0.00   0.00    -0.02   0.04  -0.04
    28   7    -0.01   0.01   0.15     0.00  -0.01  -0.10    -0.01   0.03  -0.05
    29   6    -0.01   0.00   0.08     0.00  -0.00  -0.06    -0.02   0.02  -0.03
    30   6    -0.09  -0.02   0.03     0.05   0.02  -0.03     0.02  -0.01  -0.02
    31   6     0.07   0.01   0.04    -0.04  -0.01  -0.03    -0.03   0.04  -0.03
    32   1    -0.01   0.00   0.09     0.00  -0.00  -0.06    -0.03   0.03  -0.00
    33   6    -0.09  -0.02  -0.07     0.05   0.02   0.03     0.02  -0.05   0.03
    34   1    -0.10  -0.02   0.04     0.05   0.02  -0.02     0.05  -0.01  -0.04
    35   1    -0.16  -0.02   0.07     0.09   0.03  -0.05     0.03  -0.01  -0.02
    36   6     0.07  -0.01  -0.06    -0.04  -0.01   0.03    -0.04   0.01   0.02
    37   1     0.07   0.01   0.05    -0.04  -0.01  -0.02    -0.01   0.04  -0.05
    38   1     0.13   0.02   0.07    -0.07  -0.03  -0.05    -0.06   0.07  -0.03
    39   6    -0.02  -0.01  -0.11     0.01   0.01   0.06     0.01  -0.05   0.03
    40   1    -0.15  -0.02  -0.10     0.08   0.03   0.05     0.05  -0.08   0.03
    41   1    -0.08  -0.02  -0.08     0.05   0.02   0.02    -0.02  -0.05   0.05
    42   1     0.14  -0.02  -0.09    -0.08  -0.01   0.05    -0.05   0.02   0.02
    43   1     0.08  -0.01  -0.08    -0.04  -0.01   0.03    -0.07   0.01   0.06
    44   1    -0.01  -0.01  -0.18     0.00   0.01   0.10    -0.00  -0.09   0.07
    45   1    -0.03  -0.01  -0.11     0.01   0.01   0.07     0.05  -0.05   0.00
    46   6     0.05   0.04   0.03     0.07   0.00   0.08    -0.08   0.16  -0.10
    47   1     0.08   0.04   0.02     0.09   0.00   0.10    -0.09   0.15  -0.23
    48   1     0.04   0.07   0.06     0.06   0.03   0.11    -0.08   0.15  -0.13
    49   1     0.06   0.04   0.03     0.09  -0.03   0.05    -0.15   0.26  -0.04
    50   6     0.00   0.01   0.06     0.00   0.00   0.03    -0.01   0.03   0.19
    51   1     0.00   0.02   0.09     0.00   0.00   0.07    -0.01   0.05   0.20
    52   1    -0.02  -0.01   0.06    -0.03   0.01   0.01     0.01  -0.07   0.26
    53   1     0.03   0.03   0.05     0.03  -0.01   0.01    -0.03   0.14   0.25
    54   6    -0.03  -0.02   0.04    -0.06   0.00   0.08     0.11  -0.11  -0.08
    55   1    -0.03  -0.02   0.02    -0.07   0.00   0.08     0.15  -0.12  -0.20
    56   1    -0.05  -0.04   0.03    -0.11   0.01   0.05     0.16  -0.22  -0.00
    57   1    -0.03  -0.02   0.08    -0.06  -0.00   0.12     0.09  -0.08  -0.10
    58   6    -0.05  -0.13  -0.09    -0.11  -0.10  -0.04     0.01  -0.09  -0.07
    59   1    -0.06  -0.11  -0.16    -0.11  -0.09  -0.14    -0.00  -0.07  -0.07
    60   1    -0.07  -0.14  -0.16    -0.11  -0.10  -0.04    -0.01  -0.11  -0.14
    61   1    -0.05  -0.22  -0.03    -0.17  -0.17   0.02     0.06  -0.15  -0.04
    62   6     0.00  -0.01   0.12    -0.00   0.01   0.22     0.00  -0.04  -0.02
    63   1     0.06   0.04   0.16     0.11   0.01   0.25    -0.00  -0.00   0.01
    64   1    -0.05  -0.06   0.17    -0.13   0.01   0.24     0.02  -0.09   0.01
    65   1     0.00  -0.01   0.12    -0.00   0.01   0.31    -0.00  -0.05  -0.07
    66   6     0.05   0.11  -0.09     0.10   0.09  -0.03    -0.03   0.04  -0.07
    67   1     0.05   0.11  -0.14     0.10   0.09  -0.03    -0.03   0.04  -0.13
    68   1     0.05   0.11  -0.16     0.10   0.10  -0.13    -0.03   0.03  -0.06
    69   1     0.07   0.20  -0.03     0.16   0.16   0.02    -0.06   0.08  -0.04
                      7                      8                      9
                      A                      A                      A
 Frequencies --     78.6028                84.8384                98.2245
 Red. masses --      3.0421                 3.7704                 5.0172
 Frc consts  --      0.0111                 0.0160                 0.0285
 IR Inten    --      0.2297                 0.8942                 0.1130
  Atom  AN      X      Y      Z        X      Y      Z        X      Y      Z
     1   6     0.00   0.01  -0.01     0.00  -0.03  -0.01     0.00  -0.00  -0.10
     2   6    -0.00  -0.01   0.01     0.00   0.02   0.00     0.00  -0.00  -0.13
     3   6    -0.02  -0.02   0.04     0.05   0.04   0.02    -0.01  -0.00  -0.06
     4   6    -0.04  -0.00   0.05     0.10   0.01   0.03    -0.01   0.01   0.06
     5   6    -0.04   0.02   0.03     0.09  -0.04   0.02    -0.02   0.01   0.11
     6   6    -0.02   0.02   0.01     0.05  -0.06  -0.00    -0.01   0.01   0.03
     7   6     0.02  -0.01  -0.01    -0.07   0.01  -0.01     0.00  -0.01  -0.16
     8   1    -0.03  -0.03   0.06     0.06   0.08   0.03    -0.00  -0.01  -0.09
     9   1    -0.05  -0.01   0.07     0.13   0.03   0.04    -0.02   0.01   0.12
    10   1    -0.05   0.03   0.05     0.12  -0.06   0.03    -0.02   0.02   0.23
    11   7     0.01  -0.01   0.01    -0.04   0.04  -0.00     0.00  -0.01  -0.17
    12   6     0.02  -0.00  -0.01    -0.06  -0.00   0.01    -0.00   0.01   0.11
    13   6     0.02  -0.01  -0.02    -0.07   0.02  -0.00    -0.00  -0.00  -0.07
    14   6     0.02  -0.02  -0.03    -0.06   0.04  -0.01    -0.00  -0.00  -0.08
    15   6     0.00  -0.02  -0.02    -0.02   0.04   0.00    -0.00   0.00   0.05
    16   6     0.00  -0.01  -0.03    -0.02   0.01   0.02    -0.00   0.01   0.15
    17   6     0.01   0.00  -0.02    -0.04  -0.01   0.02    -0.00   0.01   0.13
    18   1     0.02  -0.02  -0.03    -0.06   0.06  -0.02    -0.00  -0.01  -0.20
    19   1    -0.01  -0.01  -0.03     0.01   0.01   0.02     0.00   0.01   0.20
    20   6    -0.01  -0.03   0.00     0.01   0.07  -0.02    -0.01  -0.00   0.02
    21   6     0.00   0.01  -0.02    -0.02  -0.05   0.01    -0.00  -0.01   0.02
    22   8     0.02   0.00   0.02    -0.08  -0.01   0.00    -0.01   0.01   0.23
    23   1     0.03   0.01   0.02    -0.10  -0.02   0.00    -0.01   0.00   0.11
    24   7     0.02   0.01  -0.03    -0.04  -0.03  -0.02     0.00  -0.00  -0.15
    25   1     0.02   0.02  -0.03    -0.06  -0.07  -0.01    -0.00  -0.01  -0.11
    26   6    -0.01   0.05   0.03     0.04  -0.10   0.00    -0.01   0.03   0.10
    27   1    -0.03   0.06   0.06     0.05  -0.11  -0.01    -0.02   0.04   0.19
    28   7    -0.00   0.05   0.02     0.03  -0.10   0.03     0.01   0.03   0.03
    29   6    -0.01   0.05   0.06     0.04  -0.07   0.04     0.01   0.04   0.03
    30   6     0.00  -0.15   0.00     0.03  -0.15   0.01    -0.02   0.05   0.02
    31   6     0.01   0.19  -0.04     0.01   0.03  -0.01     0.05   0.01   0.03
    32   1    -0.02   0.06   0.20     0.07  -0.06   0.12     0.01   0.03   0.02
    33   6    -0.01  -0.19   0.03     0.04  -0.03   0.03    -0.02   0.01  -0.03
    34   1     0.03  -0.16  -0.13    -0.04  -0.18  -0.08    -0.00   0.06   0.06
    35   1    -0.01  -0.24   0.07     0.07  -0.25   0.05    -0.06   0.08   0.02
    36   6    -0.00   0.17  -0.01     0.03   0.16  -0.01     0.04  -0.04  -0.02
    37   1     0.03   0.18  -0.18    -0.06   0.01  -0.06     0.09   0.02   0.04
    38   1     0.00   0.32  -0.00     0.05   0.04   0.02     0.06   0.02   0.03
    39   6     0.02  -0.05  -0.07    -0.02   0.13  -0.04     0.03  -0.04  -0.02
    40   1     0.01  -0.33  -0.01     0.01  -0.08  -0.00    -0.04   0.03  -0.03
    41   1    -0.04  -0.19   0.18     0.13  -0.01   0.13    -0.05   0.00  -0.07
    42   1     0.01   0.28  -0.09    -0.01   0.25  -0.04     0.09  -0.08  -0.01
    43   1    -0.03   0.19   0.15     0.13   0.18   0.06     0.01  -0.06  -0.04
    44   1     0.01  -0.09  -0.03     0.00   0.25  -0.04     0.02  -0.09  -0.05
    45   1     0.06  -0.07  -0.22    -0.14   0.11  -0.12     0.07  -0.03   0.00
    46   6     0.03  -0.02   0.01    -0.08  -0.04  -0.03    -0.15  -0.06  -0.05
    47   1     0.04  -0.01   0.05    -0.12  -0.04  -0.07    -0.22  -0.06  -0.06
    48   1     0.03  -0.01   0.02    -0.06  -0.07  -0.04    -0.12  -0.13  -0.13
    49   1     0.05  -0.05  -0.01    -0.09   0.01  -0.01    -0.21  -0.02  -0.00
    50   6    -0.01   0.01  -0.07     0.02  -0.05   0.06     0.01  -0.02  -0.03
    51   1    -0.01   0.02  -0.07     0.03  -0.08   0.06     0.01  -0.03  -0.12
    52   1    -0.02   0.03  -0.09     0.05  -0.06   0.08     0.09   0.02  -0.00
    53   1    -0.01  -0.02  -0.08     0.02  -0.00   0.08    -0.06  -0.03   0.01
    54   6    -0.01   0.06   0.00     0.00  -0.11  -0.02     0.14   0.01  -0.05
    55   1    -0.01   0.06   0.04    -0.01  -0.12  -0.06     0.13   0.01  -0.03
    56   1    -0.03   0.09  -0.02     0.03  -0.14   0.01     0.25   0.05  -0.01
    57   1    -0.01   0.06   0.01     0.01  -0.13  -0.03     0.14  -0.01  -0.18
    58   6    -0.03  -0.01   0.01     0.04   0.04  -0.04     0.02  -0.05  -0.01
    59   1    -0.03  -0.01   0.00     0.05   0.02  -0.04     0.01  -0.04   0.00
    60   1    -0.03  -0.01   0.04     0.06   0.06  -0.07     0.01  -0.06  -0.07
    61   1    -0.04   0.00   0.00     0.05   0.02  -0.03     0.06  -0.09   0.01
    62   6    -0.00  -0.05   0.01    -0.01   0.12  -0.01    -0.01  -0.01   0.00
    63   1     0.01  -0.06   0.00    -0.03   0.13  -0.01    -0.01  -0.02  -0.00
    64   1     0.00  -0.04   0.00    -0.03   0.12  -0.01    -0.00  -0.00  -0.01
    65   1    -0.01  -0.06   0.02     0.01   0.14  -0.02    -0.01  -0.02   0.00
    66   6    -0.01  -0.05   0.01     0.03   0.10  -0.04    -0.05   0.04  -0.01
    67   1    -0.02  -0.06   0.04     0.06   0.13  -0.08    -0.05   0.04  -0.06
    68   1    -0.01  -0.03   0.00     0.05   0.07  -0.04    -0.05   0.04   0.01
    69   1     0.02  -0.07   0.00    -0.01   0.14  -0.03    -0.08   0.07   0.01
                     10                     11                     12
                      A                      A                      A
 Frequencies --    104.8437               116.6616               143.2278
 Red. masses --      3.7378                 3.6321                 3.8454
 Frc consts  --      0.0242                 0.0291                 0.0465
 IR Inten    --      2.2514                 1.2389                 0.2228
  Atom  AN      X      Y      Z        X      Y      Z        X      Y      Z
     1   6    -0.01  -0.01   0.03     0.00   0.00   0.01     0.01   0.06   0.00
     2   6    -0.02   0.00   0.01     0.00   0.00   0.03     0.01   0.07   0.01
     3   6    -0.02   0.00  -0.02     0.00   0.00   0.00     0.03   0.08   0.02
     4   6    -0.01  -0.00  -0.02     0.00  -0.00  -0.05     0.04   0.07   0.00
     5   6    -0.02  -0.01  -0.01     0.00  -0.00  -0.06     0.04   0.06  -0.02
     6   6    -0.01  -0.01   0.02     0.00   0.00  -0.02     0.02   0.05  -0.02
     7   6    -0.05  -0.00   0.02     0.00   0.00   0.02     0.00   0.06   0.00
     8   1    -0.02  -0.00  -0.03    -0.00  -0.00   0.01     0.03   0.09   0.04
     9   1    -0.01  -0.00  -0.05     0.00  -0.00  -0.09     0.05   0.07   0.00
    10   1    -0.02  -0.01  -0.02     0.00  -0.00  -0.10     0.05   0.05  -0.04
    11   7    -0.04   0.01   0.01     0.00   0.00   0.05     0.00   0.07   0.01
    12   6    -0.06  -0.02  -0.02    -0.00   0.01   0.05     0.00   0.04  -0.02
    13   6    -0.07   0.00   0.01     0.00  -0.00  -0.04     0.01   0.05  -0.01
    14   6    -0.06   0.01   0.02    -0.00  -0.01  -0.14     0.02   0.04  -0.01
    15   6    -0.04   0.01  -0.00    -0.00  -0.01  -0.17     0.01   0.04  -0.00
    16   6    -0.03  -0.01  -0.02    -0.00  -0.01  -0.18     0.02   0.06   0.02
    17   6    -0.04  -0.02  -0.02    -0.00  -0.00  -0.03     0.01   0.03  -0.00
    18   1    -0.06   0.02   0.04    -0.00  -0.01  -0.16     0.03   0.03  -0.01
    19   1    -0.01  -0.01  -0.02    -0.00  -0.01  -0.27     0.03   0.06   0.05
    20   6    -0.02   0.03  -0.00    -0.00  -0.01  -0.05    -0.08  -0.04   0.00
    21   6    -0.03  -0.07   0.00     0.00  -0.00   0.02     0.06  -0.08   0.01
    22   8    -0.07  -0.03  -0.05    -0.00   0.01   0.19    -0.00   0.03  -0.04
    23   1    -0.09  -0.04  -0.03    -0.01   0.01   0.17    -0.02   0.03  -0.03
    24   7    -0.04  -0.01   0.04     0.00   0.00   0.00     0.01   0.06  -0.00
    25   1    -0.06  -0.05   0.03     0.00  -0.00  -0.00     0.01   0.06   0.00
    26   6     0.01   0.05   0.01     0.00   0.01  -0.00     0.02   0.03  -0.03
    27   1    -0.04   0.09   0.03     0.00   0.00  -0.05     0.04   0.01  -0.08
    28   7     0.07   0.08  -0.01    -0.00   0.01   0.06    -0.01   0.02   0.02
    29   6     0.08   0.12  -0.02    -0.00   0.01   0.03    -0.01  -0.01   0.01
    30   6     0.10   0.13  -0.00    -0.02   0.02   0.03    -0.02  -0.02   0.01
    31   6     0.10   0.11  -0.03     0.02  -0.00   0.03    -0.01  -0.02   0.01
    32   1     0.09   0.12  -0.03    -0.00   0.01   0.03    -0.03  -0.01   0.01
    33   6     0.08  -0.03  -0.01    -0.02   0.01  -0.01    -0.02   0.00   0.00
    34   1     0.20   0.16   0.04    -0.02   0.02   0.04    -0.03  -0.02  -0.00
    35   1     0.06   0.21  -0.03    -0.05   0.03   0.03    -0.02  -0.03   0.01
    36   6     0.08  -0.04   0.01     0.03  -0.02  -0.00    -0.01  -0.00  -0.00
    37   1     0.20   0.13  -0.06     0.03  -0.00   0.04    -0.02  -0.02   0.03
    38   1     0.06   0.18  -0.03     0.04  -0.00   0.04     0.00  -0.04   0.01
    39   6     0.18  -0.15   0.02     0.00  -0.01  -0.01    -0.03   0.02  -0.00
    40   1     0.13  -0.05   0.01    -0.04   0.01  -0.01    -0.03   0.00  -0.00
    41   1    -0.04  -0.06  -0.05    -0.03   0.00  -0.02    -0.00   0.01   0.01
    42   1     0.13  -0.07   0.01     0.05  -0.03  -0.01    -0.01  -0.00   0.00
    43   1    -0.04  -0.06   0.04     0.02  -0.02  -0.02     0.01  -0.00  -0.01
    44   1     0.14  -0.34   0.05     0.00  -0.02  -0.04    -0.02   0.05  -0.02
    45   1     0.37  -0.13   0.03     0.01  -0.01  -0.00    -0.06   0.02  -0.00
    46   6    -0.03  -0.09   0.01    -0.03   0.05  -0.03     0.03  -0.15   0.01
    47   1    -0.05  -0.09   0.01    -0.09   0.04  -0.10    -0.04  -0.15   0.02
    48   1    -0.02  -0.10   0.02    -0.01  -0.00  -0.02     0.05  -0.21   0.01
    49   1    -0.01  -0.08   0.00    -0.04   0.12  -0.00     0.05  -0.12   0.01
    50   6     0.02  -0.07   0.01     0.01   0.00   0.11     0.19  -0.09   0.00
    51   1     0.03  -0.10   0.03     0.01   0.00   0.16     0.21  -0.17   0.01
    52   1     0.02  -0.07   0.01    -0.01  -0.06   0.14     0.21  -0.05  -0.01
    53   1     0.04  -0.05   0.01     0.03   0.07   0.12     0.21  -0.07  -0.00
    54   6    -0.07  -0.11   0.01     0.03  -0.07  -0.02     0.03  -0.15   0.01
    55   1    -0.09  -0.11   0.00     0.07  -0.07  -0.08    -0.03  -0.15   0.00
    56   1    -0.08  -0.11   0.01     0.02  -0.14   0.02     0.05  -0.13   0.01
    57   1    -0.06  -0.13   0.04     0.01  -0.02  -0.00     0.05  -0.20   0.02
    58   6    -0.00   0.03  -0.00    -0.14   0.08  -0.00    -0.16  -0.04   0.00
    59   1     0.01   0.02  -0.00    -0.11   0.03  -0.10    -0.19   0.02  -0.02
    60   1     0.01   0.04  -0.00    -0.09   0.12   0.18    -0.21  -0.09   0.01
    61   1    -0.01   0.04  -0.00    -0.31   0.17  -0.04    -0.14  -0.05   0.01
    62   6    -0.03   0.06  -0.00    -0.01   0.00   0.07    -0.03  -0.16  -0.00
    63   1    -0.04   0.07  -0.00     0.10  -0.06   0.05     0.00  -0.16   0.01
[...]
 ! A16   A(1,6,5)               -0.0266                  1.5                    !
 ! A18   A(5,6,26)               0.0285                  1.6                    !
 --------------------------------------------------------------------------------
                           ----------------------------
                           ! Normal Mode   197        !
 --------------------------                            --------------------------
 ! Name  Definition              Value          Relative Weight (%)             !
 --------------------------------------------------------------------------------
 ! R6    R(3,4)                 -0.03                    1.5                    !
 ! R7    R(3,8)                 -0.2966                 15.1                    !
 ! R8    R(4,5)                 -0.0513                  2.6                    !
 ! R9    R(4,9)                  1.0089                 51.4                    !
 ! R11   R(5,10)                 0.2586                 13.2                    !
 ! A7    A(2,3,4)               -0.0414                  2.1                    !
 ! A9    A(4,3,8)                0.0383                  2.0                    !
 ! A10   A(3,4,5)                0.0544                  2.8                    !
 ! A11   A(3,4,9)               -0.036                   1.8                    !
 --------------------------------------------------------------------------------
                           ----------------------------
                           ! Normal Mode   198        !
 --------------------------                            --------------------------
 ! Name  Definition              Value          Relative Weight (%)             !
 --------------------------------------------------------------------------------
 ! R4    R(2,3)                  0.0466                  2.6                    !
 ! R6    R(3,4)                  0.0612                  3.4                    !
 ! R7    R(3,8)                 -1.0431                 58.6                    !
 ! R9    R(4,9)                 -0.2939                 16.5                    !
 ! R11   R(5,10)                -0.0486                  2.7                    !
 ! A4    A(1,2,3)                0.0264                  1.5                    !
 ! A6    A(3,2,11)              -0.0286                  1.6                    !
 ! A7    A(2,3,4)               -0.0471                  2.6                    !
 ! A8    A(2,3,8)                0.0265                  1.5                    !
 ! A11   A(3,4,9)               -0.0234                  1.3                    !
 --------------------------------------------------------------------------------
                           ----------------------------
                           ! Normal Mode   199        !
 --------------------------                            --------------------------
 ! Name  Definition              Value          Relative Weight (%)             !
 --------------------------------------------------------------------------------
 ! R19   R(13,14)               -0.0447                  2.8                    !
 ! R20   R(14,15)               -0.0465                  2.9                    !
 ! R21   R(14,18)                1.0801                 66.8                    !
 ! R25   R(16,19)               -0.071                   4.4                    !
 ! A27   A(7,13,14)              0.0298                  1.8                    !
 ! A28   A(12,13,14)            -0.0278                  1.7                    !
 ! A29   A(13,14,15)             0.0568                  3.5                    !
 ! A30   A(13,14,18)            -0.0296                  1.8                    !
 ! A31   A(15,14,18)            -0.0273                  1.7                    !
 ! A32   A(14,15,16)            -0.0253                  1.6                    !
 ! A33   A(14,15,20)             0.0291                  1.8                    !
 --------------------------------------------------------------------------------
                           ----------------------------
                           ! Normal Mode   200        !
 --------------------------                            --------------------------
 ! Name  Definition              Value          Relative Weight (%)             !
 --------------------------------------------------------------------------------
 ! R21   R(14,18)               -0.0711                  4.1                    !
 ! R22   R(15,16)                0.0398                  2.3                    !
 ! R24   R(16,17)                0.0448                  2.6                    !
 ! R25   R(16,19)               -1.0782                 62.3                    !
 ! R59   R(50,52)               -0.0188                  1.1                    !
 ! R60   R(50,53)               -0.0187                  1.1                    !
 ! R64   R(58,59)               -0.0373                  2.2                    !
 ! R71   R(66,68)               -0.0316                  1.8                    !
 ! A32   A(14,15,16)             0.0297                  1.7                    !
 ! A34   A(16,15,20)            -0.0291                  1.7                    !
 ! A35   A(15,16,17)            -0.0571                  3.3                    !
 ! A36   A(15,16,19)             0.0277                  1.6                    !
 ! A37   A(17,16,19)             0.0294                  1.7                    !
 ! A38   A(12,17,16)             0.028                   1.6                    !
 ! A40   A(16,17,21)            -0.0298                  1.7                    !
 --------------------------------------------------------------------------------
                           ----------------------------
                           ! Normal Mode   201        !
 --------------------------                            --------------------------
 ! Name  Definition              Value          Relative Weight (%)             !
 --------------------------------------------------------------------------------
 ! R3    R(1,24)                -0.0424                  2.9                    !
 ! R15   R(7,24)                -0.0499                  3.4                    !
 ! R34   R(24,25)                1.071                  72.6                    !
 ! A2    A(2,1,24)              -0.0244                  1.7                    !
 ! A3    A(6,1,24)               0.025                   1.7                    !
 ! A20   A(11,7,24)             -0.0231                  1.6                    !
 ! A21   A(13,7,24)              0.0241                  1.6                    !
 ! A54   A(1,24,7)               0.0481                  3.3                    !
 ! A56   A(7,24,25)             -0.0588                  4.0                    !
 --------------------------------------------------------------------------------
 -------------------------------------------------------------------
 Center     Atomic                   Forces (Hartrees/Bohr)
 Number     Number              X              Y              Z
 -------------------------------------------------------------------
      1        6           0.000004838    0.000000306   -0.000006332
      2        6           0.000005206    0.000002701   -0.000009224
      3        6           0.000007272    0.000003264   -0.000012625
      4        6           0.000008990    0.000001853   -0.000013070
      5        6           0.000008669   -0.000000200   -0.000010219
      6        6           0.000006548   -0.000000938   -0.000006727
      7        6           0.000001902    0.000002106   -0.000004446
      8        1           0.000007532    0.000004825   -0.000014813
      9        1           0.000010648    0.000002373   -0.000015666
     10        1           0.000010024   -0.000001205   -0.000010703
     11        7           0.000003125    0.000003306   -0.000007790
     12        6          -0.000001484    0.000004629   -0.000003763
     13        6          -0.000000639    0.000002503   -0.000002178
     14        6          -0.000002135    0.000000997    0.000001479
     15        6          -0.000004343    0.000001533    0.000003515
     16        6          -0.000005108    0.000003670    0.000001893
     17        6          -0.000003820    0.000005303   -0.000001793
     18        1          -0.000001547   -0.000000645    0.000002615
     19        1          -0.000006907    0.000004106    0.000003566
     20        6          -0.000006021   -0.000000150    0.000007390
     21        6          -0.000004660    0.000007578   -0.000003294
     22        8           0.000000129    0.000006083   -0.000007041
     23        1           0.000001214    0.000005489   -0.000008402
     24        7           0.000002623    0.000000237   -0.000003417
     25        1           0.000001879   -0.000001109   -0.000001063
     26        6           0.000006115   -0.000003057   -0.000003933
     27        1           0.000007613   -0.000004106   -0.000004378
     28        7           0.000004153   -0.000003646   -0.000000682
     29        6           0.000003904   -0.000005851    0.000002169
     30        6           0.000006882   -0.000009300    0.000002591
     31        6           0.000002940   -0.000004568    0.000001918
     32        1           0.000001938   -0.000005864    0.000004559
     33        6           0.000006431   -0.000011529    0.000005813
     34        1           0.000008863   -0.000009309    0.000000264
     35        1           0.000007577   -0.000010144    0.000002868
     36        6           0.000002433   -0.000006790    0.000005107
     37        1           0.000004765   -0.000004487   -0.000000426
     38        1           0.000000701   -0.000002093    0.000001596
     39        6           0.000005430   -0.000010270    0.000005606
     40        1           0.000008657   -0.000013986    0.000006051
     41        1           0.000004624   -0.000011633    0.000008142
     42        1           0.000001751   -0.000005911    0.000004810
     43        1           0.000000421   -0.000006714    0.000007417
     44        1           0.000005004   -0.000011845    0.000007907
     45        1           0.000007361   -0.000010403    0.000003362
     46        6          -0.000005946    0.000011029   -0.000005755
     47        1          -0.000004174    0.000011040   -0.000007875
     48        1          -0.000006733    0.000012678   -0.000006855
     49        1          -0.000008117    0.000011909   -0.000004322
     50        6          -0.000007303    0.000007832   -0.000000502
     51        1          -0.000007850    0.000009578   -0.000001817
     52        1          -0.000006457    0.000005573    0.000001264
     53        1          -0.000009428    0.000008798    0.000001055
     54        6          -0.000001726    0.000006299   -0.000005365
     55        1           0.000000105    0.000006283   -0.000007553
     56        1          -0.000000717    0.000003924   -0.000003714
     57        1          -0.000002392    0.000007903   -0.000006445
     58        6          -0.000009696    0.000002455    0.000008844
     59        1          -0.000010521    0.000004004    0.000007961
     60        1          -0.000010846    0.000001219    0.000011644
     61        1          -0.000010386    0.000003964    0.000007871
     62        6          -0.000005086   -0.000002326    0.000008877
     63        1          -0.000002509   -0.000004242    0.000008028
     64        1          -0.000005689   -0.000000935    0.000007962
     65        1          -0.000006321   -0.000003436    0.000011695
     66        6          -0.000005100   -0.000002281    0.000008859
     67        1          -0.000006316   -0.000003379    0.000011647
     68        1          -0.000005719   -0.000000877    0.000007919
     69        1          -0.000002570   -0.000004126    0.000007927
 -------------------------------------------------------------------
 Cartesian Forces:  Max     0.000015666 RMS     0.000006388
 FormGI is forming the generalized inverse of G from B-inverse, IUseBI=4.
 GSVD:  received Info=                   1 from GESDD.
 Leave Link  716 at Fri Dec 21 18:09:53 2018, MaxMem=  1342177280 cpu:               6.2 elap:               0.4
 (Enter /gpfs/apps/hpc/Apps/Restricted/Gaussian/Rev_A.03/g16/l9999.exe)

 ----------------------------------------------------------------------

 Electric dipole moment (input orientation):
 (Debye = 10**-18 statcoulomb cm , SI units = C m)
                  (au)            (Debye)         (10**-30 SI)
   Tot        0.109764D+01      0.278991D+01      0.930614D+01
   x         -0.848959D+00     -0.215784D+01     -0.719778D+01
   y         -0.126297D+00     -0.321014D+00     -0.107079D+01
   z          0.684193D+00      0.173905D+01      0.580083D+01

 Dipole polarizability, Alpha (input orientation).
 (esu units = cm**3 , SI units = C**2 m**2 J**-1)
 Alpha(0;0):
               (au)            (10**-24 esu)      (10**-40 SI)
   iso        0.634968D+03      0.940925D+02      0.104692D+03
   aniso      0.716131D+03      0.106120D+03      0.118074D+03
   xx         0.576460D+03      0.854225D+02      0.950453D+02
   yx         0.907518D+02      0.134480D+02      0.149630D+02
   yy         0.106272D+04      0.157479D+03      0.175219D+03
   zx         0.747004D+00      0.110695D+00      0.123164D+00
   zy        -0.366560D+02     -0.543186D+01     -0.604376D+01
   zz         0.265725D+03      0.393763D+02      0.438121D+02

 ----------------------------------------------------------------------

 Dipole orientation:
     6         -0.46362208          5.16949317          0.32872078
     6         -2.24188813          5.57402802          2.30261222
     6         -3.19430355          8.01332983          2.75921218
     6         -2.31338661          9.94480442          1.22732906
     6         -0.53339359          9.51240139         -0.72463826
     6          0.44099978          7.11990648         -1.23199888
     6         -1.30266168          1.56525684          2.25276059
     1         -4.55597257          8.35121391          4.24716449
     1         -2.99600162         11.85167758          1.52220428
     1          0.09618801         11.09521720         -1.86209358
     7         -2.71402020          3.30507643          3.45099613
     6         -2.89371809         -1.80722680          5.09440844
     6         -1.32080502         -1.05432161          2.95702761
     6          0.08179999         -2.87518209          1.67414711
     6          0.01044817         -5.39742130          2.42203199
     6         -1.51053846         -6.07305803          4.55175933
     6         -2.94406104         -4.39794232          5.91945809
     1          1.23003536         -2.31509438          0.08085072
     1         -1.51783209         -8.03533651          5.10875453
     6          1.45876820         -7.46984249          1.06145779
     6         -4.53134186         -5.21244422          8.19552182
     8         -4.27235456         -0.13689797          6.26611932
     1         -3.99187922          1.63032216          5.43324137
     7          0.07966992          2.64759304          0.35087430
     1          1.33208973          1.89880968         -0.90235088
     6          2.27814342          6.62780417         -3.23561013
     1          2.85047796          8.26269917         -4.36561163
     7          3.13579492          4.39450283         -3.60308053
     6          4.98044627          4.01398684         -5.64553150
     6          3.79899268          4.44939389         -8.26499391
     6          7.36990448          5.63713868         -5.33011409
     1          5.54994080          2.02618799         -5.53303134
     6          5.71452462          3.87399692        -10.35977249
     1          3.19144100          6.42655923         -8.39273172
     1          2.10990202          3.27505933         -8.46985359
     6          9.29048061          5.05214765         -7.41774436
     1          6.84469740          7.63884053         -5.43067512
     1          8.18478558          5.31437682         -3.45814998
     6          8.12946219          5.44167975        -10.04381155
     1          4.86393028          4.21674522        -12.21279160
     1          6.19857846          1.85890409        -10.29038415
     1         10.96554719          6.24147514         -7.18164522
     1          9.92036888          3.08551128         -7.23267150
     1          9.49946086          4.95615803        -11.51461401
     1          7.67070663          7.44922322        -10.28743656
     6         -3.66664082         -3.76397387         10.57880494
     1         -3.93499633         -1.73301525         10.37877355
     1         -4.77339273         -4.41023153         12.19845733
     1         -1.67314055         -4.13349770         10.97293070
     6         -4.22036076         -8.05182001          8.71850907
     1         -5.35151732         -8.55264050         10.36911168
     1         -4.86685698         -9.20646771          7.13208521
     1         -2.25391935         -8.53953700          9.12187768
     6         -7.35492359         -4.68842384          7.66934439
     1         -7.72853968         -2.67774421          7.43570341
     1         -7.96752890         -5.67562560          5.96197032
     1         -8.48019171         -5.38060651          9.25700454
     6          3.21524680         -8.81566832          2.96816669
     1          2.16155033         -9.64913304          4.53379570
     1          4.22345441        -10.33521158          1.99844398
     1          4.60428034         -7.50052100          3.74338622
     6          3.06161124         -6.44947751         -1.12632046
     1          1.89370487         -5.53735636         -2.56422310
     1          4.47336696         -5.09519176         -0.46507780
     1          4.05753158         -8.01779118         -2.02475785
     6         -0.47078277         -9.39439152          0.00488482
     1          0.54880606        -10.92571899         -0.93404264
     1         -1.63059245        -10.21682592          1.50009875
     1         -1.72081184         -8.50039782         -1.37305687

 Electric dipole moment (dipole orientation):
 (Debye = 10**-18 statcoulomb cm , SI units = C m)
                  (au)            (Debye)         (10**-30 SI)
   Tot        0.109764D+01      0.278991D+01      0.930614D+01
   x          0.000000D+00      0.000000D+00      0.000000D+00
   y          0.000000D+00      0.000000D+00      0.000000D+00
   z          0.109764D+01      0.278991D+01      0.930614D+01

 Dipole polarizability, Alpha (dipole orientation).
 (esu units = cm**3 , SI units = C**2 m**2 J**-1)
 Alpha(0;0):
               (au)            (10**-24 esu)      (10**-40 SI)
   iso        0.634968D+03      0.940925D+02      0.104692D+03
   aniso      0.716131D+03      0.106120D+03      0.118074D+03
   xx         0.389589D+03      0.577312D+02      0.642346D+02
   yx        -0.248461D+02     -0.368182D+01     -0.409658D+01
   yy         0.103246D+04      0.152995D+03      0.170230D+03
   zx        -0.145126D+03     -0.215055D+02     -0.239281D+02
   zy        -0.169096D+03     -0.250575D+02     -0.278802D+02
   zz         0.482853D+03      0.715515D+02      0.796118D+02

 ----------------------------------------------------------------------

 This type of calculation cannot be archived.


 YE HAVE SOWN MUCH, AND BRING IN LITTLE.
 YE EAT, BUT YE HAVE NOT ENOUGH.
 YE DRINK, BUT YE ARE NOT FILLED WITH DRINK.
 YE CLOTHE YOU, BUT THERE IS NONE WARM.
 AND HE THAT EARNETH WAGES EARNETH WAGES TO PUT
 IT INTO A BAG WITH HOLES.
                                     HAGGAI I,6
 Job cpu time:       0 days  0 hours  0 minutes 22.0 seconds.
 Elapsed time:       0 days  0 hours  0 minutes  1.5 seconds.
 File lengths (MBytes):  RWF=     72 Int=      0 D2E=      0 Chk=     88 Scr=      8
 Normal termination of Gaussian 16 at Fri Dec 21 18:09:53 2018.
