 Entering Gaussian System, Link 0=g16
 Input=cyclohexyl-monoBIP-E0PT.com
 Output=cyclohexyl-monoBIP-E0PT.log
 Initial command:
 /gpfs/apps/hpc/Apps/Restricted/Gaussian/Rev_A.03/g16/l1.exe "/gpfs/scratch60/fas/hammes_schiffer/jg2487/c44n01/Gau-177368.inp" -scrdir="/gpfs/scratch60/fas/hammes_schiffer/jg2487/c44n01/"
 Entering Link 1 = /gpfs/apps/hpc/Apps/Restricted/Gaussian/Rev_A.03/g16/l1.exe PID=    177369.
  
 Copyright (c) 1988,1990,1992,1993,1995,1998,2003,2009,2016,
            Gaussian, Inc.  All Rights Reserved.
  
 This is part of the Gaussian(R) 16 program.  It is based on
 the Gaussian(R) 09 system (copyright 2009, Gaussian, Inc.),
 the Gaussian(R) 03 system (copyright 2003, Gaussian, Inc.),
 the Gaussian(R) 98 system (copyright 1998, Gaussian, Inc.),
 the Gaussian(R) 94 system (copyright 1995, Gaussian, Inc.),
 the Gaussian 92(TM) system (copyright 1992, Gaussian, Inc.),
 the Gaussian 90(TM) system (copyright 1990, Gaussian, Inc.),
 the Gaussian 88(TM) system (copyright 1988, Gaussian, Inc.),
 the Gaussian 86(TM) system (copyright 1986, Carnegie Mellon
 University), and the Gaussian 82(TM) system (copyright 1983,
 Carnegie Mellon University). Gaussian is a federally registered
 trademark of Gaussian, Inc.
  
 This software contains proprietary and confidential information,
 including trade secrets, belonging to Gaussian, Inc.
  
 This software is provided under written license and may be
 used, copied, transmitted, or stored only in accord with that
 written license.
  
 The following legend is applicable only to US Government
 contracts under FAR:
  
                    RESTRICTED RIGHTS LEGEND
  
 Use, reproduction and disclosure by the US Government is
 subject to restrictions as set forth in subparagraphs (a)
 and (c) of the Commercial Computer Software - Restricted
 Rights clause in FAR 52.227-19.
  
 Gaussian, Inc.
 340 Quinnipiac St., Bldg. 40, Wallingford CT 06492
  
  
 ---------------------------------------------------------------
 Warning -- This program may not be used in any manner that
 competes with the business of Gaussian, Inc. or will provide
 assistance to any competitor of Gaussian, Inc.  The licensee
 of this program is prohibited from giving any competitor of
 Gaussian, Inc. access to this program.  By using this program,
 the user acknowledges that Gaussian, Inc. is engaged in the
 business of creating and licensing software in the field of
 computational chemistry and represents and warrants to the
 licensee that it is not a competitor of Gaussian, Inc. and that
 it will not use this program in any manner prohibited above.
 ---------------------------------------------------------------
  

 Cite this work as:
 Gaussian 16, Revision A.03,
 M. J. Frisch, G. W. Trucks, H. B. Schlegel, G. E. Scuseria, 
 M. A. Robb, J. R. Cheeseman, G. Scalmani, V. Barone, 
 G. A. Petersson, H. Nakatsuji, X. Li, M. Caricato, A. V. Marenich, 
 J. Bloino, B. G. Janesko, R. Gomperts, B. Mennucci, H. P. Hratchian, 
 J. V. Ortiz, A. F. Izmaylov, J. L. Sonnenberg, D. Williams-Young, 
 F. Ding, F. Lipparini, F. Egidi, J. Goings, B. Peng, A. Petrone, 
 T. Henderson, D. Ranasinghe, V. G. Zakrzewski, J. Gao, N. Rega, 
 G. Zheng, W. Liang, M. Hada, M. Ehara, K. Toyota, R. Fukuda, 
 J. Hasegawa, M. Ishida, T. Nakajima, Y. Honda, O. Kitao, H. Nakai, 
 T. Vreven, K. Throssell, J. A. Montgomery, Jr., J. E. Peralta, 
 F. Ogliaro, M. J. Bearpark, J. J. Heyd, E. N. Brothers, K. N. Kudin, 
 V. N. Staroverov, T. A. Keith, R. Kobayashi, J. Normand, 
 K. Raghavachari, A. P. Rendell, J. C. Burant, S. S. Iyengar, 
 J. Tomasi, M. Cossi, J. M. Millam, M. Klene, C. Adamo, R. Cammi, 
 J. W. Ochterski, R. L. Martin, K. Morokuma, O. Farkas, 
 J. B. Foresman, and D. J. Fox, Gaussian, Inc., Wallingford CT, 2016.
 
 ******************************************
 Gaussian 16:  ES64L-G16RevA.03 25-Dec-2016
                14-Dec-2018 
 ******************************************
 %chk=cyclohexyl-monoBIP-E0PT.chk
 %mem=10GB
 %nprocshared=16
 Will use up to   16 processors via shared memory.
 ----------------------------------------------------------------
 #p freq(ReadFC,InternalModes) Geom(AllCheck) NoSymm scale=0.9649
 ----------------------------------------------------------------
 1/18=20,29=7,38=1,114=964900/1,3;
 2/9=110,12=2,15=1,40=1/2;
 7/8=21,25=11,30=1/16;
 99/5=2/99;
 Leave Link    1 at Fri Dec 14 13:54:17 2018, MaxMem=  1342177280 cpu:               7.8 elap:               0.5
 (Enter /gpfs/apps/hpc/Apps/Restricted/Gaussian/Rev_A.03/g16/l101.exe)
 Structure from the checkpoint file:  "cyclohexyl-monoBIP-E0PT.chk"
 -------------------------------------------------------
 cyclohexylimine monoBIP oxidized but no PT optimization
 -------------------------------------------------------
 Charge =  1 Multiplicity = 2
 Redundant internal coordinates found in file.  (old form).
 C,0,-0.441684,2.682131,0.27144
 C,0,-1.856882,2.818524,0.234007
 C,0,-2.439043,4.09643,0.149597
 C,0,-1.578839,5.181726,0.112432
 C,0,-0.171034,5.02851,0.153834
 C,0,0.437802,3.778009,0.233878
 C,0,-1.393958,0.694254,0.348774
 H,0,-3.513919,4.218184,0.115484
 H,0,-1.987998,6.182621,0.050375
 H,0,0.454845,5.912958,0.123697
 N,0,-2.413318,1.568739,0.284606
 C,0,-2.982466,-1.201063,0.411316
 C,0,-1.607661,-0.723184,0.404288
 C,0,-0.57336,-1.654913,0.438534
 C,0,-0.844671,-3.023238,0.486268
 C,0,-2.201742,-3.469469,0.508507
 C,0,-3.266029,-2.605856,0.473296
 H,0,0.455991,-1.319147,0.424348
 H,0,-2.38836,-4.536726,0.553504
 C,0,0.256329,-4.031009,0.511822
 H,0,1.23663,-3.558788,0.461665
 H,0,0.199303,-4.632116,1.425416
 H,0,0.152801,-4.729287,-0.324803
 C,0,-4.693332,-3.05752,0.486739
 H,0,-5.235371,-2.611765,1.324936
 H,0,-5.207102,-2.745662,-0.426883
 H,0,-4.748279,-4.142692,0.568187
 O,0,-3.991394,-0.37831,0.358162
 H,0,-3.622753,0.594081,0.316476
 N,0,-0.188486,1.342648,0.343975
 H,0,0.766786,0.993244,0.38612
 C,0,1.887382,3.592148,0.276195
 H,0,2.491276,4.503579,0.228177
 N,0,2.392298,2.418535,0.366772
 C,0,3.856046,2.291049,0.410734
 C,0,4.509928,2.71524,-0.914861
 C,0,4.486728,3.052077,1.588625
 H,0,4.060234,1.224453,0.556297
 C,0,6.024647,2.485263,-0.868151
 H,0,4.300642,3.778511,-1.082617
 H,0,4.056903,2.160701,-1.742063
 C,0,6.000209,2.81558,1.638901
 H,0,4.29364,4.124402,1.465849
 H,0,4.007982,2.743287,2.522439
 C,0,6.665187,3.216766,0.316811
 H,0,6.482397,2.804647,-1.809162
 H,0,6.217359,1.409132,-0.773431
 H,0,6.435389,3.37467,2.472828
 H,0,6.193107,1.75323,1.833871
 H,0,7.739569,3.012852,0.353849
 H,0,6.551219,4.298757,0.173916
 Recover connectivity data from disk.
 ITRead=  0  0  0  0  0  0  0  0  0  0  0  0  0  0  0  0  0  0  0  0
 ITRead=  0  0  0  0  0  0  0  0  0  0  0  0  0  0  0  0  0  0  0  0
 ITRead=  0  0  0  0  0  0  0  0  0  0  0
 MicOpt= -1 -1 -1 -1 -1 -1 -1 -1 -1 -1 -1 -1 -1 -1 -1 -1 -1 -1 -1 -1
 MicOpt= -1 -1 -1 -1 -1 -1 -1 -1 -1 -1 -1 -1 -1 -1 -1 -1 -1 -1 -1 -1
 MicOpt= -1 -1 -1 -1 -1 -1 -1 -1 -1 -1 -1
 NAtoms=     51 NQM=       51 NQMF=       0 NMMI=      0 NMMIF=      0
                NMic=       0 NMicF=      0.
                    Isotopes and Nuclear Properties:
 (Nuclear quadrupole moments (NQMom) in fm**2, nuclear magnetic moments (NMagM)
  in nuclear magnetons)

  Atom         1           2           3           4           5           6           7           8           9          10
 IAtWgt=          12          12          12          12          12          12          12           1           1           1
 AtmWgt=  12.0000000  12.0000000  12.0000000  12.0000000  12.0000000  12.0000000  12.0000000   1.0078250   1.0078250   1.0078250
 NucSpn=           0           0           0           0           0           0           0           1           1           1
 AtZEff=   3.6000000   3.6000000   3.6000000   3.6000000   3.6000000   3.6000000   3.6000000   1.0000000   1.0000000   1.0000000
 NQMom=    0.0000000   0.0000000   0.0000000   0.0000000   0.0000000   0.0000000   0.0000000   0.0000000   0.0000000   0.0000000
 NMagM=    0.0000000   0.0000000   0.0000000   0.0000000   0.0000000   0.0000000   0.0000000   2.7928460   2.7928460   2.7928460
 AtZNuc=   6.0000000   6.0000000   6.0000000   6.0000000   6.0000000   6.0000000   6.0000000   1.0000000   1.0000000   1.0000000

  Atom        11          12          13          14          15          16          17          18          19          20
 IAtWgt=          14          12          12          12          12          12          12           1           1          12
 AtmWgt=  14.0030740  12.0000000  12.0000000  12.0000000  12.0000000  12.0000000  12.0000000   1.0078250   1.0078250  12.0000000
 NucSpn=           2           0           0           0           0           0           0           1           1           0
 AtZEff=   4.5500000   3.6000000   3.6000000   3.6000000   3.6000000   3.6000000   3.6000000   1.0000000   1.0000000   3.6000000
 NQMom=    2.0440000   0.0000000   0.0000000   0.0000000   0.0000000   0.0000000   0.0000000   0.0000000   0.0000000   0.0000000
 NMagM=    0.4037610   0.0000000   0.0000000   0.0000000   0.0000000   0.0000000   0.0000000   2.7928460   2.7928460   0.0000000
 AtZNuc=   7.0000000   6.0000000   6.0000000   6.0000000   6.0000000   6.0000000   6.0000000   1.0000000   1.0000000   6.0000000

  Atom        21          22          23          24          25          26          27          28          29          30
 IAtWgt=           1           1           1          12           1           1           1          16           1          14
 AtmWgt=   1.0078250   1.0078250   1.0078250  12.0000000   1.0078250   1.0078250   1.0078250  15.9949146   1.0078250  14.0030740
 NucSpn=           1           1           1           0           1           1           1           0           1           2
 AtZEff=   1.0000000   1.0000000   1.0000000   3.6000000   1.0000000   1.0000000   1.0000000   5.6000000   1.0000000   4.5500000
 NQMom=    0.0000000   0.0000000   0.0000000   0.0000000   0.0000000   0.0000000   0.0000000   0.0000000   0.0000000   2.0440000
 NMagM=    2.7928460   2.7928460   2.7928460   0.0000000   2.7928460   2.7928460   2.7928460   0.0000000   2.7928460   0.4037610
 AtZNuc=   1.0000000   1.0000000   1.0000000   6.0000000   1.0000000   1.0000000   1.0000000   8.0000000   1.0000000   7.0000000

  Atom        31          32          33          34          35          36          37          38          39          40
 IAtWgt=           1          12           1          14          12          12          12           1          12           1
 AtmWgt=   1.0078250  12.0000000   1.0078250  14.0030740  12.0000000  12.0000000  12.0000000   1.0078250  12.0000000   1.0078250
 NucSpn=           1           0           1           2           0           0           0           1           0           1
 AtZEff=   1.0000000   3.6000000   1.0000000   4.5500000   3.6000000   3.6000000   3.6000000   1.0000000   3.6000000   1.0000000
 NQMom=    0.0000000   0.0000000   0.0000000   2.0440000   0.0000000   0.0000000   0.0000000   0.0000000   0.0000000   0.0000000
 NMagM=    2.7928460   0.0000000   2.7928460   0.4037610   0.0000000   0.0000000   0.0000000   2.7928460   0.0000000   2.7928460
 AtZNuc=   1.0000000   6.0000000   1.0000000   7.0000000   6.0000000   6.0000000   6.0000000   1.0000000   6.0000000   1.0000000

  Atom        41          42          43          44          45          46          47          48          49          50
 IAtWgt=           1          12           1           1          12           1           1           1           1           1
 AtmWgt=   1.0078250  12.0000000   1.0078250   1.0078250  12.0000000   1.0078250   1.0078250   1.0078250   1.0078250   1.0078250
 NucSpn=           1           0           1           1           0           1           1           1           1           1
 AtZEff=   1.0000000   3.6000000   1.0000000   1.0000000   3.6000000   1.0000000   1.0000000   1.0000000   1.0000000   1.0000000
 NQMom=    0.0000000   0.0000000   0.0000000   0.0000000   0.0000000   0.0000000   0.0000000   0.0000000   0.0000000   0.0000000
 NMagM=    2.7928460   0.0000000   2.7928460   2.7928460   0.0000000   2.7928460   2.7928460   2.7928460   2.7928460   2.7928460
 AtZNuc=   1.0000000   6.0000000   1.0000000   1.0000000   6.0000000   1.0000000   1.0000000   1.0000000   1.0000000   1.0000000

  Atom        51
 IAtWgt=           1
 AtmWgt=   1.0078250
 NucSpn=           1
 AtZEff=   1.0000000
 NQMom=    0.0000000
 NMagM=    2.7928460
 AtZNuc=   1.0000000
 Leave Link  101 at Fri Dec 14 13:54:17 2018, MaxMem=  1342177280 cpu:               4.5 elap:               0.3
 (Enter /gpfs/apps/hpc/Apps/Restricted/Gaussian/Rev_A.03/g16/l103.exe)

 GradGradGradGradGradGradGradGradGradGradGradGradGradGradGradGradGradGrad
 Berny optimization.
 Initialization pass.
                           ----------------------------
                           !    Initial Parameters    !
                           ! (Angstroms and Degrees)  !
 --------------------------                            --------------------------
 ! Name  Definition              Value          Derivative Info.                !
 --------------------------------------------------------------------------------
 ! R1    R(1,2)                  1.4222         estimate D2E/DX2                !
 ! R2    R(1,6)                  1.4057         estimate D2E/DX2                !
 ! R3    R(1,30)                 1.3651         estimate D2E/DX2                !
 ! R4    R(2,3)                  1.4068         estimate D2E/DX2                !
 ! R5    R(2,11)                 1.369          estimate D2E/DX2                !
 ! R6    R(3,4)                  1.3854         estimate D2E/DX2                !
 ! R7    R(3,8)                  1.0823         estimate D2E/DX2                !
 ! R8    R(4,5)                  1.4167         estimate D2E/DX2                !
 ! R9    R(4,9)                  1.0831         estimate D2E/DX2                !
 ! R10   R(5,6)                  1.3931         estimate D2E/DX2                !
 ! R11   R(5,10)                 1.0839         estimate D2E/DX2                !
 ! R12   R(6,32)                 1.4621         estimate D2E/DX2                !
 ! R13   R(7,11)                 1.3446         estimate D2E/DX2                !
 ! R14   R(7,13)                 1.4345         estimate D2E/DX2                !
 ! R15   R(7,30)                 1.3688         estimate D2E/DX2                !
 ! R16   R(12,13)                1.4555         estimate D2E/DX2                !
 ! R17   R(12,17)                1.4345         estimate D2E/DX2                !
 ! R18   R(12,28)                1.303          estimate D2E/DX2                !
 ! R19   R(13,14)                1.3925         estimate D2E/DX2                !
 ! R20   R(14,15)                1.3958         estimate D2E/DX2                !
 ! R21   R(14,18)                1.0828         estimate D2E/DX2                !
 ! R22   R(15,16)                1.4287         estimate D2E/DX2                !
 ! R23   R(15,20)                1.4928         estimate D2E/DX2                !
 ! R24   R(16,17)                1.371          estimate D2E/DX2                !
 ! R25   R(16,19)                1.0844         estimate D2E/DX2                !
 ! R26   R(17,24)                1.4971         estimate D2E/DX2                !
 ! R27   R(20,21)                1.0893         estimate D2E/DX2                !
 ! R28   R(20,22)                1.0951         estimate D2E/DX2                !
 ! R29   R(20,23)                1.0946         estimate D2E/DX2                !
 ! R30   R(24,25)                1.0932         estimate D2E/DX2                !
 ! R31   R(24,26)                1.0936         estimate D2E/DX2                !
 ! R32   R(24,27)                1.0896         estimate D2E/DX2                !
 ! R33   R(28,29)                1.0408         estimate D2E/DX2                !
 ! R34   R(30,31)                1.018          estimate D2E/DX2                !
 ! R35   R(32,33)                1.0944         estimate D2E/DX2                !
 ! R36   R(32,34)                1.2808         estimate D2E/DX2                !
 ! R37   R(34,35)                1.4699         estimate D2E/DX2                !
 ! R38   R(35,36)                1.5378         estimate D2E/DX2                !
 ! R39   R(35,37)                1.5376         estimate D2E/DX2                !
 ! R40   R(35,38)                1.0957         estimate D2E/DX2                !
 ! R41   R(36,39)                1.5328         estimate D2E/DX2                !
 ! R42   R(36,40)                1.0966         estimate D2E/DX2                !
 ! R43   R(36,41)                1.0941         estimate D2E/DX2                !
 ! R44   R(37,42)                1.5327         estimate D2E/DX2                !
 ! R45   R(37,43)                1.0965         estimate D2E/DX2                !
 ! R46   R(37,44)                1.0939         estimate D2E/DX2                !
 ! R47   R(39,45)                1.5328         estimate D2E/DX2                !
 ! R48   R(39,46)                1.0941         estimate D2E/DX2                !
 ! R49   R(39,47)                1.0973         estimate D2E/DX2                !
 ! R50   R(42,45)                1.5333         estimate D2E/DX2                !
 ! R51   R(42,48)                1.0943         estimate D2E/DX2                !
 ! R52   R(42,49)                1.0972         estimate D2E/DX2                !
 ! R53   R(45,50)                1.0942         estimate D2E/DX2                !
 ! R54   R(45,51)                1.0973         estimate D2E/DX2                !
 ! A1    A(2,1,6)              123.1689         estimate D2E/DX2                !
 ! A2    A(2,1,30)             106.2633         estimate D2E/DX2                !
 ! A3    A(6,1,30)             130.5678         estimate D2E/DX2                !
 ! A4    A(1,2,3)              120.0305         estimate D2E/DX2                !
 ! A5    A(1,2,11)             108.4163         estimate D2E/DX2                !
 ! A6    A(3,2,11)             131.5519         estimate D2E/DX2                !
 ! A7    A(2,3,4)              117.1479         estimate D2E/DX2                !
 ! A8    A(2,3,8)              121.0019         estimate D2E/DX2                !
 ! A9    A(4,3,8)              121.8502         estimate D2E/DX2                !
 ! A10   A(3,4,5)              122.1076         estimate D2E/DX2                !
 ! A11   A(3,4,9)              119.4018         estimate D2E/DX2                !
 ! A12   A(5,4,9)              118.4905         estimate D2E/DX2                !
 ! A13   A(4,5,6)              122.2102         estimate D2E/DX2                !
 ! A14   A(4,5,10)             118.9947         estimate D2E/DX2                !
 ! A15   A(6,5,10)             118.795          estimate D2E/DX2                !
 ! A16   A(1,6,5)              115.3343         estimate D2E/DX2                !
 ! A17   A(1,6,32)             121.3629         estimate D2E/DX2                !
 ! A18   A(5,6,32)             123.3028         estimate D2E/DX2                !
 ! A19   A(11,7,13)            122.1089         estimate D2E/DX2                !
 ! A20   A(11,7,30)            111.0642         estimate D2E/DX2                !
 ! A21   A(13,7,30)            126.8258         estimate D2E/DX2                !
 ! A22   A(2,11,7)             106.7            estimate D2E/DX2                !
 ! A23   A(13,12,17)           120.5612         estimate D2E/DX2                !
 ! A24   A(13,12,28)           121.5933         estimate D2E/DX2                !
 ! A25   A(17,12,28)           117.8451         estimate D2E/DX2                !
 ! A26   A(7,13,12)            117.7303         estimate D2E/DX2                !
 ! A27   A(7,13,14)            123.4653         estimate D2E/DX2                !
 ! A28   A(12,13,14)           118.8015         estimate D2E/DX2                !
 ! A29   A(13,14,15)           120.8241         estimate D2E/DX2                !
 ! A30   A(13,14,18)           119.8865         estimate D2E/DX2                !
 ! A31   A(15,14,18)           119.2889         estimate D2E/DX2                !
 ! A32   A(14,15,16)           119.4292         estimate D2E/DX2                !
 ! A33   A(14,15,20)           121.2673         estimate D2E/DX2                !
 ! A34   A(16,15,20)           119.3034         estimate D2E/DX2                !
 ! A35   A(15,16,17)           122.6968         estimate D2E/DX2                !
 ! A36   A(15,16,19)           118.1321         estimate D2E/DX2                !
 ! A37   A(17,16,19)           119.1711         estimate D2E/DX2                !
 ! A38   A(12,17,16)           117.6793         estimate D2E/DX2                !
 ! A39   A(12,17,24)           118.9663         estimate D2E/DX2                !
 ! A40   A(16,17,24)           123.3529         estimate D2E/DX2                !
 ! A41   A(15,20,21)           111.7345         estimate D2E/DX2                !
 ! A42   A(15,20,22)           110.2694         estimate D2E/DX2                !
 ! A43   A(15,20,23)           110.353          estimate D2E/DX2                !
 ! A44   A(21,20,22)           108.8592         estimate D2E/DX2                !
 ! A45   A(21,20,23)           109.0545         estimate D2E/DX2                !
 ! A46   A(22,20,23)           106.4118         estimate D2E/DX2                !
 ! A47   A(17,24,25)           110.8901         estimate D2E/DX2                !
 ! A48   A(17,24,26)           110.7543         estimate D2E/DX2                !
 ! A49   A(17,24,27)           110.4388         estimate D2E/DX2                !
 ! A50   A(25,24,26)           106.9383         estimate D2E/DX2                !
 ! A51   A(25,24,27)           108.8914         estimate D2E/DX2                !
 ! A52   A(26,24,27)           108.8304         estimate D2E/DX2                !
 ! A53   A(12,28,29)           108.5017         estimate D2E/DX2                !
 ! A54   A(1,30,7)             107.556          estimate D2E/DX2                !
 ! A55   A(1,30,31)            120.8641         estimate D2E/DX2                !
 ! A56   A(7,30,31)            131.5795         estimate D2E/DX2                !
 ! A57   A(6,32,33)            116.1011         estimate D2E/DX2                !
 ! A58   A(6,32,34)            120.6222         estimate D2E/DX2                !
 ! A59   A(33,32,34)           123.2765         estimate D2E/DX2                !
 ! A60   A(32,34,35)           118.3029         estimate D2E/DX2                !
 ! A61   A(34,35,36)           111.9452         estimate D2E/DX2                !
 ! A62   A(34,35,37)           112.856          estimate D2E/DX2                !
 ! A63   A(34,35,38)           105.9007         estimate D2E/DX2                !
 ! A64   A(36,35,37)           110.4513         estimate D2E/DX2                !
 ! A65   A(36,35,38)           107.6865         estimate D2E/DX2                !
 ! A66   A(37,35,38)           107.6733         estimate D2E/DX2                !
 ! A67   A(35,36,39)           110.6432         estimate D2E/DX2                !
 ! A68   A(35,36,40)           108.5536         estimate D2E/DX2                !
 ! A69   A(35,36,41)           109.6255         estimate D2E/DX2                !
 ! A70   A(39,36,40)           109.8005         estimate D2E/DX2                !
 ! A71   A(39,36,41)           110.8658         estimate D2E/DX2                !
 ! A72   A(40,36,41)           107.2636         estimate D2E/DX2                !
 ! A73   A(35,37,42)           110.7189         estimate D2E/DX2                !
 ! A74   A(35,37,43)           109.0279         estimate D2E/DX2                !
 ! A75   A(35,37,44)           109.5556         estimate D2E/DX2                !
 ! A76   A(42,37,43)           109.1762         estimate D2E/DX2                !
 ! A77   A(42,37,44)           111.1383         estimate D2E/DX2                !
 ! A78   A(43,37,44)           107.1331         estimate D2E/DX2                !
 ! A79   A(36,39,45)           111.4023         estimate D2E/DX2                !
 ! A80   A(36,39,46)           110.0867         estimate D2E/DX2                !
 ! A81   A(36,39,47)           108.8635         estimate D2E/DX2                !
 ! A82   A(45,39,46)           110.5332         estimate D2E/DX2                !
 ! A83   A(45,39,47)           109.1405         estimate D2E/DX2                !
 ! A84   A(46,39,47)           106.6807         estimate D2E/DX2                !
 ! A85   A(37,42,45)           111.0755         estimate D2E/DX2                !
 ! A86   A(37,42,48)           109.8084         estimate D2E/DX2                !
 ! A87   A(37,42,49)           109.1987         estimate D2E/DX2                !
 ! A88   A(45,42,48)           110.5455         estimate D2E/DX2                !
 ! A89   A(45,42,49)           109.2877         estimate D2E/DX2                !
 ! A90   A(48,42,49)           106.82           estimate D2E/DX2                !
 ! A91   A(39,45,42)           111.1291         estimate D2E/DX2                !
 ! A92   A(39,45,50)           110.3376         estimate D2E/DX2                !
 ! A93   A(39,45,51)           109.0559         estimate D2E/DX2                !
 ! A94   A(42,45,50)           110.3582         estimate D2E/DX2                !
 ! A95   A(42,45,51)           108.9795         estimate D2E/DX2                !
 ! A96   A(50,45,51)           106.8667         estimate D2E/DX2                !
 ! D1    D(6,1,2,3)              0.2849         estimate D2E/DX2                !
 ! D2    D(6,1,2,11)           179.9193         estimate D2E/DX2                !
 ! D3    D(30,1,2,3)          -179.6316         estimate D2E/DX2                !
 ! D4    D(30,1,2,11)            0.0028         estimate D2E/DX2                !
 ! D5    D(2,1,6,5)             -0.1153         estimate D2E/DX2                !
 ! D6    D(2,1,6,32)           179.9268         estimate D2E/DX2                !
 ! D7    D(30,1,6,5)           179.7791         estimate D2E/DX2                !
 ! D8    D(30,1,6,32)           -0.1787         estimate D2E/DX2                !
 ! D9    D(2,1,30,7)             0.0698         estimate D2E/DX2                !
 ! D10   D(2,1,30,31)         -179.7385         estimate D2E/DX2                !
 ! D11   D(6,1,30,7)          -179.8381         estimate D2E/DX2                !
 ! D12   D(6,1,30,31)            0.3535         estimate D2E/DX2                !
 ! D13   D(1,2,3,4)             -0.2814         estimate D2E/DX2                !
 ! D14   D(1,2,3,8)            179.713          estimate D2E/DX2                !
 ! D15   D(11,2,3,4)          -179.8178         estimate D2E/DX2                !
 ! D16   D(11,2,3,8)             0.1765         estimate D2E/DX2                !
 ! D17   D(1,2,11,7)            -0.0753         estimate D2E/DX2                !
 ! D18   D(3,2,11,7)           179.5017         estimate D2E/DX2                !
 ! D19   D(2,3,4,5)              0.1343         estimate D2E/DX2                !
 ! D20   D(2,3,4,9)           -179.8265         estimate D2E/DX2                !
 ! D21   D(8,3,4,5)           -179.8601         estimate D2E/DX2                !
 ! D22   D(8,3,4,9)              0.1792         estimate D2E/DX2                !
 ! D23   D(3,4,5,6)              0.0294         estimate D2E/DX2                !
 ! D24   D(3,4,5,10)          -179.8838         estimate D2E/DX2                !
 ! D25   D(9,4,5,6)            179.9905         estimate D2E/DX2                !
 ! D26   D(9,4,5,10)             0.0773         estimate D2E/DX2                !
 ! D27   D(4,5,6,1)             -0.0406         estimate D2E/DX2                !
 ! D28   D(4,5,6,32)           179.9163         estimate D2E/DX2                !
 ! D29   D(10,5,6,1)           179.8727         estimate D2E/DX2                !
 ! D30   D(10,5,6,32)           -0.1704         estimate D2E/DX2                !
 ! D31   D(1,6,32,33)          179.1904         estimate D2E/DX2                !
 ! D32   D(1,6,32,34)           -0.9249         estimate D2E/DX2                !
 ! D33   D(5,6,32,33)           -0.764          estimate D2E/DX2                !
 ! D34   D(5,6,32,34)          179.1207         estimate D2E/DX2                !
 ! D35   D(13,7,11,2)         -179.5106         estimate D2E/DX2                !
 ! D36   D(30,7,11,2)            0.1224         estimate D2E/DX2                !
 ! D37   D(11,7,13,12)          -0.9847         estimate D2E/DX2                !
 ! D38   D(11,7,13,14)         178.3852         estimate D2E/DX2                !
 ! D39   D(30,7,13,12)         179.4432         estimate D2E/DX2                !
 ! D40   D(30,7,13,14)          -1.1869         estimate D2E/DX2                !
 ! D41   D(11,7,30,1)           -0.1222         estimate D2E/DX2                !
 ! D42   D(11,7,30,31)         179.6578         estimate D2E/DX2                !
 ! D43   D(13,7,30,1)          179.4894         estimate D2E/DX2                !
 ! D44   D(13,7,30,31)          -0.7306         estimate D2E/DX2                !
 ! D45   D(17,12,13,7)        -179.6475         estimate D2E/DX2                !
 ! D46   D(17,12,13,14)          0.9523         estimate D2E/DX2                !
 ! D47   D(28,12,13,7)           0.5553         estimate D2E/DX2                !
 ! D48   D(28,12,13,14)       -178.8449         estimate D2E/DX2                !
 ! D49   D(13,12,17,16)         -0.7783         estimate D2E/DX2                !
 ! D50   D(13,12,17,24)        179.6414         estimate D2E/DX2                !
 ! D51   D(28,12,17,16)        179.0263         estimate D2E/DX2                !
 ! D52   D(28,12,17,24)         -0.554          estimate D2E/DX2                !
 ! D53   D(13,12,28,29)         -0.1247         estimate D2E/DX2                !
 ! D54   D(17,12,28,29)       -179.9272         estimate D2E/DX2                !
 ! D55   D(7,13,14,15)        -179.7143         estimate D2E/DX2                !
 ! D56   D(7,13,14,18)           0.0509         estimate D2E/DX2                !
 ! D57   D(12,13,14,15)         -0.3508         estimate D2E/DX2                !
 ! D58   D(12,13,14,18)        179.4145         estimate D2E/DX2                !
 ! D59   D(13,14,15,16)         -0.3905         estimate D2E/DX2                !
 ! D60   D(13,14,15,20)        179.4856         estimate D2E/DX2                !
 ! D61   D(18,14,15,16)        179.8429         estimate D2E/DX2                !
 ! D62   D(18,14,15,20)         -0.281          estimate D2E/DX2                !
 ! D63   D(14,15,16,17)          0.5748         estimate D2E/DX2                !
 ! D64   D(14,15,16,19)       -179.5271         estimate D2E/DX2                !
 ! D65   D(20,15,16,17)       -179.3038         estimate D2E/DX2                !
 ! D66   D(20,15,16,19)          0.5943         estimate D2E/DX2                !
 ! D67   D(14,15,20,21)         -1.536          estimate D2E/DX2                !
 ! D68   D(14,15,20,22)        119.6739         estimate D2E/DX2                !
 ! D69   D(14,15,20,23)       -123.0522         estimate D2E/DX2                !
 ! D70   D(16,15,20,21)        178.3402         estimate D2E/DX2                !
 ! D71   D(16,15,20,22)        -60.4498         estimate D2E/DX2                !
 ! D72   D(16,15,20,23)         56.8241         estimate D2E/DX2                !
 ! D73   D(15,16,17,12)          0.0194         estimate D2E/DX2                !
 ! D74   D(15,16,17,24)        179.5798         estimate D2E/DX2                !
 ! D75   D(19,16,17,12)       -179.8777         estimate D2E/DX2                !
 ! D76   D(19,16,17,24)         -0.3173         estimate D2E/DX2                !
 ! D77   D(12,17,24,25)        -57.3604         estimate D2E/DX2                !
 ! D78   D(12,17,24,26)         61.2018         estimate D2E/DX2                !
 ! D79   D(12,17,24,27)       -178.1624         estimate D2E/DX2                !
 ! D80   D(16,17,24,25)        123.0845         estimate D2E/DX2                !
 ! D81   D(16,17,24,26)       -118.3532         estimate D2E/DX2                !
 ! D82   D(16,17,24,27)          2.2825         estimate D2E/DX2                !
 ! D83   D(6,32,34,35)        -179.7638         estimate D2E/DX2                !
 ! D84   D(33,32,34,35)          0.1124         estimate D2E/DX2                !
 ! D85   D(32,34,35,36)        -66.6799         estimate D2E/DX2                !
 ! D86   D(32,34,35,37)         58.6749         estimate D2E/DX2                !
 ! D87   D(32,34,35,38)        176.2325         estimate D2E/DX2                !
 ! D88   D(34,35,36,39)       -176.3355         estimate D2E/DX2                !
 ! D89   D(34,35,36,40)         63.1153         estimate D2E/DX2                !
 ! D90   D(34,35,36,41)        -53.7585         estimate D2E/DX2                !
 ! D91   D(37,35,36,39)         56.9961         estimate D2E/DX2                !
 ! D92   D(37,35,36,40)        -63.5531         estimate D2E/DX2                !
 ! D93   D(37,35,36,41)        179.5731         estimate D2E/DX2                !
 ! D94   D(38,35,36,39)        -60.3266         estimate D2E/DX2                !
 ! D95   D(38,35,36,40)        179.1241         estimate D2E/DX2                !
 ! D96   D(38,35,36,41)         62.2503         estimate D2E/DX2                !
 ! D97   D(34,35,37,42)        176.4796         estimate D2E/DX2                !
 ! D98   D(34,35,37,43)        -63.3925         estimate D2E/DX2                !
 ! D99   D(34,35,37,44)         53.5565         estimate D2E/DX2                !
 ! D100  D(36,35,37,42)        -57.3609         estimate D2E/DX2                !
 ! D101  D(36,35,37,43)         62.767          estimate D2E/DX2                !
 ! D102  D(36,35,37,44)        179.716          estimate D2E/DX2                !
 ! D103  D(38,35,37,42)         59.97           estimate D2E/DX2                !
 ! D104  D(38,35,37,43)       -179.9021         estimate D2E/DX2                !
 ! D105  D(38,35,37,44)        -62.9531         estimate D2E/DX2                !
 ! D106  D(35,36,39,45)        -56.1179         estimate D2E/DX2                !
 ! D107  D(35,36,39,46)       -179.1053         estimate D2E/DX2                !
 ! D108  D(35,36,39,47)         64.2847         estimate D2E/DX2                !
 ! D109  D(40,36,39,45)         63.6855         estimate D2E/DX2                !
 ! D110  D(40,36,39,46)        -59.3019         estimate D2E/DX2                !
 ! D111  D(40,36,39,47)       -175.9119         estimate D2E/DX2                !
 ! D112  D(41,36,39,45)       -177.9688         estimate D2E/DX2                !
 ! D113  D(41,36,39,46)         59.0438         estimate D2E/DX2                !
 ! D114  D(41,36,39,47)        -57.5662         estimate D2E/DX2                !
 ! D115  D(35,37,42,45)         56.6069         estimate D2E/DX2                !
 ! D116  D(35,37,42,48)        179.1934         estimate D2E/DX2                !
 ! D117  D(35,37,42,49)        -63.9924         estimate D2E/DX2                !
 ! D118  D(43,37,42,45)        -63.4323         estimate D2E/DX2                !
 ! D119  D(43,37,42,48)         59.1542         estimate D2E/DX2                !
 ! D120  D(43,37,42,49)        175.9684         estimate D2E/DX2                !
 ! D121  D(44,37,42,45)        178.6073         estimate D2E/DX2                !
 ! D122  D(44,37,42,48)        -58.8062         estimate D2E/DX2                !
 ! D123  D(44,37,42,49)         58.008          estimate D2E/DX2                !
 ! D124  D(36,39,45,42)         55.2847         estimate D2E/DX2                !
 ! D125  D(36,39,45,50)        178.0363         estimate D2E/DX2                !
 ! D126  D(36,39,45,51)        -64.8725         estimate D2E/DX2                !
 ! D127  D(46,39,45,42)        178.0163         estimate D2E/DX2                !
 ! D128  D(46,39,45,50)        -59.2321         estimate D2E/DX2                !
 ! D129  D(46,39,45,51)         57.8591         estimate D2E/DX2                !
 ! D130  D(47,39,45,42)        -64.9547         estimate D2E/DX2                !
 ! D131  D(47,39,45,50)         57.797          estimate D2E/DX2                !
 ! D132  D(47,39,45,51)        174.8881         estimate D2E/DX2                !
 ! D133  D(37,42,45,39)        -55.4192         estimate D2E/DX2                !
 ! D134  D(37,42,45,50)       -178.159          estimate D2E/DX2                !
 ! D135  D(37,42,45,51)         64.7833         estimate D2E/DX2                !
 ! D136  D(48,42,45,39)       -177.5783         estimate D2E/DX2                !
 ! D137  D(48,42,45,50)         59.6818         estimate D2E/DX2                !
 ! D138  D(48,42,45,51)        -57.3759         estimate D2E/DX2                !
 ! D139  D(49,42,45,39)         65.1275         estimate D2E/DX2                !
 ! D140  D(49,42,45,50)        -57.6123         estimate D2E/DX2                !
 ! D141  D(49,42,45,51)       -174.67           estimate D2E/DX2                !
 --------------------------------------------------------------------------------
 Trust Radius=3.00D-01 FncErr=1.00D-07 GrdErr=1.00D-07 EigMax=2.50D+02 EigMin=1.00D-04
 Number of steps in this run=    301 maximum allowed number of steps=    306.
 GradGradGradGradGradGradGradGradGradGradGradGradGradGradGradGradGradGrad

 Leave Link  103 at Fri Dec 14 13:54:17 2018, MaxMem=  1342177280 cpu:               0.8 elap:               0.1
 (Enter /gpfs/apps/hpc/Apps/Restricted/Gaussian/Rev_A.03/g16/l202.exe)
 Symmetry turned off by external request.
 Stoichiometry    C22H25N3O(1+,2)
 Framework group  C1[X(C22H25N3O)]
 Deg. of freedom   147
 Full point group                 C1      NOp   1
                          Input orientation:                          
 ---------------------------------------------------------------------
 Center     Atomic      Atomic             Coordinates (Angstroms)
 Number     Number       Type             X           Y           Z
 ---------------------------------------------------------------------
      1          6           0       -0.441684    2.682131    0.271440
      2          6           0       -1.856882    2.818524    0.234007
      3          6           0       -2.439043    4.096430    0.149597
      4          6           0       -1.578839    5.181726    0.112432
      5          6           0       -0.171034    5.028510    0.153834
      6          6           0        0.437802    3.778009    0.233878
      7          6           0       -1.393958    0.694254    0.348774
      8          1           0       -3.513919    4.218184    0.115484
      9          1           0       -1.987998    6.182621    0.050375
     10          1           0        0.454845    5.912958    0.123697
     11          7           0       -2.413318    1.568739    0.284606
     12          6           0       -2.982466   -1.201063    0.411316
     13          6           0       -1.607661   -0.723184    0.404288
     14          6           0       -0.573360   -1.654913    0.438534
     15          6           0       -0.844671   -3.023238    0.486268
     16          6           0       -2.201742   -3.469469    0.508507
     17          6           0       -3.266029   -2.605856    0.473296
     18          1           0        0.455991   -1.319147    0.424348
     19          1           0       -2.388360   -4.536726    0.553504
     20          6           0        0.256329   -4.031009    0.511822
     21          1           0        1.236630   -3.558788    0.461665
     22          1           0        0.199303   -4.632116    1.425416
     23          1           0        0.152801   -4.729287   -0.324803
     24          6           0       -4.693332   -3.057520    0.486739
     25          1           0       -5.235371   -2.611765    1.324936
     26          1           0       -5.207102   -2.745662   -0.426883
     27          1           0       -4.748279   -4.142692    0.568187
     28          8           0       -3.991394   -0.378310    0.358162
     29          1           0       -3.622753    0.594081    0.316476
     30          7           0       -0.188486    1.342648    0.343975
     31          1           0        0.766786    0.993244    0.386120
     32          6           0        1.887382    3.592148    0.276195
     33          1           0        2.491276    4.503579    0.228177
     34          7           0        2.392298    2.418535    0.366772
     35          6           0        3.856046    2.291049    0.410734
     36          6           0        4.509928    2.715240   -0.914861
     37          6           0        4.486728    3.052077    1.588625
     38          1           0        4.060234    1.224453    0.556297
     39          6           0        6.024647    2.485263   -0.868151
     40          1           0        4.300642    3.778511   -1.082617
     41          1           0        4.056903    2.160701   -1.742063
     42          6           0        6.000209    2.815580    1.638901
     43          1           0        4.293640    4.124402    1.465849
     44          1           0        4.007982    2.743287    2.522439
     45          6           0        6.665187    3.216766    0.316811
     46          1           0        6.482397    2.804647   -1.809162
     47          1           0        6.217359    1.409132   -0.773431
     48          1           0        6.435389    3.374670    2.472828
     49          1           0        6.193107    1.753230    1.833871
     50          1           0        7.739569    3.012852    0.353849
     51          1           0        6.551219    4.298757    0.173916
 ---------------------------------------------------------------------
 Rotational constants (GHZ):           0.2900674           0.1043964           0.0792915
 Leave Link  202 at Fri Dec 14 13:54:17 2018, MaxMem=  1342177280 cpu:               1.1 elap:               0.1
 (Enter /gpfs/apps/hpc/Apps/Restricted/Gaussian/Rev_A.03/g16/l716.exe)
 Electric field and nuclear coordinate derivatives read from checkpoint file.
 Dipole        =-8.99352871D-01-6.22891481D-02 7.06054546D-01
 Polarizability= 4.75554921D+02 9.06685981D+01 9.60601407D+02
                 5.87441059D-01-3.33121521D+01 1.77666178D+02
 Full mass-weighted force constant matrix:
 Low frequencies ---   -4.9970   -0.0020   -0.0007    0.0020    9.0683   20.5031
 Low frequencies ---   36.5676   41.2640   65.2731
 Diagonal vibrational polarizability:
       96.4021665     363.7782785      46.4134877
 Harmonic frequencies (cm**-1), IR intensities (KM/Mole), Raman scattering
 activities (A**4/AMU), depolarization ratios for plane and unpolarized
 incident light, reduced masses (AMU), force constants (mDyne/A),
 and normal coordinates:
                      1                      2                      3
                      A                      A                      A
 Frequencies --     36.2648                39.8318                65.0157
 Red. masses --      4.6947                 4.1776                 4.8545
 Frc consts  --      0.0036                 0.0039                 0.0121
 IR Inten    --      4.0005                 0.5426                 0.8470
  Atom  AN      X      Y      Z        X      Y      Z        X      Y      Z
     1   6     0.03  -0.06   0.04     0.01  -0.02  -0.08     0.00  -0.00   0.01
     2   6     0.04  -0.04   0.02     0.01  -0.02  -0.04    -0.00   0.00   0.10
     3   6     0.04  -0.04  -0.01     0.01  -0.01   0.00    -0.00  -0.00   0.08
     4   6     0.05  -0.05  -0.01     0.01  -0.01   0.02    -0.01  -0.01  -0.06
     5   6     0.05  -0.06   0.01     0.01  -0.02  -0.01    -0.00  -0.01  -0.17
     6   6     0.04  -0.06   0.03     0.01  -0.02  -0.05     0.00  -0.01  -0.13
     7   6     0.00  -0.05   0.04     0.00  -0.02  -0.09    -0.00   0.00   0.14
     8   1     0.05  -0.04  -0.02     0.01  -0.01   0.03    -0.01  -0.00   0.16
     9   1     0.06  -0.04  -0.02     0.02  -0.01   0.05    -0.01  -0.01  -0.09
    10   1     0.06  -0.07  -0.00     0.02  -0.02   0.02    -0.00  -0.01  -0.27
    11   7     0.02  -0.03   0.02     0.01  -0.01  -0.05    -0.00   0.01   0.19
    12   6    -0.05  -0.01  -0.02    -0.02  -0.00   0.05    -0.00   0.00   0.08
    13   6    -0.04  -0.05   0.03    -0.01  -0.02  -0.08    -0.00   0.00   0.12
    14   6    -0.07  -0.08   0.07    -0.02  -0.04  -0.16    -0.00  -0.00   0.08
    15   6    -0.11  -0.07   0.04    -0.04  -0.03  -0.11    -0.01  -0.00  -0.03
    16   6    -0.12  -0.03  -0.01    -0.04  -0.01   0.03    -0.01  -0.01  -0.11
    17   6    -0.10   0.00  -0.04    -0.03   0.01   0.11    -0.00  -0.00  -0.06
    18   1    -0.06  -0.11   0.11    -0.02  -0.05  -0.25    -0.00  -0.00   0.11
    19   1    -0.16  -0.03  -0.03    -0.06  -0.01   0.08    -0.01  -0.01  -0.21
    20   6    -0.14  -0.10   0.07    -0.05  -0.05  -0.17    -0.01  -0.01  -0.08
    21   1    -0.13  -0.13   0.09    -0.05  -0.07  -0.35    -0.00   0.00   0.05
    22   1    -0.18  -0.10   0.07     0.06   0.05  -0.09    -0.07  -0.12  -0.16
    23   1    -0.15  -0.11   0.07    -0.19  -0.14  -0.07     0.06   0.10  -0.18
    24   6    -0.11   0.04  -0.10    -0.04   0.03   0.25    -0.00  -0.01  -0.13
    25   1    -0.13   0.06  -0.12     0.05   0.05   0.30    -0.04  -0.04  -0.14
    26   1    -0.07   0.05  -0.12    -0.12   0.03   0.30     0.03   0.03  -0.14
    27   1    -0.14   0.04  -0.10    -0.05   0.03   0.27    -0.00  -0.01  -0.18
    28   8    -0.03   0.02  -0.06    -0.01   0.01   0.13    -0.00   0.01   0.14
    29   1     0.01   0.01  -0.04    -0.00   0.01   0.07    -0.00   0.01   0.19
    30   7     0.01  -0.07   0.05     0.01  -0.03  -0.12     0.00   0.00   0.05
    31   1    -0.00  -0.10   0.06     0.00  -0.04  -0.13     0.00  -0.00  -0.01
    32   6     0.04  -0.04   0.02     0.01  -0.01  -0.03     0.00  -0.00  -0.19
    33   1     0.02  -0.02  -0.01     0.00  -0.00   0.01     0.00  -0.01  -0.25
    34   7     0.08  -0.02   0.03     0.03  -0.01  -0.04     0.00  -0.00  -0.14
    35   6     0.09   0.04  -0.00     0.03   0.02   0.01     0.00   0.00  -0.09
    36   6     0.04   0.09  -0.01     0.07   0.03   0.03     0.09   0.02  -0.04
    37   6     0.07   0.06  -0.01    -0.02   0.03   0.03    -0.08  -0.00  -0.04
    38   1     0.14   0.05  -0.02     0.04   0.02   0.01     0.00   0.00  -0.09
    39   6     0.05   0.18  -0.04     0.07   0.06   0.08     0.09   0.01   0.07
    40   1    -0.02   0.08   0.00     0.05   0.03   0.02     0.11   0.02  -0.05
    41   1     0.06   0.07  -0.01     0.11   0.02   0.01     0.15   0.03  -0.07
    42   6     0.09   0.15  -0.04    -0.02   0.06   0.08    -0.08   0.01   0.07
    43   1     0.01   0.05   0.01    -0.04   0.03   0.02    -0.08  -0.00  -0.05
    44   1     0.11   0.03  -0.00    -0.04   0.02   0.01    -0.14  -0.00  -0.07
    45   6     0.03   0.21  -0.05     0.02   0.07   0.10     0.02  -0.00   0.12
    46   1     0.02   0.21  -0.05     0.09   0.06   0.09     0.16  -0.00   0.11
    47   1     0.12   0.19  -0.06     0.08   0.06   0.09     0.07   0.00   0.09
    48   1     0.07   0.16  -0.04    -0.06   0.07   0.09    -0.14   0.02   0.10
    49   1     0.15   0.15  -0.06    -0.00   0.07   0.09    -0.09   0.01   0.10
    50   1     0.05   0.28  -0.08     0.02   0.09   0.14     0.01  -0.02   0.20
    51   1    -0.04   0.20  -0.04     0.00   0.07   0.09     0.04  -0.00   0.11
                      4                      5                      6
                      A                      A                      A
 Frequencies --     71.6942                81.8849                95.1307
 Red. masses --      4.5240                 2.9405                 2.4849
 Frc consts  --      0.0137                 0.0116                 0.0132
 IR Inten    --      1.5653                 0.2111                 3.2434
  Atom  AN      X      Y      Z        X      Y      Z        X      Y      Z
     1   6    -0.00  -0.00  -0.07     0.00  -0.00  -0.01    -0.01  -0.01  -0.02
     2   6    -0.00   0.00   0.02    -0.00  -0.01   0.03    -0.00   0.03  -0.01
     3   6    -0.00   0.01   0.17    -0.01  -0.01   0.07     0.04   0.05   0.02
     4   6    -0.00   0.01   0.22    -0.02  -0.00   0.08     0.08   0.02   0.03
     5   6    -0.00   0.01   0.12    -0.02   0.00   0.04     0.07  -0.02   0.01
     6   6    -0.00  -0.00  -0.03    -0.01   0.00  -0.00     0.03  -0.04  -0.01
     7   6    -0.00  -0.00  -0.09     0.01  -0.01  -0.01    -0.05   0.02  -0.02
     8   1    -0.01   0.02   0.26    -0.01  -0.01   0.11     0.04   0.09   0.03
     9   1    -0.00   0.02   0.35    -0.02  -0.00   0.11     0.11   0.03   0.05
    10   1     0.00   0.01   0.17    -0.02   0.01   0.05     0.10  -0.04   0.02
    11   7    -0.01   0.00  -0.01     0.00  -0.01   0.02    -0.04   0.04  -0.01
    12   6    -0.00  -0.00  -0.06    -0.00  -0.00  -0.02    -0.03  -0.00  -0.00
    13   6    -0.00  -0.00  -0.06     0.00  -0.01  -0.02    -0.04   0.02  -0.01
    14   6    -0.00   0.00   0.01    -0.00  -0.01  -0.02    -0.01   0.05   0.00
    15   6     0.00   0.01   0.10    -0.01  -0.01  -0.02     0.02   0.05   0.01
    16   6     0.00   0.00   0.09    -0.01  -0.01  -0.03     0.03   0.02   0.01
    17   6    -0.00  -0.00  -0.00    -0.01  -0.00  -0.03     0.01  -0.01   0.00
    18   1    -0.00   0.00   0.01    -0.00  -0.02  -0.01    -0.02   0.07   0.01
    19   1     0.00   0.01   0.16    -0.02  -0.01  -0.03     0.06   0.01   0.01
    20   6     0.00   0.01   0.22    -0.02  -0.02  -0.00     0.06   0.09  -0.02
    21   1     0.00   0.01   0.16    -0.01  -0.03  -0.03     0.05   0.14   0.34
    22   1     0.00   0.11   0.28    -0.01   0.01   0.02    -0.13  -0.19  -0.22
    23   1    -0.00  -0.08   0.29    -0.03  -0.05   0.02     0.28   0.34  -0.26
    24   6    -0.00  -0.01  -0.03    -0.01   0.01  -0.04     0.02  -0.05   0.01
    25   1    -0.03   0.02  -0.06    -0.02   0.01  -0.05     0.02  -0.07   0.02
    26   1     0.03  -0.04  -0.06    -0.00   0.01  -0.05     0.00  -0.05   0.02
    27   1     0.00  -0.00   0.01    -0.02   0.01  -0.04     0.05  -0.05   0.01
    28   8    -0.00  -0.01  -0.11     0.00   0.00  -0.01    -0.04  -0.02   0.01
    29   1    -0.00  -0.01  -0.09     0.01   0.00   0.01    -0.07  -0.02   0.00
    30   7    -0.00  -0.01  -0.14     0.01  -0.00  -0.03    -0.04  -0.01  -0.03
    31   1    -0.00  -0.01  -0.18     0.01  -0.00  -0.05    -0.04  -0.03  -0.02
    32   6    -0.00  -0.01  -0.08    -0.00   0.02   0.00     0.02  -0.09  -0.01
    33   1    -0.00  -0.00  -0.01    -0.02   0.03   0.03     0.04  -0.11  -0.03
    34   7     0.00  -0.01  -0.17     0.01   0.03  -0.00    -0.00  -0.10   0.01
    35   6     0.00  -0.00  -0.11     0.01   0.03   0.05     0.00  -0.10   0.02
    36   6     0.08   0.05  -0.06     0.02  -0.16  -0.00    -0.01  -0.11   0.00
    37   6    -0.06  -0.04  -0.05     0.00   0.20  -0.05    -0.03  -0.05   0.01
    38   1     0.00  -0.01  -0.14     0.00   0.05   0.20     0.02  -0.09   0.04
    39   6     0.07   0.04   0.02     0.02  -0.19   0.05     0.00   0.02   0.01
    40   1     0.08   0.05  -0.04     0.04  -0.18  -0.15    -0.09  -0.13  -0.04
    41   1     0.13   0.07  -0.10     0.02  -0.27   0.06     0.03  -0.18   0.02
    42   6    -0.07  -0.04   0.03    -0.00   0.19  -0.00    -0.01   0.08  -0.00
    43   1    -0.05  -0.04  -0.03     0.01   0.18  -0.20    -0.11  -0.07   0.01
    44   1    -0.12  -0.06  -0.09    -0.00   0.32  -0.01     0.00  -0.09   0.01
    45   6     0.01  -0.00   0.08     0.02  -0.03  -0.06    -0.07   0.13  -0.02
    46   1     0.13   0.07   0.06     0.04  -0.33   0.00    -0.03   0.03  -0.00
    47   1     0.06   0.04  -0.00    -0.00  -0.18   0.21     0.10   0.04   0.06
    48   1    -0.12  -0.06   0.07    -0.01   0.32  -0.08    -0.06   0.13  -0.01
    49   1    -0.08  -0.05   0.02    -0.01   0.22   0.17     0.09   0.10  -0.00
    50   1     0.01  -0.02   0.14     0.02  -0.05  -0.01    -0.04   0.27  -0.02
    51   1     0.03   0.00   0.11     0.05  -0.05  -0.22    -0.21   0.11  -0.04
                      7                      8                      9
                      A                      A                      A
 Frequencies --    101.2285               121.7654               128.8577
 Red. masses --      1.2926                 4.1051                 5.5405
 Frc consts  --      0.0078                 0.0359                 0.0542
 IR Inten    --      0.7531                 3.0253                 0.1676
  Atom  AN      X      Y      Z        X      Y      Z        X      Y      Z
     1   6    -0.00  -0.00  -0.01     0.04   0.03   0.01     0.02  -0.00  -0.14
     2   6    -0.00  -0.01  -0.02     0.05  -0.02   0.02     0.02  -0.01  -0.10
     3   6    -0.01  -0.02  -0.01     0.01  -0.04   0.04     0.00  -0.02  -0.03
     4   6    -0.02  -0.01   0.01    -0.03  -0.01   0.02    -0.01  -0.00   0.04
     5   6    -0.02   0.00   0.02    -0.02   0.04  -0.02    -0.01   0.02   0.05
     6   6    -0.01   0.01   0.01     0.01   0.05  -0.02     0.00   0.02  -0.03
     7   6     0.00  -0.01  -0.01     0.13  -0.01   0.02     0.04  -0.01  -0.11
     8   1    -0.02  -0.03  -0.01     0.00  -0.07   0.06    -0.00  -0.03  -0.00
     9   1    -0.03  -0.01   0.02    -0.06  -0.02   0.02    -0.03  -0.00   0.11
    10   1    -0.03   0.01   0.03    -0.04   0.05  -0.04    -0.03   0.03   0.15
    11   7     0.00  -0.01  -0.02     0.10  -0.04   0.03     0.03  -0.02  -0.08
    12   6    -0.00  -0.01  -0.01     0.09   0.04  -0.03     0.02   0.02   0.12
    13   6    -0.00  -0.01  -0.00     0.11  -0.02   0.00     0.03  -0.01  -0.02
    14   6    -0.01  -0.01   0.02     0.07  -0.07   0.01     0.02  -0.03  -0.01
    15   6    -0.01  -0.01   0.02    -0.01  -0.06   0.01    -0.01  -0.02   0.04
    16   6    -0.01  -0.01   0.02    -0.03   0.00   0.02    -0.01  -0.01  -0.06
    17   6    -0.01  -0.00   0.02     0.02   0.06   0.01     0.00   0.01  -0.05
    18   1    -0.01  -0.02   0.03     0.08  -0.11   0.03     0.02  -0.04  -0.04
    19   1    -0.02  -0.01   0.03    -0.08   0.01   0.04    -0.03  -0.01  -0.14
    20   6    -0.01  -0.01  -0.02    -0.06  -0.13  -0.02    -0.02  -0.04   0.13
    21   1    -0.00   0.02   0.47    -0.03  -0.17   0.15    -0.01  -0.05   0.33
    22   1    -0.29  -0.40  -0.30    -0.19  -0.27  -0.13    -0.18  -0.12   0.07
    23   1     0.27   0.35  -0.36    -0.01   0.02  -0.15     0.11   0.04   0.05
    24   6    -0.01   0.01   0.04    -0.01   0.15   0.05    -0.00   0.03  -0.21
    25   1     0.01   0.01   0.05     0.04   0.21   0.05    -0.09   0.01  -0.26
    26   1    -0.03   0.01   0.05    -0.01   0.17   0.05     0.10   0.06  -0.26
    27   1    -0.02   0.01   0.04    -0.08   0.16   0.08    -0.02   0.03  -0.25
    28   8    -0.00  -0.00  -0.02     0.13   0.07  -0.10     0.03   0.04   0.38
    29   1     0.00  -0.00  -0.03     0.19   0.09  -0.07     0.04   0.04   0.29
    30   7     0.00  -0.00  -0.01     0.10   0.03   0.01     0.04  -0.00  -0.18
    31   1    -0.00  -0.01  -0.01     0.13   0.10   0.00     0.04   0.02  -0.14
    32   6    -0.01   0.03   0.01    -0.01   0.02  -0.04    -0.00   0.02   0.05
    33   1    -0.02   0.04   0.04     0.04  -0.01  -0.06     0.00   0.02   0.11
    34   7     0.01   0.04  -0.01    -0.07  -0.00  -0.01    -0.02   0.02   0.04
    35   6     0.01   0.05  -0.01    -0.08  -0.07   0.00    -0.02  -0.00   0.05
    36   6     0.02   0.05  -0.00    -0.09  -0.09  -0.01    -0.06   0.00   0.04
    37   6     0.02   0.04  -0.01    -0.10  -0.07   0.02     0.01  -0.02   0.04
    38   1     0.01   0.04  -0.01    -0.11  -0.07   0.01    -0.03  -0.01   0.04
    39   6     0.02  -0.01  -0.00    -0.08   0.00   0.01    -0.06   0.02  -0.02
    40   1     0.06   0.06   0.01    -0.14  -0.10  -0.04    -0.07  -0.00   0.05
    41   1     0.01   0.07  -0.01    -0.06  -0.14   0.01    -0.09   0.00   0.05
    42   6     0.01  -0.02   0.01    -0.09   0.01   0.00     0.02  -0.02  -0.02
    43   1     0.06   0.04  -0.02    -0.16  -0.08   0.04     0.01  -0.02   0.07
    44   1     0.00   0.06  -0.01    -0.09  -0.12   0.01     0.04  -0.04   0.06
    45   6     0.05  -0.05   0.01    -0.15   0.08  -0.00    -0.04   0.01  -0.03
    46   1     0.03  -0.02   0.01    -0.09   0.01   0.00    -0.09   0.04  -0.03
    47   1    -0.03  -0.02  -0.02    -0.01   0.02   0.05    -0.04   0.02  -0.04
    48   1     0.03  -0.03   0.01    -0.12   0.03   0.00     0.05  -0.05  -0.02
    49   1    -0.03  -0.03   0.01    -0.02   0.02  -0.02     0.02  -0.03  -0.05
    50   1     0.03  -0.12   0.02    -0.12   0.20  -0.01    -0.03   0.03  -0.07
    51   1     0.11  -0.05   0.02    -0.26   0.07  -0.01    -0.06   0.01  -0.01
                     10                     11                     12
                      A                      A                      A
 Frequencies --    148.1184               181.2268               188.2631
 Red. masses --      4.4397                 1.9886                 1.9773
 Frc consts  --      0.0574                 0.0385                 0.0413
 IR Inten    --      4.4075                 0.4144                 2.0213
  Atom  AN      X      Y      Z        X      Y      Z        X      Y      Z
     1   6     0.00  -0.01  -0.08    -0.00   0.00   0.06     0.00  -0.00  -0.10
     2   6    -0.00   0.00   0.08     0.00   0.00   0.05     0.00  -0.00  -0.08
     3   6    -0.01   0.01   0.19    -0.00  -0.00   0.00     0.00   0.00  -0.01
     4   6    -0.00   0.00   0.03    -0.00  -0.00  -0.04     0.00   0.00   0.06
     5   6     0.00  -0.01  -0.18    -0.00  -0.00  -0.02     0.00   0.00   0.04
     6   6     0.00  -0.01  -0.17    -0.00   0.00   0.03     0.00  -0.00  -0.05
     7   6    -0.01  -0.00  -0.02     0.00  -0.00  -0.01    -0.00   0.00   0.01
     8   1    -0.01   0.02   0.37    -0.00  -0.00  -0.02     0.00   0.00   0.02
     9   1    -0.00   0.00   0.07    -0.00  -0.01  -0.09    -0.00   0.01   0.14
    10   1     0.01  -0.02  -0.28    -0.00  -0.00  -0.06     0.00   0.01   0.10
    11   7    -0.01   0.01   0.11     0.00   0.00   0.02     0.00  -0.00  -0.03
    12   6    -0.01  -0.01  -0.05     0.00  -0.00  -0.05    -0.00   0.00   0.03
    13   6    -0.01  -0.00  -0.05     0.00  -0.00  -0.08    -0.00   0.00   0.11
    14   6    -0.01  -0.00  -0.06     0.00  -0.01  -0.08    -0.00   0.01   0.18
    15   6    -0.00   0.00  -0.01     0.00  -0.00  -0.05     0.00   0.00   0.03
    16   6     0.00  -0.00   0.02    -0.00  -0.01  -0.13     0.00  -0.00  -0.06
    17   6    -0.00  -0.01  -0.01     0.00  -0.00  -0.08    -0.00  -0.00  -0.01
    18   1    -0.01   0.00  -0.06     0.00  -0.01  -0.05    -0.00   0.01   0.24
    19   1     0.00  -0.00   0.07    -0.00  -0.01  -0.14     0.00  -0.01  -0.17
    20   6     0.01   0.01   0.04     0.00   0.00   0.16    -0.00  -0.00  -0.07
    21   1     0.00   0.02   0.10     0.01   0.01   0.30    -0.00  -0.01  -0.18
    22   1    -0.04  -0.01   0.02    -0.14   0.04   0.17     0.10   0.03  -0.04
    23   1     0.06   0.03   0.02     0.15  -0.03   0.17    -0.10  -0.03  -0.03
    24   6    -0.00  -0.01   0.03    -0.00   0.01   0.09     0.00  -0.01   0.03
    25   1     0.01   0.01   0.03     0.22  -0.30   0.40     0.16  -0.38   0.34
    26   1    -0.02  -0.04   0.03    -0.24   0.36   0.34    -0.18   0.40   0.27
    27   1     0.00  -0.01   0.06     0.00  -0.02  -0.29     0.02  -0.04  -0.43
    28   8    -0.01  -0.01  -0.07    -0.00   0.00   0.04     0.00  -0.00  -0.05
    29   1    -0.02  -0.01  -0.01    -0.00   0.00   0.04     0.00  -0.00  -0.04
    30   7    -0.00  -0.01  -0.13     0.00   0.00   0.04     0.00  -0.00  -0.06
    31   1    -0.01  -0.02  -0.11     0.00   0.00   0.01    -0.00  -0.00  -0.01
    32   6     0.01  -0.00  -0.16     0.00   0.00   0.01     0.00  -0.00  -0.02
    33   1     0.01  -0.02  -0.44     0.00   0.00   0.00    -0.00  -0.00  -0.00
    34   7     0.00   0.03   0.21    -0.00  -0.00  -0.01    -0.00   0.00   0.01
    35   6     0.01   0.03   0.13    -0.00  -0.00  -0.01    -0.00   0.00   0.02
    36   6    -0.07   0.05   0.10     0.01  -0.00  -0.01    -0.01   0.00   0.01
    37   6     0.09   0.00   0.10    -0.01  -0.00  -0.01     0.01   0.00   0.01
    38   1     0.01   0.02   0.10    -0.00  -0.00  -0.02     0.00   0.00   0.02
    39   6    -0.08   0.01  -0.02     0.01  -0.00   0.00    -0.01   0.00  -0.00
    40   1    -0.05   0.07   0.14     0.01  -0.00  -0.02    -0.01   0.00   0.02
    41   1    -0.15   0.10   0.11     0.01  -0.01  -0.01    -0.02   0.01   0.02
    42   6     0.09  -0.03  -0.01    -0.01   0.00   0.00     0.01  -0.00  -0.00
    43   1     0.08   0.01   0.11    -0.01  -0.00  -0.01     0.01   0.00   0.02
    44   1     0.15   0.00   0.13    -0.01  -0.00  -0.01     0.02   0.00   0.02
    45   6     0.02  -0.03  -0.05    -0.00   0.00   0.00    -0.00  -0.00  -0.00
    46   1    -0.14   0.03  -0.04     0.01  -0.01   0.00    -0.02   0.01  -0.01
    47   1    -0.10   0.01  -0.06     0.01  -0.00   0.01    -0.01   0.00  -0.01
    48   1     0.16  -0.05  -0.03    -0.02   0.01   0.00     0.02  -0.01  -0.00
    49   1     0.08  -0.04  -0.03    -0.01   0.00   0.00     0.00  -0.01  -0.01
    50   1     0.01  -0.07  -0.12    -0.00   0.01   0.01    -0.00  -0.01  -0.01
    51   1     0.04  -0.02  -0.02    -0.00   0.00   0.00     0.00  -0.00  -0.00
                     13                     14                     15
                      A                      A                      A
 Frequencies --    208.8285               224.8495               226.1278
 Red. masses --      3.2399                 2.9639                 2.1758
 Frc consts  --      0.0832                 0.0883                 0.0656
 IR Inten    --      2.8307                 2.6141                 0.1978
  Atom  AN      X      Y      Z        X      Y      Z        X      Y      Z
     1   6     0.03  -0.02   0.05     0.02  -0.02  -0.09     0.01  -0.00   0.01
     2   6     0.04   0.01  -0.03     0.02   0.00   0.03     0.02   0.01   0.06
     3   6     0.09   0.04  -0.02     0.05   0.01   0.00     0.03   0.01   0.02
     4   6     0.12   0.02   0.05     0.06  -0.00  -0.08     0.03   0.00  -0.07
     5   6     0.11  -0.01   0.04     0.05  -0.02  -0.02     0.03  -0.00  -0.04
     6   6     0.04  -0.04   0.01     0.02  -0.03  -0.01     0.01  -0.00   0.02
     7   6     0.00  -0.00  -0.01    -0.00  -0.00   0.04     0.00   0.00  -0.01
     8   1     0.10   0.07  -0.06     0.05   0.03   0.04     0.03   0.02   0.03
     9   1     0.14   0.03   0.09     0.07  -0.00  -0.12     0.04   0.00  -0.14
    10   1     0.15  -0.04   0.04     0.07  -0.03   0.04     0.04  -0.01  -0.06
    11   7     0.02   0.01  -0.09     0.01   0.01   0.15     0.01   0.01   0.07
    12   6     0.01  -0.01   0.01    -0.00  -0.00  -0.02    -0.00  -0.00   0.01
    13   6     0.01  -0.01  -0.01    -0.00  -0.00   0.04    -0.00  -0.00  -0.04
    14   6     0.01  -0.01  -0.00    -0.00   0.01   0.06    -0.00  -0.01  -0.09
    15   6     0.00  -0.01  -0.00     0.00   0.00  -0.03    -0.00  -0.00   0.05
    16   6     0.00  -0.01  -0.00     0.00  -0.00  -0.12    -0.00   0.01   0.19
    17   6     0.01  -0.01   0.00     0.00  -0.00  -0.04    -0.00  -0.00   0.06
    18   1     0.01  -0.01  -0.00    -0.00   0.01   0.13    -0.00  -0.01  -0.19
    19   1     0.00  -0.01  -0.01     0.00  -0.01  -0.17     0.00   0.01   0.28
    20   6    -0.00  -0.02  -0.00     0.02   0.02   0.04    -0.01  -0.01  -0.05
    21   1     0.00  -0.02   0.00     0.01   0.03   0.06    -0.01  -0.02  -0.08
    22   1    -0.01  -0.02  -0.00    -0.01   0.06   0.06     0.03  -0.07  -0.09
    23   1    -0.00  -0.01  -0.00     0.06  -0.02   0.06    -0.06   0.04  -0.09
    24   6     0.01  -0.01  -0.00    -0.00   0.01   0.08     0.01  -0.03  -0.11
    25   1     0.00  -0.01  -0.01     0.01   0.26  -0.05    -0.00  -0.41   0.09
    26   1     0.01  -0.01  -0.01     0.00  -0.25  -0.01    -0.02   0.35   0.03
    27   1     0.01  -0.01  -0.00    -0.01   0.03   0.39     0.03  -0.06  -0.57
    28   8     0.01   0.00   0.03     0.00   0.00  -0.04    -0.00  -0.00  -0.02
    29   1     0.01  -0.00  -0.01     0.00   0.00   0.03     0.00  -0.00   0.01
    30   7     0.01  -0.02   0.08     0.01  -0.03  -0.13     0.01  -0.01  -0.05
    31   1     0.01  -0.03   0.12     0.01  -0.04  -0.19     0.01  -0.01  -0.10
    32   6     0.01  -0.09  -0.11     0.00  -0.03   0.18     0.00  -0.00   0.09
    33   1     0.04  -0.12  -0.35     0.00  -0.01   0.53     0.01   0.00   0.25
    34   7    -0.02  -0.08   0.07    -0.00  -0.05  -0.09    -0.00  -0.01  -0.04
    35   6    -0.03   0.03  -0.03    -0.01   0.02   0.03    -0.01   0.01   0.01
    36   6    -0.08   0.15  -0.01    -0.05   0.03   0.02    -0.02   0.01   0.00
    37   6    -0.10   0.09  -0.04    -0.04   0.08  -0.00    -0.02   0.04  -0.01
    38   1     0.09   0.05  -0.06     0.04   0.03   0.06     0.01   0.02   0.02
    39   6    -0.11  -0.00  -0.02    -0.06   0.04  -0.03    -0.03   0.01  -0.01
    40   1     0.00   0.19   0.12    -0.08   0.03   0.05    -0.03   0.01   0.01
    41   1    -0.15   0.27  -0.06    -0.08   0.04   0.02    -0.03   0.01   0.00
    42   6    -0.11   0.08   0.03    -0.05  -0.01   0.00    -0.03   0.00   0.00
    43   1    -0.11   0.08  -0.12     0.03   0.08  -0.05     0.00   0.04  -0.03
    44   1    -0.14   0.14  -0.04    -0.06   0.14   0.01    -0.04   0.06  -0.00
    45   6    -0.03  -0.11   0.01    -0.02  -0.04   0.00    -0.02  -0.02   0.00
    46   1    -0.06  -0.01   0.00    -0.08   0.11  -0.02    -0.03   0.04  -0.01
    47   1    -0.24  -0.03  -0.07    -0.05   0.03  -0.12    -0.02   0.01  -0.05
    48   1    -0.12   0.18  -0.03    -0.01  -0.03  -0.00    -0.02  -0.01   0.00
    49   1    -0.16   0.10   0.19    -0.12  -0.02   0.01    -0.06  -0.00   0.01
    50   1    -0.07  -0.32   0.05    -0.04  -0.13   0.01    -0.02  -0.05   0.01
    51   1     0.18  -0.10  -0.03     0.06  -0.03   0.03     0.02  -0.01   0.01
                     16                     17                     18
                      A                      A                      A
 Frequencies --    243.6128               251.3555               269.8303
 Red. masses --      3.9416                 1.8894                 4.6560
 Frc consts  --      0.1378                 0.0703                 0.1997
 IR Inten    --     58.9316                 0.4565                 1.0249
  Atom  AN      X      Y      Z        X      Y      Z        X      Y      Z
     1   6    -0.03  -0.07   0.00    -0.00  -0.01   0.02     0.16  -0.07   0.02
     2   6    -0.04  -0.08   0.01     0.00  -0.01  -0.01     0.16  -0.07  -0.01
     3   6    -0.08  -0.11   0.00     0.00  -0.00   0.01     0.08  -0.12   0.02
     4   6    -0.08  -0.12  -0.00     0.00  -0.01   0.03    -0.01  -0.07   0.02
     5   6    -0.07  -0.11   0.00     0.00  -0.01  -0.00    -0.00  -0.01  -0.01
     6   6    -0.03  -0.09   0.01    -0.00  -0.01  -0.01     0.06   0.02  -0.01
     7   6     0.01  -0.04  -0.00     0.00  -0.00  -0.00     0.07  -0.05   0.00
     8   1    -0.08  -0.14   0.01     0.00  -0.00   0.01     0.07  -0.21   0.03
     9   1    -0.07  -0.12  -0.01     0.01  -0.00   0.05    -0.06  -0.09   0.04
    10   1    -0.09  -0.09  -0.00     0.01  -0.01  -0.02    -0.04   0.01  -0.02
    11   7    -0.01  -0.07   0.01     0.00  -0.01  -0.04     0.12  -0.03  -0.03
    12   6     0.01   0.07  -0.00     0.00   0.00   0.00    -0.10   0.01  -0.00
    13   6     0.01   0.01  -0.00     0.00  -0.00  -0.01    -0.08  -0.01  -0.00
    14   6     0.03   0.04  -0.01     0.00   0.00  -0.00    -0.09   0.01  -0.00
    15   6     0.03   0.06   0.01     0.00   0.00  -0.00    -0.05   0.03  -0.00
    16   6     0.01   0.07   0.03     0.00   0.00   0.00    -0.05   0.01  -0.00
    17   6     0.01   0.09   0.00     0.00   0.01   0.00    -0.08  -0.00   0.00
    18   1     0.02   0.06  -0.03     0.00   0.00  -0.01    -0.09   0.02  -0.00
    19   1     0.00   0.08   0.04    -0.00   0.00   0.00    -0.04   0.01  -0.00
    20   6     0.12   0.16  -0.02     0.01   0.01  -0.00     0.10   0.20  -0.01
    21   1     0.06   0.27  -0.06     0.00   0.02  -0.01     0.00   0.40  -0.05
    22   1     0.23   0.16  -0.01     0.02   0.01  -0.00     0.25   0.22   0.01
    23   1     0.17   0.14  -0.01     0.01   0.01  -0.00     0.22   0.16   0.01
    24   6    -0.03   0.25  -0.03    -0.00   0.02  -0.00    -0.06  -0.09   0.01
    25   1     0.03   0.27  -0.00     0.00   0.02  -0.00    -0.09  -0.12   0.00
    26   1     0.01   0.40  -0.01     0.00   0.03  -0.00    -0.08  -0.14   0.00
    27   1    -0.19   0.25  -0.12    -0.02   0.02  -0.01     0.01  -0.09   0.02
    28   8     0.02   0.07  -0.00     0.00   0.00   0.01    -0.09   0.03  -0.00
    29   1     0.06   0.08   0.00     0.01   0.00  -0.01    -0.06  -0.01  -0.01
    30   7    -0.01  -0.05  -0.01    -0.00  -0.00   0.04     0.12  -0.09   0.04
    31   1     0.00  -0.04  -0.01    -0.00  -0.00   0.05     0.10  -0.13   0.03
    32   6    -0.03  -0.11   0.01    -0.00  -0.01  -0.04     0.06   0.15  -0.02
    33   1    -0.04  -0.11   0.01    -0.00  -0.02  -0.10     0.05   0.15  -0.01
    34   7     0.00  -0.10   0.01    -0.00  -0.01   0.04     0.02   0.14  -0.02
    35   6     0.02  -0.03  -0.00    -0.00   0.01   0.04    -0.03   0.05  -0.01
    36   6     0.01   0.04   0.01    -0.02  -0.12  -0.01    -0.04  -0.01  -0.02
    37   6     0.01   0.00  -0.01     0.01   0.14  -0.05    -0.04  -0.01   0.03
    38   1     0.08  -0.02  -0.02     0.01   0.03   0.18    -0.08   0.04  -0.01
    39   6     0.01   0.00  -0.01     0.02   0.12  -0.04    -0.05  -0.04   0.01
    40   1     0.03   0.06   0.08    -0.19  -0.18  -0.17    -0.01  -0.01  -0.07
    41   1    -0.00   0.10  -0.02     0.07  -0.31   0.06    -0.06  -0.03   0.01
    42   6     0.02   0.04   0.00    -0.04  -0.11  -0.00    -0.05  -0.04   0.00
    43   1    -0.03  -0.01  -0.03     0.18   0.15  -0.22    -0.02   0.00   0.08
    44   1     0.02   0.00  -0.00    -0.07   0.33  -0.03    -0.06  -0.05   0.00
    45   6     0.05  -0.03  -0.00     0.00  -0.00   0.06    -0.10   0.02  -0.00
    46   1     0.01   0.01  -0.00    -0.05   0.33  -0.00    -0.02  -0.10   0.01
    47   1    -0.02  -0.00  -0.03     0.19   0.13  -0.22    -0.08  -0.04   0.08
    48   1    -0.01   0.11  -0.02     0.04  -0.30   0.08    -0.02  -0.08   0.02
    49   1     0.04   0.06   0.08    -0.22  -0.17  -0.15    -0.06  -0.05  -0.06
    50   1     0.03  -0.11   0.01    -0.00  -0.03   0.04    -0.08   0.13  -0.02
    51   1     0.13  -0.02  -0.03     0.03   0.02   0.18    -0.21   0.01  -0.01
                     19                     20                     21
                      A                      A                      A
 Frequencies --    302.1596               302.9280               318.1863
 Red. masses --      3.3973                 4.1544                 4.6844
 Frc consts  --      0.1828                 0.2246                 0.2794
 IR Inten    --     74.6600                 5.3476                11.5546
  Atom  AN      X      Y      Z        X      Y      Z        X      Y      Z
     1   6    -0.02   0.03  -0.02     0.01  -0.01  -0.09    -0.01  -0.01  -0.14
     2   6    -0.01   0.04  -0.00     0.01  -0.01  -0.01    -0.00  -0.01  -0.18
     3   6     0.04   0.08  -0.03    -0.00  -0.03  -0.23    -0.00   0.00  -0.01
     4   6     0.06   0.07  -0.00    -0.02  -0.02  -0.01     0.00   0.00   0.14
     5   6     0.05   0.05   0.03    -0.02   0.01   0.24     0.01  -0.01  -0.04
     6   6     0.00   0.03  -0.01    -0.00   0.00   0.01     0.00  -0.02  -0.19
     7   6    -0.04   0.01   0.02     0.01   0.00   0.14    -0.01   0.01   0.19
     8   1     0.05   0.12  -0.07    -0.00  -0.06  -0.45    -0.00   0.02   0.14
     9   1     0.07   0.08  -0.00    -0.03  -0.02  -0.04     0.00   0.02   0.39
    10   1     0.09   0.03   0.07    -0.03   0.03   0.47     0.01  -0.01   0.03
    11   7    -0.04   0.02   0.03     0.01   0.00   0.24    -0.01  -0.00  -0.01
    12   6     0.05  -0.10   0.01    -0.01   0.02   0.03     0.00   0.01   0.05
    13   6     0.00  -0.04   0.01    -0.00   0.01   0.04     0.00   0.00   0.05
    14   6    -0.04  -0.08  -0.02    -0.00   0.00  -0.13     0.01  -0.00  -0.19
    15   6    -0.04  -0.10   0.00    -0.00   0.01  -0.06     0.01   0.00  -0.10
    16   6    -0.03  -0.16   0.02    -0.00   0.02   0.02     0.01   0.01   0.01
    17   6     0.00  -0.11   0.01    -0.01   0.02   0.03     0.01   0.01   0.05
    18   1    -0.03  -0.12  -0.04    -0.00   0.00  -0.20     0.01  -0.01  -0.28
    19   1    -0.03  -0.16   0.03    -0.00   0.03   0.06     0.01   0.01   0.05
    20   6     0.13   0.06  -0.00    -0.01   0.01   0.04    -0.01  -0.01   0.06
    21   1     0.03   0.25  -0.03    -0.00   0.00   0.13     0.01  -0.02   0.18
    22   1     0.26   0.07   0.01    -0.11   0.03   0.05    -0.15   0.03   0.08
    23   1     0.25   0.03   0.01     0.07  -0.01   0.05     0.11  -0.05   0.08
    24   6    -0.09   0.20  -0.02     0.01  -0.04  -0.01     0.01   0.00  -0.02
    25   1     0.02   0.32  -0.01    -0.04  -0.10  -0.01    -0.04  -0.04  -0.03
    26   1    -0.01   0.37  -0.01     0.01  -0.04  -0.01     0.05   0.05  -0.03
    27   1    -0.37   0.21  -0.06     0.06  -0.05  -0.05     0.01  -0.00  -0.08
    28   8     0.02  -0.14   0.00    -0.00   0.03  -0.05     0.01   0.00  -0.04
    29   1    -0.04  -0.13   0.01     0.02   0.03   0.03     0.01   0.00  -0.06
    30   7    -0.04   0.01  -0.01     0.02  -0.01  -0.09    -0.01   0.01   0.23
    31   1    -0.05  -0.01   0.00     0.02   0.01  -0.03    -0.01   0.01   0.21
    32   6    -0.00   0.05  -0.02     0.00  -0.01  -0.14    -0.01  -0.01   0.03
    33   1    -0.01   0.05  -0.05     0.01  -0.02  -0.41    -0.01   0.01   0.42
    34   7     0.00   0.05  -0.00    -0.00   0.01   0.09     0.01  -0.02  -0.18
    35   6    -0.01   0.03  -0.00     0.00  -0.01  -0.01     0.00   0.01   0.08
    36   6     0.00   0.00  -0.01     0.00  -0.01  -0.02    -0.01   0.01   0.08
    37   6     0.01   0.00   0.01     0.01   0.00  -0.02     0.01   0.02   0.08
    38   1    -0.03   0.03  -0.00    -0.00  -0.01  -0.01     0.00   0.01   0.10
    39   6    -0.00  -0.03   0.02     0.01   0.01   0.00    -0.03  -0.00  -0.02
    40   1     0.02   0.00  -0.04    -0.01  -0.02  -0.05    -0.01   0.02   0.13
    41   1    -0.00  -0.01   0.00     0.03  -0.04  -0.01    -0.08   0.06   0.09
    42   6     0.00  -0.03  -0.01    -0.00  -0.01   0.01     0.03   0.00  -0.02
    43   1     0.02   0.01   0.04     0.00  -0.00  -0.06     0.01   0.02   0.12
    44   1     0.00  -0.01   0.00    -0.01   0.03  -0.02     0.07  -0.01   0.10
    45   6    -0.03   0.02  -0.00     0.01   0.00   0.01    -0.00  -0.01  -0.04
    46   1     0.02  -0.08   0.01     0.01   0.02   0.01    -0.08   0.02  -0.04
    47   1    -0.02  -0.02   0.08     0.02   0.01  -0.00    -0.02  -0.01  -0.05
    48   1     0.02  -0.07   0.01    -0.01  -0.01   0.01     0.08  -0.02  -0.03
    49   1    -0.01  -0.04  -0.06    -0.01  -0.01   0.00     0.02  -0.00  -0.03
    50   1    -0.01   0.09  -0.01     0.01  -0.01   0.01    -0.00  -0.01  -0.05
    51   1    -0.10   0.01  -0.00     0.01   0.00   0.03     0.00  -0.01  -0.05
                     22                     23                     24
                      A                      A                      A
 Frequencies --    337.2957               362.2767               370.9641
 Red. masses --      2.2791                 3.1037                 4.1999
 Frc consts  --      0.1528                 0.2400                 0.3405
 IR Inten    --     35.6586                89.8220                12.4392
  Atom  AN      X      Y      Z        X      Y      Z        X      Y      Z
     1   6     0.00   0.05  -0.01    -0.06   0.03   0.00     0.03  -0.02  -0.00
     2   6     0.01   0.02  -0.01    -0.05   0.02  -0.00     0.02  -0.01  -0.02
     3   6    -0.02   0.01   0.01    -0.02   0.04   0.03     0.01  -0.01   0.08
     4   6    -0.04   0.03  -0.00     0.01   0.03  -0.01    -0.00  -0.01  -0.02
     5   6    -0.03   0.06  -0.02     0.01   0.01  -0.03    -0.00  -0.01  -0.06
     6   6    -0.00   0.06  -0.00    -0.04  -0.01   0.02     0.02   0.00   0.06
     7   6     0.05   0.01   0.00     0.04  -0.00  -0.02    -0.02   0.00  -0.03
     8   1    -0.02  -0.01   0.03    -0.02   0.08   0.06     0.00  -0.03   0.18
     9   1    -0.06   0.02   0.00     0.02   0.03  -0.02    -0.01  -0.02  -0.03
    10   1    -0.06   0.08  -0.02     0.03  -0.01  -0.05    -0.01  -0.01  -0.14
    11   7     0.04  -0.01  -0.01     0.02  -0.03  -0.02    -0.01   0.01  -0.06
    12   6    -0.01  -0.02   0.01     0.01   0.02   0.08    -0.00   0.00   0.24
    13   6     0.00  -0.01   0.01     0.03  -0.03   0.04    -0.02   0.02   0.12
    14   6    -0.05  -0.04  -0.00    -0.03  -0.05  -0.02     0.01   0.02  -0.08
    15   6    -0.06  -0.05  -0.00    -0.07  -0.06  -0.04     0.03   0.03  -0.13
    16   6    -0.05  -0.06  -0.00    -0.07  -0.05  -0.04     0.03   0.02  -0.11
    17   6    -0.04  -0.03   0.01    -0.05  -0.01   0.08     0.03   0.02   0.24
    18   1    -0.04  -0.07  -0.01    -0.01  -0.10  -0.06     0.01   0.04  -0.18
    19   1    -0.06  -0.06  -0.02    -0.10  -0.04  -0.13     0.05   0.00  -0.38
    20   6     0.04   0.06   0.00     0.05   0.08   0.01    -0.02  -0.03   0.06
    21   1    -0.02   0.19  -0.01    -0.03   0.25   0.04     0.02  -0.11   0.21
    22   1     0.12   0.07   0.01     0.13   0.10   0.03    -0.23   0.04   0.09
    23   1     0.13   0.04   0.01     0.21   0.04   0.03     0.07  -0.09   0.09
    24   6    -0.04  -0.06   0.00    -0.02  -0.12  -0.00     0.01   0.06  -0.04
    25   1    -0.06  -0.08  -0.00    -0.13  -0.20  -0.03    -0.17   0.00  -0.13
    26   1    -0.04  -0.07  -0.00     0.01  -0.15  -0.04     0.23   0.16  -0.13
    27   1    -0.01  -0.06  -0.00     0.08  -0.13  -0.04    -0.05   0.05  -0.16
    28   8     0.03   0.01  -0.01     0.15   0.14  -0.04    -0.06  -0.07  -0.12
    29   1     0.07   0.01  -0.01     0.31   0.18  -0.06    -0.13  -0.10  -0.16
    30   7     0.04   0.05   0.00    -0.01   0.04  -0.02    -0.00  -0.02  -0.06
    31   1     0.06   0.10   0.01     0.02   0.10   0.00    -0.02  -0.05   0.03
    32   6     0.00   0.00   0.02    -0.05  -0.09   0.03     0.02   0.05   0.08
    33   1     0.04  -0.02   0.03    -0.03  -0.10   0.00     0.01   0.05  -0.04
    34   7    -0.03  -0.02   0.01    -0.02  -0.08   0.04     0.01   0.05   0.13
    35   6    -0.02  -0.10   0.01     0.00   0.03  -0.02     0.00  -0.01  -0.07
    36   6    -0.01  -0.06   0.03     0.03   0.05  -0.01    -0.01  -0.01  -0.09
    37   6    -0.01  -0.07  -0.02     0.02   0.05  -0.04    -0.01  -0.04  -0.06
    38   1    -0.06  -0.11   0.01     0.07   0.04  -0.03    -0.01  -0.02  -0.11
    39   6     0.02   0.09  -0.05     0.01  -0.05   0.06     0.01   0.01   0.00
    40   1    -0.11  -0.07   0.06     0.10   0.07   0.01    -0.03  -0.03  -0.14
    41   1     0.04  -0.07   0.01     0.02   0.10  -0.04     0.06  -0.07  -0.09
    42   6     0.02   0.10   0.02     0.01  -0.06  -0.04    -0.02   0.02   0.03
    43   1    -0.12  -0.09  -0.04     0.11   0.06  -0.08    -0.03  -0.04  -0.08
    44   1     0.03  -0.08   0.00    -0.01   0.12  -0.03    -0.06  -0.04  -0.09
    45   6     0.11  -0.07   0.01    -0.01   0.06   0.00    -0.01  -0.01   0.04
    46   1    -0.07   0.32  -0.03     0.08  -0.23   0.03     0.06   0.03   0.03
    47   1     0.13   0.09  -0.29    -0.07  -0.05   0.25     0.00   0.01  -0.01
    48   1    -0.08   0.30  -0.06     0.05  -0.21   0.04    -0.09   0.10   0.01
    49   1     0.11   0.16   0.25    -0.06  -0.10  -0.19     0.02   0.04   0.11
    50   1     0.06  -0.32   0.05     0.01   0.19  -0.02    -0.01  -0.04   0.04
    51   1     0.36  -0.04   0.01    -0.16   0.04   0.00     0.03  -0.01   0.04
                     25                     26                     27
                      A                      A                      A
 Frequencies --    394.1889               411.3496               444.4451
 Red. masses --      4.6489                 3.4403                 4.2164
 Frc consts  --      0.4256                 0.3430                 0.4907
[...]
 ! D69   D(14,15,20,23)          0.0411                  1.8                    !
 ! D71   D(16,15,20,22)         -0.0427                  1.9                    !
 ! D72   D(16,15,20,23)          0.0409                  1.8                    !
 --------------------------------------------------------------------------------
                           ----------------------------
                           ! Normal Mode   141        !
 --------------------------                            --------------------------
 ! Name  Definition              Value          Relative Weight (%)             !
 --------------------------------------------------------------------------------
 ! R27   R(20,21)               -0.092                   3.9                    !
 ! R30   R(24,25)                0.3167                 13.4                    !
 ! R31   R(24,26)                0.3724                 15.8                    !
 ! R32   R(24,27)               -0.9822                 41.7                    !
 ! A39   A(12,17,24)             0.0319                  1.4                    !
 ! A40   A(16,17,24)            -0.0321                  1.4                    !
 ! A48   A(17,24,26)            -0.03                    1.3                    !
 ! A49   A(17,24,27)             0.0449                  1.9                    !
 ! A50   A(25,24,26)            -0.0413                  1.8                    !
 ! D77   D(12,17,24,25)          0.0461                  2.0                    !
 ! D78   D(12,17,24,26)         -0.0421                  1.8                    !
 ! D80   D(16,17,24,25)          0.0434                  1.8                    !
 ! D81   D(16,17,24,26)         -0.0448                  1.9                    !
 --------------------------------------------------------------------------------
                           ----------------------------
                           ! Normal Mode   142        !
 --------------------------                            --------------------------
 ! Name  Definition              Value          Relative Weight (%)             !
 --------------------------------------------------------------------------------
 ! R7    R(3,8)                  0.0264                  1.5                    !
 ! R8    R(4,5)                 -0.0318                  1.8                    !
 ! R9    R(4,9)                 -0.2675                 15.1                    !
 ! R10   R(5,6)                 -0.0447                  2.5                    !
 ! R11   R(5,10)                 1.0486                 59.0                    !
 ! A10   A(3,4,5)               -0.0417                  2.3                    !
 ! A12   A(5,4,9)                0.0374                  2.1                    !
 ! A13   A(4,5,6)                0.0623                  3.5                    !
 ! A14   A(4,5,10)              -0.0389                  2.2                    !
 ! A15   A(6,5,10)              -0.0234                  1.3                    !
 ! A16   A(1,6,5)               -0.0265                  1.5                    !
 ! A18   A(5,6,32)               0.0285                  1.6                    !
 --------------------------------------------------------------------------------
                           ----------------------------
                           ! Normal Mode   143        !
 --------------------------                            --------------------------
 ! Name  Definition              Value          Relative Weight (%)             !
 --------------------------------------------------------------------------------
 ! R21   R(14,18)                0.0463                  2.9                    !
 ! R22   R(15,16)                0.0425                  2.7                    !
 ! R24   R(16,17)                0.0477                  3.0                    !
 ! R25   R(16,19)               -1.0819                 68.1                    !
 ! A32   A(14,15,16)             0.0266                  1.7                    !
 ! A34   A(16,15,20)            -0.0301                  1.9                    !
 ! A35   A(15,16,17)            -0.0575                  3.6                    !
 ! A36   A(15,16,19)             0.0286                  1.8                    !
 ! A37   A(17,16,19)             0.0289                  1.8                    !
 ! A38   A(12,17,16)             0.0276                  1.7                    !
 ! A40   A(16,17,24)            -0.0305                  1.9                    !
 --------------------------------------------------------------------------------
                           ----------------------------
                           ! Normal Mode   144        !
 --------------------------                            --------------------------
 ! Name  Definition              Value          Relative Weight (%)             !
 --------------------------------------------------------------------------------
 ! R6    R(3,4)                 -0.0279                  1.4                    !
 ! R7    R(3,8)                 -0.3301                 16.3                    !
 ! R8    R(4,5)                 -0.051                   2.5                    !
 ! R9    R(4,9)                  0.9971                 49.3                    !
 ! R11   R(5,10)                 0.2625                 13.0                    !
 ! A7    A(2,3,4)               -0.0429                  2.1                    !
 ! A9    A(4,3,8)                0.0388                  1.9                    !
 ! A10   A(3,4,5)                0.0546                  2.7                    !
 ! A11   A(3,4,9)               -0.0367                  1.8                    !
 --------------------------------------------------------------------------------
                           ----------------------------
                           ! Normal Mode   145        !
 --------------------------                            --------------------------
 ! Name  Definition              Value          Relative Weight (%)             !
 --------------------------------------------------------------------------------
 ! R19   R(13,14)               -0.0465                  2.9                    !
 ! R20   R(14,15)               -0.0463                  2.9                    !
 ! R21   R(14,18)                1.0821                 68.0                    !
 ! R25   R(16,19)                0.046                   2.9                    !
 ! A27   A(7,13,14)              0.03                    1.9                    !
 ! A28   A(12,13,14)            -0.0278                  1.8                    !
 ! A29   A(13,14,15)             0.0573                  3.6                    !
 ! A30   A(13,14,18)            -0.0325                  2.0                    !
 ! A31   A(15,14,18)            -0.0248                  1.6                    !
 ! A32   A(14,15,16)            -0.0285                  1.8                    !
 ! A33   A(14,15,20)             0.0287                  1.8                    !
 --------------------------------------------------------------------------------
                           ----------------------------
                           ! Normal Mode   146        !
 --------------------------                            --------------------------
 ! Name  Definition              Value          Relative Weight (%)             !
 --------------------------------------------------------------------------------
 ! R4    R(2,3)                  0.0461                  2.6                    !
 ! R6    R(3,4)                  0.0621                  3.4                    !
 ! R7    R(3,8)                 -1.0329                 57.2                    !
 ! R9    R(4,9)                 -0.3268                 18.1                    !
 ! R11   R(5,10)                -0.0575                  3.2                    !
 ! A4    A(1,2,3)                0.0262                  1.5                    !
 ! A6    A(3,2,11)              -0.0284                  1.6                    !
 ! A7    A(2,3,4)               -0.0457                  2.5                    !
 ! A8    A(2,3,8)                0.0265                  1.5                    !
 --------------------------------------------------------------------------------
                           ----------------------------
                           ! Normal Mode   147        !
 --------------------------                            --------------------------
 ! Name  Definition              Value          Relative Weight (%)             !
 --------------------------------------------------------------------------------
 ! R3    R(1,30)                -0.0425                  2.9                    !
 ! R15   R(7,30)                -0.0499                  3.4                    !
 ! R34   R(30,31)                1.0712                 73.3                    !
 ! A2    A(2,1,30)              -0.0244                  1.7                    !
 ! A3    A(6,1,30)               0.025                   1.7                    !
 ! A20   A(11,7,30)             -0.0231                  1.6                    !
 ! A21   A(13,7,30)              0.0242                  1.7                    !
 ! A54   A(1,30,7)               0.0481                  3.3                    !
 ! A56   A(7,30,31)             -0.0586                  4.0                    !
 --------------------------------------------------------------------------------
 -------------------------------------------------------------------
 Center     Atomic                   Forces (Hartrees/Bohr)
 Number     Number              X              Y              Z
 -------------------------------------------------------------------
      1        6           0.000002817    0.000002912   -0.000002623
      2        6           0.000004526    0.000006606   -0.000004514
      3        6           0.000007271    0.000006377   -0.000005921
      4        6           0.000009378    0.000006225   -0.000005564
      5        6           0.000009739    0.000001497   -0.000003685
      6        6           0.000006047    0.000001926   -0.000002429
      7        6          -0.000000251    0.000005200   -0.000002389
      8        1           0.000007248    0.000009875   -0.000007371
      9        1           0.000012094    0.000005938   -0.000006780
     10        1           0.000011197    0.000000785   -0.000003587
     11        7           0.000000599    0.000007632   -0.000004484
     12        6          -0.000004592    0.000007720   -0.000003136
     13        6          -0.000003558    0.000005800   -0.000002009
     14        6          -0.000006470    0.000003725   -0.000000146
     15        6          -0.000009639    0.000003804    0.000000503
     16        6          -0.000009398    0.000006992   -0.000001030
     17        6          -0.000009270    0.000010192   -0.000002757
     18        1          -0.000005601    0.000000916    0.000000980
     19        1          -0.000012962    0.000007251   -0.000000459
     20        6          -0.000011579    0.000001802    0.000002129
     21        1          -0.000010740   -0.000000852    0.000003382
     22        1          -0.000014163    0.000002070    0.000002921
     23        1          -0.000012214    0.000001209    0.000002785
     24        6          -0.000009659    0.000012950   -0.000004322
     25        1          -0.000009313    0.000014309   -0.000005384
     26        1          -0.000007494    0.000013213   -0.000004902
     27        1          -0.000012060    0.000012674   -0.000003599
     28        8          -0.000003903    0.000011425   -0.000005169
     29        1          -0.000001031    0.000010346   -0.000005236
     30        7           0.000001067    0.000001643   -0.000001483
     31        1          -0.000000552    0.000000478   -0.000000126
     32        6           0.000006118   -0.000002016   -0.000000262
     33        1           0.000007745   -0.000003780   -0.000000223
     34        7           0.000002718   -0.000003534    0.000001011
     35        6           0.000003052   -0.000006865    0.000002440
     36        6           0.000004870   -0.000009142    0.000003175
     37        6           0.000002863   -0.000006872    0.000003540
     38        1           0.000000092   -0.000007050    0.000003843
     39        6           0.000004831   -0.000012449    0.000005320
     40        1           0.000008011   -0.000008677    0.000002477
     41        1           0.000005138   -0.000008326    0.000003453
     42        6           0.000002384   -0.000011523    0.000005248
     43        1           0.000005503   -0.000007168    0.000002203
     44        1           0.000001201   -0.000005706    0.000002792
     45        6           0.000005152   -0.000013543    0.000005705
     46        1           0.000006554   -0.000014074    0.000005867
     47        1           0.000002087   -0.000012436    0.000006276
     48        1           0.000002647   -0.000011014    0.000005527
     49        1          -0.000000304   -0.000010600    0.000005960
     50        1           0.000004275   -0.000015379    0.000007164
     51        1           0.000007528   -0.000012483    0.000004889
 -------------------------------------------------------------------
 Cartesian Forces:  Max     0.000015379 RMS     0.000006776
 FormGI is forming the generalized inverse of G from B-inverse, IUseBI=4.
 Leave Link  716 at Fri Dec 14 13:54:19 2018, MaxMem=  1342177280 cpu:              22.4 elap:               1.5
 (Enter /gpfs/apps/hpc/Apps/Restricted/Gaussian/Rev_A.03/g16/l9999.exe)

 ----------------------------------------------------------------------

 Electric dipole moment (input orientation):
 (Debye = 10**-18 statcoulomb cm , SI units = C m)
                  (au)            (Debye)         (10**-30 SI)
   Tot        0.114509D+01      0.291053D+01      0.970847D+01
   x         -0.899353D+00     -0.228593D+01     -0.762503D+01
   y         -0.622891D-01     -0.158323D+00     -0.528109D+00
   z          0.706055D+00      0.179461D+01      0.598618D+01

 Dipole polarizability, Alpha (input orientation).
 (esu units = cm**3 , SI units = C**2 m**2 J**-1)
 Alpha(0;0):
               (au)            (10**-24 esu)      (10**-40 SI)
   iso        0.537941D+03      0.797146D+02      0.886945D+02
   aniso      0.704621D+03      0.104414D+03      0.116176D+03
   xx         0.475555D+03      0.704700D+02      0.784084D+02
   yx         0.906686D+02      0.134357D+02      0.149492D+02
   yy         0.960601D+03      0.142346D+03      0.158382D+03
   zx         0.587441D+00      0.870498D-01      0.968559D-01
   zy        -0.333122D+02     -0.493635D+01     -0.549243D+01
   zz         0.177666D+03      0.263274D+02      0.292932D+02

 ----------------------------------------------------------------------

 Dipole orientation:
     6         -0.24725594          5.10917673          0.69611375
     6         -1.96349945          5.43327964          2.73890069
     6         -2.83294431          7.86414888          3.37322249
     6         -1.93702644          9.86452679          1.94164803
     6         -0.22269185          9.50946842         -0.08381232
     6          0.67007818          7.12851134         -0.76562924
     6         -1.14607684          1.41501720          2.40392315
     1         -4.14581120          8.14398379          4.91627984
     1         -2.55728166         11.76653706          2.37372272
     1          0.41984318         11.14341834         -1.13876858
     7         -2.47626476          3.10884183          3.75218727
     6         -2.81501069         -2.07429547          5.02927508
     6         -1.24263885         -1.24227035          2.93148931
     6          0.06345879         -3.04789446          1.53206938
     6         -0.11442672         -5.61046448          2.13102304
     6         -1.64507820         -6.38211507          4.21695866
     6         -2.98424947         -4.70357757          5.66676113
     1          1.22858858         -2.46741573         -0.04672862
     1         -1.74308509         -8.38130145          4.65607432
     6          1.26051592         -7.56374867          0.63029793
     1          2.30812072         -6.72712735         -0.93164055
     1          2.57984058         -8.60083620          1.84123968
     1         -0.06731050         -8.96171807         -0.11909696
     6         -4.60976133         -5.48287294          7.84724390
     1         -4.02143360         -4.52882716          9.58257332
     1         -6.58174395         -4.96288274          7.51317317
     1         -4.49889568         -7.51868067          8.13524867
     8         -4.11407677         -0.47744002          6.38020736
     1         -3.79369640          1.33405359          5.68454451
     7          0.22319610          2.57736505          0.54252902
     1          1.41957774          1.87492027         -0.79025304
     6          2.43622159          6.70988352         -2.84866978
     1          3.02517741          8.39399048         -3.89460463
     7          3.21933837          4.48023042         -3.37188029
     6          5.00156540          4.17117497         -5.48003276
     6          3.77710504          4.80239208         -8.03869748
     6          7.44882154          5.69626119         -5.12184467
     1          5.50950090          2.16405563         -5.50383699
     6          5.62809655          4.29774814        -10.20876313
     1          3.23043915          6.80121286         -8.03284418
     1          2.04764520          3.69397590         -8.27316810
     6          9.30398451          5.17974718         -7.28524759
     1          6.98739223          7.71597499         -5.08855262
     1          8.29071382          5.23370150         -3.29147842
     6          8.09884250          5.76737686         -9.85393209
     1          4.75045645          4.78059970        -12.01744221
     1          6.04763607          2.26798997        -10.27379654
     1         11.02234365          6.29833026         -7.01692347
     1          9.87184330          3.18627956         -7.23516307
     1          9.41957653          5.33289158        -11.38440242
     1          7.69953377          7.79930381         -9.96250537

 Electric dipole moment (dipole orientation):
 (Debye = 10**-18 statcoulomb cm , SI units = C m)
                  (au)            (Debye)         (10**-30 SI)
   Tot        0.114509D+01      0.291053D+01      0.970847D+01
   x          0.000000D+00      0.000000D+00      0.000000D+00
   y          0.000000D+00      0.000000D+00      0.000000D+00
   z          0.114509D+01      0.291053D+01      0.970847D+01

 Dipole polarizability, Alpha (dipole orientation).
 (esu units = cm**3 , SI units = C**2 m**2 J**-1)
 Alpha(0;0):
               (au)            (10**-24 esu)      (10**-40 SI)
   iso        0.537941D+03      0.797146D+02      0.886945D+02
   aniso      0.704621D+03      0.104414D+03      0.116176D+03
   xx         0.291130D+03      0.431410D+02      0.480008D+02
   yx         0.445023D+01      0.659456D+00      0.733744D+00
   yy         0.949543D+03      0.140708D+03      0.156559D+03
   zx        -0.142903D+03     -0.211760D+02     -0.235615D+02
   zy        -0.127717D+03     -0.189257D+02     -0.210577D+02
   zz         0.373150D+03      0.552951D+02      0.615240D+02

 ----------------------------------------------------------------------

 This type of calculation cannot be archived.


 Everywhere is walking distance if you have the time.
                                    -- Steven Wright
 Job cpu time:       0 days  0 hours  0 minutes 37.4 seconds.
 Elapsed time:       0 days  0 hours  0 minutes  2.6 seconds.
 File lengths (MBytes):  RWF=     72 Int=      0 D2E=      0 Chk=     52 Scr=      8
 Normal termination of Gaussian 16 at Fri Dec 14 13:54:19 2018.
