 Entering Gaussian System, Link 0=g16
 Initial command:
 /gpfs/apps/hpc/Apps/Restricted/Gaussian/Rev_A.03/g16/l1.exe "/gpfs/scratch60/fas/hammes_schiffer/jg2487/c27n10/Gau-11167.inp" -scrdir="/gpfs/scratch60/fas/hammes_schiffer/jg2487/c27n10/"
 Entering Link 1 = /gpfs/apps/hpc/Apps/Restricted/Gaussian/Rev_A.03/g16/l1.exe PID=     11168.
  
 Copyright (c) 1988,1990,1992,1993,1995,1998,2003,2009,2016,
            Gaussian, Inc.  All Rights Reserved.
  
 This is part of the Gaussian(R) 16 program.  It is based on
 the Gaussian(R) 09 system (copyright 2009, Gaussian, Inc.),
 the Gaussian(R) 03 system (copyright 2003, Gaussian, Inc.),
 the Gaussian(R) 98 system (copyright 1998, Gaussian, Inc.),
 the Gaussian(R) 94 system (copyright 1995, Gaussian, Inc.),
 the Gaussian 92(TM) system (copyright 1992, Gaussian, Inc.),
 the Gaussian 90(TM) system (copyright 1990, Gaussian, Inc.),
 the Gaussian 88(TM) system (copyright 1988, Gaussian, Inc.),
 the Gaussian 86(TM) system (copyright 1986, Carnegie Mellon
 University), and the Gaussian 82(TM) system (copyright 1983,
 Carnegie Mellon University). Gaussian is a federally registered
 trademark of Gaussian, Inc.
  
 This software contains proprietary and confidential information,
 including trade secrets, belonging to Gaussian, Inc.
  
 This software is provided under written license and may be
 used, copied, transmitted, or stored only in accord with that
 written license.
  
 The following legend is applicable only to US Government
 contracts under FAR:
  
                    RESTRICTED RIGHTS LEGEND
  
 Use, reproduction and disclosure by the US Government is
 subject to restrictions as set forth in subparagraphs (a)
 and (c) of the Commercial Computer Software - Restricted
 Rights clause in FAR 52.227-19.
  
 Gaussian, Inc.
 340 Quinnipiac St., Bldg. 40, Wallingford CT 06492
  
  
 ---------------------------------------------------------------
 Warning -- This program may not be used in any manner that
 competes with the business of Gaussian, Inc. or will provide
 assistance to any competitor of Gaussian, Inc.  The licensee
 of this program is prohibited from giving any competitor of
 Gaussian, Inc. access to this program.  By using this program,
 the user acknowledges that Gaussian, Inc. is engaged in the
 business of creating and licensing software in the field of
 computational chemistry and represents and warrants to the
 licensee that it is not a competitor of Gaussian, Inc. and that
 it will not use this program in any manner prohibited above.
 ---------------------------------------------------------------
  

 Cite this work as:
 Gaussian 16, Revision A.03,
 M. J. Frisch, G. W. Trucks, H. B. Schlegel, G. E. Scuseria, 
 M. A. Robb, J. R. Cheeseman, G. Scalmani, V. Barone, 
 G. A. Petersson, H. Nakatsuji, X. Li, M. Caricato, A. V. Marenich, 
 J. Bloino, B. G. Janesko, R. Gomperts, B. Mennucci, H. P. Hratchian, 
 J. V. Ortiz, A. F. Izmaylov, J. L. Sonnenberg, D. Williams-Young, 
 F. Ding, F. Lipparini, F. Egidi, J. Goings, B. Peng, A. Petrone, 
 T. Henderson, D. Ranasinghe, V. G. Zakrzewski, J. Gao, N. Rega, 
 G. Zheng, W. Liang, M. Hada, M. Ehara, K. Toyota, R. Fukuda, 
 J. Hasegawa, M. Ishida, T. Nakajima, Y. Honda, O. Kitao, H. Nakai, 
 T. Vreven, K. Throssell, J. A. Montgomery, Jr., J. E. Peralta, 
 F. Ogliaro, M. J. Bearpark, J. J. Heyd, E. N. Brothers, K. N. Kudin, 
 V. N. Staroverov, T. A. Keith, R. Kobayashi, J. Normand, 
 K. Raghavachari, A. P. Rendell, J. C. Burant, S. S. Iyengar, 
 J. Tomasi, M. Cossi, J. M. Millam, M. Klene, C. Adamo, R. Cammi, 
 J. W. Ochterski, R. L. Martin, K. Morokuma, O. Farkas, 
 J. B. Foresman, and D. J. Fox, Gaussian, Inc., Wallingford CT, 2016.
 
 ******************************************
 Gaussian 16:  ES64L-G16RevA.03 25-Dec-2016
                16-Dec-2018 
 ******************************************
 %chk=cyclohexyl-monoBIP-TS2.chk
 %mem=10GB
 %nprocshared=16
 Will use up to   16 processors via shared memory.
 ----------------------------------------------------------------------
 #p opt=(calcfc,tight,ts,noeigentest) freq=internalmodes b3lyp/6-31g(d,
 p) scrf=(cpcm,solvent=dichloromethane,read) nosymm empiricaldispersion
 =gd3bj int=grid=ultrafine
 ----------------------------------------------------------------------
 1/5=1,7=10,10=4,11=1,18=20,26=6,38=1,40=2/1,3;
 2/9=110,12=2,15=1,17=6,18=5,40=1/2;
 3/5=1,6=6,7=101,11=2,25=1,30=1,70=2103,71=2,72=9,74=-5,75=-5,124=41,140=1/1,2,3;
 4//1;
 5/5=2,38=5,53=9/2;
 8/6=4,10=90,11=11/1;
 11/6=1,8=1,9=11,15=111,16=1,31=1/1,2,10;
 10/6=1,13=1,31=1/2;
 6/7=2,8=2,9=2,10=2,28=1/1;
 7/10=1,18=20,25=1,30=1/1,2,3,16;
 1/5=1,7=10,10=4,11=1,18=20,26=6/3(2);
 2/9=110,15=1/2;
 99//99;
 2/9=110,15=1/2;
 3/5=1,6=6,7=101,11=2,25=1,30=1,70=2105,71=1,72=9,74=-5,75=-5,124=41/1,2,3;
 4/5=5,16=3,69=1/1;
 5/5=2,38=5,53=9/2;
 7/30=1/1,2,3,16;
 1/5=1,7=10,11=1,18=20,26=6/3(-5);
 2/9=110,15=1/2;
 6/7=2,8=2,9=2,10=2,19=2,28=1/1;
 99/9=1/99;
 Leave Link    1 at Sun Dec 16 10:30:04 2018, MaxMem=  1342177280 cpu:               7.6 elap:               0.5
 (Enter /gpfs/apps/hpc/Apps/Restricted/Gaussian/Rev_A.03/g16/l101.exe)
 --------------------------------------------------------------------
 cyclohexylimine monoBIP oxidized, TS opt to both protons transferred
 --------------------------------------------------------------------
 Symbolic Z-matrix:
 Charge =  1 Multiplicity = 2
 C                    -0.56914   2.97565   0.35301 
 C                    -1.96117   3.10401   0.27713 
 C                    -2.54275   4.37258   0.19123 
 C                    -1.67016   5.46371   0.18645 
 C                    -0.26877   5.32386   0.2573 
 C                     0.31741   4.05965   0.34088 
 C                    -1.3709    0.94509   0.3763 
 H                    -3.61432   4.50865   0.12738 
 H                    -2.08765   6.46097   0.12233 
 H                     0.3584    6.20711   0.24021 
 N                    -2.42563   1.80208   0.29675 
 C                    -2.82004  -1.11126   0.29828 
 C                    -1.49328  -0.49288   0.40707 
 C                    -0.36585  -1.28608   0.5373 
 C                    -0.45895  -2.68985   0.56399 
 C                    -1.73203  -3.30121   0.44695 
 C                    -2.88921  -2.57194   0.31447 
 H                     0.61021  -0.82322   0.62405 
 H                    -1.79091  -4.38398   0.47096 
 C                     0.76672  -3.53672   0.70029 
 H                     0.98841  -4.03733  -0.24931 
 H                     1.63686  -2.94402   0.9833 
 H                     0.61348  -4.3242    1.44277 
 C                    -4.23702  -3.20654   0.19624 
 H                    -4.90575  -2.83585   0.97793 
 H                    -4.70363  -2.94858  -0.75907 
 H                    -4.16163  -4.29102   0.27271 
 O                    -3.87013  -0.42833   0.20095 
 N                    -0.22418   1.65191   0.41491 
 C                     1.73863   3.75063   0.38515 
 H                     2.46108   4.56566   0.36887 
 N                     2.10297   2.51278   0.43437 
 C                     3.52267   2.1326    0.44054 
 C                     4.1845    2.46607  -0.90678 
 C                     4.29448   2.7706    1.60582 
 H                     3.53725   1.04683   0.57204 
 C                     5.6516    2.02566  -0.91483 
 H                     4.11956   3.54976  -1.06233 
 H                     3.62719   1.98915  -1.71775 
 C                     5.75992   2.32446   1.59276 
 H                     4.24618   3.8614    1.51004 
 H                     3.8131    2.50502   2.55083 
 C                     6.42965   2.64395   0.25169 
 H                     6.11308   2.29438  -1.86937 
 H                     5.69829   0.93253  -0.83747 
 H                     6.29883   2.80286   2.4158 
 H                     5.80776   1.24298   1.77037 
 H                     7.46194   2.28169   0.24964 
 H                     6.47289   3.73202   0.12028 
 H                    -3.37477   1.43621   0.24491 
 H                     0.99347   1.67509   0.43861 
 
 Add virtual bond connecting atoms H51        and N29        Dist= 2.30D+00.
 ITRead=  0  0  0  0  0  0  0  0  0  0  0  0  0  0  0  0  0  0  0  0
 ITRead=  0  0  0  0  0  0  0  0  0  0  0  0  0  0  0  0  0  0  0  0
 ITRead=  0  0  0  0  0  0  0  0  0  0  0
 MicOpt= -1 -1 -1 -1 -1 -1 -1 -1 -1 -1 -1 -1 -1 -1 -1 -1 -1 -1 -1 -1
 MicOpt= -1 -1 -1 -1 -1 -1 -1 -1 -1 -1 -1 -1 -1 -1 -1 -1 -1 -1 -1 -1
 MicOpt= -1 -1 -1 -1 -1 -1 -1 -1 -1 -1 -1
 NAtoms=     51 NQM=       51 NQMF=       0 NMMI=      0 NMMIF=      0
                NMic=       0 NMicF=      0.
                    Isotopes and Nuclear Properties:
 (Nuclear quadrupole moments (NQMom) in fm**2, nuclear magnetic moments (NMagM)
  in nuclear magnetons)

  Atom         1           2           3           4           5           6           7           8           9          10
 IAtWgt=          12          12          12          12          12          12          12           1           1           1
 AtmWgt=  12.0000000  12.0000000  12.0000000  12.0000000  12.0000000  12.0000000  12.0000000   1.0078250   1.0078250   1.0078250
 NucSpn=           0           0           0           0           0           0           0           1           1           1
 AtZEff=  -0.0000000  -0.0000000  -0.0000000  -0.0000000  -0.0000000  -0.0000000  -0.0000000  -0.0000000  -0.0000000  -0.0000000
 NQMom=    0.0000000   0.0000000   0.0000000   0.0000000   0.0000000   0.0000000   0.0000000   0.0000000   0.0000000   0.0000000
 NMagM=    0.0000000   0.0000000   0.0000000   0.0000000   0.0000000   0.0000000   0.0000000   2.7928460   2.7928460   2.7928460
 AtZNuc=   6.0000000   6.0000000   6.0000000   6.0000000   6.0000000   6.0000000   6.0000000   1.0000000   1.0000000   1.0000000

  Atom        11          12          13          14          15          16          17          18          19          20
 IAtWgt=          14          12          12          12          12          12          12           1           1          12
 AtmWgt=  14.0030740  12.0000000  12.0000000  12.0000000  12.0000000  12.0000000  12.0000000   1.0078250   1.0078250  12.0000000
 NucSpn=           2           0           0           0           0           0           0           1           1           0
 AtZEff=  -0.0000000  -0.0000000  -0.0000000  -0.0000000  -0.0000000  -0.0000000  -0.0000000  -0.0000000  -0.0000000  -0.0000000
 NQMom=    2.0440000   0.0000000   0.0000000   0.0000000   0.0000000   0.0000000   0.0000000   0.0000000   0.0000000   0.0000000
 NMagM=    0.4037610   0.0000000   0.0000000   0.0000000   0.0000000   0.0000000   0.0000000   2.7928460   2.7928460   0.0000000
 AtZNuc=   7.0000000   6.0000000   6.0000000   6.0000000   6.0000000   6.0000000   6.0000000   1.0000000   1.0000000   6.0000000

  Atom        21          22          23          24          25          26          27          28          29          30
 IAtWgt=           1           1           1          12           1           1           1          16          14          12
 AtmWgt=   1.0078250   1.0078250   1.0078250  12.0000000   1.0078250   1.0078250   1.0078250  15.9949146  14.0030740  12.0000000
 NucSpn=           1           1           1           0           1           1           1           0           2           0
 AtZEff=  -0.0000000  -0.0000000  -0.0000000  -0.0000000  -0.0000000  -0.0000000  -0.0000000  -0.0000000  -0.0000000  -0.0000000
 NQMom=    0.0000000   0.0000000   0.0000000   0.0000000   0.0000000   0.0000000   0.0000000   0.0000000   2.0440000   0.0000000
 NMagM=    2.7928460   2.7928460   2.7928460   0.0000000   2.7928460   2.7928460   2.7928460   0.0000000   0.4037610   0.0000000
 AtZNuc=   1.0000000   1.0000000   1.0000000   6.0000000   1.0000000   1.0000000   1.0000000   8.0000000   7.0000000   6.0000000

  Atom        31          32          33          34          35          36          37          38          39          40
 IAtWgt=           1          14          12          12          12           1          12           1           1          12
 AtmWgt=   1.0078250  14.0030740  12.0000000  12.0000000  12.0000000   1.0078250  12.0000000   1.0078250   1.0078250  12.0000000
 NucSpn=           1           2           0           0           0           1           0           1           1           0
 AtZEff=  -0.0000000  -0.0000000  -0.0000000  -0.0000000  -0.0000000  -0.0000000  -0.0000000  -0.0000000  -0.0000000  -0.0000000
 NQMom=    0.0000000   2.0440000   0.0000000   0.0000000   0.0000000   0.0000000   0.0000000   0.0000000   0.0000000   0.0000000
 NMagM=    2.7928460   0.4037610   0.0000000   0.0000000   0.0000000   2.7928460   0.0000000   2.7928460   2.7928460   0.0000000
 AtZNuc=   1.0000000   7.0000000   6.0000000   6.0000000   6.0000000   1.0000000   6.0000000   1.0000000   1.0000000   6.0000000

  Atom        41          42          43          44          45          46          47          48          49          50
 IAtWgt=           1           1          12           1           1           1           1           1           1           1
 AtmWgt=   1.0078250   1.0078250  12.0000000   1.0078250   1.0078250   1.0078250   1.0078250   1.0078250   1.0078250   1.0078250
 NucSpn=           1           1           0           1           1           1           1           1           1           1
 AtZEff=  -0.0000000  -0.0000000  -0.0000000  -0.0000000  -0.0000000  -0.0000000  -0.0000000  -0.0000000  -0.0000000  -0.0000000
 NQMom=    0.0000000   0.0000000   0.0000000   0.0000000   0.0000000   0.0000000   0.0000000   0.0000000   0.0000000   0.0000000
 NMagM=    2.7928460   2.7928460   0.0000000   2.7928460   2.7928460   2.7928460   2.7928460   2.7928460   2.7928460   2.7928460
 AtZNuc=   1.0000000   1.0000000   6.0000000   1.0000000   1.0000000   1.0000000   1.0000000   1.0000000   1.0000000   1.0000000

  Atom        51
 IAtWgt=           1
 AtmWgt=   1.0078250
 NucSpn=           1
 AtZEff=  -0.0000000
 NQMom=    0.0000000
 NMagM=    2.7928460
 AtZNuc=   1.0000000
 Leave Link  101 at Sun Dec 16 10:30:04 2018, MaxMem=  1342177280 cpu:               4.8 elap:               0.3
 (Enter /gpfs/apps/hpc/Apps/Restricted/Gaussian/Rev_A.03/g16/l103.exe)

 GradGradGradGradGradGradGradGradGradGradGradGradGradGradGradGradGradGrad
 Berny optimization.
 Initialization pass.
                           ----------------------------
                           !    Initial Parameters    !
                           ! (Angstroms and Degrees)  !
 --------------------------                            --------------------------
 ! Name  Definition              Value          Derivative Info.                !
 --------------------------------------------------------------------------------
 ! R1    R(1,2)                  1.4            calculate D2E/DX2 analytically  !
 ! R2    R(1,6)                  1.4004         calculate D2E/DX2 analytically  !
 ! R3    R(1,29)                 1.3694         calculate D2E/DX2 analytically  !
 ! R4    R(2,3)                  1.3982         calculate D2E/DX2 analytically  !
 ! R5    R(2,11)                 1.3824         calculate D2E/DX2 analytically  !
 ! R6    R(3,4)                  1.3971         calculate D2E/DX2 analytically  !
 ! R7    R(3,8)                  1.0821         calculate D2E/DX2 analytically  !
 ! R8    R(4,5)                  1.4101         calculate D2E/DX2 analytically  !
 ! R9    R(4,9)                  1.083          calculate D2E/DX2 analytically  !
 ! R10   R(5,6)                  1.396          calculate D2E/DX2 analytically  !
 ! R11   R(5,10)                 1.0834         calculate D2E/DX2 analytically  !
 ! R12   R(6,30)                 1.4551         calculate D2E/DX2 analytically  !
 ! R13   R(7,11)                 1.3613         calculate D2E/DX2 analytically  !
 ! R14   R(7,13)                 1.4435         calculate D2E/DX2 analytically  !
 ! R15   R(7,29)                 1.3476         calculate D2E/DX2 analytically  !
 ! R16   R(11,50)                1.0185         calculate D2E/DX2 analytically  !
 ! R17   R(12,13)                1.4678         calculate D2E/DX2 analytically  !
 ! R18   R(12,17)                1.4624         calculate D2E/DX2 analytically  !
 ! R19   R(12,28)                1.2564         calculate D2E/DX2 analytically  !
 ! R20   R(13,14)                1.3846         calculate D2E/DX2 analytically  !
 ! R21   R(14,15)                1.4071         calculate D2E/DX2 analytically  !
 ! R22   R(14,18)                1.0837         calculate D2E/DX2 analytically  !
 ! R23   R(15,16)                1.4171         calculate D2E/DX2 analytically  !
 ! R24   R(15,20)                1.496          calculate D2E/DX2 analytically  !
 ! R25   R(16,17)                1.3742         calculate D2E/DX2 analytically  !
 ! R26   R(16,19)                1.0846         calculate D2E/DX2 analytically  !
 ! R27   R(17,24)                1.4944         calculate D2E/DX2 analytically  !
 ! R28   R(20,21)                1.0961         calculate D2E/DX2 analytically  !
 ! R29   R(20,22)                1.0902         calculate D2E/DX2 analytically  !
 ! R30   R(20,23)                1.0931         calculate D2E/DX2 analytically  !
 ! R31   R(24,25)                1.0935         calculate D2E/DX2 analytically  !
 ! R32   R(24,26)                1.094          calculate D2E/DX2 analytically  !
 ! R33   R(24,27)                1.0898         calculate D2E/DX2 analytically  !
 ! R34   R(29,51)                1.2181         calculate D2E/DX2 analytically  !
 ! R35   R(30,31)                1.0893         calculate D2E/DX2 analytically  !
 ! R36   R(30,32)                1.2913         calculate D2E/DX2 analytically  !
 ! R37   R(32,33)                1.4697         calculate D2E/DX2 analytically  !
 ! R38   R(33,34)                1.5377         calculate D2E/DX2 analytically  !
 ! R39   R(33,35)                1.5364         calculate D2E/DX2 analytically  !
 ! R40   R(33,36)                1.0938         calculate D2E/DX2 analytically  !
 ! R41   R(34,37)                1.5318         calculate D2E/DX2 analytically  !
 ! R42   R(34,38)                1.0967         calculate D2E/DX2 analytically  !
 ! R43   R(34,39)                1.0935         calculate D2E/DX2 analytically  !
 ! R44   R(35,40)                1.5319         calculate D2E/DX2 analytically  !
 ! R45   R(35,41)                1.0961         calculate D2E/DX2 analytically  !
 ! R46   R(35,42)                1.0933         calculate D2E/DX2 analytically  !
 ! R47   R(37,43)                1.5324         calculate D2E/DX2 analytically  !
 ! R48   R(37,44)                1.0938         calculate D2E/DX2 analytically  !
 ! R49   R(37,45)                1.0969         calculate D2E/DX2 analytically  !
 ! R50   R(40,43)                1.5327         calculate D2E/DX2 analytically  !
 ! R51   R(40,46)                1.0939         calculate D2E/DX2 analytically  !
 ! R52   R(40,47)                1.097          calculate D2E/DX2 analytically  !
 ! R53   R(43,48)                1.094          calculate D2E/DX2 analytically  !
 ! R54   R(43,49)                1.0968         calculate D2E/DX2 analytically  !
 ! A1    A(2,1,6)              123.919          calculate D2E/DX2 analytically  !
 ! A2    A(2,1,29)             109.9722         calculate D2E/DX2 analytically  !
 ! A3    A(6,1,29)             126.0992         calculate D2E/DX2 analytically  !
 ! A4    A(1,2,3)              120.0071         calculate D2E/DX2 analytically  !
 ! A5    A(1,2,11)             104.2967         calculate D2E/DX2 analytically  !
 ! A6    A(3,2,11)             135.6919         calculate D2E/DX2 analytically  !
 ! A7    A(2,3,4)              116.6798         calculate D2E/DX2 analytically  !
 ! A8    A(2,3,8)              121.9817         calculate D2E/DX2 analytically  !
 ! A9    A(4,3,8)              121.338          calculate D2E/DX2 analytically  !
 ! A10   A(3,4,5)              122.8919         calculate D2E/DX2 analytically  !
 ! A11   A(3,4,9)              118.5924         calculate D2E/DX2 analytically  !
 ! A12   A(5,4,9)              118.5154         calculate D2E/DX2 analytically  !
 ! A13   A(4,5,6)              120.6714         calculate D2E/DX2 analytically  !
 ! A14   A(4,5,10)             119.5806         calculate D2E/DX2 analytically  !
 ! A15   A(6,5,10)             119.7468         calculate D2E/DX2 analytically  !
 ! A16   A(1,6,5)              115.8286         calculate D2E/DX2 analytically  !
 ! A17   A(1,6,30)             116.9791         calculate D2E/DX2 analytically  !
 ! A18   A(5,6,30)             127.176          calculate D2E/DX2 analytically  !
 ! A19   A(11,7,13)            124.2413         calculate D2E/DX2 analytically  !
 ! A20   A(11,7,29)            109.3156         calculate D2E/DX2 analytically  !
 ! A21   A(13,7,29)            126.4426         calculate D2E/DX2 analytically  !
 ! A22   A(2,11,7)             109.475          calculate D2E/DX2 analytically  !
 ! A23   A(2,11,50)            130.5908         calculate D2E/DX2 analytically  !
 ! A24   A(7,11,50)            119.9225         calculate D2E/DX2 analytically  !
 ! A25   A(13,12,17)           117.563          calculate D2E/DX2 analytically  !
 ! A26   A(13,12,28)           122.1546         calculate D2E/DX2 analytically  !
 ! A27   A(17,12,28)           120.2814         calculate D2E/DX2 analytically  !
 ! A28   A(7,13,12)            119.6516         calculate D2E/DX2 analytically  !
 ! A29   A(7,13,14)            120.2411         calculate D2E/DX2 analytically  !
 ! A30   A(12,13,14)           120.1074         calculate D2E/DX2 analytically  !
 ! A31   A(13,14,15)           121.2927         calculate D2E/DX2 analytically  !
 ! A32   A(13,14,18)           119.75           calculate D2E/DX2 analytically  !
 ! A33   A(15,14,18)           118.957          calculate D2E/DX2 analytically  !
 ! A34   A(14,15,16)           119.2264         calculate D2E/DX2 analytically  !
 ! A35   A(14,15,20)           120.815          calculate D2E/DX2 analytically  !
 ! A36   A(16,15,20)           119.9559         calculate D2E/DX2 analytically  !
 ! A37   A(15,16,17)           122.3782         calculate D2E/DX2 analytically  !
 ! A38   A(15,16,19)           118.5292         calculate D2E/DX2 analytically  !
 ! A39   A(17,16,19)           119.0909         calculate D2E/DX2 analytically  !
 ! A40   A(12,17,16)           119.4256         calculate D2E/DX2 analytically  !
 ! A41   A(12,17,24)           117.7701         calculate D2E/DX2 analytically  !
 ! A42   A(16,17,24)           122.8021         calculate D2E/DX2 analytically  !
 ! A43   A(15,20,21)           110.2            calculate D2E/DX2 analytically  !
 ! A44   A(15,20,22)           111.7042         calculate D2E/DX2 analytically  !
 ! A45   A(15,20,23)           110.7839         calculate D2E/DX2 analytically  !
 ! A46   A(21,20,22)           108.1655         calculate D2E/DX2 analytically  !
 ! A47   A(21,20,23)           106.7249         calculate D2E/DX2 analytically  !
 ! A48   A(22,20,23)           109.1003         calculate D2E/DX2 analytically  !
 ! A49   A(17,24,25)           110.5525         calculate D2E/DX2 analytically  !
 ! A50   A(17,24,26)           110.7094         calculate D2E/DX2 analytically  !
 ! A51   A(17,24,27)           110.7706         calculate D2E/DX2 analytically  !
 ! A52   A(25,24,26)           106.4671         calculate D2E/DX2 analytically  !
 ! A53   A(25,24,27)           109.2385         calculate D2E/DX2 analytically  !
 ! A54   A(26,24,27)           108.991          calculate D2E/DX2 analytically  !
 ! A55   A(1,29,7)             106.9399         calculate D2E/DX2 analytically  !
 ! A56   A(1,29,51)            103.5508         calculate D2E/DX2 analytically  !
 ! A57   A(7,29,51)            149.4463         calculate D2E/DX2 analytically  !
 ! A58   A(6,30,31)            119.2384         calculate D2E/DX2 analytically  !
 ! A59   A(6,30,32)            118.7069         calculate D2E/DX2 analytically  !
 ! A60   A(31,30,32)           122.0533         calculate D2E/DX2 analytically  !
 ! A61   A(30,32,33)           121.3773         calculate D2E/DX2 analytically  !
 ! A62   A(32,33,34)           110.8533         calculate D2E/DX2 analytically  !
 ! A63   A(32,33,35)           112.3963         calculate D2E/DX2 analytically  !
 ! A64   A(32,33,36)           105.6729         calculate D2E/DX2 analytically  !
 ! A65   A(34,33,35)           110.9947         calculate D2E/DX2 analytically  !
 ! A66   A(34,33,36)           108.3534         calculate D2E/DX2 analytically  !
 ! A67   A(35,33,36)           108.3199         calculate D2E/DX2 analytically  !
 ! A68   A(33,34,37)           110.7613         calculate D2E/DX2 analytically  !
 ! A69   A(33,34,38)           108.2447         calculate D2E/DX2 analytically  !
 ! A70   A(33,34,39)           109.6259         calculate D2E/DX2 analytically  !
 ! A71   A(37,34,38)           109.8801         calculate D2E/DX2 analytically  !
 ! A72   A(37,34,39)           111.0293         calculate D2E/DX2 analytically  !
 ! A73   A(38,34,39)           107.1935         calculate D2E/DX2 analytically  !
 ! A74   A(33,35,40)           110.6799         calculate D2E/DX2 analytically  !
 ! A75   A(33,35,41)           108.9555         calculate D2E/DX2 analytically  !
 ! A76   A(33,35,42)           109.4821         calculate D2E/DX2 analytically  !
 ! A77   A(40,35,41)           109.3443         calculate D2E/DX2 analytically  !
 ! A78   A(40,35,42)           110.9674         calculate D2E/DX2 analytically  !
 ! A79   A(41,35,42)           107.33           calculate D2E/DX2 analytically  !
 ! A80   A(34,37,43)           111.486          calculate D2E/DX2 analytically  !
 ! A81   A(34,37,44)           109.758          calculate D2E/DX2 analytically  !
 ! A82   A(34,37,45)           109.082          calculate D2E/DX2 analytically  !
 ! A83   A(43,37,44)           110.5477         calculate D2E/DX2 analytically  !
 ! A84   A(43,37,45)           109.0743         calculate D2E/DX2 analytically  !
 ! A85   A(44,37,45)           106.7643         calculate D2E/DX2 analytically  !
 ! A86   A(35,40,43)           111.3933         calculate D2E/DX2 analytically  !
 ! A87   A(35,40,46)           109.7239         calculate D2E/DX2 analytically  !
 ! A88   A(35,40,47)           109.1136         calculate D2E/DX2 analytically  !
 ! A89   A(43,40,46)           110.603          calculate D2E/DX2 analytically  !
 ! A90   A(43,40,47)           109.1538         calculate D2E/DX2 analytically  !
 ! A91   A(46,40,47)           106.7281         calculate D2E/DX2 analytically  !
 ! A92   A(37,43,40)           111.1062         calculate D2E/DX2 analytically  !
 ! A93   A(37,43,48)           110.1237         calculate D2E/DX2 analytically  !
 ! A94   A(37,43,49)           109.2115         calculate D2E/DX2 analytically  !
 ! A95   A(40,43,48)           110.1778         calculate D2E/DX2 analytically  !
 ! A96   A(40,43,49)           109.1986         calculate D2E/DX2 analytically  !
 ! A97   A(48,43,49)           106.9212         calculate D2E/DX2 analytically  !
 ! D1    D(6,1,2,3)             -0.4159         calculate D2E/DX2 analytically  !
 ! D2    D(6,1,2,11)           178.9419         calculate D2E/DX2 analytically  !
 ! D3    D(29,1,2,3)          -179.3542         calculate D2E/DX2 analytically  !
 ! D4    D(29,1,2,11)            0.0036         calculate D2E/DX2 analytically  !
 ! D5    D(2,1,6,5)              0.5061         calculate D2E/DX2 analytically  !
 ! D6    D(2,1,6,30)          -178.1296         calculate D2E/DX2 analytically  !
 ! D7    D(29,1,6,5)           179.2712         calculate D2E/DX2 analytically  !
 ! D8    D(29,1,6,30)            0.6355         calculate D2E/DX2 analytically  !
 ! D9    D(2,1,29,7)             0.1417         calculate D2E/DX2 analytically  !
 ! D10   D(2,1,29,51)          178.1571         calculate D2E/DX2 analytically  !
 ! D11   D(6,1,29,7)          -178.7679         calculate D2E/DX2 analytically  !
 ! D12   D(6,1,29,51)           -0.7526         calculate D2E/DX2 analytically  !
 ! D13   D(1,2,3,4)              0.0038         calculate D2E/DX2 analytically  !
 ! D14   D(1,2,3,8)            179.7651         calculate D2E/DX2 analytically  !
 ! D15   D(11,2,3,4)          -179.1054         calculate D2E/DX2 analytically  !
 ! D16   D(11,2,3,8)             0.6559         calculate D2E/DX2 analytically  !
 ! D17   D(1,2,11,7)            -0.1483         calculate D2E/DX2 analytically  !
 ! D18   D(1,2,11,50)         -178.8723         calculate D2E/DX2 analytically  !
 ! D19   D(3,2,11,7)           179.0556         calculate D2E/DX2 analytically  !
 ! D20   D(3,2,11,50)            0.3315         calculate D2E/DX2 analytically  !
 ! D21   D(2,3,4,5)              0.2868         calculate D2E/DX2 analytically  !
 ! D22   D(2,3,4,9)           -179.9155         calculate D2E/DX2 analytically  !
 ! D23   D(8,3,4,5)           -179.4761         calculate D2E/DX2 analytically  !
 ! D24   D(8,3,4,9)              0.3216         calculate D2E/DX2 analytically  !
 ! D25   D(3,4,5,6)             -0.1866         calculate D2E/DX2 analytically  !
 ! D26   D(3,4,5,10)           179.4209         calculate D2E/DX2 analytically  !
 ! D27   D(9,4,5,6)           -179.9845         calculate D2E/DX2 analytically  !
 ! D28   D(9,4,5,10)            -0.377          calculate D2E/DX2 analytically  !
 ! D29   D(4,5,6,1)             -0.2034         calculate D2E/DX2 analytically  !
 ! D30   D(4,5,6,30)           178.2707         calculate D2E/DX2 analytically  !
 ! D31   D(10,5,6,1)          -179.8102         calculate D2E/DX2 analytically  !
 ! D32   D(10,5,6,30)           -1.3362         calculate D2E/DX2 analytically  !
 ! D33   D(1,6,30,31)          179.4865         calculate D2E/DX2 analytically  !
 ! D34   D(1,6,30,32)           -0.091          calculate D2E/DX2 analytically  !
 ! D35   D(5,6,30,31)            1.0277         calculate D2E/DX2 analytically  !
 ! D36   D(5,6,30,32)         -178.5498         calculate D2E/DX2 analytically  !
 ! D37   D(13,7,11,2)         -179.5186         calculate D2E/DX2 analytically  !
 ! D38   D(13,7,11,50)          -0.6365         calculate D2E/DX2 analytically  !
 ! D39   D(29,7,11,2)            0.2444         calculate D2E/DX2 analytically  !
 ! D40   D(29,7,11,50)         179.1265         calculate D2E/DX2 analytically  !
 ! D41   D(11,7,13,12)           2.3695         calculate D2E/DX2 analytically  !
 ! D42   D(11,7,13,14)        -177.6857         calculate D2E/DX2 analytically  !
 ! D43   D(29,7,13,12)        -177.3524         calculate D2E/DX2 analytically  !
 ! D44   D(29,7,13,14)           2.5924         calculate D2E/DX2 analytically  !
 ! D45   D(11,7,29,1)           -0.2348         calculate D2E/DX2 analytically  !
 ! D46   D(11,7,29,51)        -176.4373         calculate D2E/DX2 analytically  !
 ! D47   D(13,7,29,1)          179.5216         calculate D2E/DX2 analytically  !
 ! D48   D(13,7,29,51)           3.3191         calculate D2E/DX2 analytically  !
 ! D49   D(17,12,13,7)         179.1055         calculate D2E/DX2 analytically  !
 ! D50   D(17,12,13,14)         -0.8394         calculate D2E/DX2 analytically  !
 ! D51   D(28,12,13,7)          -1.2545         calculate D2E/DX2 analytically  !
 ! D52   D(28,12,13,14)        178.8007         calculate D2E/DX2 analytically  !
 ! D53   D(13,12,17,16)          0.8676         calculate D2E/DX2 analytically  !
 ! D54   D(13,12,17,24)       -179.6627         calculate D2E/DX2 analytically  !
 ! D55   D(28,12,17,16)       -178.7795         calculate D2E/DX2 analytically  !
 ! D56   D(28,12,17,24)          0.6902         calculate D2E/DX2 analytically  !
 ! D57   D(7,13,14,15)        -179.7229         calculate D2E/DX2 analytically  !
 ! D58   D(7,13,14,18)           0.4764         calculate D2E/DX2 analytically  !
 ! D59   D(12,13,14,15)          0.2216         calculate D2E/DX2 analytically  !
 ! D60   D(12,13,14,18)       -179.5791         calculate D2E/DX2 analytically  !
 ! D61   D(13,14,15,16)          0.3859         calculate D2E/DX2 analytically  !
 ! D62   D(13,14,15,20)        179.7833         calculate D2E/DX2 analytically  !
 ! D63   D(18,14,15,16)       -179.8119         calculate D2E/DX2 analytically  !
 ! D64   D(18,14,15,20)         -0.4144         calculate D2E/DX2 analytically  !
 ! D65   D(14,15,16,17)         -0.3539         calculate D2E/DX2 analytically  !
 ! D66   D(14,15,16,19)       -179.8761         calculate D2E/DX2 analytically  !
 ! D67   D(20,15,16,17)       -179.7567         calculate D2E/DX2 analytically  !
 ! D68   D(20,15,16,19)          0.7211         calculate D2E/DX2 analytically  !
 ! D69   D(14,15,20,21)       -107.9895         calculate D2E/DX2 analytically  !
 ! D70   D(14,15,20,22)         12.2749         calculate D2E/DX2 analytically  !
 ! D71   D(14,15,20,23)        134.1302         calculate D2E/DX2 analytically  !
 ! D72   D(16,15,20,21)         71.4036         calculate D2E/DX2 analytically  !
 ! D73   D(16,15,20,22)       -168.332          calculate D2E/DX2 analytically  !
 ! D74   D(16,15,20,23)        -46.4767         calculate D2E/DX2 analytically  !
 ! D75   D(15,16,17,12)         -0.2892         calculate D2E/DX2 analytically  !
 ! D76   D(15,16,17,24)       -179.7309         calculate D2E/DX2 analytically  !
 ! D77   D(19,16,17,12)        179.2305         calculate D2E/DX2 analytically  !
 ! D78   D(19,16,17,24)         -0.2113         calculate D2E/DX2 analytically  !
 ! D79   D(12,17,24,25)        -55.8296         calculate D2E/DX2 analytically  !
 ! D80   D(12,17,24,26)         61.9058         calculate D2E/DX2 analytically  !
 ! D81   D(12,17,24,27)       -177.0654         calculate D2E/DX2 analytically  !
 ! D82   D(16,17,24,25)        123.6209         calculate D2E/DX2 analytically  !
 ! D83   D(16,17,24,26)       -118.6437         calculate D2E/DX2 analytically  !
 ! D84   D(16,17,24,27)          2.3851         calculate D2E/DX2 analytically  !
 ! D85   D(6,30,32,33)         178.157          calculate D2E/DX2 analytically  !
 ! D86   D(31,30,32,33)         -1.408          calculate D2E/DX2 analytically  !
 ! D87   D(30,32,33,34)        -67.5098         calculate D2E/DX2 analytically  !
 ! D88   D(30,32,33,35)         57.3557         calculate D2E/DX2 analytically  !
 ! D89   D(30,32,33,36)        175.3068         calculate D2E/DX2 analytically  !
 ! D90   D(32,33,34,37)       -178.0758         calculate D2E/DX2 analytically  !
 ! D91   D(32,33,34,38)         61.4012         calculate D2E/DX2 analytically  !
 ! D92   D(32,33,34,39)        -55.2139         calculate D2E/DX2 analytically  !
 ! D93   D(35,33,34,37)         56.2698         calculate D2E/DX2 analytically  !
 ! D94   D(35,33,34,38)        -64.2532         calculate D2E/DX2 analytically  !
 ! D95   D(35,33,34,39)        179.1318         calculate D2E/DX2 analytically  !
 ! D96   D(36,33,34,37)        -62.5481         calculate D2E/DX2 analytically  !
 ! D97   D(36,33,34,38)        176.9289         calculate D2E/DX2 analytically  !
 ! D98   D(36,33,34,39)         60.3139         calculate D2E/DX2 analytically  !
 ! D99   D(32,33,35,40)        178.7496         calculate D2E/DX2 analytically  !
 ! D100  D(32,33,35,41)        -60.9853         calculate D2E/DX2 analytically  !
 ! D101  D(32,33,35,42)         56.1173         calculate D2E/DX2 analytically  !
 ! D102  D(34,33,35,40)        -56.4626         calculate D2E/DX2 analytically  !
 ! D103  D(34,33,35,41)         63.8026         calculate D2E/DX2 analytically  !
 ! D104  D(34,33,35,42)       -179.0948         calculate D2E/DX2 analytically  !
 ! D105  D(36,33,35,40)         62.3755         calculate D2E/DX2 analytically  !
 ! D106  D(36,33,35,41)       -177.3593         calculate D2E/DX2 analytically  !
 ! D107  D(36,33,35,42)        -60.2567         calculate D2E/DX2 analytically  !
 ! D108  D(33,34,37,43)        -55.662          calculate D2E/DX2 analytically  !
 ! D109  D(33,34,37,44)       -178.4945         calculate D2E/DX2 analytically  !
 ! D110  D(33,34,37,45)         64.8545         calculate D2E/DX2 analytically  !
 ! D111  D(38,34,37,43)         63.8835         calculate D2E/DX2 analytically  !
 ! D112  D(38,34,37,44)        -58.949          calculate D2E/DX2 analytically  !
 ! D113  D(38,34,37,45)       -175.5999         calculate D2E/DX2 analytically  !
 ! D114  D(39,34,37,43)       -177.7064         calculate D2E/DX2 analytically  !
 ! D115  D(39,34,37,44)         59.4611         calculate D2E/DX2 analytically  !
 ! D116  D(39,34,37,45)        -57.1898         calculate D2E/DX2 analytically  !
 ! D117  D(33,35,40,43)         56.0587         calculate D2E/DX2 analytically  !
 ! D118  D(33,35,40,46)        178.8746         calculate D2E/DX2 analytically  !
 ! D119  D(33,35,40,47)        -64.5193         calculate D2E/DX2 analytically  !
 ! D120  D(41,35,40,43)        -63.974          calculate D2E/DX2 analytically  !
 ! D121  D(41,35,40,46)         58.8419         calculate D2E/DX2 analytically  !
 ! D122  D(41,35,40,47)        175.4481         calculate D2E/DX2 analytically  !
 ! D123  D(42,35,40,43)        177.8218         calculate D2E/DX2 analytically  !
 ! D124  D(42,35,40,46)        -59.3623         calculate D2E/DX2 analytically  !
 ! D125  D(42,35,40,47)         57.2439         calculate D2E/DX2 analytically  !
 ! D126  D(34,37,43,40)         55.2283         calculate D2E/DX2 analytically  !
 ! D127  D(34,37,43,48)        177.5866         calculate D2E/DX2 analytically  !
 ! D128  D(34,37,43,49)        -65.2878         calculate D2E/DX2 analytically  !
 ! D129  D(44,37,43,40)        177.6078         calculate D2E/DX2 analytically  !
 ! D130  D(44,37,43,48)        -60.034          calculate D2E/DX2 analytically  !
 ! D131  D(44,37,43,49)         57.0916         calculate D2E/DX2 analytically  !
 ! D132  D(45,37,43,40)        -65.2928         calculate D2E/DX2 analytically  !
 ! D133  D(45,37,43,48)         57.0655         calculate D2E/DX2 analytically  !
 ! D134  D(45,37,43,49)        174.191          calculate D2E/DX2 analytically  !
 ! D135  D(35,40,43,37)        -55.4162         calculate D2E/DX2 analytically  !
 ! D136  D(35,40,43,48)       -177.7431         calculate D2E/DX2 analytically  !
 ! D137  D(35,40,43,49)         65.1077         calculate D2E/DX2 analytically  !
 ! D138  D(46,40,43,37)       -177.7266         calculate D2E/DX2 analytically  !
 ! D139  D(46,40,43,48)         59.9465         calculate D2E/DX2 analytically  !
 ! D140  D(46,40,43,49)        -57.2028         calculate D2E/DX2 analytically  !
 ! D141  D(47,40,43,37)         65.1382         calculate D2E/DX2 analytically  !
 ! D142  D(47,40,43,48)        -57.1887         calculate D2E/DX2 analytically  !
 ! D143  D(47,40,43,49)       -174.338          calculate D2E/DX2 analytically  !
 --------------------------------------------------------------------------------
 Trust Radius=3.00D-01 FncErr=5.00D-06 GrdErr=5.00D-06 EigMax=2.50D+02 EigMin=1.00D-04
 Number of steps in this run=    304 maximum allowed number of steps=    306.
 Search for a saddle point of order  1.
 GradGradGradGradGradGradGradGradGradGradGradGradGradGradGradGradGradGrad

 Leave Link  103 at Sun Dec 16 10:30:04 2018, MaxMem=  1342177280 cpu:               0.4 elap:               0.1
 (Enter /gpfs/apps/hpc/Apps/Restricted/Gaussian/Rev_A.03/g16/l202.exe)
 Symmetry turned off by external request.
 Stoichiometry    C22H25N3O(1+,2)
 Framework group  C1[X(C22H25N3O)]
 Deg. of freedom   147
 Full point group                 C1      NOp   1
                          Input orientation:                          
 ---------------------------------------------------------------------
 Center     Atomic      Atomic             Coordinates (Angstroms)
 Number     Number       Type             X           Y           Z
 ---------------------------------------------------------------------
      1          6           0       -0.569144    2.975654    0.353010
      2          6           0       -1.961174    3.104012    0.277127
      3          6           0       -2.542752    4.372577    0.191228
      4          6           0       -1.670159    5.463711    0.186451
      5          6           0       -0.268765    5.323858    0.257298
      6          6           0        0.317405    4.059654    0.340882
      7          6           0       -1.370904    0.945093    0.376304
      8          1           0       -3.614318    4.508651    0.127380
      9          1           0       -2.087650    6.460971    0.122328
     10          1           0        0.358400    6.207112    0.240214
     11          7           0       -2.425628    1.802082    0.296747
     12          6           0       -2.820040   -1.111264    0.298281
     13          6           0       -1.493277   -0.492884    0.407065
     14          6           0       -0.365852   -1.286077    0.537301
     15          6           0       -0.458947   -2.689846    0.563986
     16          6           0       -1.732034   -3.301209    0.446954
     17          6           0       -2.889211   -2.571944    0.314466
     18          1           0        0.610208   -0.823224    0.624049
     19          1           0       -1.790906   -4.383976    0.470959
     20          6           0        0.766720   -3.536715    0.700294
     21          1           0        0.988407   -4.037326   -0.249313
     22          1           0        1.636856   -2.944024    0.983301
     23          1           0        0.613477   -4.324198    1.442773
     24          6           0       -4.237021   -3.206535    0.196238
     25          1           0       -4.905753   -2.835846    0.977930
     26          1           0       -4.703634   -2.948581   -0.759074
     27          1           0       -4.161627   -4.291017    0.272711
     28          8           0       -3.870130   -0.428325    0.200953
     29          7           0       -0.224181    1.651911    0.414907
     30          6           0        1.738628    3.750625    0.385152
     31          1           0        2.461084    4.565660    0.368870
     32          7           0        2.102971    2.512775    0.434367
     33          6           0        3.522672    2.132599    0.440536
     34          6           0        4.184496    2.466069   -0.906784
     35          6           0        4.294485    2.770595    1.605824
     36          1           0        3.537245    1.046834    0.572035
     37          6           0        5.651605    2.025664   -0.914830
     38          1           0        4.119562    3.549763   -1.062332
     39          1           0        3.627188    1.989152   -1.717754
     40          6           0        5.759916    2.324463    1.592759
     41          1           0        4.246181    3.861404    1.510039
     42          1           0        3.813096    2.505024    2.550827
     43          6           0        6.429648    2.643945    0.251686
     44          1           0        6.113084    2.294375   -1.869374
     45          1           0        5.698287    0.932533   -0.837469
     46          1           0        6.298829    2.802859    2.415802
     47          1           0        5.807756    1.242980    1.770371
     48          1           0        7.461943    2.281686    0.249637
     49          1           0        6.472894    3.732021    0.120275
     50          1           0       -3.374770    1.436206    0.244908
     51          1           0        0.993467    1.675091    0.438611
 ---------------------------------------------------------------------
 Rotational constants (GHZ):           0.2590072           0.1218490           0.0858965
 Leave Link  202 at Sun Dec 16 10:30:05 2018, MaxMem=  1342177280 cpu:               0.9 elap:               0.1
 (Enter /gpfs/apps/hpc/Apps/Restricted/Gaussian/Rev_A.03/g16/l301.exe)
 Standard basis: 6-31G(d,p) (6D, 7F)
 Ernie: Thresh=  0.10000D-02 Tol=  0.10000D-05 Strict=F.
   515 basis functions,   903 primitive gaussians,   515 cartesian basis functions
    93 alpha electrons       92 beta electrons
       nuclear repulsion energy      2218.1015087699 Hartrees.
 IExCor=  402 DFT=T Ex+Corr=B3LYP ExCW=0 ScaHFX=  0.200000
 ScaDFX=  0.800000  0.720000  1.000000  0.810000 ScalE2=  1.000000  1.000000
 IRadAn=      5 IRanWt=     -1 IRanGd=            0 ICorTp=0 IEmpDi=141
 NAtoms=   51 NActive=   51 NUniq=   51 SFac= 1.00D+00 NAtFMM=   60 NAOKFM=F Big=F
 Integral buffers will be    131072 words long.
 Raffenetti 2 integral format.
 Two-electron integral symmetry is turned off.
 R6Disp:  Grimme-D3(BJ) Dispersion energy=       -0.1088731602 Hartrees.
 Nuclear repulsion after empirical dispersion term =     2217.9926356096 Hartrees.
 Force inversion solution in PCM.
 Using the following non-standard input for PCM:
 radii=bondi
 dis
 rep
 cav
 --- end of non-standard input.
 Force inversion solution in PCM.
 ------------------------------------------------------------------------------
 Polarizable Continuum Model (PCM)
 =================================
 Model                : C-PCM.
 Atomic radii         : Bondi.
 Polarization charges : Total charges.
 Charge compensation  : None.
 Solution method      : Matrix inversion.
 Cavity type          : Scaled VdW (van der Waals Surface) (Alpha=1.100).
 Cavity algorithm     : GePol (No added spheres)
                        Default sphere list used, NSphG=   51.
                        Lebedev-Laikov grids with approx.  5.0 points / Ang**2.
                        Smoothing algorithm: York/Karplus (Gamma=1.0000).
                        Polarization charges: spherical gaussians, with
                                              point-specific exponents (IZeta= 3).
                        Self-potential: point-specific (ISelfS= 7).
                        Self-field    : sphere-specific E.n sum rule (ISelfD= 2).
 1st derivatives      : Analytical E(r).r(x)/FMM algorithm (CHGder, D1EAlg=3).
                        Cavity 1st derivative terms included.
 2nd derivatives      : Analytical E(r).r(xy)/FMM algorithm (CHGder, D2EAlg=3).
                        Cavity 2nd derivative terms included.
 Solvent              : Dichloromethane, Eps=   8.930000 Eps(inf)=   2.028346
 ------------------------------------------------------------------------------
 GePol: Number of generator spheres                  =      51
 GePol: Total number of spheres                      =      51
 GePol: Number of exposed spheres                    =      51 (100.00%)
 GePol: Number of points                             =    3449
 GePol: Average weight of points                     =       0.12
 GePol: Minimum weight of points                     =   0.33D-11
 GePol: Maximum weight of points                     =    0.21770
 GePol: Number of points with low weight             =     225
 GePol: Fraction of low-weight points (<1% of avg)   =       6.52%
 GePol: Cavity surface area                          =    409.486 Ang**2
 GePol: Cavity volume                                =    386.875 Ang**3
 PCM non-electrostatic energy =         0.0154946077 Hartrees.
 Nuclear repulsion after PCM non-electrostatic terms =     2218.0081302173 Hartrees.
 Leave Link  301 at Sun Dec 16 10:30:05 2018, MaxMem=  1342177280 cpu:               2.9 elap:               0.2
 (Enter /gpfs/apps/hpc/Apps/Restricted/Gaussian/Rev_A.03/g16/l302.exe)
 NPDir=0 NMtPBC=     1 NCelOv=     1 NCel=       1 NClECP=     1 NCelD=      1
         NCelK=      1 NCelE2=     1 NClLst=     1 CellRange=     0.0.
 One-electron integrals computed using PRISM.
 NBasis=   515 RedAO= T EigKep=  3.03D-04  NBF=   515
 NBsUse=   515 1.00D-06 EigRej= -1.00D+00 NBFU=   515
 Precomputing XC quadrature grid using
 IXCGrd= 4 IRadAn=           5 IRanWt=          -1 IRanGd=           0 AccXCQ= 0.00D+00.
 Generated NRdTot=       0 NPtTot=           0 NUsed=           0 NTot=          32
 NSgBfM=   504   504   504   504   504 MxSgAt=    51 MxSgA2=    51.
 Leave Link  302 at Sun Dec 16 10:30:06 2018, MaxMem=  1342177280 cpu:              13.4 elap:               0.9
 (Enter /gpfs/apps/hpc/Apps/Restricted/Gaussian/Rev_A.03/g16/l303.exe)
 DipDrv:  MaxL=1.
 Leave Link  303 at Sun Dec 16 10:30:06 2018, MaxMem=  1342177280 cpu:               0.9 elap:               0.1
 (Enter /gpfs/apps/hpc/Apps/Restricted/Gaussian/Rev_A.03/g16/l401.exe)
 ExpMin= 1.61D-01 ExpMax= 5.48D+03 ExpMxC= 8.25D+02 IAcc=3 IRadAn=         5 AccDes= 0.00D+00
 Harris functional with IExCor=  402 and IRadAn=       5 diagonalized for initial guess.
 HarFok:  IExCor=  402 AccDes= 0.00D+00 IRadAn=         5 IDoV= 1 UseB2=F ITyADJ=14
 ICtDFT=  3500011 ScaDFX=  1.000000  1.000000  1.000000  1.000000
 FoFCou: FMM=F IPFlag=           0 FMFlag=      100000 FMFlg1=           0
         NFxFlg=           0 DoJE=T BraDBF=F KetDBF=T FulRan=T
         wScrn=  0.000000 ICntrl=       500 IOpCl=  0 I1Cent=   200000004 NGrid=           0
         NMat0=    1 NMatS0=      1 NMatT0=    0 NMatD0=    1 NMtDS0=    0 NMtDT0=    0
 Symmetry not used in FoFCou.
 Harris En= -1092.79871272147    
 JPrj=0 DoOrth=F DoCkMO=F.
 Initial guess <Sx>= 0.0000 <Sy>= 0.0000 <Sz>= 0.5000 <S**2>= 0.7500 S= 0.5000
 Leave Link  401 at Sun Dec 16 10:30:10 2018, MaxMem=  1342177280 cpu:              56.6 elap:               3.6
 (Enter /gpfs/apps/hpc/Apps/Restricted/Gaussian/Rev_A.03/g16/l502.exe)
 Two-electron integral symmetry not used.
 UHF open shell SCF:
 Using DIIS extrapolation, IDIIS=  1040.
 NGot=  1342177280 LenX=  1341634262 LenY=  1341368522
 Requested convergence on RMS density matrix=1.00D-08 within 128 cycles.
 Requested convergence on MAX density matrix=1.00D-06.
 Requested convergence on             energy=1.00D-06.
 No special actions if energy rises.
 Fock matrices will be formed incrementally for  20 cycles.

 Cycle   1  Pass 1  IDiag  1:
 FoFJK:  IHMeth= 1 ICntrl=       0 DoSepK=F KAlg= 0 I1Cent=           0 FoldK=F
 IRaf= 620000000 NMat=       1 IRICut=       1 DoRegI=T DoRafI=F ISym2E= 0 IDoP0=0 IntGTp=1.
 FoFCou: FMM=F IPFlag=           0 FMFlag=      100000 FMFlg1=           0
         NFxFlg=           0 DoJE=F BraDBF=F KetDBF=F FulRan=T
         wScrn=  0.000000 ICntrl=         0 IOpCl=  1 I1Cent=           0 NGrid=           0
         NMat0=    1 NMatS0=      1 NMatT0=    0 NMatD0=    1 NMtDS0=    0 NMtDT0=    0
 Symmetry not used in FoFCou.
 Inv3:  Mode=1 IEnd=    35686803.
 Iteration    1 A*A^-1 deviation from unit magnitude is 9.44D-15 for   2037.
 Iteration    1 A*A^-1 deviation from orthogonality  is 6.16D-15 for   2037     91.
 Iteration    1 A^-1*A deviation from unit magnitude is 7.99D-15 for   3442.
 Iteration    1 A^-1*A deviation from orthogonality  is 2.70D-15 for   3427   1377.
 E= -1092.32617514492    
 DIIS: error= 2.66D-02 at cycle   1 NSaved=   1.
 NSaved= 1 IEnMin= 1 EnMin= -1092.32617514492     IErMin= 1 ErrMin= 2.66D-02
 ErrMax= 2.66D-02  0.00D+00 EMaxC= 1.00D-01 BMatC= 2.17D+00 BMatP= 2.17D+00
 IDIUse=3 WtCom= 7.34D-01 WtEn= 2.66D-01
 Coeff-Com:  0.100D+01
 Coeff-En:   0.100D+01
 Coeff:      0.100D+01
 Gap=     0.119 Goal=   None    Shift=    0.000
 Gap=     0.087 Goal=   None    Shift=    0.000
 GapD=    0.087 DampG=0.500 DampE=0.500 DampFc=0.2500 IDamp=-1.
 Damping current iteration by 2.50D-01
 RMSDP=3.47D-03 MaxDP=1.83D-01              OVMax= 2.75D-01

 Cycle   2  Pass 1  IDiag  1:
 RMSU=  8.46D-04    CP:  9.86D-01
 E= -1092.52633704950     Delta-E=       -0.200161904581 Rises=F Damp=T
 DIIS: error= 1.48D-02 at cycle   2 NSaved=   2.
 NSaved= 2 IEnMin= 2 EnMin= -1092.52633704950     IErMin= 2 ErrMin= 1.48D-02
 ErrMax= 1.48D-02  0.00D+00 EMaxC= 1.00D-01 BMatC= 5.82D-01 BMatP= 2.17D+00
 IDIUse=3 WtCom= 8.52D-01 WtEn= 1.48D-01
 Coeff-Com: -0.818D+00 0.182D+01
 Coeff-En:   0.000D+00 0.100D+01
 Coeff:     -0.697D+00 0.170D+01
 Gap=     0.152 Goal=   None    Shift=    0.000
 Gap=     0.134 Goal=   None    Shift=    0.000
 RMSDP=1.36D-03 MaxDP=6.39D-02 DE=-2.00D-01 OVMax= 1.83D-01

 Cycle   3  Pass 1  IDiag  1:
 RMSU=  1.01D-03    CP:  9.54D-01  1.95D+00
 E= -1092.85904102846     Delta-E=       -0.332703978958 Rises=F Damp=F
 DIIS: error= 1.24D-02 at cycle   3 NSaved=   3.
 NSaved= 3 IEnMin= 3 EnMin= -1092.85904102846     IErMin= 3 ErrMin= 1.24D-02
 ErrMax= 1.24D-02  0.00D+00 EMaxC= 1.00D-01 BMatC= 1.23D-01 BMatP= 5.82D-01
 IDIUse=3 WtCom= 8.76D-01 WtEn= 1.24D-01
 Coeff-Com: -0.396D+00 0.833D+00 0.562D+00
 Coeff-En:   0.000D+00 0.000D+00 0.100D+01
 Coeff:     -0.347D+00 0.730D+00 0.617D+00
 Gap=     0.132 Goal=   None    Shift=    0.000
 Gap=     0.087 Goal=   None    Shift=    0.000
 RMSDP=5.90D-04 MaxDP=6.92D-02 DE=-3.33D-01 OVMax= 8.86D-02

 Cycle   4  Pass 1  IDiag  1:
 RMSU=  4.48D-04    CP:  9.58D-01  2.07D+00  6.37D-01
 E= -1092.87623676858     Delta-E=       -0.017195740123 Rises=F Damp=F
 DIIS: error= 8.54D-03 at cycle   4 NSaved=   4.
 NSaved= 4 IEnMin= 4 EnMin= -1092.87623676858     IErMin= 4 ErrMin= 8.54D-03
 ErrMax= 8.54D-03  0.00D+00 EMaxC= 1.00D-01 BMatC= 5.80D-02 BMatP= 1.23D-01
 IDIUse=3 WtCom= 9.15D-01 WtEn= 8.54D-02
 Coeff-Com: -0.747D-01 0.168D+00 0.402D+00 0.505D+00
 Coeff-En:   0.000D+00 0.000D+00 0.315D+00 0.685D+00
 Coeff:     -0.683D-01 0.153D+00 0.395D+00 0.520D+00
 Gap=     0.135 Goal=   None    Shift=    0.000
 Gap=     0.085 Goal=   None    Shift=    0.000
 RMSDP=2.88D-04 MaxDP=3.30D-02 DE=-1.72D-02 OVMax= 3.43D-02

 Cycle   5  Pass 1  IDiag  1:
 RMSU=  1.44D-04    CP:  9.57D-01  2.00D+00  7.68D-01  5.48D-01
 E= -1092.88757737774     Delta-E=       -0.011340609164 Rises=F Damp=F
 DIIS: error= 1.89D-03 at cycle   5 NSaved=   5.
 NSaved= 5 IEnMin= 5 EnMin= -1092.88757737774     IErMin= 5 ErrMin= 1.89D-03
 ErrMax= 1.89D-03  0.00D+00 EMaxC= 1.00D-01 BMatC= 3.45D-03 BMatP= 5.80D-02
 IDIUse=3 WtCom= 9.81D-01 WtEn= 1.89D-02
 Coeff-Com: -0.906D-03 0.750D-02 0.167D+00 0.289D+00 0.538D+00
 Coeff-En:   0.000D+00 0.000D+00 0.000D+00 0.000D+00 0.100D+01
 Coeff:     -0.889D-03 0.736D-02 0.164D+00 0.283D+00 0.546D+00
 Gap=     0.135 Goal=   None    Shift=    0.000
 Gap=     0.088 Goal=   None    Shift=    0.000
 RMSDP=7.80D-05 MaxDP=9.92D-03 DE=-1.13D-02 OVMax= 1.46D-02

 Cycle   6  Pass 1  IDiag  1:
 RMSU=  4.97D-05    CP:  9.57D-01  2.00D+00  7.76D-01  6.12D-01  6.36D-01
 E= -1092.88838262710     Delta-E=       -0.000805249358 Rises=F Damp=F
 DIIS: error= 5.14D-04 at cycle   6 NSaved=   6.
 NSaved= 6 IEnMin= 6 EnMin= -1092.88838262710     IErMin= 6 ErrMin= 5.14D-04
 ErrMax= 5.14D-04  0.00D+00 EMaxC= 1.00D-01 BMatC= 3.75D-04 BMatP= 3.45D-03
 IDIUse=3 WtCom= 9.95D-01 WtEn= 5.14D-03
 Coeff-Com:  0.610D-02-0.105D-01 0.474D-01 0.907D-01 0.290D+00 0.576D+00
 Coeff-En:   0.000D+00 0.000D+00 0.000D+00 0.000D+00 0.000D+00 0.100D+01
 Coeff:      0.606D-02-0.105D-01 0.472D-01 0.902D-01 0.289D+00 0.578D+00
 Gap=     0.135 Goal=   None    Shift=    0.000
 Gap=     0.088 Goal=   None    Shift=    0.000
 RMSDP=2.69D-05 MaxDP=2.67D-03 DE=-8.05D-04 OVMax= 7.59D-03

 Cycle   7  Pass 1  IDiag  1:
 RMSU=  2.18D-05    CP:  9.57D-01  2.00D+00  7.78D-01  6.10D-01  7.41D-01
                    CP:  9.30D-01
 E= -1092.88850551877     Delta-E=       -0.000122891669 Rises=F Damp=F
 DIIS: error= 2.62D-04 at cycle   7 NSaved=   7.
 NSaved= 7 IEnMin= 7 EnMin= -1092.88850551877     IErMin= 7 ErrMin= 2.62D-04
 ErrMax= 2.62D-04  0.00D+00 EMaxC= 1.00D-01 BMatC= 5.86D-05 BMatP= 3.75D-04
 IDIUse=3 WtCom= 9.97D-01 WtEn= 2.62D-03
 Coeff-Com:  0.278D-02-0.593D-02-0.203D-01-0.391D-01-0.833D-02 0.228D+00
 Coeff-Com:  0.843D+00
 Coeff-En:   0.000D+00 0.000D+00 0.000D+00 0.000D+00 0.000D+00 0.000D+00
 Coeff-En:   0.100D+01
 Coeff:      0.278D-02-0.592D-02-0.203D-01-0.390D-01-0.830D-02 0.227D+00
 Coeff:      0.843D+00
 Gap=     0.136 Goal=   None    Shift=    0.000
 Gap=     0.089 Goal=   None    Shift=    0.000
 RMSDP=1.80D-05 MaxDP=2.43D-03 DE=-1.23D-04 OVMax= 5.88D-03

 Cycle   8  Pass 1  IDiag  1:
 RMSU=  1.10D-05    CP:  9.57D-01  2.00D+00  7.81D-01  6.15D-01  7.85D-01
                    CP:  1.17D+00  1.08D+00
 E= -1092.88855227774     Delta-E=       -0.000046758969 Rises=F Damp=F
 DIIS: error= 1.52D-04 at cycle   8 NSaved=   8.
 NSaved= 8 IEnMin= 8 EnMin= -1092.88855227774     IErMin= 8 ErrMin= 1.52D-04
 ErrMax= 1.52D-04  0.00D+00 EMaxC= 1.00D-01 BMatC= 1.81D-05 BMatP= 5.86D-05
 IDIUse=3 WtCom= 9.98D-01 WtEn= 1.52D-03
 Coeff-Com: -0.553D-03 0.945D-03-0.220D-01-0.479D-01-0.984D-01-0.146D+00
 Coeff-Com:  0.314D+00 0.100D+01
 Coeff-En:   0.000D+00 0.000D+00 0.000D+00 0.000D+00 0.000D+00 0.000D+00
 Coeff-En:   0.000D+00 0.100D+01
 Coeff:     -0.552D-03 0.944D-03-0.220D-01-0.478D-01-0.983D-01-0.146D+00
 Coeff:      0.314D+00 0.100D+01
 Gap=     0.137 Goal=   None    Shift=    0.000
 Gap=     0.090 Goal=   None    Shift=    0.000
 RMSDP=1.45D-05 MaxDP=1.73D-03 DE=-4.68D-05 OVMax= 4.66D-03

 Cycle   9  Pass 1  IDiag  1:
 RMSU=  5.50D-06    CP:  9.57D-01  2.00D+00  7.83D-01  6.15D-01  8.28D-01
                    CP:  1.32D+00  1.47D+00  1.29D+00
 E= -1092.88856901081     Delta-E=       -0.000016733074 Rises=F Damp=F
 DIIS: error= 6.94D-05 at cycle   9 NSaved=   9.
 NSaved= 9 IEnMin= 9 EnMin= -1092.88856901081     IErMin= 9 ErrMin= 6.94D-05
 ErrMax= 6.94D-05  0.00D+00 EMaxC= 1.00D-01 BMatC= 4.45D-06 BMatP= 1.81D-05
 IDIUse=1 WtCom= 1.00D+00 WtEn= 0.00D+00
 Coeff-Com: -0.417D-03 0.969D-03-0.773D-02-0.185D-01-0.473D-01-0.119D+00
 Coeff-Com:  0.289D-01 0.522D+00 0.641D+00
 Coeff:     -0.417D-03 0.969D-03-0.773D-02-0.185D-01-0.473D-01-0.119D+00
 Coeff:      0.289D-01 0.522D+00 0.641D+00
 Gap=     0.137 Goal=   None    Shift=    0.000
 Gap=     0.090 Goal=   None    Shift=    0.000
 RMSDP=4.42D-06 MaxDP=6.36D-04 DE=-1.67D-05 OVMax= 1.21D-03

 Cycle  10  Pass 1  IDiag  1:
 RMSU=  2.59D-06    CP:  9.57D-01  2.00D+00  7.84D-01  6.14D-01  8.35D-01
                    CP:  1.36D+00  1.56D+00  1.46D+00  8.72D-01
 E= -1092.88857119512     Delta-E=       -0.000002184307 Rises=F Damp=F
 DIIS: error= 3.71D-05 at cycle  10 NSaved=  10.
 NSaved=10 IEnMin=10 EnMin= -1092.88857119512     IErMin=10 ErrMin= 3.71D-05
 ErrMax= 3.71D-05  0.00D+00 EMaxC= 1.00D-01 BMatC= 8.27D-07 BMatP= 4.45D-06
 IDIUse=1 WtCom= 1.00D+00 WtEn= 0.00D+00
 Coeff-Com:  0.426D-05 0.133D-03 0.172D-02 0.271D-02 0.204D-02-0.244D-01
 Coeff-Com: -0.569D-01 0.649D-02 0.314D+00 0.754D+00
 Coeff:      0.426D-05 0.133D-03 0.172D-02 0.271D-02 0.204D-02-0.244D-01
 Coeff:     -0.569D-01 0.649D-02 0.314D+00 0.754D+00
 Gap=     0.137 Goal=   None    Shift=    0.000
 Gap=     0.090 Goal=   None    Shift=    0.000
 RMSDP=2.01D-06 MaxDP=3.57D-04 DE=-2.18D-06 OVMax= 5.18D-04

 Cycle  11  Pass 1  IDiag  1:
 RMSU=  1.11D-06    CP:  9.57D-01  2.00D+00  7.84D-01  6.14D-01  8.38D-01
                    CP:  1.37D+00  1.59D+00  1.53D+00  1.08D+00  1.01D+00
 E= -1092.88857161034     Delta-E=       -0.000000415224 Rises=F Damp=F
 DIIS: error= 1.31D-05 at cycle  11 NSaved=  11.
 NSaved=11 IEnMin=11 EnMin= -1092.88857161034     IErMin=11 ErrMin= 1.31D-05
 ErrMax= 1.31D-05  0.00D+00 EMaxC= 1.00D-01 BMatC= 1.65D-07 BMatP= 8.27D-07
 IDIUse=1 WtCom= 1.00D+00 WtEn= 0.00D+00
 Coeff-Com:  0.555D-04-0.669D-04 0.220D-02 0.462D-02 0.942D-02 0.787D-02
 Coeff-Com: -0.325D-01-0.876D-01 0.574D-01 0.378D+00 0.661D+00
 Coeff:      0.555D-04-0.669D-04 0.220D-02 0.462D-02 0.942D-02 0.787D-02
 Coeff:     -0.325D-01-0.876D-01 0.574D-01 0.378D+00 0.661D+00
 Gap=     0.137 Goal=   None    Shift=    0.000
 Gap=     0.090 Goal=   None    Shift=    0.000
 RMSDP=7.50D-07 MaxDP=1.00D-04 DE=-4.15D-07 OVMax= 2.49D-04

 Cycle  12  Pass 1  IDiag  1:
 RMSU=  4.50D-07    CP:  9.57D-01  2.00D+00  7.84D-01  6.14D-01  8.38D-01
                    CP:  1.37D+00  1.59D+00  1.56D+00  1.14D+00  1.16D+00
                    CP:  9.16D-01
 E= -1092.88857169108     Delta-E=       -0.000000080730 Rises=F Damp=F
 DIIS: error= 5.64D-06 at cycle  12 NSaved=  12.
 NSaved=12 IEnMin=12 EnMin= -1092.88857169108     IErMin=12 ErrMin= 5.64D-06
 ErrMax= 5.64D-06  0.00D+00 EMaxC= 1.00D-01 BMatC= 2.79D-08 BMatP= 1.65D-07
 IDIUse=1 WtCom= 1.00D+00 WtEn= 0.00D+00
 Coeff-Com:  0.135D-04-0.582D-04 0.431D-03 0.123D-02 0.332D-02 0.981D-02
 Coeff-Com:  0.126D-02-0.381D-01-0.545D-01-0.545D-01 0.266D+00 0.865D+00
 Coeff:      0.135D-04-0.582D-04 0.431D-03 0.123D-02 0.332D-02 0.981D-02
 Coeff:      0.126D-02-0.381D-01-0.545D-01-0.545D-01 0.266D+00 0.865D+00
 Gap=     0.137 Goal=   None    Shift=    0.000
 Gap=     0.090 Goal=   None    Shift=    0.000
 RMSDP=4.29D-07 MaxDP=6.91D-05 DE=-8.07D-08 OVMax= 1.15D-04

 Cycle  13  Pass 1  IDiag  1:
 RMSU=  2.01D-07    CP:  9.57D-01  2.00D+00  7.84D-01  6.14D-01  8.38D-01
                    CP:  1.37D+00  1.60D+00  1.57D+00  1.17D+00  1.24D+00
                    CP:  1.12D+00  1.02D+00
 E= -1092.88857171001     Delta-E=       -0.000000018938 Rises=F Damp=F
 DIIS: error= 1.67D-06 at cycle  13 NSaved=  13.
 NSaved=13 IEnMin=13 EnMin= -1092.88857171001     IErMin=13 ErrMin= 1.67D-06
 ErrMax= 1.67D-06  0.00D+00 EMaxC= 1.00D-01 BMatC= 7.15D-09 BMatP= 2.79D-08
 IDIUse=1 WtCom= 1.00D+00 WtEn= 0.00D+00
 Coeff-Com: -0.827D-05-0.968D-05-0.498D-04 0.905D-04 0.517D-03 0.433D-02
 Coeff-Com:  0.424D-02-0.895D-02-0.348D-01-0.775D-01 0.577D-01 0.434D+00
 Coeff-Com:  0.620D+00
 Coeff:     -0.827D-05-0.968D-05-0.498D-04 0.905D-04 0.517D-03 0.433D-02
 Coeff:      0.424D-02-0.895D-02-0.348D-01-0.775D-01 0.577D-01 0.434D+00
 Coeff:      0.620D+00
 Gap=     0.137 Goal=   None    Shift=    0.000
 Gap=     0.090 Goal=   None    Shift=    0.000
 RMSDP=1.51D-07 MaxDP=1.93D-05 DE=-1.89D-08 OVMax= 3.06D-05

 Cycle  14  Pass 1  IDiag  1:
 RMSU=  1.05D-07    CP:  9.57D-01  2.00D+00  7.84D-01  6.14D-01  8.38D-01
                    CP:  1.37D+00  1.60D+00  1.57D+00  1.18D+00  1.25D+00
                    CP:  1.17D+00  1.18D+00  9.78D-01
 E= -1092.88857171264     Delta-E=       -0.000000002628 Rises=F Damp=F
 DIIS: error= 1.11D-06 at cycle  14 NSaved=  14.
 NSaved=14 IEnMin=14 EnMin= -1092.88857171264     IErMin=14 ErrMin= 1.11D-06
 ErrMax= 1.11D-06  0.00D+00 EMaxC= 1.00D-01 BMatC= 2.91D-09 BMatP= 7.15D-09
 IDIUse=1 WtCom= 1.00D+00 WtEn= 0.00D+00
 Coeff-Com: -0.141D-04 0.191D-04-0.179D-03-0.341D-03-0.833D-03-0.299D-03
 Coeff-Com:  0.214D-02 0.690D-02-0.431D-02-0.341D-01-0.502D-01-0.774D-02
 Coeff-Com:  0.430D+00 0.659D+00
 Coeff:     -0.141D-04 0.191D-04-0.179D-03-0.341D-03-0.833D-03-0.299D-03
 Coeff:      0.214D-02 0.690D-02-0.431D-02-0.341D-01-0.502D-01-0.774D-02
 Coeff:      0.430D+00 0.659D+00
 Gap=     0.137 Goal=   None    Shift=    0.000
 Gap=     0.090 Goal=   None    Shift=    0.000
 RMSDP=9.00D-08 MaxDP=1.09D-05 DE=-2.63D-09 OVMax= 2.22D-05

 Cycle  15  Pass 1  IDiag  1:
 RMSU=  4.20D-08    CP:  9.57D-01  2.00D+00  7.84D-01  6.14D-01  8.39D-01
                    CP:  1.37D+00  1.60D+00  1.57D+00  1.18D+00  1.26D+00
                    CP:  1.19D+00  1.25D+00  1.23D+00  8.20D-01
 E= -1092.88857171389     Delta-E=       -0.000000001248 Rises=F Damp=F
 DIIS: error= 3.67D-07 at cycle  15 NSaved=  15.
 NSaved=15 IEnMin=15 EnMin= -1092.88857171389     IErMin=15 ErrMin= 3.67D-07
 ErrMax= 3.67D-07  0.00D+00 EMaxC= 1.00D-01 BMatC= 2.92D-10 BMatP= 2.91D-09
 IDIUse=1 WtCom= 1.00D+00 WtEn= 0.00D+00
 Coeff-Com: -0.477D-05 0.103D-04-0.624D-04-0.142D-03-0.440D-03-0.822D-03
 Coeff-Com: -0.697D-04 0.422D-02 0.450D-02 0.798D-03-0.276D-01-0.811D-01
 Coeff-Com:  0.496D-01 0.258D+00 0.793D+00
 Coeff:     -0.477D-05 0.103D-04-0.624D-04-0.142D-03-0.440D-03-0.822D-03
 Coeff:     -0.697D-04 0.422D-02 0.450D-02 0.798D-03-0.276D-01-0.811D-01
 Coeff:      0.496D-01 0.258D+00 0.793D+00
 Gap=     0.137 Goal=   None    Shift=    0.000
 Gap=     0.090 Goal=   None    Shift=    0.000
 RMSDP=3.96D-08 MaxDP=4.52D-06 DE=-1.25D-09 OVMax= 1.22D-05

 Cycle  16  Pass 1  IDiag  1:
 RMSU=  2.11D-08    CP:  9.57D-01  2.00D+00  7.84D-01  6.14D-01  8.39D-01
                    CP:  1.37D+00  1.60D+00  1.57D+00  1.18D+00  1.26D+00
                    CP:  1.20D+00  1.27D+00  1.33D+00  9.76D-01  1.05D+00
 E= -1092.88857171396     Delta-E=       -0.000000000073 Rises=F Damp=F
 DIIS: error= 2.03D-07 at cycle  16 NSaved=  16.
 NSaved=16 IEnMin=16 EnMin= -1092.88857171396     IErMin=16 ErrMin= 2.03D-07
 ErrMax= 2.03D-07  0.00D+00 EMaxC= 1.00D-01 BMatC= 8.25D-11 BMatP= 2.92D-10
 IDIUse=1 WtCom= 1.00D+00 WtEn= 0.00D+00
 Coeff-Com:  0.140D-05-0.484D-06 0.215D-04 0.368D-04 0.242D-04-0.244D-03
 Coeff-Com: -0.690D-03 0.104D-04 0.314D-02 0.953D-02 0.202D-03-0.372D-01
 Coeff-Com: -0.931D-01-0.450D-01 0.399D+00 0.765D+00
 Coeff:      0.140D-05-0.484D-06 0.215D-04 0.368D-04 0.242D-04-0.244D-03
 Coeff:     -0.690D-03 0.104D-04 0.314D-02 0.953D-02 0.202D-03-0.372D-01
 Coeff:     -0.931D-01-0.450D-01 0.399D+00 0.765D+00
 Gap=     0.137 Goal=   None    Shift=    0.000
 Gap=     0.090 Goal=   None    Shift=    0.000
 RMSDP=2.05D-08 MaxDP=1.83D-06 DE=-7.28D-11 OVMax= 6.03D-06

 Cycle  17  Pass 1  IDiag  1:
 RMSU=  9.11D-09    CP:  9.57D-01  2.00D+00  7.84D-01  6.14D-01  8.39D-01
                    CP:  1.37D+00  1.60D+00  1.57D+00  1.18D+00  1.26D+00
                    CP:  1.20D+00  1.28D+00  1.37D+00  1.04D+00  1.30D+00
                    CP:  1.04D+00
 E= -1092.88857171411     Delta-E=       -0.000000000146 Rises=F Damp=F
 DIIS: error= 9.41D-08 at cycle  17 NSaved=  17.
 NSaved=17 IEnMin=17 EnMin= -1092.88857171411     IErMin=17 ErrMin= 9.41D-08
 ErrMax= 9.41D-08  0.00D+00 EMaxC= 1.00D-01 BMatC= 1.04D-11 BMatP= 8.25D-11
 IDIUse=1 WtCom= 1.00D+00 WtEn= 0.00D+00
 Coeff-Com:  0.783D-06-0.106D-05 0.147D-04 0.320D-04 0.624D-04 0.261D-04
 Coeff-Com: -0.255D-03-0.507D-03 0.532D-03 0.333D-02 0.353D-02-0.184D-02
 Coeff-Com: -0.404D-01-0.500D-01 0.449D-01 0.251D+00 0.790D+00
 Coeff:      0.783D-06-0.106D-05 0.147D-04 0.320D-04 0.624D-04 0.261D-04
 Coeff:     -0.255D-03-0.507D-03 0.532D-03 0.333D-02 0.353D-02-0.184D-02
 Coeff:     -0.404D-01-0.500D-01 0.449D-01 0.251D+00 0.790D+00
 Gap=     0.137 Goal=   None    Shift=    0.000
 Gap=     0.090 Goal=   None    Shift=    0.000
 RMSDP=8.09D-09 MaxDP=8.32D-07 DE=-1.46D-10 OVMax= 2.49D-06

 Error on total polarization charges =  0.03791
 SCF Done:  E(UB3LYP) =  -1092.88857171     A.U. after   17 cycles
            NFock= 17  Conv=0.81D-08     -V/T= 2.0097
 <Sx>= 0.0000 <Sy>= 0.0000 <Sz>= 0.5000 <S**2>= 0.7737 S= 0.5118
 <L.S>= 0.000000000000E+00
 KE= 1.082440859718D+03 PE=-6.947395608859D+03 EE= 2.554058047210D+03
 Annihilation of the first spin contaminant:
 S**2 before annihilation     0.7737,   after     0.7504
 Leave Link  502 at Sun Dec 16 10:33:36 2018, MaxMem=  1342177280 cpu:            3246.7 elap:             206.7
 (Enter /gpfs/apps/hpc/Apps/Restricted/Gaussian/Rev_A.03/g16/l801.exe)
 DoSCS=F DFT=T ScalE2(SS,OS)=  1.000000  1.000000
 Range of M.O.s used for correlation:     1   515
 NBasis=   515 NAE=    93 NBE=    92 NFC=     0 NFV=     0
 NROrb=    515 NOA=    93 NOB=    92 NVA=   422 NVB=   423

 **** Warning!!: The smallest beta delta epsilon is  0.89973923D-01

 Leave Link  801 at Sun Dec 16 10:33:37 2018, MaxMem=  1342177280 cpu:               1.1 elap:               0.1
 (Enter /gpfs/apps/hpc/Apps/Restricted/Gaussian/Rev_A.03/g16/l1101.exe)
 Using compressed storage, NAtomX=    51.
 Will process     52 centers per pass.
 R6Disp: Adding Grimme-D3(BJ) dispersion energy 1st derivatives to the gradient.
 Leave Link 1101 at Sun Dec 16 10:33:38 2018, MaxMem=  1342177280 cpu:              15.0 elap:               1.0
 (Enter /gpfs/apps/hpc/Apps/Restricted/Gaussian/Rev_A.03/g16/l1102.exe)
 Symmetrizing basis deriv contribution to polar:
 IMax=3 JMax=2 DiffMx= 0.00D+00
 Leave Link 1102 at Sun Dec 16 10:33:38 2018, MaxMem=  1342177280 cpu:               0.9 elap:               0.1
 (Enter /gpfs/apps/hpc/Apps/Restricted/Gaussian/Rev_A.03/g16/l1110.exe)
 Forming Gx(P) for the SCF density, NAtomX=    51.
 Integral derivatives from FoFJK, PRISM(SPDF).
 Do as many integral derivatives as possible in FoFJK.
 G2DrvN: MDV=    1342173472.
 G2DrvN: will do    52 centers at a time, making    1 passes.
 Calling FoFCou, ICntrl=  3107 FMM=F I1Cent=   0 AccDes= 0.00D+00.
 FoFJK:  IHMeth= 1 ICntrl=    3107 DoSepK=F KAlg= 0 I1Cent=           0 FoldK=F
 IRaf=         0 NMat=       1 IRICut=       1 DoRegI=T DoRafI=F ISym2E= 0 IDoP0=0 IntGTp=1.
 FoFCou: FMM=F IPFlag=           0 FMFlag=      100000 FMFlg1=           0
         NFxFlg=           0 DoJE=F BraDBF=F KetDBF=F FulRan=T
         wScrn=  0.000000 ICntrl=      3107 IOpCl=  1 I1Cent=           0 NGrid=           0
         NMat0=    1 NMatS0=      1 NMatT0=    0 NMatD0=    1 NMtDS0=    0 NMtDT0=    0
 Symmetry not used in FoFCou.
 NEqPCM:  Using equilibrium solvation (IEInf=0, Eps=   8.9300, EpsInf=   2.0283)
 G2PCM: DoFxE=T DoFxN=T DoGrad=T DoDP/DQ/DG/TGxP=FFFF NFrqRd=   0 IEInf=0 SqF1=F DoCFld=F IF1Alg=4.
 GePol: Maximum number of non-zero 1st derivatives   =     220
 End of G2Drv F.D. properties file   721 does not exist.
 End of G2Drv F.D. properties file   722 does not exist.
 End of G2Drv F.D. properties file   788 does not exist.
 Leave Link 1110 at Sun Dec 16 10:43:31 2018, MaxMem=  1342177280 cpu:            9468.5 elap:             592.6
 (Enter /gpfs/apps/hpc/Apps/Restricted/Gaussian/Rev_A.03/g16/l1002.exe)
 Minotr:  UHF open shell wavefunction.
          IDoAtm=11111111111111111111111111111111111111111111111111
          IDoAtm=1
 NEqPCM:  Using equilibrium solvation (IEInf=0, Eps=   8.9300, EpsInf=   2.0283)
          Direct CPHF calculation.
          Differentiating once with respect to nuclear coordinates.
          Requested convergence is 1.0D-08 RMS, and 1.0D-07 maximum.
          Secondary convergence is 1.0D-12 RMS, and 1.0D-12 maximum.
          NewPWx=T KeepS1=F KeepF1=F KeepIn=T MapXYZ=F SortEE=F KeepMc=T.
        15472 words used for storage of precomputed grid.
 Two-electron integral symmetry not used.
          MDV=    1342177280 using IRadAn=       1.
          Solving linear equations simultaneously, MaxMat=     384.
 FoF2E skips out because all densities are zero.
 CalDSu exits because no D1Ps are significant.
 FoFJK:  IHMeth= 1 ICntrl=       0 DoSepK=F KAlg= 0 I1Cent=           0 FoldK=F
 IRaf= 580000000 NMat=      80 IRICut=     200 DoRegI=T DoRafI=T ISym2E= 0 IDoP0=0 IntGTp=1.
          There are   156 degrees of freedom in the 1st order CPHF.  IDoFFX=6 NUNeed=     0.
    150 vectors produced by pass  0 Test12= 7.82D-14 1.00D-09 XBig12= 5.33D-01 2.21D-01.
 AX will form    80 AO Fock derivatives at one time.
    150 vectors produced by pass  1 Test12= 7.82D-14 1.00D-09 XBig12= 1.50D-01 5.78D-02.
    150 vectors produced by pass  2 Test12= 7.82D-14 1.00D-09 XBig12= 3.45D-03 8.77D-03.
    150 vectors produced by pass  3 Test12= 7.82D-14 1.00D-09 XBig12= 2.32D-05 6.22D-04.
    150 vectors produced by pass  4 Test12= 7.82D-14 1.00D-09 XBig12= 9.19D-08 2.94D-05.
    136 vectors produced by pass  5 Test12= 7.82D-14 1.00D-09 XBig12= 4.37D-10 1.23D-06.
     72 vectors produced by pass  6 Test12= 7.82D-14 1.00D-09 XBig12= 1.64D-12 8.16D-08.
     18 vectors produced by pass  7 Test12= 7.82D-14 1.00D-09 XBig12= 6.57D-15 4.74D-09.
 InvSVY:  IOpt=1 It=  1 EMax= 1.55D-15
 Solved reduced A of dimension   976 with   156 vectors.
 End of Minotr F.D. properties file   721 does not exist.
 End of Minotr F.D. properties file   722 does not exist.
 End of Minotr F.D. properties file   788 does not exist.
 Leave Link 1002 at Sun Dec 16 11:02:43 2018, MaxMem=  1342177280 cpu:           18417.2 elap:            1152.8
 (Enter /gpfs/apps/hpc/Apps/Restricted/Gaussian/Rev_A.03/g16/l601.exe)
 Copying SCF densities to generalized density rwf, IOpCl= 1 IROHF=0.

 **********************************************************************

            Population analysis using the SCF density.

 **********************************************************************

 Alpha  occ. eigenvalues --  -19.17183 -14.42265 -14.39504 -14.38109 -10.31544
 Alpha  occ. eigenvalues --  -10.29265 -10.27433 -10.26359 -10.25401 -10.24740
 Alpha  occ. eigenvalues --  -10.24603 -10.23420 -10.23365 -10.23267 -10.22981
 Alpha  occ. eigenvalues --  -10.22853 -10.22621 -10.21963 -10.21647 -10.19927
 Alpha  occ. eigenvalues --  -10.19407 -10.19182 -10.19142 -10.18569 -10.18562
 Alpha  occ. eigenvalues --  -10.18246  -1.07351  -1.05848  -0.97404  -0.93040
 Alpha  occ. eigenvalues --   -0.89556  -0.88239  -0.83875  -0.82465  -0.80377
 Alpha  occ. eigenvalues --   -0.79540  -0.76577  -0.75092  -0.74752  -0.71464
 Alpha  occ. eigenvalues --   -0.69846  -0.68432  -0.68036  -0.66512  -0.63982
 Alpha  occ. eigenvalues --   -0.61984  -0.61921  -0.59974  -0.59220  -0.57281
 Alpha  occ. eigenvalues --   -0.55452  -0.54681  -0.53149  -0.51470  -0.51119
 Alpha  occ. eigenvalues --   -0.50659  -0.49957  -0.49679  -0.48132  -0.46960
 Alpha  occ. eigenvalues --   -0.46056  -0.46000  -0.45099  -0.44904  -0.44525
 Alpha  occ. eigenvalues --   -0.44021  -0.43690  -0.43610  -0.42317  -0.41807
 Alpha  occ. eigenvalues --   -0.41466  -0.41139  -0.40264  -0.39545  -0.39398
 Alpha  occ. eigenvalues --   -0.38841  -0.38698  -0.38456  -0.37493  -0.36847
 Alpha  occ. eigenvalues --   -0.35882  -0.35236  -0.35151  -0.33661  -0.33221
 Alpha  occ. eigenvalues --   -0.32738  -0.30658  -0.30393  -0.29387  -0.29069
 Alpha  occ. eigenvalues --   -0.26533  -0.25885  -0.23313
 Alpha virt. eigenvalues --   -0.09642  -0.05860  -0.02512  -0.01214   0.01105
 Alpha virt. eigenvalues --    0.03139   0.06806   0.08235   0.09348   0.09435
 Alpha virt. eigenvalues --    0.10485   0.11162   0.12080   0.12300   0.12491
 Alpha virt. eigenvalues --    0.12672   0.13185   0.13244   0.14480   0.14980
 Alpha virt. eigenvalues --    0.15050   0.15332   0.15888   0.16631   0.16946
 Alpha virt. eigenvalues --    0.17040   0.17072   0.17509   0.17690   0.17887
 Alpha virt. eigenvalues --    0.18049   0.18512   0.18900   0.19327   0.20644
 Alpha virt. eigenvalues --    0.21251   0.21762   0.22527   0.23310   0.23546
 Alpha virt. eigenvalues --    0.24136   0.24557   0.25386   0.25810   0.26869
 Alpha virt. eigenvalues --    0.27292   0.28209   0.29147   0.30260   0.30659
 Alpha virt. eigenvalues --    0.31774   0.32743   0.33904   0.35877   0.37030
 Alpha virt. eigenvalues --    0.39071   0.40053   0.41553   0.43232   0.46218
 Alpha virt. eigenvalues --    0.46840   0.47026   0.47841   0.48481   0.49170
 Alpha virt. eigenvalues --    0.49526   0.50492   0.50999   0.51378   0.51708
 Alpha virt. eigenvalues --    0.52295   0.52333   0.52757   0.52817   0.53108
 Alpha virt. eigenvalues --    0.53589   0.54130   0.54669   0.55180   0.55403
 Alpha virt. eigenvalues --    0.56020   0.56227   0.56966   0.58181   0.58674
 Alpha virt. eigenvalues --    0.58813   0.59617   0.60502   0.60989   0.61310
 Alpha virt. eigenvalues --    0.61373   0.62344   0.62701   0.63032   0.63381
 Alpha virt. eigenvalues --    0.64969   0.65337   0.66048   0.67509   0.68330
 Alpha virt. eigenvalues --    0.69225   0.70217   0.70856   0.71232   0.71409
 Alpha virt. eigenvalues --    0.73079   0.73911   0.74118   0.74393   0.75183
 Alpha virt. eigenvalues --    0.76265   0.76869   0.77668   0.77854   0.78682
 Alpha virt. eigenvalues --    0.79129   0.79377   0.79958   0.80260   0.81576
 Alpha virt. eigenvalues --    0.82560   0.82970   0.83718   0.84264   0.84471
 Alpha virt. eigenvalues --    0.84903   0.85313   0.85540   0.86145   0.87079
 Alpha virt. eigenvalues --    0.87681   0.88430   0.88778   0.89764   0.90594
 Alpha virt. eigenvalues --    0.90780   0.90936   0.91154   0.91837   0.92491
 Alpha virt. eigenvalues --    0.92954   0.93714   0.93901   0.94721   0.94947
 Alpha virt. eigenvalues --    0.95438   0.96398   0.96826   0.98763   0.99570
 Alpha virt. eigenvalues --    1.01093   1.03524   1.03740   1.05949   1.07003
 Alpha virt. eigenvalues --    1.08019   1.08653   1.09866   1.11480   1.13446
 Alpha virt. eigenvalues --    1.14116   1.14530   1.14750   1.17704   1.18650
 Alpha virt. eigenvalues --    1.19521   1.20185   1.21021   1.23185   1.23713
 Alpha virt. eigenvalues --    1.24364   1.24962   1.25626   1.25759   1.26223
 Alpha virt. eigenvalues --    1.27110   1.28300   1.28880   1.31144   1.33793
 Alpha virt. eigenvalues --    1.34595   1.35551   1.35827   1.37258   1.37610
 Alpha virt. eigenvalues --    1.38059   1.38136   1.38563   1.38831   1.39654
 Alpha virt. eigenvalues --    1.40121   1.41643   1.43484   1.45983   1.48962
 Alpha virt. eigenvalues --    1.49742   1.51136   1.54000   1.55129   1.56182
 Alpha virt. eigenvalues --    1.57507   1.58659   1.60212   1.62404   1.64155
 Alpha virt. eigenvalues --    1.65471   1.67725   1.68695   1.69231   1.69790
 Alpha virt. eigenvalues --    1.70960   1.71164   1.71548   1.73397   1.73766
 Alpha virt. eigenvalues --    1.74133   1.75449   1.75952   1.76335   1.77036
 Alpha virt. eigenvalues --    1.78609   1.79630   1.80171   1.80539   1.81467
 Alpha virt. eigenvalues --    1.81943   1.82516   1.84078   1.84318   1.84790
 Alpha virt. eigenvalues --    1.85478   1.86312   1.87978   1.88396   1.89774
 Alpha virt. eigenvalues --    1.90100   1.90835   1.90918   1.91653   1.92121
 Alpha virt. eigenvalues --    1.93330   1.94185   1.94990   1.96525   1.96711
 Alpha virt. eigenvalues --    1.97210   1.98000   1.98242   1.99034   2.01050
 Alpha virt. eigenvalues --    2.02048   2.02371   2.02907   2.03529   2.04236
 Alpha virt. eigenvalues --    2.07345   2.08211   2.08413   2.08708   2.09284
 Alpha virt. eigenvalues --    2.09613   2.11179   2.11757   2.12254   2.13663
 Alpha virt. eigenvalues --    2.14801   2.14953   2.15283   2.16447   2.16976
 Alpha virt. eigenvalues --    2.17277   2.18051   2.18665   2.19143   2.19972
 Alpha virt. eigenvalues --    2.21183   2.22879   2.23074   2.23240   2.23710
 Alpha virt. eigenvalues --    2.24184   2.26021   2.26288   2.27662   2.28930
 Alpha virt. eigenvalues --    2.29358   2.30378   2.33604   2.34171   2.34636
 Alpha virt. eigenvalues --    2.35110   2.35290   2.36239   2.37137   2.37237
 Alpha virt. eigenvalues --    2.38474   2.38701   2.40204   2.40368   2.41185
 Alpha virt. eigenvalues --    2.42445   2.43846   2.46521   2.46995   2.47842
 Alpha virt. eigenvalues --    2.48379   2.49051   2.49456   2.49945   2.50695
 Alpha virt. eigenvalues --    2.52052   2.53081   2.53243   2.53572   2.54528
 Alpha virt. eigenvalues --    2.54987   2.55235   2.56608   2.57623   2.59625
 Alpha virt. eigenvalues --    2.60346   2.62240   2.62304   2.63201   2.63575
 Alpha virt. eigenvalues --    2.63862   2.64660   2.65756   2.68252   2.68759
 Alpha virt. eigenvalues --    2.68948   2.69033   2.69904   2.71429   2.73088
 Alpha virt. eigenvalues --    2.73942   2.74870   2.75623   2.75930   2.76436
 Alpha virt. eigenvalues --    2.78778   2.80726   2.81198   2.81696   2.84348
 Alpha virt. eigenvalues --    2.84970   2.85645   2.86081   2.86503   2.86525
 Alpha virt. eigenvalues --    2.87024   2.87561   2.88745   2.90403   2.91001
 Alpha virt. eigenvalues --    2.92339   2.93406   2.94058   2.95418   2.98940
 Alpha virt. eigenvalues --    2.99274   3.00893   3.02316   3.05551   3.08728
 Alpha virt. eigenvalues --    3.12097   3.17197   3.17905   3.18501   3.19685
 Alpha virt. eigenvalues --    3.20539   3.22206   3.25445   3.27294   3.29625
 Alpha virt. eigenvalues --    3.30170   3.31279   3.32948   3.36164   3.39250
 Alpha virt. eigenvalues --    3.40380   3.41399   3.41559   3.42086   3.44848
 Alpha virt. eigenvalues --    3.45775   3.47010   3.47053   3.51980   3.52170
 Alpha virt. eigenvalues --    3.54847   3.56151   3.58283   3.62501   3.68800
 Alpha virt. eigenvalues --    3.81033   3.97956   4.06744   4.09475   4.09975
 Alpha virt. eigenvalues --    4.11487   4.13003   4.15482   4.23687   4.26315
 Alpha virt. eigenvalues --    4.31068   4.34584   4.37930   4.41885   4.42400
 Alpha virt. eigenvalues --    4.44552   4.48357   4.50251   4.53562   4.54988
 Alpha virt. eigenvalues --    4.62139   4.67199   4.73130   4.74111   4.78110
 Alpha virt. eigenvalues --    4.85854   4.90028
  Beta  occ. eigenvalues --  -19.16389 -14.42207 -14.39421 -14.38106 -10.31611
  Beta  occ. eigenvalues --  -10.29283 -10.27435 -10.26335 -10.25398 -10.24441
[...]
 122,0.00032172,0.00009807,0.08539850,-0.08199581,0.00025910,0.00043088
 ,0.00031827,0.00042062,0.00027673,0.00070275,0.00079757,0.00028328,0.0
 0006881,-0.00028505,-0.00001109,0.00050877,-0.00073880,-0.09052999,0.0
 8352403,0.00000048,0.00000101,0.00000209,0.00000044,0.00000146,0.00000
 330,0.00000028,-0.00000065,-0.00000043,0.00000131,0.00000006,0.0000049
 5,-0.00000107,0.00000241,0.00000218,0.00000500,0.00000074,-0.00005232,
 0.00000001,-0.00000512,0.00000075,0.00000021,-0.00000017,-0.00000159,0
 .00000031,-0.00000013,-0.00000017,-0.00000023,-0.00000017,-0.00000203,
 0.00000490,0.00000023,-0.00000037,-0.00000040,0.00000068,-0.00000062,0
 .00000053,-0.00000057,0.00000097,-0.00000058,0.00000152,0.00000081,0.0
 0000003,-0.00000135,-0.00000012,0.00000044,0.00000005,0.00000018,-0.00
 000028,-0.00000005,-0.00000014,0.00000014,-0.00000042,-0.00000181,0.00
 000006,0.00000007,-0.00000018,-0.00000026,0.00000008,0.00000047,0.0000
 0005,0.00000055,0.00000012,0.00000025,0.,-0.00000063,-0.00000020,-0.00
 000023,0.00000002,0.00000006,0.,0.00000002,-0.00000006,0.00000004,0.,0
 .00000015,0.00000003,0.00000003,0.00000005,0.00000004,-0.00000003,0.00
 000045,0.00000013,0.00000076,0.00002313,0.00000994,-0.00000137,-0.0000
 1433,0.00000672,0.00005248,-0.00000715,0.00001198,0.00000774,0.0000664
 0,0.00005049,0.00037260,-0.00013717,-0.00012062,-0.00088341,-0.0017571
 9,-0.00331237,-0.00415067,0.00151675,0.00233127,-0.00563432,0.00001237
 ,0.00002447,0.00011233,-0.02510692,0.01018106,0.00020223,0.00032207,-0
 .00000711,-0.00001318,-0.00186630,0.00019945,0.00008540,0.02896602,-0.
 01131187,0.00053873,-0.00028462,-0.00005509,0.00001738,0.00207682,-0.0
 0030701,-0.00004421,0.00012796,0.00025981,-0.04738903,0.00059037,0.000
 70991,0.00073524,0.00075830,0.00007335,0.00097002,-0.00077850,-0.00050
 612,0.00118720,-0.00065612,0.00002859,0.00127024,-0.00007250,0.0006158
 2,0.05308334,0.00000245,-0.00000364,0.00000039,0.00000061,0.00000219,0
 .00000002,0.00000037,-0.00000316,0.00000012,0.00000456,0.00000351,0.00
 000005,-0.00000572,0.00000377,-0.00000029,0.00000535,0.00001091,-0.000
 00182,-0.00000358,-0.00000281,-0.00000003,0.00000019,0.00000011,0.,0.0
 0000004,-0.00000017,0.00000006,-0.00000123,0.00000117,0.00000002,0.000
 00362,-0.00000021,0.00000020,-0.00000084,0.00000133,-0.00000009,0.0000
 0103,-0.00000208,0.00000015,-0.00000125,0.00000544,-0.00000026,0.00000
 022,-0.00000543,-0.00000007,0.00000153,0.00000008,0.00000017,-0.000001
 41,-0.00000018,-0.00000013,0.00000051,-0.00000064,-0.00000003,0.000000
 16,0.00000030,0.,0.00000022,0.00000127,0.00000068,-0.00000026,0.000000
 28,-0.00000007,-0.00000015,-0.00000018,-0.00000034,-0.00000044,0.00000
 002,-0.00000017,0.00000030,-0.00000014,0.00000005,0.00000010,0.0000000
 8,0.00000002,0.00000013,0.00000006,-0.00000001,0.00000010,0.00000022,-
 0.00000001,0.00000128,0.00000072,0.00000010,0.00000706,0.00000240,-0.0
 0000026,-0.00002580,-0.00002411,0.00000051,-0.00007620,-0.00002151,0.0
 0001098,-0.00001544,0.00001695,0.00000887,-0.00005906,0.00005074,-0.00
 002444,0.00092812,-0.00089208,0.00054872,0.00082849,-0.00103137,-0.000
 29599,0.00004596,0.00013947,-0.00002047,-0.00131864,-0.01699958,0.0017
 0044,0.00015203,0.00036218,-0.00014483,0.00018225,0.00019807,-0.000025
 81,-0.00134715,-0.01446818,0.00225279,-0.00000669,0.00059240,0.0000749
 0,0.00016203,0.00017381,-0.00004040,-0.05018287,-0.00620870,0.00057516
 ,0.00069733,0.00089680,0.00026936,-0.00097593,-0.00170916,-0.00259954,
 0.00039352,0.00053766,-0.00036009,-0.00044871,-0.00089959,0.00258957,0
 .00239976,0.03030621,-0.00376056,0.04866890,-0.00000151,0.00000956,0.0
 0000020,-0.00000053,0.00000287,-0.00000015,-0.00000660,0.00000692,-0.0
 0000056,-0.00001076,-0.00000387,0.00000001,0.00000018,-0.00002538,0.00
 000126,-0.00002470,0.00003153,-0.00000698,0.00001840,0.00001518,0.0000
 0102,-0.00000055,0.00000020,-0.00000003,-0.00000298,0.00000193,-0.0000
 0010,0.00000167,0.00000289,-0.00000008,-0.00002002,0.00000395,-0.00000
 129,0.00000796,-0.00000374,0.00000069,-0.00000166,-0.00000494,0.000000
 05,0.00000154,0.00000327,0.00000033,0.00000420,-0.00000252,0.00000007,
 -0.00000503,0.00000127,-0.00000039,0.00000420,0.00000069,0.00000047,0.
 00000071,-0.00000048,-0.00000039,0.00000024,-0.00000035,-0.00000005,0.
 00000115,0.00000299,0.00000170,0.00000024,0.00000071,-0.00000027,-0.00
 000065,-0.00000068,-0.00000141,-0.00000086,-0.00000054,0.00000013,-0.0
 0000104,0.00000058,-0.00000021,-0.00000050,-0.00000037,0.00000024,-0.0
 0000045,-0.00000042,-0.00000026,-0.00000012,-0.00000037,0.,-0.00000837
 ,0.00000321,-0.00000081,-0.00007064,-0.00003838,-0.00000088,0.00001246
 ,-0.00011997,0.00001068,0.00001214,-0.00005072,0.00001342,-0.00016512,
 0.00004366,0.00001900,0.00010566,0.00023201,-0.00005682,0.00075803,0.0
 0052554,0.00060374,0.00039018,0.00040375,-0.00052683,0.00011577,-0.000
 06689,-0.00000519,-0.00028134,-0.01454522,0.00077775,-0.00054685,0.000
 80210,0.00006368,-0.00007876,0.00031101,-0.00013612,0.00008304,-0.0071
 2316,0.00132147,-0.00035711,0.00000247,-0.00012394,-0.00013132,0.00027
 669,0.00005666,-0.00713468,-0.29923157,0.03006956,0.00041446,0.0008566
 0,-0.00028457,-0.00174415,-0.00008871,-0.00257405,0.00008480,0.0006470
 5,0.00044891,-0.00070319,0.00090719,0.00153712,0.00021993,-0.01014517,
 0.00113978,0.00896982,0.32630125,-0.00000035,0.00000044,0.00000119,0.0
 0000021,0.00000005,0.00000076,0.00000032,-0.00000024,-0.00000008,0.000
 00059,-0.00000011,0.00000141,0.00000012,0.00000222,-0.00000017,0.00000
 293,-0.00000287,-0.00001391,-0.00000127,-0.00000256,-0.00000022,0.0000
 0007,-0.00000008,-0.00000043,0.00000028,-0.00000014,0.00000014,-0.0000
 0002,-0.00000050,0.00000035,0.00000247,-0.00000027,0.00000008,-0.00000
 058,0.00000026,-0.00000041,0.00000019,0.00000045,0.00000034,-0.0000002
 5,-0.00000037,0.00000068,-0.00000012,0.00000035,-0.00000013,0.00000034
 ,-0.00000010,0.00000020,-0.00000021,-0.00000004,-0.00000009,-0.0000000
 1,-0.00000005,-0.00000130,0.,0.00000003,-0.00000018,-0.00000055,-0.000
 00067,0.00000017,0.00000043,0.00000068,0.00000031,0.00000024,0.0000001
 4,-0.00000106,-0.00000030,-0.00000033,0.00000005,0.00000006,-0.0000000
 3,0.00000004,-0.00000004,0.00000005,-0.00000001,0.00000012,0.,0.000000
 05,0.00000002,0.00000002,-0.00000006,0.00000059,-0.00000020,0.00000040
 ,0.00001072,0.00000484,-0.00000073,-0.00000059,0.00001501,0.00001522,0
 .00000591,0.00001572,-0.00000052,0.00003488,0.00001427,0.00013316,-0.0
 0002983,-0.00006623,-0.00029162,0.00119479,-0.00004805,0.00088317,-0.0
 0131393,0.00029761,0.00114464,-0.00001825,-0.00000480,-0.00005888,-0.0
 0112983,-0.02742846,0.00164528,-0.00017069,0.00054282,-0.00008008,0.00
 027173,0.00021204,-0.00009881,0.00129806,0.03089504,-0.00589100,0.0003
 0188,-0.00065382,0.00012998,-0.00027654,-0.00031649,-0.00003102,0.0008
 4210,0.03004155,-0.05196343,0.00060259,0.00031490,0.00124264,-0.003583
 97,-0.00254199,-0.00353718,-0.00064970,-0.00026287,0.00137441,0.003554
 76,0.00149524,-0.00505432,-0.00017844,-0.00016583,-0.00046204,-0.00075
 789,-0.03234727,0.06091391,0.00260975,0.00030007,-0.00008321,0.0054963
 7,-0.00604323,0.00106128,0.00066546,0.00112777,-0.00002257,-0.00108694
 ,-0.00012647,-0.00005825,0.00068181,-0.00012378,0.00005829,0.00114899,
 0.00002890,-0.00006056,-0.02045519,-0.00567938,-0.00081528,0.00003102,
 -0.00003263,-0.00043284,0.00004935,0.00012209,-0.00000931,0.00002281,0
 .00005155,-0.00000204,-0.38610152,-0.10628654,-0.02166833,0.00481818,0
 .00163944,0.00045694,0.00028613,0.00017071,0.00023597,-0.00048406,-0.0
 0064172,-0.00000975,0.00049612,0.00041504,0.00002167,-0.00054511,0.000
 33166,-0.00006212,-0.00067464,0.00040271,-0.00017211,-0.00006808,0.000
 05362,-0.00000854,-0.00012087,0.00004692,-0.00000274,-0.00008688,0.000
 00657,0.00001748,-0.00000099,-0.00002458,-0.00001439,-0.00001104,0.000
 01125,-0.00000865,0.00000297,-0.00003594,0.00000146,-0.00014697,-0.000
 02824,-0.00001788,-0.00003367,-0.00004285,0.00002589,-0.00002415,-0.00
 003671,-0.00002174,-0.00000402,0.00001370,0.00000276,-0.00922855,0.000
 83280,-0.00026816,0.00259537,0.00390813,-0.00023151,-0.00055202,0.0007
 5461,-0.00007417,0.00016489,-0.00000666,0.00000043,0.00007514,-0.00038
 642,0.00011135,-0.00011705,0.00009888,-0.00004341,0.00004031,-0.000037
 91,0.00007285,0.00002647,-0.00004487,-0.00004708,0.00003593,-0.0000259
 1,0.00000500,-0.00000536,0.00002353,-0.00003701,-0.00000385,0.00000013
 ,-0.00000181,-0.00000701,-0.00000107,-0.00000252,-0.00000380,0.0000245
 2,0.00002466,-0.00000673,-0.00000262,0.00000042,-0.00000497,0.00000066
 ,0.00000567,-0.00000332,-0.00001174,0.00000130,0.00002286,-0.00000447,
 -0.00000452,0.00000226,-0.00000523,0.00000350,0.00002047,-0.00000204,0
 .00000422,0.00000293,-0.00000560,-0.00000250,0.00001056,0.00000076,-0.
 00000014,-0.00000138,0.00000271,-0.00000011,0.40079479,0.00043991,-0.0
 0723734,0.00035646,-0.02174876,-0.00198682,-0.00151111,0.00053004,0.00
 165074,-0.00014576,-0.00087648,-0.00016269,-0.00002733,0.00059645,-0.0
 0030623,0.00003513,-0.00040484,0.00128584,-0.00002871,0.01578500,0.020
 10772,0.00039343,0.00034489,-0.00009236,-0.00023989,0.00002714,0.00002
 628,-0.00000215,0.00002525,0.00000819,-0.00000006,-0.11406106,-0.10448
 608,-0.00370555,0.01115252,-0.00655651,0.00094833,-0.00056105,-0.00054
 128,0.00005546,-0.00084678,0.00045437,-0.00010328,0.00059572,-0.000541
 41,0.00002464,-0.00064402,0.00058538,-0.00008586,-0.00155716,0.0006661
 9,-0.00020831,-0.00030921,0.00014321,-0.00005152,-0.00021512,0.0002289
 2,-0.00002696,-0.00014243,0.00035898,0.00017721,-0.00013199,0.00000538
 ,-0.00006476,-0.00007141,0.00002089,-0.00004679,-0.00011659,-0.0000277
 4,-0.00005163,-0.00015338,0.00001719,-0.00002779,-0.00003106,-0.000025
 49,0.00008148,0.00000941,-0.00000752,-0.00005907,0.00005315,0.00013028
 ,0.00001065,-0.00728274,0.00803796,-0.00111857,0.01209062,-0.00012045,
 0.00055843,0.00001810,-0.00033673,0.00000780,-0.00008094,0.00014136,-0
 .00001064,0.00165036,0.00077977,-0.00000249,-0.00014626,0.00039692,-0.
 00000680,0.00006866,-0.00003527,0.00006358,0.00008407,-0.00005785,-0.0
 0005833,0.00002388,-0.00004700,0.00000449,-0.00000794,0.00002235,-0.00
 004042,-0.00000424,-0.00000128,-0.00000027,-0.00000766,0.00000187,-0.0
 0000628,-0.00000427,0.00003473,0.00003849,-0.00000751,0.00000094,-0.00
 000136,-0.00000618,0.00000267,0.00000633,-0.00000444,-0.00001101,0.000
 00235,0.00002200,-0.00000480,-0.00000455,0.00000387,-0.00000726,0.0000
 0272,0.00002422,-0.00000449,0.00000370,0.00000367,-0.00000779,-0.00000
 116,0.00000936,0.00000131,-0.00000084,-0.00000119,0.00000128,-0.000000
 25,0.10931930,0.08802391,0.00007959,0.00046057,0.00278956,0.00184258,-
 0.00049252,-0.00615147,-0.00005289,-0.00014052,-0.00100207,-0.00004173
 ,0.00001238,0.00007804,0.00003353,-0.00000164,-0.00022974,0.00004869,-
 0.00000094,0.00130038,-0.00113976,-0.00099445,-0.00376765,-0.00039987,
 -0.00031310,-0.00039849,0.00000093,0.00001201,0.00006859,-0.00000016,0
 .00000365,0.00001854,-0.02227842,-0.00342592,-0.01537094,0.00029295,0.
 00032104,0.00020204,0.00011537,0.00001192,-0.00216207,0.00000152,-0.00
 004002,-0.00023019,0.00000334,0.00002411,0.00020853,-0.00001330,0.0000
 2640,-0.00002406,-0.00016870,0.00004971,0.00104609,-0.00000239,0.00000
 126,-0.00004291,0.00000540,0.00000077,-0.00013385,0.00000059,0.0000056
 4,0.00000170,-0.00000382,-0.00000332,0.00000292,-0.00000352,-0.0000006
 5,0.00000189,0.00000015,-0.00000405,0.00000257,-0.00000483,0.00000121,
 -0.00004149,0.00000046,0.00000549,0.00001359,-0.00000747,-0.00000905,0
 .00000726,0.00000196,0.00000274,-0.00000089,-0.00018957,-0.00071569,-0
 .00484492,-0.00036488,0.00029645,0.00408748,-0.00005454,0.00008387,0.0
 0023810,0.00001663,-0.00000802,-0.00001310,-0.00008549,-0.00010294,-0.
 00070016,0.00000284,-0.00000608,0.00009744,-0.00001758,0.00000590,-0.0
 0001260,0.00000556,-0.00001198,-0.00001256,0.00000117,0.00000016,-0.00
 000052,0.00000062,-0.00000646,0.00000820,-0.00000021,-0.00000225,0.000
 00174,-0.00000098,-0.00000089,-0.00000249,0.00000178,0.00000790,0.0000
 0575,0.00000040,0.00000249,0.00000102,0.00000082,-0.00000016,-0.000002
 39,-0.00000014,0.00000027,0.00000249,-0.00000242,0.00000151,-0.0000018
 1,0.00000064,0.00000042,0.00000025,0.00000256,-0.00000175,-0.00000160,
 -0.00000089,-0.00000023,0.00000012,0.00000005,-0.00000023,-0.00000154,
 -0.00000004,0.,-0.00000047,0.02224983,0.00487166,0.02308429,-0.0133208
 0,0.03157764,-0.00157535,0.00854030,0.00195794,0.00051849,-0.00058052,
 0.00342340,-0.00018219,-0.00318169,-0.00248041,-0.00003539,0.00002222,
 -0.00514017,0.00029283,-0.00875693,0.00172426,-0.00036113,-0.00869650,
 -0.02913914,-0.00016730,0.00028533,-0.00052463,0.00004766,-0.00034760,
 -0.00007257,-0.00001821,0.00028846,-0.00048037,0.00001941,0.02038363,-
 0.00351895,0.00127393,-0.00233526,0.00196931,-0.00023089,0.00098753,0.
 00066040,0.00009449,-0.00042943,0.00255020,-0.00027011,-0.00002410,-0.
 00224448,-0.00004490,0.00106967,0.00014715,0.00009401,-0.00069555,-0.0
 0014046,-0.00007746,0.00099404,-0.00083961,0.00000083,0.00008703,0.000
 19989,0.00000923,0.00009936,0.00044901,0.00020796,-0.00017835,0.000100
 38,-0.00004269,-0.00006417,-0.00002676,-0.00004726,-0.00017560,0.00008
 042,-0.00007683,0.00017124,0.00000701,0.00003157,0.00010670,0.00008776
 ,-0.00000201,0.00011688,0.00008780,0.00001235,0.00011223,0.00013233,0.
 00000159,0.00182628,-0.00017734,0.00018905,-0.03462695,0.04760427,-0.0
 0176749,0.03382439,-0.01358771,0.00128033,-0.00165105,0.00801510,-0.00
 045960,0.02051789,0.04483115,-0.00135201,-0.00843809,0.01063896,0.0006
 2202,0.00193723,-0.00045371,0.00109938,0.00293637,-0.00091641,-0.00130
 126,0.00157340,-0.00133110,-0.00005177,-0.00024709,0.00029960,-0.00091
 221,-0.00016148,-0.00002980,0.00004315,-0.00018551,-0.00001257,-0.0002
 2143,-0.00015768,0.00071530,0.00107036,-0.00031273,0.00002712,-0.00008
 568,-0.00021636,-0.00004605,0.00023672,-0.00015868,-0.00032124,0.00008
 057,0.00053289,-0.00010105,-0.00014779,0.00010147,-0.00011150,0.000062
 77,0.00066135,-0.00011005,0.00012477,0.00010744,-0.00015401,-0.0000517
 3,0.00022231,0.00003882,-0.00003074,-0.00001549,0.00009000,-0.00001294
 ,-0.00032277,-0.00345290,0.00012363,-0.01222527,0.02574659,0.00482365,
 0.00058391,0.00476183,-0.00329946,0.00049269,0.00076701,0.00172686,-0.
 00000724,-0.00139329,-0.00084976,-0.00004001,0.00049178,-0.00184915,0.
 00012829,-0.00386311,-0.00020193,-0.00026592,-0.00851365,-0.00593554,-
 0.00037664,0.00014295,-0.00044772,0.00004892,-0.00018644,-0.00000390,-
 0.00000600,0.00007368,-0.00000356,-0.00000057,0.00403802,-0.00357628,0
 .00043187,-0.00065441,0.00043550,-0.00008152,0.00024936,0.00006186,-0.
 00004099,-0.00047957,0.00051526,-0.00008857,0.00019419,-0.00053476,-0.
 00000290,0.00028895,0.00010402,0.00002869,-0.00017126,-0.00000878,-0.0
 0001843,-0.00006304,-0.00200791,-0.00000990,0.00004838,0.00006301,0.00
 000590,0.00002222,0.00011094,0.00003917,-0.00004753,0.00002786,-0.0000
 0295,-0.00000186,-0.00001948,-0.00000392,-0.00003980,0.00003335,-0.000
 02323,0.00005286,-0.00000675,0.00001119,0.00003402,0.00002635,-0.00000
 238,0.00003641,0.00002716,0.00000584,0.00003038,0.00003661,0.00000029,
 0.00057154,-0.00011696,0.00005677,0.03520627,-0.03736524,0.00054673,-0
 .00150699,-0.01942232,0.00071112,0.00067776,0.00142935,0.00008619,0.02
 944616,-0.02480089,-0.00000052,0.00073561,0.01261355,0.00038456,0.0020
 4167,-0.00059493,0.00094606,0.00272910,-0.00098500,-0.00118720,0.00058
 435,-0.00021087,0.00001193,-0.00013743,0.00030004,-0.00080184,-0.00009
 724,0.00002812,0.00002657,-0.00023766,-0.00007685,-0.00021869,-0.00004
 320,0.00066543,0.00089251,-0.00012443,0.00006783,-0.00002766,-0.000334
 01,-0.00013404,0.00019555,-0.00015881,-0.00020643,0.00005801,0.0003993
 4,-0.00010121,-0.00008998,0.00005886,-0.00008840,0.00003469,0.00049625
 ,-0.00011162,0.00007377,0.00005464,-0.00011031,-0.00002297,0.00013098,
 0.00002299,-0.00002184,-0.00000384,0.00005512,-0.00000913,-0.00005141,
 -0.00052925,0.00007334,-0.09200219,0.08042446,-0.00148679,0.00103767,0
 .00333772,-0.00000646,0.00039602,0.00132106,-0.00007165,-0.00005321,0.
 00022373,0.00007440,0.00001530,-0.00006166,-0.00011430,0.00003403,-0.0
 0034077,0.00009465,-0.00028131,-0.00356038,-0.00043411,-0.00041926,-0.
 00873000,-0.00001045,0.00001626,0.00017896,-0.00000296,-0.00000012,0.0
 0006162,-0.00000303,-0.00000098,0.00013835,0.00013422,-0.00016409,0.00
 282348,-0.00009058,0.00004599,0.00000611,0.00009776,0.00014238,-0.0011
 5933,0.00008383,0.00014072,-0.00006807,-0.00000900,-0.00009589,-0.0001
 7569,0.00004566,-0.00000455,0.00002148,-0.00004347,-0.00000381,-0.0000
 2704,-0.00007105,0.00005023,0.00086108,-0.00000669,0.00000481,0.000052
 98,0.00001075,0.00001627,-0.00003246,-0.00000464,-0.00000922,-0.000000
 27,-0.00000929,0.00000302,0.00000833,-0.00000583,0.00000443,-0.0000006
 0,0.00000854,-0.00000427,-0.00000460,0.00000418,0.00000511,0.00000110,
 0.00000065,0.00000118,0.00000076,0.00000170,0.00000314,0.00000034,0.00
 005910,-0.00001980,0.00000313,-0.00067555,0.00046462,-0.02583954,0.000
 56435,0.00067225,0.00279802,-0.00015622,0.00028976,0.00501599,0.000356
 81,0.00022405,-0.03065056,-0.00011630,0.00020864,0.00007724,0.00056972
 ,-0.00027607,-0.00035819,-0.00085291,0.00016969,-0.00045929,-0.0000109
 9,-0.00010547,0.00013492,0.00005068,-0.00015422,-0.00007933,-0.0001499
 6,-0.00000354,0.00017227,-0.00007089,-0.00008088,-0.00014484,-0.000044
 52,0.00004620,-0.00009737,0.00017029,0.00001720,0.00014988,0.00033672,
 0.00018512,-0.00009621,-0.00001335,0.00000706,-0.00000282,0.00001050,0
 .00000515,-0.00002816,0.00003002,0.00000429,-0.00000725,-0.00002896,-0
 .00000668,-0.00003065,-0.00002328,0.00000208,-0.00000668,-0.00000316,-
 0.00000266,-0.00001139,0.00000032,0.00000073,-0.00000043,-0.00017773,-
 0.00000386,0.00188139,0.00198928,-0.00252353,0.05270365\\-0.00000083,-
 0.00000051,0.00001212,-0.00000062,-0.00000057,0.00001728,-0.00000019,0
 .00000036,0.00002445,-0.00000178,0.00000027,0.00002538,-0.00000112,0.0
 0000080,0.00002011,0.00000023,-0.00000028,0.00001335,-0.00000028,-0.00
 000079,0.00000687,-0.00000181,0.00000026,0.00002833,-0.00000157,0.0000
 0021,0.00003069,-0.00000124,0.00000021,0.00002137,0.00000082,0.0000005
 2,0.00001427,-0.00000072,-0.00000017,0.00000404,0.00000064,-0.00000051
 ,0.00000217,0.00000100,-0.00000086,-0.00000479,0.00000101,-0.00000062,
 -0.00001001,0.00000080,-0.00000101,-0.00000783,0.00000056,-0.00000033,
 -0.00000113,0.00000114,-0.00000108,-0.00000639,0.00000122,-0.00000072,
 -0.00001186,0.00000220,-0.00000152,-0.00001717,-0.00000141,0.00000237,
 -0.00001986,0.00000274,-0.00000226,-0.00001790,0.00000461,-0.00000421,
 -0.00001990,0.00000011,-0.00000017,0.00000132,0.00000284,-0.00000330,0
 .00000447,-0.00000317,0.00000338,0.00000357,0.00000050,-0.00000043,-0.
 00000330,0.00000041,-0.00000059,0.00001060,0.00000036,0.00000008,0.000
 00610,-0.00000075,-0.00000026,0.00000752,-0.00000055,0.00000013,0.0000
 0788,-0.00000014,0.00000041,0.00000124,0.00000016,-0.00000018,-0.00000
 497,-0.00000465,0.00000464,-0.00000657,0.00000376,-0.00000422,-0.00000
 542,0.00000081,-0.00000017,-0.00000921,-0.00000423,0.00000578,-0.00001
 243,-0.00000524,0.00000618,-0.00000159,-0.00000700,0.00000857,-0.00000
 548,0.00000437,-0.00000414,-0.00001131,0.00000338,-0.00000393,-0.00000
 079,0.00000721,-0.00000790,-0.00000434,-0.00000084,0.00000095,-0.00001
 330,-0.00000767,0.00000934,-0.00001334,-0.00000405,0.00000527,-0.00001
 697,0.00000668,-0.00000708,-0.00001193,0.00000483,-0.00000436,-0.00001
 628,-0.00000043,0.00000127,-0.00001780,-0.00000124,0.00000210,-0.00000
 893,-0.00000106,-0.00000049,0.00001578,0.00000020,-0.00000045,0.000001
 92\\\@


 BE CAREFUL NOT TO BECOME TOO GOOD OF A SONGBIRD OR 
 THEY'LL THROW YOU INTO A CAGE.

                                    -- SNOOPY TO WOODSTOCK
 Job cpu time:       0 days  9 hours 47 minutes 54.7 seconds.
 Elapsed time:       0 days  0 hours 36 minutes 52.3 seconds.
 File lengths (MBytes):  RWF=   2880 Int=      0 D2E=      0 Chk=     56 Scr=      8
 Normal termination of Gaussian 16 at Sun Dec 16 11:44:57 2018.
