 Entering Gaussian System, Link 0=g16
 Initial command:
 /gpfs/apps/hpc/Apps/Restricted/Gaussian/Rev_A.03/g16/l1.exe "/gpfs/scratch60/fas/hammes_schiffer/jg2487/c43n02/Gau-248971.inp" -scrdir="/gpfs/scratch60/fas/hammes_schiffer/jg2487/c43n02/"
 Entering Link 1 = /gpfs/apps/hpc/Apps/Restricted/Gaussian/Rev_A.03/g16/l1.exe PID=    248972.
  
 Copyright (c) 1988,1990,1992,1993,1995,1998,2003,2009,2016,
            Gaussian, Inc.  All Rights Reserved.
  
 This is part of the Gaussian(R) 16 program.  It is based on
 the Gaussian(R) 09 system (copyright 2009, Gaussian, Inc.),
 the Gaussian(R) 03 system (copyright 2003, Gaussian, Inc.),
 the Gaussian(R) 98 system (copyright 1998, Gaussian, Inc.),
 the Gaussian(R) 94 system (copyright 1995, Gaussian, Inc.),
 the Gaussian 92(TM) system (copyright 1992, Gaussian, Inc.),
 the Gaussian 90(TM) system (copyright 1990, Gaussian, Inc.),
 the Gaussian 88(TM) system (copyright 1988, Gaussian, Inc.),
 the Gaussian 86(TM) system (copyright 1986, Carnegie Mellon
 University), and the Gaussian 82(TM) system (copyright 1983,
 Carnegie Mellon University). Gaussian is a federally registered
 trademark of Gaussian, Inc.
  
 This software contains proprietary and confidential information,
 including trade secrets, belonging to Gaussian, Inc.
  
 This software is provided under written license and may be
 used, copied, transmitted, or stored only in accord with that
 written license.
  
 The following legend is applicable only to US Government
 contracts under FAR:
  
                    RESTRICTED RIGHTS LEGEND
  
 Use, reproduction and disclosure by the US Government is
 subject to restrictions as set forth in subparagraphs (a)
 and (c) of the Commercial Computer Software - Restricted
 Rights clause in FAR 52.227-19.
  
 Gaussian, Inc.
 340 Quinnipiac St., Bldg. 40, Wallingford CT 06492
  
  
 ---------------------------------------------------------------
 Warning -- This program may not be used in any manner that
 competes with the business of Gaussian, Inc. or will provide
 assistance to any competitor of Gaussian, Inc.  The licensee
 of this program is prohibited from giving any competitor of
 Gaussian, Inc. access to this program.  By using this program,
 the user acknowledges that Gaussian, Inc. is engaged in the
 business of creating and licensing software in the field of
 computational chemistry and represents and warrants to the
 licensee that it is not a competitor of Gaussian, Inc. and that
 it will not use this program in any manner prohibited above.
 ---------------------------------------------------------------
  

 Cite this work as:
 Gaussian 16, Revision A.03,
 M. J. Frisch, G. W. Trucks, H. B. Schlegel, G. E. Scuseria, 
 M. A. Robb, J. R. Cheeseman, G. Scalmani, V. Barone, 
 G. A. Petersson, H. Nakatsuji, X. Li, M. Caricato, A. V. Marenich, 
 J. Bloino, B. G. Janesko, R. Gomperts, B. Mennucci, H. P. Hratchian, 
 J. V. Ortiz, A. F. Izmaylov, J. L. Sonnenberg, D. Williams-Young, 
 F. Ding, F. Lipparini, F. Egidi, J. Goings, B. Peng, A. Petrone, 
 T. Henderson, D. Ranasinghe, V. G. Zakrzewski, J. Gao, N. Rega, 
 G. Zheng, W. Liang, M. Hada, M. Ehara, K. Toyota, R. Fukuda, 
 J. Hasegawa, M. Ishida, T. Nakajima, Y. Honda, O. Kitao, H. Nakai, 
 T. Vreven, K. Throssell, J. A. Montgomery, Jr., J. E. Peralta, 
 F. Ogliaro, M. J. Bearpark, J. J. Heyd, E. N. Brothers, K. N. Kudin, 
 V. N. Staroverov, T. A. Keith, R. Kobayashi, J. Normand, 
 K. Raghavachari, A. P. Rendell, J. C. Burant, S. S. Iyengar, 
 J. Tomasi, M. Cossi, J. M. Millam, M. Klene, C. Adamo, R. Cammi, 
 J. W. Ochterski, R. L. Martin, K. Morokuma, O. Farkas, 
 J. B. Foresman, and D. J. Fox, Gaussian, Inc., Wallingford CT, 2016.
 
 ******************************************
 Gaussian 16:  ES64L-G16RevA.03 25-Dec-2016
                20-Dec-2018 
 ******************************************
 %chk=cyclohexyl-monoBIP-TS2.chk
 %mem=10GB
 %nprocshared=16
 Will use up to   16 processors via shared memory.
 ----------------------------------------------------------------------
 #p opt=(calcfc,tight,ts,noeigentest) freq=internalmodes b3lyp/6-31g(d,
 p) scrf=(cpcm,solvent=dichloromethane,read) nosymm empiricaldispersion
 =gd3bj int=grid=ultrafine
 ----------------------------------------------------------------------
 1/5=1,7=10,10=4,11=1,18=20,26=6,38=1,40=2/1,3;
 2/9=110,12=2,15=1,17=6,18=5,40=1/2;
 3/5=1,6=6,7=101,11=2,25=1,30=1,70=2103,71=2,72=9,74=-5,75=-5,124=41,140=1/1,2,3;
 4//1;
 5/5=2,38=5,53=9/2;
 8/6=4,10=90,11=11/1;
 11/6=1,8=1,9=11,15=111,16=1,31=1/1,2,10;
 10/6=1,13=1,31=1/2;
 6/7=2,8=2,9=2,10=2,28=1/1;
 7/10=1,18=20,25=1,30=1/1,2,3,16;
 1/5=1,7=10,10=4,11=1,18=20,26=6/3(2);
 2/9=110,15=1/2;
 99//99;
 2/9=110,15=1/2;
 3/5=1,6=6,7=101,11=2,25=1,30=1,70=2105,71=1,72=9,74=-5,75=-5,124=41/1,2,3;
 4/5=5,16=3,69=1/1;
 5/5=2,38=5,53=9/2;
 7/30=1/1,2,3,16;
 1/5=1,7=10,11=1,18=20,26=6/3(-5);
 2/9=110,15=1/2;
 6/7=2,8=2,9=2,10=2,19=2,28=1/1;
 99/9=1/99;
 Leave Link    1 at Thu Dec 20 17:57:15 2018, MaxMem=  1342177280 cpu:               8.1 elap:               0.5
 (Enter /gpfs/apps/hpc/Apps/Restricted/Gaussian/Rev_A.03/g16/l101.exe)
 --------------------------------------------------------------------
 cyclohexylimine monoBIP oxidized, TS opt to both protons transferred
 --------------------------------------------------------------------
 Symbolic Z-matrix:
 Charge =  1 Multiplicity = 2
 C                    -0.56914   2.97565   0.35301 
 C                    -1.96117   3.10401   0.27713 
 C                    -2.54275   4.37258   0.19123 
 C                    -1.67016   5.46371   0.18645 
 C                    -0.26877   5.32386   0.2573 
 C                     0.31741   4.05965   0.34088 
 C                    -1.3709    0.94509   0.3763 
 H                    -3.61432   4.50865   0.12738 
 H                    -2.08765   6.46097   0.12233 
 H                     0.3584    6.20711   0.24021 
 N                    -2.42563   1.80208   0.29675 
 C                    -2.82004  -1.11126   0.29828 
 C                    -1.49328  -0.49288   0.40707 
 C                    -0.36585  -1.28608   0.5373 
 C                    -0.45895  -2.68985   0.56399 
 C                    -1.73203  -3.30121   0.44695 
 C                    -2.88921  -2.57194   0.31447 
 H                     0.61021  -0.82322   0.62405 
 H                    -1.79091  -4.38398   0.47096 
 C                     0.76672  -3.53672   0.70029 
 C                    -4.23702  -3.20654   0.19624 
 O                    -3.87013  -0.42833   0.20095 
 N                    -0.22418   1.65191   0.41491 
 C                     1.73863   3.75063   0.38515 
 H                     2.46108   4.56566   0.36887 
 N                     2.10297   2.51278   0.43437 
 C                     3.52267   2.1326    0.44054 
 C                     4.1845    2.46607  -0.90678 
 C                     4.29448   2.7706    1.60582 
 H                     3.53725   1.04683   0.57204 
 C                     5.6516    2.02566  -0.91483 
 H                     4.11956   3.54976  -1.06233 
 H                     3.62719   1.98915  -1.71775 
 C                     5.75992   2.32446   1.59276 
 H                     4.24618   3.8614    1.51004 
 H                     3.8131    2.50502   2.55083 
 C                     6.42965   2.64395   0.25169 
 H                     6.11308   2.29438  -1.86937 
 H                     5.69829   0.93253  -0.83747 
 H                     6.29883   2.80286   2.4158 
 H                     5.80776   1.24298   1.77037 
 H                     7.46194   2.28169   0.24964 
 H                     6.47289   3.73202   0.12028 
 H                    -3.37477   1.43621   0.24491 
 H                     0.99347   1.67509   0.43861 
 C                     1.99587  -2.69948   1.10007 
 H                     2.26963  -2.05791   0.28869 
 H                     1.75975  -2.10702   1.95922 
 H                     2.81226  -3.3518    1.33007 
 C                     0.55083  -4.64614   1.74632 
 H                    -0.10106  -5.39337   1.34435 
 H                     1.49211  -5.09021   1.9947 
 H                     0.11144  -4.22567   2.62668 
 C                     1.07818  -4.24004  -0.63384 
 H                     2.03693  -4.71124  -0.57332 
 H                     0.32954  -4.97869  -0.83092 
 H                     1.08446  -3.51887  -1.42427 
 C                    -5.17885  -2.68447   1.29715 
 H                    -5.76579  -1.87736   0.9112 
 H                    -5.82556  -3.47445   1.61743 
 H                    -4.59957  -2.33885   2.12775 
 C                    -4.13048  -4.73904   0.3043 
 H                    -3.50611  -5.10947  -0.48173 
 H                    -3.70573  -5.00118   1.25076 
 H                    -5.10557  -5.17126   0.21896 
 C                    -4.89385  -2.84343  -1.1485 
 H                    -5.54608  -3.63541  -1.45224 
 H                    -5.45685  -1.94025  -1.03809 
 H                    -4.13498  -2.70233  -1.88952 
 
 Add virtual bond connecting atoms H45        and N23        Dist= 2.30D+00.
 ITRead=  0  0  0  0  0  0  0  0  0  0  0  0  0  0  0  0  0  0  0  0
 ITRead=  0  0  0  0  0  0  0  0  0  0  0  0  0  0  0  0  0  0  0  0
 ITRead=  0  0  0  0  0  0  0  0  0  0  0  0  0  0  0  0  0  0  0  0
 ITRead=  0  0  0  0  0  0  0  0  0
 MicOpt= -1 -1 -1 -1 -1 -1 -1 -1 -1 -1 -1 -1 -1 -1 -1 -1 -1 -1 -1 -1
 MicOpt= -1 -1 -1 -1 -1 -1 -1 -1 -1 -1 -1 -1 -1 -1 -1 -1 -1 -1 -1 -1
 MicOpt= -1 -1 -1 -1 -1 -1 -1 -1 -1 -1 -1 -1 -1 -1 -1 -1 -1 -1 -1 -1
 MicOpt= -1 -1 -1 -1 -1 -1 -1 -1 -1
 NAtoms=     69 NQM=       69 NQMF=       0 NMMI=      0 NMMIF=      0
                NMic=       0 NMicF=      0.
                    Isotopes and Nuclear Properties:
 (Nuclear quadrupole moments (NQMom) in fm**2, nuclear magnetic moments (NMagM)
  in nuclear magnetons)

  Atom         1           2           3           4           5           6           7           8           9          10
 IAtWgt=          12          12          12          12          12          12          12           1           1           1
 AtmWgt=  12.0000000  12.0000000  12.0000000  12.0000000  12.0000000  12.0000000  12.0000000   1.0078250   1.0078250   1.0078250
 NucSpn=           0           0           0           0           0           0           0           1           1           1
 AtZEff=  -0.0000000  -0.0000000  -0.0000000  -0.0000000  -0.0000000  -0.0000000  -0.0000000  -0.0000000  -0.0000000  -0.0000000
 NQMom=    0.0000000   0.0000000   0.0000000   0.0000000   0.0000000   0.0000000   0.0000000   0.0000000   0.0000000   0.0000000
 NMagM=    0.0000000   0.0000000   0.0000000   0.0000000   0.0000000   0.0000000   0.0000000   2.7928460   2.7928460   2.7928460
 AtZNuc=   6.0000000   6.0000000   6.0000000   6.0000000   6.0000000   6.0000000   6.0000000   1.0000000   1.0000000   1.0000000

  Atom        11          12          13          14          15          16          17          18          19          20
 IAtWgt=          14          12          12          12          12          12          12           1           1          12
 AtmWgt=  14.0030740  12.0000000  12.0000000  12.0000000  12.0000000  12.0000000  12.0000000   1.0078250   1.0078250  12.0000000
 NucSpn=           2           0           0           0           0           0           0           1           1           0
 AtZEff=  -0.0000000  -0.0000000  -0.0000000  -0.0000000  -0.0000000  -0.0000000  -0.0000000  -0.0000000  -0.0000000  -0.0000000
 NQMom=    2.0440000   0.0000000   0.0000000   0.0000000   0.0000000   0.0000000   0.0000000   0.0000000   0.0000000   0.0000000
 NMagM=    0.4037610   0.0000000   0.0000000   0.0000000   0.0000000   0.0000000   0.0000000   2.7928460   2.7928460   0.0000000
 AtZNuc=   7.0000000   6.0000000   6.0000000   6.0000000   6.0000000   6.0000000   6.0000000   1.0000000   1.0000000   6.0000000

  Atom        21          22          23          24          25          26          27          28          29          30
 IAtWgt=          12          16          14          12           1          14          12          12          12           1
 AtmWgt=  12.0000000  15.9949146  14.0030740  12.0000000   1.0078250  14.0030740  12.0000000  12.0000000  12.0000000   1.0078250
 NucSpn=           0           0           2           0           1           2           0           0           0           1
 AtZEff=  -0.0000000  -0.0000000  -0.0000000  -0.0000000  -0.0000000  -0.0000000  -0.0000000  -0.0000000  -0.0000000  -0.0000000
 NQMom=    0.0000000   0.0000000   2.0440000   0.0000000   0.0000000   2.0440000   0.0000000   0.0000000   0.0000000   0.0000000
 NMagM=    0.0000000   0.0000000   0.4037610   0.0000000   2.7928460   0.4037610   0.0000000   0.0000000   0.0000000   2.7928460
 AtZNuc=   6.0000000   8.0000000   7.0000000   6.0000000   1.0000000   7.0000000   6.0000000   6.0000000   6.0000000   1.0000000

  Atom        31          32          33          34          35          36          37          38          39          40
 IAtWgt=          12           1           1          12           1           1          12           1           1           1
 AtmWgt=  12.0000000   1.0078250   1.0078250  12.0000000   1.0078250   1.0078250  12.0000000   1.0078250   1.0078250   1.0078250
 NucSpn=           0           1           1           0           1           1           0           1           1           1
 AtZEff=  -0.0000000  -0.0000000  -0.0000000  -0.0000000  -0.0000000  -0.0000000  -0.0000000  -0.0000000  -0.0000000  -0.0000000
 NQMom=    0.0000000   0.0000000   0.0000000   0.0000000   0.0000000   0.0000000   0.0000000   0.0000000   0.0000000   0.0000000
 NMagM=    0.0000000   2.7928460   2.7928460   0.0000000   2.7928460   2.7928460   0.0000000   2.7928460   2.7928460   2.7928460
 AtZNuc=   6.0000000   1.0000000   1.0000000   6.0000000   1.0000000   1.0000000   6.0000000   1.0000000   1.0000000   1.0000000

  Atom        41          42          43          44          45          46          47          48          49          50
 IAtWgt=           1           1           1           1           1          12           1           1           1          12
 AtmWgt=   1.0078250   1.0078250   1.0078250   1.0078250   1.0078250  12.0000000   1.0078250   1.0078250   1.0078250  12.0000000
 NucSpn=           1           1           1           1           1           0           1           1           1           0
 AtZEff=  -0.0000000  -0.0000000  -0.0000000  -0.0000000  -0.0000000  -0.0000000  -0.0000000  -0.0000000  -0.0000000  -0.0000000
 NQMom=    0.0000000   0.0000000   0.0000000   0.0000000   0.0000000   0.0000000   0.0000000   0.0000000   0.0000000   0.0000000
 NMagM=    2.7928460   2.7928460   2.7928460   2.7928460   2.7928460   0.0000000   2.7928460   2.7928460   2.7928460   0.0000000
 AtZNuc=   1.0000000   1.0000000   1.0000000   1.0000000   1.0000000   6.0000000   1.0000000   1.0000000   1.0000000   6.0000000

  Atom        51          52          53          54          55          56          57          58          59          60
 IAtWgt=           1           1           1          12           1           1           1          12           1           1
 AtmWgt=   1.0078250   1.0078250   1.0078250  12.0000000   1.0078250   1.0078250   1.0078250  12.0000000   1.0078250   1.0078250
 NucSpn=           1           1           1           0           1           1           1           0           1           1
 AtZEff=  -0.0000000  -0.0000000  -0.0000000  -0.0000000  -0.0000000  -0.0000000  -0.0000000  -0.0000000  -0.0000000  -0.0000000
 NQMom=    0.0000000   0.0000000   0.0000000   0.0000000   0.0000000   0.0000000   0.0000000   0.0000000   0.0000000   0.0000000
 NMagM=    2.7928460   2.7928460   2.7928460   0.0000000   2.7928460   2.7928460   2.7928460   0.0000000   2.7928460   2.7928460
 AtZNuc=   1.0000000   1.0000000   1.0000000   6.0000000   1.0000000   1.0000000   1.0000000   6.0000000   1.0000000   1.0000000

  Atom        61          62          63          64          65          66          67          68          69
 IAtWgt=           1          12           1           1           1          12           1           1           1
 AtmWgt=   1.0078250  12.0000000   1.0078250   1.0078250   1.0078250  12.0000000   1.0078250   1.0078250   1.0078250
 NucSpn=           1           0           1           1           1           0           1           1           1
 AtZEff=  -0.0000000  -0.0000000  -0.0000000  -0.0000000  -0.0000000  -0.0000000  -0.0000000  -0.0000000  -0.0000000
 NQMom=    0.0000000   0.0000000   0.0000000   0.0000000   0.0000000   0.0000000   0.0000000   0.0000000   0.0000000
 NMagM=    2.7928460   0.0000000   2.7928460   2.7928460   2.7928460   0.0000000   2.7928460   2.7928460   2.7928460
 AtZNuc=   1.0000000   6.0000000   1.0000000   1.0000000   1.0000000   6.0000000   1.0000000   1.0000000   1.0000000
 Leave Link  101 at Thu Dec 20 17:57:15 2018, MaxMem=  1342177280 cpu:               4.3 elap:               0.3
 (Enter /gpfs/apps/hpc/Apps/Restricted/Gaussian/Rev_A.03/g16/l103.exe)

 GradGradGradGradGradGradGradGradGradGradGradGradGradGradGradGradGradGrad
 Berny optimization.
 Initialization pass.
                           ----------------------------
                           !    Initial Parameters    !
                           ! (Angstroms and Degrees)  !
 --------------------------                            --------------------------
 ! Name  Definition              Value          Derivative Info.                !
 --------------------------------------------------------------------------------
 ! R1    R(1,2)                  1.4            calculate D2E/DX2 analytically  !
 ! R2    R(1,6)                  1.4004         calculate D2E/DX2 analytically  !
 ! R3    R(1,23)                 1.3694         calculate D2E/DX2 analytically  !
 ! R4    R(2,3)                  1.3982         calculate D2E/DX2 analytically  !
 ! R5    R(2,11)                 1.3824         calculate D2E/DX2 analytically  !
 ! R6    R(3,4)                  1.3971         calculate D2E/DX2 analytically  !
 ! R7    R(3,8)                  1.0821         calculate D2E/DX2 analytically  !
 ! R8    R(4,5)                  1.4101         calculate D2E/DX2 analytically  !
 ! R9    R(4,9)                  1.083          calculate D2E/DX2 analytically  !
 ! R10   R(5,6)                  1.396          calculate D2E/DX2 analytically  !
 ! R11   R(5,10)                 1.0834         calculate D2E/DX2 analytically  !
 ! R12   R(6,24)                 1.4551         calculate D2E/DX2 analytically  !
 ! R13   R(7,11)                 1.3613         calculate D2E/DX2 analytically  !
 ! R14   R(7,13)                 1.4435         calculate D2E/DX2 analytically  !
 ! R15   R(7,23)                 1.3476         calculate D2E/DX2 analytically  !
 ! R16   R(11,44)                1.0185         calculate D2E/DX2 analytically  !
 ! R17   R(12,13)                1.4678         calculate D2E/DX2 analytically  !
 ! R18   R(12,17)                1.4624         calculate D2E/DX2 analytically  !
 ! R19   R(12,22)                1.2564         calculate D2E/DX2 analytically  !
 ! R20   R(13,14)                1.3846         calculate D2E/DX2 analytically  !
 ! R21   R(14,15)                1.4071         calculate D2E/DX2 analytically  !
 ! R22   R(14,18)                1.0837         calculate D2E/DX2 analytically  !
 ! R23   R(15,16)                1.4171         calculate D2E/DX2 analytically  !
 ! R24   R(15,20)                1.496          calculate D2E/DX2 analytically  !
 ! R25   R(16,17)                1.3742         calculate D2E/DX2 analytically  !
 ! R26   R(16,19)                1.0846         calculate D2E/DX2 analytically  !
 ! R27   R(17,21)                1.4944         calculate D2E/DX2 analytically  !
 ! R28   R(20,46)                1.54           calculate D2E/DX2 analytically  !
 ! R29   R(20,50)                1.54           calculate D2E/DX2 analytically  !
 ! R30   R(20,54)                1.54           calculate D2E/DX2 analytically  !
 ! R31   R(21,58)                1.54           calculate D2E/DX2 analytically  !
 ! R32   R(21,62)                1.54           calculate D2E/DX2 analytically  !
 ! R33   R(21,66)                1.54           calculate D2E/DX2 analytically  !
 ! R34   R(23,45)                1.2181         calculate D2E/DX2 analytically  !
 ! R35   R(24,25)                1.0893         calculate D2E/DX2 analytically  !
 ! R36   R(24,26)                1.2913         calculate D2E/DX2 analytically  !
 ! R37   R(26,27)                1.4697         calculate D2E/DX2 analytically  !
 ! R38   R(27,28)                1.5377         calculate D2E/DX2 analytically  !
 ! R39   R(27,29)                1.5364         calculate D2E/DX2 analytically  !
 ! R40   R(27,30)                1.0938         calculate D2E/DX2 analytically  !
 ! R41   R(28,31)                1.5318         calculate D2E/DX2 analytically  !
 ! R42   R(28,32)                1.0967         calculate D2E/DX2 analytically  !
 ! R43   R(28,33)                1.0935         calculate D2E/DX2 analytically  !
 ! R44   R(29,34)                1.5319         calculate D2E/DX2 analytically  !
 ! R45   R(29,35)                1.0961         calculate D2E/DX2 analytically  !
 ! R46   R(29,36)                1.0933         calculate D2E/DX2 analytically  !
 ! R47   R(31,37)                1.5324         calculate D2E/DX2 analytically  !
 ! R48   R(31,38)                1.0938         calculate D2E/DX2 analytically  !
 ! R49   R(31,39)                1.0969         calculate D2E/DX2 analytically  !
 ! R50   R(34,37)                1.5327         calculate D2E/DX2 analytically  !
 ! R51   R(34,40)                1.0939         calculate D2E/DX2 analytically  !
 ! R52   R(34,41)                1.097          calculate D2E/DX2 analytically  !
 ! R53   R(37,42)                1.094          calculate D2E/DX2 analytically  !
 ! R54   R(37,43)                1.0968         calculate D2E/DX2 analytically  !
 ! R55   R(46,47)                1.07           calculate D2E/DX2 analytically  !
 ! R56   R(46,48)                1.07           calculate D2E/DX2 analytically  !
 ! R57   R(46,49)                1.07           calculate D2E/DX2 analytically  !
 ! R58   R(50,51)                1.07           calculate D2E/DX2 analytically  !
 ! R59   R(50,52)                1.07           calculate D2E/DX2 analytically  !
 ! R60   R(50,53)                1.07           calculate D2E/DX2 analytically  !
 ! R61   R(54,55)                1.07           calculate D2E/DX2 analytically  !
 ! R62   R(54,56)                1.07           calculate D2E/DX2 analytically  !
 ! R63   R(54,57)                1.07           calculate D2E/DX2 analytically  !
 ! R64   R(58,59)                1.07           calculate D2E/DX2 analytically  !
 ! R65   R(58,60)                1.07           calculate D2E/DX2 analytically  !
 ! R66   R(58,61)                1.07           calculate D2E/DX2 analytically  !
 ! R67   R(62,63)                1.07           calculate D2E/DX2 analytically  !
 ! R68   R(62,64)                1.07           calculate D2E/DX2 analytically  !
 ! R69   R(62,65)                1.07           calculate D2E/DX2 analytically  !
 ! R70   R(66,67)                1.07           calculate D2E/DX2 analytically  !
 ! R71   R(66,68)                1.07           calculate D2E/DX2 analytically  !
 ! R72   R(66,69)                1.07           calculate D2E/DX2 analytically  !
 ! A1    A(2,1,6)              123.919          calculate D2E/DX2 analytically  !
 ! A2    A(2,1,23)             109.9722         calculate D2E/DX2 analytically  !
 ! A3    A(6,1,23)             126.0992         calculate D2E/DX2 analytically  !
 ! A4    A(1,2,3)              120.0071         calculate D2E/DX2 analytically  !
 ! A5    A(1,2,11)             104.2967         calculate D2E/DX2 analytically  !
 ! A6    A(3,2,11)             135.6919         calculate D2E/DX2 analytically  !
 ! A7    A(2,3,4)              116.6798         calculate D2E/DX2 analytically  !
 ! A8    A(2,3,8)              121.9817         calculate D2E/DX2 analytically  !
 ! A9    A(4,3,8)              121.338          calculate D2E/DX2 analytically  !
 ! A10   A(3,4,5)              122.8919         calculate D2E/DX2 analytically  !
 ! A11   A(3,4,9)              118.5924         calculate D2E/DX2 analytically  !
 ! A12   A(5,4,9)              118.5154         calculate D2E/DX2 analytically  !
 ! A13   A(4,5,6)              120.6714         calculate D2E/DX2 analytically  !
 ! A14   A(4,5,10)             119.5806         calculate D2E/DX2 analytically  !
 ! A15   A(6,5,10)             119.7468         calculate D2E/DX2 analytically  !
 ! A16   A(1,6,5)              115.8286         calculate D2E/DX2 analytically  !
 ! A17   A(1,6,24)             116.9791         calculate D2E/DX2 analytically  !
 ! A18   A(5,6,24)             127.176          calculate D2E/DX2 analytically  !
 ! A19   A(11,7,13)            124.2413         calculate D2E/DX2 analytically  !
 ! A20   A(11,7,23)            109.3156         calculate D2E/DX2 analytically  !
 ! A21   A(13,7,23)            126.4426         calculate D2E/DX2 analytically  !
 ! A22   A(2,11,7)             109.475          calculate D2E/DX2 analytically  !
 ! A23   A(2,11,44)            130.5908         calculate D2E/DX2 analytically  !
 ! A24   A(7,11,44)            119.9225         calculate D2E/DX2 analytically  !
 ! A25   A(13,12,17)           117.563          calculate D2E/DX2 analytically  !
 ! A26   A(13,12,22)           122.1546         calculate D2E/DX2 analytically  !
 ! A27   A(17,12,22)           120.2814         calculate D2E/DX2 analytically  !
 ! A28   A(7,13,12)            119.6516         calculate D2E/DX2 analytically  !
 ! A29   A(7,13,14)            120.2411         calculate D2E/DX2 analytically  !
 ! A30   A(12,13,14)           120.1074         calculate D2E/DX2 analytically  !
 ! A31   A(13,14,15)           121.2927         calculate D2E/DX2 analytically  !
 ! A32   A(13,14,18)           119.75           calculate D2E/DX2 analytically  !
 ! A33   A(15,14,18)           118.957          calculate D2E/DX2 analytically  !
 ! A34   A(14,15,16)           119.2264         calculate D2E/DX2 analytically  !
 ! A35   A(14,15,20)           120.815          calculate D2E/DX2 analytically  !
 ! A36   A(16,15,20)           119.9559         calculate D2E/DX2 analytically  !
 ! A37   A(15,16,17)           122.3782         calculate D2E/DX2 analytically  !
 ! A38   A(15,16,19)           118.5292         calculate D2E/DX2 analytically  !
 ! A39   A(17,16,19)           119.0909         calculate D2E/DX2 analytically  !
 ! A40   A(12,17,16)           119.4256         calculate D2E/DX2 analytically  !
 ! A41   A(12,17,21)           117.7701         calculate D2E/DX2 analytically  !
 ! A42   A(16,17,21)           122.8021         calculate D2E/DX2 analytically  !
 ! A43   A(15,20,46)           111.7042         calculate D2E/DX2 analytically  !
 ! A44   A(15,20,50)           110.7839         calculate D2E/DX2 analytically  !
 ! A45   A(15,20,54)           110.2            calculate D2E/DX2 analytically  !
 ! A46   A(46,20,50)           109.1003         calculate D2E/DX2 analytically  !
 ! A47   A(46,20,54)           108.1655         calculate D2E/DX2 analytically  !
 ! A48   A(50,20,54)           106.7249         calculate D2E/DX2 analytically  !
 ! A49   A(17,21,58)           110.5525         calculate D2E/DX2 analytically  !
 ! A50   A(17,21,62)           110.7706         calculate D2E/DX2 analytically  !
 ! A51   A(17,21,66)           110.7094         calculate D2E/DX2 analytically  !
 ! A52   A(58,21,62)           109.2385         calculate D2E/DX2 analytically  !
 ! A53   A(58,21,66)           106.4671         calculate D2E/DX2 analytically  !
 ! A54   A(62,21,66)           108.991          calculate D2E/DX2 analytically  !
 ! A55   A(1,23,7)             106.9399         calculate D2E/DX2 analytically  !
 ! A56   A(1,23,45)            103.5508         calculate D2E/DX2 analytically  !
 ! A57   A(7,23,45)            149.4463         calculate D2E/DX2 analytically  !
 ! A58   A(6,24,25)            119.2384         calculate D2E/DX2 analytically  !
 ! A59   A(6,24,26)            118.7069         calculate D2E/DX2 analytically  !
 ! A60   A(25,24,26)           122.0533         calculate D2E/DX2 analytically  !
 ! A61   A(24,26,27)           121.3773         calculate D2E/DX2 analytically  !
 ! A62   A(26,27,28)           110.8533         calculate D2E/DX2 analytically  !
 ! A63   A(26,27,29)           112.3963         calculate D2E/DX2 analytically  !
 ! A64   A(26,27,30)           105.6729         calculate D2E/DX2 analytically  !
 ! A65   A(28,27,29)           110.9947         calculate D2E/DX2 analytically  !
 ! A66   A(28,27,30)           108.3534         calculate D2E/DX2 analytically  !
 ! A67   A(29,27,30)           108.3199         calculate D2E/DX2 analytically  !
 ! A68   A(27,28,31)           110.7613         calculate D2E/DX2 analytically  !
 ! A69   A(27,28,32)           108.2447         calculate D2E/DX2 analytically  !
 ! A70   A(27,28,33)           109.6259         calculate D2E/DX2 analytically  !
 ! A71   A(31,28,32)           109.8801         calculate D2E/DX2 analytically  !
 ! A72   A(31,28,33)           111.0293         calculate D2E/DX2 analytically  !
 ! A73   A(32,28,33)           107.1935         calculate D2E/DX2 analytically  !
 ! A74   A(27,29,34)           110.6799         calculate D2E/DX2 analytically  !
 ! A75   A(27,29,35)           108.9555         calculate D2E/DX2 analytically  !
 ! A76   A(27,29,36)           109.4821         calculate D2E/DX2 analytically  !
 ! A77   A(34,29,35)           109.3443         calculate D2E/DX2 analytically  !
 ! A78   A(34,29,36)           110.9674         calculate D2E/DX2 analytically  !
 ! A79   A(35,29,36)           107.33           calculate D2E/DX2 analytically  !
 ! A80   A(28,31,37)           111.486          calculate D2E/DX2 analytically  !
 ! A81   A(28,31,38)           109.758          calculate D2E/DX2 analytically  !
 ! A82   A(28,31,39)           109.082          calculate D2E/DX2 analytically  !
 ! A83   A(37,31,38)           110.5477         calculate D2E/DX2 analytically  !
 ! A84   A(37,31,39)           109.0743         calculate D2E/DX2 analytically  !
 ! A85   A(38,31,39)           106.7643         calculate D2E/DX2 analytically  !
 ! A86   A(29,34,37)           111.3933         calculate D2E/DX2 analytically  !
 ! A87   A(29,34,40)           109.7239         calculate D2E/DX2 analytically  !
 ! A88   A(29,34,41)           109.1136         calculate D2E/DX2 analytically  !
 ! A89   A(37,34,40)           110.603          calculate D2E/DX2 analytically  !
 ! A90   A(37,34,41)           109.1538         calculate D2E/DX2 analytically  !
 ! A91   A(40,34,41)           106.7281         calculate D2E/DX2 analytically  !
 ! A92   A(31,37,34)           111.1062         calculate D2E/DX2 analytically  !
 ! A93   A(31,37,42)           110.1237         calculate D2E/DX2 analytically  !
 ! A94   A(31,37,43)           109.2115         calculate D2E/DX2 analytically  !
 ! A95   A(34,37,42)           110.1778         calculate D2E/DX2 analytically  !
 ! A96   A(34,37,43)           109.1986         calculate D2E/DX2 analytically  !
 ! A97   A(42,37,43)           106.9212         calculate D2E/DX2 analytically  !
 ! A98   A(20,46,47)           109.4712         calculate D2E/DX2 analytically  !
 ! A99   A(20,46,48)           109.4712         calculate D2E/DX2 analytically  !
 ! A100  A(20,46,49)           109.4712         calculate D2E/DX2 analytically  !
 ! A101  A(47,46,48)           109.4713         calculate D2E/DX2 analytically  !
 ! A102  A(47,46,49)           109.4712         calculate D2E/DX2 analytically  !
 ! A103  A(48,46,49)           109.4712         calculate D2E/DX2 analytically  !
 ! A104  A(20,50,51)           109.4712         calculate D2E/DX2 analytically  !
 ! A105  A(20,50,52)           109.4712         calculate D2E/DX2 analytically  !
 ! A106  A(20,50,53)           109.4712         calculate D2E/DX2 analytically  !
 ! A107  A(51,50,52)           109.4713         calculate D2E/DX2 analytically  !
 ! A108  A(51,50,53)           109.4712         calculate D2E/DX2 analytically  !
 ! A109  A(52,50,53)           109.4712         calculate D2E/DX2 analytically  !
 ! A110  A(20,54,55)           109.4712         calculate D2E/DX2 analytically  !
 ! A111  A(20,54,56)           109.4712         calculate D2E/DX2 analytically  !
 ! A112  A(20,54,57)           109.4712         calculate D2E/DX2 analytically  !
 ! A113  A(55,54,56)           109.4713         calculate D2E/DX2 analytically  !
 ! A114  A(55,54,57)           109.4712         calculate D2E/DX2 analytically  !
 ! A115  A(56,54,57)           109.4712         calculate D2E/DX2 analytically  !
 ! A116  A(21,58,59)           109.4712         calculate D2E/DX2 analytically  !
 ! A117  A(21,58,60)           109.4712         calculate D2E/DX2 analytically  !
 ! A118  A(21,58,61)           109.4712         calculate D2E/DX2 analytically  !
 ! A119  A(59,58,60)           109.4713         calculate D2E/DX2 analytically  !
 ! A120  A(59,58,61)           109.4712         calculate D2E/DX2 analytically  !
 ! A121  A(60,58,61)           109.4712         calculate D2E/DX2 analytically  !
 ! A122  A(21,62,63)           109.4712         calculate D2E/DX2 analytically  !
 ! A123  A(21,62,64)           109.4712         calculate D2E/DX2 analytically  !
 ! A124  A(21,62,65)           109.4712         calculate D2E/DX2 analytically  !
 ! A125  A(63,62,64)           109.4713         calculate D2E/DX2 analytically  !
 ! A126  A(63,62,65)           109.4712         calculate D2E/DX2 analytically  !
 ! A127  A(64,62,65)           109.4712         calculate D2E/DX2 analytically  !
 ! A128  A(21,66,67)           109.4712         calculate D2E/DX2 analytically  !
 ! A129  A(21,66,68)           109.4712         calculate D2E/DX2 analytically  !
 ! A130  A(21,66,69)           109.4712         calculate D2E/DX2 analytically  !
 ! A131  A(67,66,68)           109.4713         calculate D2E/DX2 analytically  !
 ! A132  A(67,66,69)           109.4712         calculate D2E/DX2 analytically  !
 ! A133  A(68,66,69)           109.4712         calculate D2E/DX2 analytically  !
 ! D1    D(6,1,2,3)             -0.4159         calculate D2E/DX2 analytically  !
 ! D2    D(6,1,2,11)           178.9419         calculate D2E/DX2 analytically  !
 ! D3    D(23,1,2,3)          -179.3542         calculate D2E/DX2 analytically  !
 ! D4    D(23,1,2,11)            0.0036         calculate D2E/DX2 analytically  !
 ! D5    D(2,1,6,5)              0.5061         calculate D2E/DX2 analytically  !
 ! D6    D(2,1,6,24)          -178.1296         calculate D2E/DX2 analytically  !
 ! D7    D(23,1,6,5)           179.2712         calculate D2E/DX2 analytically  !
 ! D8    D(23,1,6,24)            0.6355         calculate D2E/DX2 analytically  !
 ! D9    D(2,1,23,7)             0.1417         calculate D2E/DX2 analytically  !
 ! D10   D(2,1,23,45)          178.1571         calculate D2E/DX2 analytically  !
 ! D11   D(6,1,23,7)          -178.7679         calculate D2E/DX2 analytically  !
 ! D12   D(6,1,23,45)           -0.7526         calculate D2E/DX2 analytically  !
 ! D13   D(1,2,3,4)              0.0038         calculate D2E/DX2 analytically  !
 ! D14   D(1,2,3,8)            179.7651         calculate D2E/DX2 analytically  !
 ! D15   D(11,2,3,4)          -179.1054         calculate D2E/DX2 analytically  !
 ! D16   D(11,2,3,8)             0.6559         calculate D2E/DX2 analytically  !
 ! D17   D(1,2,11,7)            -0.1483         calculate D2E/DX2 analytically  !
 ! D18   D(1,2,11,44)         -178.8723         calculate D2E/DX2 analytically  !
 ! D19   D(3,2,11,7)           179.0556         calculate D2E/DX2 analytically  !
 ! D20   D(3,2,11,44)            0.3315         calculate D2E/DX2 analytically  !
 ! D21   D(2,3,4,5)              0.2868         calculate D2E/DX2 analytically  !
 ! D22   D(2,3,4,9)           -179.9155         calculate D2E/DX2 analytically  !
 ! D23   D(8,3,4,5)           -179.4761         calculate D2E/DX2 analytically  !
 ! D24   D(8,3,4,9)              0.3216         calculate D2E/DX2 analytically  !
 ! D25   D(3,4,5,6)             -0.1866         calculate D2E/DX2 analytically  !
 ! D26   D(3,4,5,10)           179.4209         calculate D2E/DX2 analytically  !
 ! D27   D(9,4,5,6)           -179.9845         calculate D2E/DX2 analytically  !
 ! D28   D(9,4,5,10)            -0.377          calculate D2E/DX2 analytically  !
 ! D29   D(4,5,6,1)             -0.2034         calculate D2E/DX2 analytically  !
 ! D30   D(4,5,6,24)           178.2707         calculate D2E/DX2 analytically  !
 ! D31   D(10,5,6,1)          -179.8102         calculate D2E/DX2 analytically  !
 ! D32   D(10,5,6,24)           -1.3362         calculate D2E/DX2 analytically  !
 ! D33   D(1,6,24,25)          179.4865         calculate D2E/DX2 analytically  !
 ! D34   D(1,6,24,26)           -0.091          calculate D2E/DX2 analytically  !
 ! D35   D(5,6,24,25)            1.0277         calculate D2E/DX2 analytically  !
 ! D36   D(5,6,24,26)         -178.5498         calculate D2E/DX2 analytically  !
 ! D37   D(13,7,11,2)         -179.5186         calculate D2E/DX2 analytically  !
 ! D38   D(13,7,11,44)          -0.6365         calculate D2E/DX2 analytically  !
 ! D39   D(23,7,11,2)            0.2444         calculate D2E/DX2 analytically  !
 ! D40   D(23,7,11,44)         179.1265         calculate D2E/DX2 analytically  !
 ! D41   D(11,7,13,12)           2.3695         calculate D2E/DX2 analytically  !
 ! D42   D(11,7,13,14)        -177.6857         calculate D2E/DX2 analytically  !
 ! D43   D(23,7,13,12)        -177.3524         calculate D2E/DX2 analytically  !
 ! D44   D(23,7,13,14)           2.5924         calculate D2E/DX2 analytically  !
 ! D45   D(11,7,23,1)           -0.2348         calculate D2E/DX2 analytically  !
 ! D46   D(11,7,23,45)        -176.4373         calculate D2E/DX2 analytically  !
 ! D47   D(13,7,23,1)          179.5216         calculate D2E/DX2 analytically  !
 ! D48   D(13,7,23,45)           3.3191         calculate D2E/DX2 analytically  !
 ! D49   D(17,12,13,7)         179.1055         calculate D2E/DX2 analytically  !
 ! D50   D(17,12,13,14)         -0.8394         calculate D2E/DX2 analytically  !
 ! D51   D(22,12,13,7)          -1.2545         calculate D2E/DX2 analytically  !
 ! D52   D(22,12,13,14)        178.8007         calculate D2E/DX2 analytically  !
 ! D53   D(13,12,17,16)          0.8676         calculate D2E/DX2 analytically  !
 ! D54   D(13,12,17,21)       -179.6627         calculate D2E/DX2 analytically  !
 ! D55   D(22,12,17,16)       -178.7795         calculate D2E/DX2 analytically  !
 ! D56   D(22,12,17,21)          0.6902         calculate D2E/DX2 analytically  !
 ! D57   D(7,13,14,15)        -179.7229         calculate D2E/DX2 analytically  !
 ! D58   D(7,13,14,18)           0.4764         calculate D2E/DX2 analytically  !
 ! D59   D(12,13,14,15)          0.2216         calculate D2E/DX2 analytically  !
 ! D60   D(12,13,14,18)       -179.5791         calculate D2E/DX2 analytically  !
 ! D61   D(13,14,15,16)          0.3859         calculate D2E/DX2 analytically  !
 ! D62   D(13,14,15,20)        179.7833         calculate D2E/DX2 analytically  !
 ! D63   D(18,14,15,16)       -179.8119         calculate D2E/DX2 analytically  !
 ! D64   D(18,14,15,20)         -0.4144         calculate D2E/DX2 analytically  !
 ! D65   D(14,15,16,17)         -0.3539         calculate D2E/DX2 analytically  !
 ! D66   D(14,15,16,19)       -179.8761         calculate D2E/DX2 analytically  !
 ! D67   D(20,15,16,17)       -179.7567         calculate D2E/DX2 analytically  !
 ! D68   D(20,15,16,19)          0.7211         calculate D2E/DX2 analytically  !
 ! D69   D(14,15,20,46)         12.2749         calculate D2E/DX2 analytically  !
 ! D70   D(14,15,20,50)        134.1302         calculate D2E/DX2 analytically  !
 ! D71   D(14,15,20,54)       -107.9895         calculate D2E/DX2 analytically  !
 ! D72   D(16,15,20,46)       -168.332          calculate D2E/DX2 analytically  !
 ! D73   D(16,15,20,50)        -46.4767         calculate D2E/DX2 analytically  !
 ! D74   D(16,15,20,54)         71.4036         calculate D2E/DX2 analytically  !
 ! D75   D(15,16,17,12)         -0.2892         calculate D2E/DX2 analytically  !
 ! D76   D(15,16,17,21)       -179.7309         calculate D2E/DX2 analytically  !
 ! D77   D(19,16,17,12)        179.2305         calculate D2E/DX2 analytically  !
 ! D78   D(19,16,17,21)         -0.2113         calculate D2E/DX2 analytically  !
 ! D79   D(12,17,21,58)        -55.8296         calculate D2E/DX2 analytically  !
 ! D80   D(12,17,21,62)       -177.0654         calculate D2E/DX2 analytically  !
 ! D81   D(12,17,21,66)         61.9058         calculate D2E/DX2 analytically  !
 ! D82   D(16,17,21,58)        123.6209         calculate D2E/DX2 analytically  !
 ! D83   D(16,17,21,62)          2.3851         calculate D2E/DX2 analytically  !
 ! D84   D(16,17,21,66)       -118.6437         calculate D2E/DX2 analytically  !
 ! D85   D(15,20,46,47)        -68.4204         calculate D2E/DX2 analytically  !
 ! D86   D(15,20,46,48)         51.5796         calculate D2E/DX2 analytically  !
 ! D87   D(15,20,46,49)        171.5796         calculate D2E/DX2 analytically  !
 ! D88   D(50,20,46,47)        168.7593         calculate D2E/DX2 analytically  !
 ! D89   D(50,20,46,48)        -71.2407         calculate D2E/DX2 analytically  !
 ! D90   D(50,20,46,49)         48.7593         calculate D2E/DX2 analytically  !
 ! D91   D(54,20,46,47)         53.0287         calculate D2E/DX2 analytically  !
 ! D92   D(54,20,46,48)        173.0288         calculate D2E/DX2 analytically  !
 ! D93   D(54,20,46,49)        -66.9712         calculate D2E/DX2 analytically  !
 ! D94   D(15,20,50,51)         73.0936         calculate D2E/DX2 analytically  !
 ! D95   D(15,20,50,52)       -166.9064         calculate D2E/DX2 analytically  !
 ! D96   D(15,20,50,53)        -46.9064         calculate D2E/DX2 analytically  !
 ! D97   D(46,20,50,51)       -163.5373         calculate D2E/DX2 analytically  !
 ! D98   D(46,20,50,52)        -43.5372         calculate D2E/DX2 analytically  !
 ! D99   D(46,20,50,53)         76.4628         calculate D2E/DX2 analytically  !
 ! D100  D(54,20,50,51)        -46.8862         calculate D2E/DX2 analytically  !
 ! D101  D(54,20,50,52)         73.1138         calculate D2E/DX2 analytically  !
 ! D102  D(54,20,50,53)       -166.8862         calculate D2E/DX2 analytically  !
 ! D103  D(15,20,54,55)        170.808          calculate D2E/DX2 analytically  !
 ! D104  D(15,20,54,56)        -69.192          calculate D2E/DX2 analytically  !
 ! D105  D(15,20,54,57)         50.808          calculate D2E/DX2 analytically  !
 ! D106  D(46,20,54,55)         48.4338         calculate D2E/DX2 analytically  !
 ! D107  D(46,20,54,56)        168.4339         calculate D2E/DX2 analytically  !
 ! D108  D(46,20,54,57)        -71.5662         calculate D2E/DX2 analytically  !
 ! D109  D(50,20,54,55)        -68.8368         calculate D2E/DX2 analytically  !
 ! D110  D(50,20,54,56)         51.1632         calculate D2E/DX2 analytically  !
 ! D111  D(50,20,54,57)        171.1632         calculate D2E/DX2 analytically  !
 ! D112  D(17,21,58,59)         95.5866         calculate D2E/DX2 analytically  !
 ! D113  D(17,21,58,60)       -144.4134         calculate D2E/DX2 analytically  !
 ! D114  D(17,21,58,61)        -24.4134         calculate D2E/DX2 analytically  !
 ! D115  D(62,21,58,59)       -142.2739         calculate D2E/DX2 analytically  !
 ! D116  D(62,21,58,60)        -22.2739         calculate D2E/DX2 analytically  !
 ! D117  D(62,21,58,61)         97.7261         calculate D2E/DX2 analytically  !
 ! D118  D(66,21,58,59)        -24.7211         calculate D2E/DX2 analytically  !
 ! D119  D(66,21,58,60)         95.2789         calculate D2E/DX2 analytically  !
 ! D120  D(66,21,58,61)       -144.7211         calculate D2E/DX2 analytically  !
 ! D121  D(17,21,62,63)        -60.1054         calculate D2E/DX2 analytically  !
 ! D122  D(17,21,62,64)         59.8946         calculate D2E/DX2 analytically  !
 ! D123  D(17,21,62,65)        179.8946         calculate D2E/DX2 analytically  !
 ! D124  D(58,21,62,63)        177.8864         calculate D2E/DX2 analytically  !
 ! D125  D(58,21,62,64)        -62.1136         calculate D2E/DX2 analytically  !
 ! D126  D(58,21,62,65)         57.8864         calculate D2E/DX2 analytically  !
 ! D127  D(66,21,62,63)         61.9344         calculate D2E/DX2 analytically  !
 ! D128  D(66,21,62,64)       -178.0655         calculate D2E/DX2 analytically  !
 ! D129  D(66,21,62,65)        -58.0656         calculate D2E/DX2 analytically  !
 ! D130  D(17,21,66,67)        150.6446         calculate D2E/DX2 analytically  !
 ! D131  D(17,21,66,68)        -89.3554         calculate D2E/DX2 analytically  !
 ! D132  D(17,21,66,69)         30.6446         calculate D2E/DX2 analytically  !
 ! D133  D(58,21,66,67)        -89.149          calculate D2E/DX2 analytically  !
 ! D134  D(58,21,66,68)         30.851          calculate D2E/DX2 analytically  !
 ! D135  D(58,21,66,69)        150.851          calculate D2E/DX2 analytically  !
 ! D136  D(62,21,66,67)         28.5677         calculate D2E/DX2 analytically  !
 ! D137  D(62,21,66,68)        148.5677         calculate D2E/DX2 analytically  !
 ! D138  D(62,21,66,69)        -91.4323         calculate D2E/DX2 analytically  !
 ! D139  D(6,24,26,27)         178.157          calculate D2E/DX2 analytically  !
 ! D140  D(25,24,26,27)         -1.408          calculate D2E/DX2 analytically  !
 ! D141  D(24,26,27,28)        -67.5098         calculate D2E/DX2 analytically  !
 ! D142  D(24,26,27,29)         57.3557         calculate D2E/DX2 analytically  !
 ! D143  D(24,26,27,30)        175.3068         calculate D2E/DX2 analytically  !
 ! D144  D(26,27,28,31)       -178.0758         calculate D2E/DX2 analytically  !
 ! D145  D(26,27,28,32)         61.4012         calculate D2E/DX2 analytically  !
 ! D146  D(26,27,28,33)        -55.2139         calculate D2E/DX2 analytically  !
 ! D147  D(29,27,28,31)         56.2698         calculate D2E/DX2 analytically  !
 ! D148  D(29,27,28,32)        -64.2532         calculate D2E/DX2 analytically  !
 ! D149  D(29,27,28,33)        179.1318         calculate D2E/DX2 analytically  !
 ! D150  D(30,27,28,31)        -62.5481         calculate D2E/DX2 analytically  !
 ! D151  D(30,27,28,32)        176.9289         calculate D2E/DX2 analytically  !
 ! D152  D(30,27,28,33)         60.3139         calculate D2E/DX2 analytically  !
 ! D153  D(26,27,29,34)        178.7496         calculate D2E/DX2 analytically  !
 ! D154  D(26,27,29,35)        -60.9853         calculate D2E/DX2 analytically  !
 ! D155  D(26,27,29,36)         56.1173         calculate D2E/DX2 analytically  !
 ! D156  D(28,27,29,34)        -56.4626         calculate D2E/DX2 analytically  !
 ! D157  D(28,27,29,35)         63.8026         calculate D2E/DX2 analytically  !
 ! D158  D(28,27,29,36)       -179.0948         calculate D2E/DX2 analytically  !
 ! D159  D(30,27,29,34)         62.3755         calculate D2E/DX2 analytically  !
 ! D160  D(30,27,29,35)       -177.3593         calculate D2E/DX2 analytically  !
 ! D161  D(30,27,29,36)        -60.2567         calculate D2E/DX2 analytically  !
 ! D162  D(27,28,31,37)        -55.662          calculate D2E/DX2 analytically  !
 ! D163  D(27,28,31,38)       -178.4945         calculate D2E/DX2 analytically  !
 ! D164  D(27,28,31,39)         64.8545         calculate D2E/DX2 analytically  !
 ! D165  D(32,28,31,37)         63.8835         calculate D2E/DX2 analytically  !
 ! D166  D(32,28,31,38)        -58.949          calculate D2E/DX2 analytically  !
 ! D167  D(32,28,31,39)       -175.5999         calculate D2E/DX2 analytically  !
 ! D168  D(33,28,31,37)       -177.7064         calculate D2E/DX2 analytically  !
 ! D169  D(33,28,31,38)         59.4611         calculate D2E/DX2 analytically  !
 ! D170  D(33,28,31,39)        -57.1898         calculate D2E/DX2 analytically  !
 ! D171  D(27,29,34,37)         56.0587         calculate D2E/DX2 analytically  !
 ! D172  D(27,29,34,40)        178.8746         calculate D2E/DX2 analytically  !
 ! D173  D(27,29,34,41)        -64.5193         calculate D2E/DX2 analytically  !
 ! D174  D(35,29,34,37)        -63.974          calculate D2E/DX2 analytically  !
 ! D175  D(35,29,34,40)         58.8419         calculate D2E/DX2 analytically  !
 ! D176  D(35,29,34,41)        175.4481         calculate D2E/DX2 analytically  !
 ! D177  D(36,29,34,37)        177.8218         calculate D2E/DX2 analytically  !
 ! D178  D(36,29,34,40)        -59.3623         calculate D2E/DX2 analytically  !
 ! D179  D(36,29,34,41)         57.2439         calculate D2E/DX2 analytically  !
 ! D180  D(28,31,37,34)         55.2283         calculate D2E/DX2 analytically  !
 ! D181  D(28,31,37,42)        177.5866         calculate D2E/DX2 analytically  !
 ! D182  D(28,31,37,43)        -65.2878         calculate D2E/DX2 analytically  !
 ! D183  D(38,31,37,34)        177.6078         calculate D2E/DX2 analytically  !
 ! D184  D(38,31,37,42)        -60.034          calculate D2E/DX2 analytically  !
 ! D185  D(38,31,37,43)         57.0916         calculate D2E/DX2 analytically  !
 ! D186  D(39,31,37,34)        -65.2928         calculate D2E/DX2 analytically  !
 ! D187  D(39,31,37,42)         57.0655         calculate D2E/DX2 analytically  !
 ! D188  D(39,31,37,43)        174.191          calculate D2E/DX2 analytically  !
 ! D189  D(29,34,37,31)        -55.4162         calculate D2E/DX2 analytically  !
 ! D190  D(29,34,37,42)       -177.7431         calculate D2E/DX2 analytically  !
 ! D191  D(29,34,37,43)         65.1077         calculate D2E/DX2 analytically  !
 ! D192  D(40,34,37,31)       -177.7266         calculate D2E/DX2 analytically  !
 ! D193  D(40,34,37,42)         59.9465         calculate D2E/DX2 analytically  !
 ! D194  D(40,34,37,43)        -57.2028         calculate D2E/DX2 analytically  !
 ! D195  D(41,34,37,31)         65.1382         calculate D2E/DX2 analytically  !
 ! D196  D(41,34,37,42)        -57.1887         calculate D2E/DX2 analytically  !
 ! D197  D(41,34,37,43)       -174.338          calculate D2E/DX2 analytically  !
 --------------------------------------------------------------------------------
 Trust Radius=3.00D-01 FncErr=5.00D-06 GrdErr=5.00D-06 EigMax=2.50D+02 EigMin=1.00D-04
 Number of steps in this run=    412 maximum allowed number of steps=    414.
 Search for a saddle point of order  1.
 GradGradGradGradGradGradGradGradGradGradGradGradGradGradGradGradGradGrad

 Leave Link  103 at Thu Dec 20 17:57:16 2018, MaxMem=  1342177280 cpu:               0.2 elap:               0.0
 (Enter /gpfs/apps/hpc/Apps/Restricted/Gaussian/Rev_A.03/g16/l202.exe)
 Symmetry turned off by external request.
 Stoichiometry    C28H37N3O(1+,2)
 Framework group  C1[X(C28H37N3O)]
 Deg. of freedom   201
 Full point group                 C1      NOp   1
                          Input orientation:                          
 ---------------------------------------------------------------------
 Center     Atomic      Atomic             Coordinates (Angstroms)
 Number     Number       Type             X           Y           Z
 ---------------------------------------------------------------------
      1          6           0       -0.569144    2.975654    0.353010
      2          6           0       -1.961174    3.104012    0.277127
      3          6           0       -2.542752    4.372577    0.191228
      4          6           0       -1.670159    5.463711    0.186451
      5          6           0       -0.268765    5.323858    0.257298
      6          6           0        0.317405    4.059654    0.340882
      7          6           0       -1.370904    0.945093    0.376304
      8          1           0       -3.614318    4.508651    0.127380
      9          1           0       -2.087650    6.460971    0.122328
     10          1           0        0.358400    6.207112    0.240214
     11          7           0       -2.425628    1.802082    0.296747
     12          6           0       -2.820040   -1.111264    0.298281
     13          6           0       -1.493277   -0.492884    0.407065
     14          6           0       -0.365852   -1.286077    0.537301
     15          6           0       -0.458947   -2.689846    0.563986
     16          6           0       -1.732034   -3.301209    0.446954
     17          6           0       -2.889211   -2.571944    0.314466
     18          1           0        0.610208   -0.823224    0.624049
     19          1           0       -1.790906   -4.383976    0.470959
     20          6           0        0.766720   -3.536715    0.700294
     21          6           0       -4.237021   -3.206535    0.196238
     22          8           0       -3.870130   -0.428325    0.200953
     23          7           0       -0.224181    1.651911    0.414907
     24          6           0        1.738628    3.750625    0.385152
     25          1           0        2.461084    4.565660    0.368870
     26          7           0        2.102971    2.512775    0.434367
     27          6           0        3.522672    2.132599    0.440536
     28          6           0        4.184496    2.466069   -0.906784
     29          6           0        4.294485    2.770595    1.605824
     30          1           0        3.537245    1.046834    0.572035
     31          6           0        5.651605    2.025664   -0.914830
     32          1           0        4.119562    3.549763   -1.062332
     33          1           0        3.627188    1.989152   -1.717754
     34          6           0        5.759916    2.324463    1.592759
     35          1           0        4.246181    3.861404    1.510039
     36          1           0        3.813096    2.505024    2.550827
     37          6           0        6.429648    2.643945    0.251686
     38          1           0        6.113084    2.294375   -1.869374
     39          1           0        5.698287    0.932533   -0.837469
     40          1           0        6.298829    2.802859    2.415802
     41          1           0        5.807756    1.242980    1.770371
     42          1           0        7.461943    2.281686    0.249637
     43          1           0        6.472894    3.732021    0.120275
     44          1           0       -3.374770    1.436206    0.244908
     45          1           0        0.993467    1.675091    0.438611
     46          6           0        1.995873   -2.699480    1.100069
     47          1           0        2.269631   -2.057908    0.288687
     48          1           0        1.759753   -2.107021    1.959220
     49          1           0        2.812258   -3.351797    1.330068
     50          6           0        0.550827   -4.646141    1.746317
     51          1           0       -0.101065   -5.393373    1.344346
     52          1           0        1.492106   -5.090211    1.994704
     53          1           0        0.111438   -4.225674    2.626683
     54          6           0        1.078176   -4.240042   -0.633845
     55          1           0        2.036930   -4.711240   -0.573318
     56          1           0        0.329540   -4.978695   -0.830915
     57          1           0        1.084460   -3.518867   -1.424266
     58          6           0       -5.178845   -2.684467    1.297152
     59          1           0       -5.765795   -1.877355    0.911196
     60          1           0       -5.825559   -3.474454    1.617434
     61          1           0       -4.599566   -2.338854    2.127747
     62          6           0       -4.130480   -4.739040    0.304304
     63          1           0       -3.506109   -5.109471   -0.481725
     64          1           0       -3.705734   -5.001182    1.250756
     65          1           0       -5.105572   -5.171258    0.218964
     66          6           0       -4.893847   -2.843427   -1.148504
     67          1           0       -5.546077   -3.635414   -1.452236
     68          1           0       -5.456854   -1.940248   -1.038087
     69          1           0       -4.134978   -2.702329   -1.889523
 ---------------------------------------------------------------------
 Rotational constants (GHZ):           0.1743488           0.0818471           0.0584596
 Leave Link  202 at Thu Dec 20 17:57:16 2018, MaxMem=  1342177280 cpu:               0.8 elap:               0.1
 (Enter /gpfs/apps/hpc/Apps/Restricted/Gaussian/Rev_A.03/g16/l301.exe)
 Standard basis: 6-31G(d,p) (6D, 7F)
 Ernie: Thresh=  0.10000D-02 Tol=  0.10000D-05 Strict=F.
   665 basis functions,  1155 primitive gaussians,   665 cartesian basis functions
   117 alpha electrons      116 beta electrons
       nuclear repulsion energy      3222.3877391471 Hartrees.
 IExCor=  402 DFT=T Ex+Corr=B3LYP ExCW=0 ScaHFX=  0.200000
 ScaDFX=  0.800000  0.720000  1.000000  0.810000 ScalE2=  1.000000  1.000000
 IRadAn=      5 IRanWt=     -1 IRanGd=            0 ICorTp=0 IEmpDi=141
 NAtoms=   69 NActive=   69 NUniq=   69 SFac= 1.00D+00 NAtFMM=   60 NAOKFM=T Big=T
 Integral buffers will be    131072 words long.
 Raffenetti 2 integral format.
 Two-electron integral symmetry is turned off.
 R6Disp:  Grimme-D3(BJ) Dispersion energy=       -0.1523178466 Hartrees.
 Nuclear repulsion after empirical dispersion term =     3222.2354213005 Hartrees.
 Force inversion solution in PCM.
 Using the following non-standard input for PCM:
 radii=bondi
 dis
 rep
 cav
 --- end of non-standard input.
 Force inversion solution in PCM.
 ------------------------------------------------------------------------------
 Polarizable Continuum Model (PCM)
 =================================
 Model                : C-PCM.
 Atomic radii         : Bondi.
 Polarization charges : Total charges.
 Charge compensation  : None.
 Solution method      : Matrix inversion.
 Cavity type          : Scaled VdW (van der Waals Surface) (Alpha=1.100).
 Cavity algorithm     : GePol (No added spheres)
                        Default sphere list used, NSphG=   69.
                        Lebedev-Laikov grids with approx.  5.0 points / Ang**2.
                        Smoothing algorithm: York/Karplus (Gamma=1.0000).
                        Polarization charges: spherical gaussians, with
                                              point-specific exponents (IZeta= 3).
                        Self-potential: point-specific (ISelfS= 7).
                        Self-field    : sphere-specific E.n sum rule (ISelfD= 2).
 1st derivatives      : Analytical E(r).r(x)/FMM algorithm (CHGder, D1EAlg=3).
                        Cavity 1st derivative terms included.
 2nd derivatives      : Analytical E(r).r(xy)/FMM algorithm (CHGder, D2EAlg=3).
                        Cavity 2nd derivative terms included.
 Solvent              : Dichloromethane, Eps=   8.930000 Eps(inf)=   2.028346
 ------------------------------------------------------------------------------
 GePol: Number of generator spheres                  =      69
 GePol: Total number of spheres                      =      69
 GePol: Number of exposed spheres                    =      69 (100.00%)
 GePol: Number of points                             =    4301
 GePol: Average weight of points                     =       0.12
 GePol: Minimum weight of points                     =   0.33D-11
 GePol: Maximum weight of points                     =    0.21770
 GePol: Number of points with low weight             =     310
 GePol: Fraction of low-weight points (<1% of avg)   =       7.21%
 GePol: Cavity surface area                          =    511.476 Ang**2
 GePol: Cavity volume                                =    496.117 Ang**3
 PCM non-electrostatic energy =         0.0251950073 Hartrees.
 Nuclear repulsion after PCM non-electrostatic terms =     3222.2606163078 Hartrees.
 Leave Link  301 at Thu Dec 20 17:57:16 2018, MaxMem=  1342177280 cpu:               3.3 elap:               0.2
 (Enter /gpfs/apps/hpc/Apps/Restricted/Gaussian/Rev_A.03/g16/l302.exe)
 NPDir=0 NMtPBC=     1 NCelOv=     1 NCel=       1 NClECP=     1 NCelD=      1
         NCelK=      1 NCelE2=     1 NClLst=     1 CellRange=     0.0.
 One-electron integrals computed using PRISM.
 NBasis=   665 RedAO= T EigKep=  3.03D-04  NBF=   665
 NBsUse=   665 1.00D-06 EigRej= -1.00D+00 NBFU=   665
 Precomputing XC quadrature grid using
 IXCGrd= 4 IRadAn=           5 IRanWt=          -1 IRanGd=           0 AccXCQ= 0.00D+00.
 Generated NRdTot=       0 NPtTot=           0 NUsed=           0 NTot=          32
 NSgBfM=   653   653   653   653   653 MxSgAt=    69 MxSgA2=    69.
 Leave Link  302 at Thu Dec 20 17:57:17 2018, MaxMem=  1342177280 cpu:              18.2 elap:               1.2
 (Enter /gpfs/apps/hpc/Apps/Restricted/Gaussian/Rev_A.03/g16/l303.exe)
 DipDrv:  MaxL=1.
 Leave Link  303 at Thu Dec 20 17:57:18 2018, MaxMem=  1342177280 cpu:               2.6 elap:               0.2
 (Enter /gpfs/apps/hpc/Apps/Restricted/Gaussian/Rev_A.03/g16/l401.exe)
 ExpMin= 1.61D-01 ExpMax= 5.48D+03 ExpMxC= 8.25D+02 IAcc=3 IRadAn=         5 AccDes= 0.00D+00
 Harris functional with IExCor=  402 and IRadAn=       5 diagonalized for initial guess.
 HarFok:  IExCor=  402 AccDes= 0.00D+00 IRadAn=         5 IDoV= 1 UseB2=F ITyADJ=14
 ICtDFT=  3500011 ScaDFX=  1.000000  1.000000  1.000000  1.000000
 FoFCou: FMM=F IPFlag=           0 FMFlag=      100000 FMFlg1=        2001
         NFxFlg=           0 DoJE=T BraDBF=F KetDBF=T FulRan=T
         wScrn=  0.000000 ICntrl=       500 IOpCl=  0 I1Cent=   200000004 NGrid=           0
         NMat0=    1 NMatS0=      1 NMatT0=    0 NMatD0=    1 NMtDS0=    0 NMtDT0=    0
 Symmetry not used in FoFCou.
 Harris En= -1328.78688765163    
 JPrj=0 DoOrth=F DoCkMO=F.
 Initial guess <Sx>= 0.0000 <Sy>= 0.0000 <Sz>= 0.5000 <S**2>= 0.7500 S= 0.5000
 Leave Link  401 at Thu Dec 20 17:57:22 2018, MaxMem=  1342177280 cpu:              61.8 elap:               3.9
 (Enter /gpfs/apps/hpc/Apps/Restricted/Gaussian/Rev_A.03/g16/l502.exe)
 Two-electron integral symmetry not used.
 UHF open shell SCF:
 Using DIIS extrapolation, IDIIS=  1040.
 NGot=  1342177280 LenX=  1341276554 LenY=  1340833664
 Requested convergence on RMS density matrix=1.00D-08 within 128 cycles.
 Requested convergence on MAX density matrix=1.00D-06.
 Requested convergence on             energy=1.00D-06.
 No special actions if energy rises.
 Fock matrices will be formed incrementally for  20 cycles.

 Cycle   1  Pass 1  IDiag  1:
 FoFJK:  IHMeth= 1 ICntrl=       0 DoSepK=F KAlg= 0 I1Cent=           0 FoldK=F
 IRaf= 800000000 NMat=       1 IRICut=       1 DoRegI=T DoRafI=F ISym2E= 0 IDoP0=0 IntGTp=1.
 FoFCou: FMM=T IPFlag=           0 FMFlag=      100000 FMFlg1=        2001
         NFxFlg=           0 DoJE=F BraDBF=F KetDBF=F FulRan=T
         wScrn=  0.000000 ICntrl=         0 IOpCl=  1 I1Cent=           0 NGrid=           0
         NMat0=    1 NMatS0=      1 NMatT0=    0 NMatD0=    1 NMtDS0=    0 NMtDT0=    0
 Symmetry not used in FoFCou.
 FMM levels:  10  Number of levels for PrismC:   9
 Inv3:  Mode=1 IEnd=    55495803.
 Iteration    1 A*A^-1 deviation from unit magnitude is 1.53D-14 for    537.
 Iteration    1 A*A^-1 deviation from orthogonality  is 5.16D-15 for   3606    952.
 Iteration    1 A^-1*A deviation from unit magnitude is 1.53D-14 for    537.
 Iteration    1 A^-1*A deviation from orthogonality  is 3.96D-15 for   1716   1332.
 E= -1327.93729727226    
 DIIS: error= 3.46D-02 at cycle   1 NSaved=   1.
 NSaved= 1 IEnMin= 1 EnMin= -1327.93729727226     IErMin= 1 ErrMin= 3.46D-02
 ErrMax= 3.46D-02  0.00D+00 EMaxC= 1.00D-01 BMatC= 3.23D+00 BMatP= 3.23D+00
 IDIUse=3 WtCom= 6.54D-01 WtEn= 3.46D-01
 Coeff-Com:  0.100D+01
 Coeff-En:   0.100D+01
 Coeff:      0.100D+01
 Gap=     0.114 Goal=   None    Shift=    0.000
 Gap=     0.085 Goal=   None    Shift=    0.000
 GapD=    0.085 DampG=0.500 DampE=0.500 DampFc=0.2500 IDamp=-1.
 Damping current iteration by 2.50D-01
 RMSDP=3.26D-03 MaxDP=1.82D-01              OVMax= 3.00D-01

 Cycle   2  Pass 1  IDiag  1:
 RMSU=  7.94D-04    CP:  9.84D-01
 E= -1328.24346205903     Delta-E=       -0.306164786770 Rises=F Damp=T
 DIIS: error= 1.71D-02 at cycle   2 NSaved=   2.
 NSaved= 2 IEnMin= 2 EnMin= -1328.24346205903     IErMin= 2 ErrMin= 1.71D-02
 ErrMax= 1.71D-02  0.00D+00 EMaxC= 1.00D-01 BMatC= 8.38D-01 BMatP= 3.23D+00
 IDIUse=3 WtCom= 8.29D-01 WtEn= 1.71D-01
 Coeff-Com: -0.829D+00 0.183D+01
 Coeff-En:   0.000D+00 0.100D+01
 Coeff:     -0.687D+00 0.169D+01
 Gap=     0.151 Goal=   None    Shift=    0.000
 Gap=     0.129 Goal=   None    Shift=    0.000
 RMSDP=1.20D-03 MaxDP=6.56D-02 DE=-3.06D-01 OVMax= 2.07D-01

 Cycle   3  Pass 1  IDiag  1:
 RMSU=  8.68D-04    CP:  9.53D-01  1.93D+00
 E= -1328.75197913830     Delta-E=       -0.508517079270 Rises=F Damp=F
 DIIS: error= 7.82D-03 at cycle   3 NSaved=   3.
 NSaved= 3 IEnMin= 3 EnMin= -1328.75197913830     IErMin= 3 ErrMin= 7.82D-03
 ErrMax= 7.82D-03  0.00D+00 EMaxC= 1.00D-01 BMatC= 1.47D-01 BMatP= 8.38D-01
 IDIUse=3 WtCom= 9.22D-01 WtEn= 7.82D-02
 Coeff-Com: -0.358D+00 0.793D+00 0.564D+00
 Coeff-En:   0.000D+00 0.000D+00 0.100D+01
 Coeff:     -0.330D+00 0.731D+00 0.599D+00
 Gap=     0.131 Goal=   None    Shift=    0.000
 Gap=     0.086 Goal=   None    Shift=    0.000
 RMSDP=4.90D-04 MaxDP=7.32D-02 DE=-5.09D-01 OVMax= 8.32D-02

 Cycle   4  Pass 1  IDiag  1:
 RMSU=  3.94D-04    CP:  9.57D-01  1.97D+00  6.71D-01
 E= -1328.77335806928     Delta-E=       -0.021378930980 Rises=F Damp=F
 DIIS: error= 7.10D-03 at cycle   4 NSaved=   4.
 NSaved= 4 IEnMin= 4 EnMin= -1328.77335806928     IErMin= 4 ErrMin= 7.10D-03
 ErrMax= 7.10D-03  0.00D+00 EMaxC= 1.00D-01 BMatC= 6.77D-02 BMatP= 1.47D-01
 IDIUse=3 WtCom= 9.29D-01 WtEn= 7.10D-02
 Coeff-Com: -0.507D-01 0.133D+00 0.396D+00 0.521D+00
 Coeff-En:   0.000D+00 0.000D+00 0.305D+00 0.695D+00
 Coeff:     -0.471D-01 0.124D+00 0.390D+00 0.533D+00
 Gap=     0.133 Goal=   None    Shift=    0.000
 Gap=     0.085 Goal=   None    Shift=    0.000
 RMSDP=2.35D-04 MaxDP=3.64D-02 DE=-2.14D-02 OVMax= 3.66D-02

 Cycle   5  Pass 1  IDiag  1:
 RMSU=  1.25D-04    CP:  9.56D-01  1.93D+00  7.81D-01  5.65D-01
 E= -1328.78654909881     Delta-E=       -0.013191029531 Rises=F Damp=F
 DIIS: error= 1.62D-03 at cycle   5 NSaved=   5.
 NSaved= 5 IEnMin= 5 EnMin= -1328.78654909881     IErMin= 5 ErrMin= 1.62D-03
 ErrMax= 1.62D-03  0.00D+00 EMaxC= 1.00D-01 BMatC= 4.25D-03 BMatP= 6.77D-02
 IDIUse=3 WtCom= 9.84D-01 WtEn= 1.62D-02
 Coeff-Com:  0.461D-02 0.107D-02 0.166D+00 0.292D+00 0.536D+00
 Coeff-En:   0.000D+00 0.000D+00 0.000D+00 0.000D+00 0.100D+01
 Coeff:      0.453D-02 0.105D-02 0.164D+00 0.287D+00 0.543D+00
 Gap=     0.133 Goal=   None    Shift=    0.000
 Gap=     0.088 Goal=   None    Shift=    0.000
 RMSDP=6.77D-05 MaxDP=1.12D-02 DE=-1.32D-02 OVMax= 1.67D-02

 Cycle   6  Pass 1  IDiag  1:
 RMSU=  4.47D-05    CP:  9.56D-01  1.93D+00  7.93D-01  6.24D-01  6.51D-01
 E= -1328.78751706956     Delta-E=       -0.000967970756 Rises=F Damp=F
 DIIS: error= 4.92D-04 at cycle   6 NSaved=   6.
 NSaved= 6 IEnMin= 6 EnMin= -1328.78751706956     IErMin= 6 ErrMin= 4.92D-04
 ErrMax= 4.92D-04  0.00D+00 EMaxC= 1.00D-01 BMatC= 5.00D-04 BMatP= 4.25D-03
 IDIUse=3 WtCom= 9.95D-01 WtEn= 4.92D-03
 Coeff-Com:  0.717D-02-0.116D-01 0.480D-01 0.932D-01 0.295D+00 0.568D+00
 Coeff-En:   0.000D+00 0.000D+00 0.000D+00 0.000D+00 0.000D+00 0.100D+01
 Coeff:      0.713D-02-0.115D-01 0.478D-01 0.928D-01 0.294D+00 0.570D+00
 Gap=     0.134 Goal=   None    Shift=    0.000
 Gap=     0.088 Goal=   None    Shift=    0.000
 RMSDP=2.42D-05 MaxDP=3.01D-03 DE=-9.68D-04 OVMax= 8.95D-03

 Cycle   7  Pass 1  IDiag  1:
 RMSU=  2.02D-05    CP:  9.56D-01  1.93D+00  7.94D-01  6.23D-01  7.51D-01
                    CP:  9.04D-01
 E= -1328.78767613266     Delta-E=       -0.000159063094 Rises=F Damp=F
 DIIS: error= 2.39D-04 at cycle   7 NSaved=   7.
 NSaved= 7 IEnMin= 7 EnMin= -1328.78767613266     IErMin= 7 ErrMin= 2.39D-04
 ErrMax= 2.39D-04  0.00D+00 EMaxC= 1.00D-01 BMatC= 7.28D-05 BMatP= 5.00D-04
 IDIUse=3 WtCom= 9.98D-01 WtEn= 2.39D-03
 Coeff-Com:  0.183D-02-0.453D-02-0.162D-01-0.322D-01 0.623D-02 0.230D+00
 Coeff-Com:  0.815D+00
 Coeff-En:   0.000D+00 0.000D+00 0.000D+00 0.000D+00 0.000D+00 0.000D+00
 Coeff-En:   0.100D+01
 Coeff:      0.183D-02-0.452D-02-0.162D-01-0.321D-01 0.622D-02 0.229D+00
 Coeff:      0.816D+00
 Gap=     0.134 Goal=   None    Shift=    0.000
 Gap=     0.089 Goal=   None    Shift=    0.000
 RMSDP=1.55D-05 MaxDP=2.52D-03 DE=-1.59D-04 OVMax= 6.33D-03

 Cycle   8  Pass 1  IDiag  1:
 RMSU=  9.58D-06    CP:  9.56D-01  1.93D+00  7.97D-01  6.28D-01  7.96D-01
                    CP:  1.13D+00  1.05D+00
 E= -1328.78773047857     Delta-E=       -0.000054345909 Rises=F Damp=F
 DIIS: error= 1.13D-04 at cycle   8 NSaved=   8.
 NSaved= 8 IEnMin= 8 EnMin= -1328.78773047857     IErMin= 8 ErrMin= 1.13D-04
 ErrMax= 1.13D-04  0.00D+00 EMaxC= 1.00D-01 BMatC= 2.43D-05 BMatP= 7.28D-05
 IDIUse=3 WtCom= 9.99D-01 WtEn= 1.13D-03
 Coeff-Com: -0.144D-02 0.205D-02-0.210D-01-0.472D-01-0.920D-01-0.122D+00
 Coeff-Com:  0.351D+00 0.931D+00
 Coeff-En:   0.000D+00 0.000D+00 0.000D+00 0.000D+00 0.000D+00 0.000D+00
 Coeff-En:   0.000D+00 0.100D+01
 Coeff:     -0.144D-02 0.205D-02-0.210D-01-0.472D-01-0.919D-01-0.122D+00
 Coeff:      0.350D+00 0.931D+00
 Gap=     0.135 Goal=   None    Shift=    0.000
 Gap=     0.090 Goal=   None    Shift=    0.000
 RMSDP=1.21D-05 MaxDP=1.72D-03 DE=-5.43D-05 OVMax= 5.33D-03

 Cycle   9  Pass 1  IDiag  1:
 RMSU=  5.06D-06    CP:  9.56D-01  1.93D+00  7.99D-01  6.28D-01  8.37D-01
                    CP:  1.26D+00  1.42D+00  1.23D+00
 E= -1328.78775098978     Delta-E=       -0.000020511215 Rises=F Damp=F
 DIIS: error= 5.57D-05 at cycle   9 NSaved=   9.
 NSaved= 9 IEnMin= 9 EnMin= -1328.78775098978     IErMin= 9 ErrMin= 5.57D-05
 ErrMax= 5.57D-05  0.00D+00 EMaxC= 1.00D-01 BMatC= 6.77D-06 BMatP= 2.43D-05
 IDIUse=1 WtCom= 1.00D+00 WtEn= 0.00D+00
 Coeff-Com: -0.828D-03 0.151D-02-0.805D-02-0.201D-01-0.496D-01-0.122D+00
 Coeff-Com:  0.337D-01 0.504D+00 0.661D+00
 Coeff:     -0.828D-03 0.151D-02-0.805D-02-0.201D-01-0.496D-01-0.122D+00
 Coeff:      0.337D-01 0.504D+00 0.661D+00
 Gap=     0.135 Goal=   None    Shift=    0.000
 Gap=     0.090 Goal=   None    Shift=    0.000
 RMSDP=4.61D-06 MaxDP=8.16D-04 DE=-2.05D-05 OVMax= 1.64D-03

 Cycle  10  Pass 1  IDiag  1:
 RMSU=  2.54D-06    CP:  9.56D-01  1.93D+00  7.99D-01  6.28D-01  8.47D-01
                    CP:  1.31D+00  1.51D+00  1.44D+00  8.69D-01
 E= -1328.78775445638     Delta-E=       -0.000003466599 Rises=F Damp=F
 DIIS: error= 3.36D-05 at cycle  10 NSaved=  10.
 NSaved=10 IEnMin=10 EnMin= -1328.78775445638     IErMin=10 ErrMin= 3.36D-05
 ErrMax= 3.36D-05  0.00D+00 EMaxC= 1.00D-01 BMatC= 1.38D-06 BMatP= 6.77D-06
 IDIUse=1 WtCom= 1.00D+00 WtEn= 0.00D+00
 Coeff-Com: -0.165D-04 0.181D-03 0.661D-03 0.198D-03-0.378D-02-0.372D-01
 Coeff-Com: -0.531D-01 0.391D-01 0.346D+00 0.708D+00
 Coeff:     -0.165D-04 0.181D-03 0.661D-03 0.198D-03-0.378D-02-0.372D-01
 Coeff:     -0.531D-01 0.391D-01 0.346D+00 0.708D+00
 Gap=     0.135 Goal=   None    Shift=    0.000
 Gap=     0.090 Goal=   None    Shift=    0.000
 RMSDP=2.00D-06 MaxDP=4.55D-04 DE=-3.47D-06 OVMax= 6.59D-04

 Cycle  11  Pass 1  IDiag  1:
 RMSU=  1.14D-06    CP:  9.56D-01  1.93D+00  8.00D-01  6.27D-01  8.50D-01
                    CP:  1.32D+00  1.55D+00  1.52D+00  1.09D+00  9.56D-01
 E= -1328.78775508808     Delta-E=       -0.000000631697 Rises=F Damp=F
 DIIS: error= 1.14D-05 at cycle  11 NSaved=  11.
 NSaved=11 IEnMin=11 EnMin= -1328.78775508808     IErMin=11 ErrMin= 1.14D-05
 ErrMax= 1.14D-05  0.00D+00 EMaxC= 1.00D-01 BMatC= 2.89D-07 BMatP= 1.38D-06
 IDIUse=1 WtCom= 1.00D+00 WtEn= 0.00D+00
 Coeff-Com:  0.164D-03-0.207D-03 0.226D-02 0.474D-02 0.964D-02 0.722D-02
 Coeff-Com: -0.328D-01-0.945D-01 0.474D-01 0.379D+00 0.677D+00
 Coeff:      0.164D-03-0.207D-03 0.226D-02 0.474D-02 0.964D-02 0.722D-02
 Coeff:     -0.328D-01-0.945D-01 0.474D-01 0.379D+00 0.677D+00
 Gap=     0.135 Goal=   None    Shift=    0.000
 Gap=     0.090 Goal=   None    Shift=    0.000
 RMSDP=7.66D-07 MaxDP=1.41D-04 DE=-6.32D-07 OVMax= 2.57D-04

 Cycle  12  Pass 1  IDiag  1:
 RMSU=  4.20D-07    CP:  9.56D-01  1.93D+00  8.00D-01  6.27D-01  8.51D-01
                    CP:  1.32D+00  1.56D+00  1.54D+00  1.15D+00  1.14D+00
                    CP:  9.10D-01
 E= -1328.78775522313     Delta-E=       -0.000000135056 Rises=F Damp=F
 DIIS: error= 4.03D-06 at cycle  12 NSaved=  12.
 NSaved=12 IEnMin=12 EnMin= -1328.78775522313     IErMin=12 ErrMin= 4.03D-06
 ErrMax= 4.03D-06  0.00D+00 EMaxC= 1.00D-01 BMatC= 3.09D-08 BMatP= 2.89D-07
 IDIUse=1 WtCom= 1.00D+00 WtEn= 0.00D+00
 Coeff-Com:  0.484D-04-0.980D-04 0.565D-03 0.150D-02 0.381D-02 0.967D-02
 Coeff-Com: -0.508D-03-0.396D-01-0.473D-01-0.223D-01 0.219D+00 0.876D+00
 Coeff:      0.484D-04-0.980D-04 0.565D-03 0.150D-02 0.381D-02 0.967D-02
 Coeff:     -0.508D-03-0.396D-01-0.473D-01-0.223D-01 0.219D+00 0.876D+00
 Gap=     0.135 Goal=   None    Shift=    0.000
 Gap=     0.090 Goal=   None    Shift=    0.000
 RMSDP=3.77D-07 MaxDP=7.66D-05 DE=-1.35D-07 OVMax= 1.11D-04

 Cycle  13  Pass 1  IDiag  1:
 RMSU=  1.96D-07    CP:  9.56D-01  1.93D+00  8.00D-01  6.27D-01  8.51D-01
                    CP:  1.32D+00  1.56D+00  1.55D+00  1.18D+00  1.20D+00
                    CP:  1.07D+00  1.04D+00
 E= -1328.78775524400     Delta-E=       -0.000000020869 Rises=F Damp=F
 DIIS: error= 1.89D-06 at cycle  13 NSaved=  13.
 NSaved=13 IEnMin=13 EnMin= -1328.78775524400     IErMin=13 ErrMin= 1.89D-06
 ErrMax= 1.89D-06  0.00D+00 EMaxC= 1.00D-01 BMatC= 1.39D-08 BMatP= 3.09D-08
 IDIUse=1 WtCom= 1.00D+00 WtEn= 0.00D+00
 Coeff-Com: -0.247D-05-0.176D-04-0.506D-05 0.201D-03 0.794D-03 0.479D-02
 Coeff-Com:  0.420D-02-0.945D-02-0.339D-01-0.705D-01 0.355D-01 0.511D+00
 Coeff-Com:  0.557D+00
 Coeff:     -0.247D-05-0.176D-04-0.506D-05 0.201D-03 0.794D-03 0.479D-02
 Coeff:      0.420D-02-0.945D-02-0.339D-01-0.705D-01 0.355D-01 0.511D+00
 Coeff:      0.557D+00
 Gap=     0.135 Goal=   None    Shift=    0.000
 Gap=     0.090 Goal=   None    Shift=    0.000
 RMSDP=1.40D-07 MaxDP=1.91D-05 DE=-2.09D-08 OVMax= 3.03D-05

 Cycle  14  Pass 1  IDiag  1:
 RMSU=  9.71D-08    CP:  9.56D-01  1.93D+00  8.00D-01  6.27D-01  8.51D-01
                    CP:  1.32D+00  1.56D+00  1.55D+00  1.19D+00  1.22D+00
                    CP:  1.11D+00  1.20D+00  8.81D-01
 E= -1328.78775524876     Delta-E=       -0.000000004756 Rises=F Damp=F
 DIIS: error= 8.94D-07 at cycle  14 NSaved=  14.
 NSaved=14 IEnMin=14 EnMin= -1328.78775524876     IErMin=14 ErrMin= 8.94D-07
 ErrMax= 8.94D-07  0.00D+00 EMaxC= 1.00D-01 BMatC= 2.93D-09 BMatP= 1.39D-08
 IDIUse=1 WtCom= 1.00D+00 WtEn= 0.00D+00
 Coeff-Com: -0.205D-04 0.267D-04-0.169D-03-0.312D-03-0.734D-03-0.889D-04
 Coeff-Com:  0.217D-02 0.662D-02-0.447D-02-0.344D-01-0.417D-01 0.132D-01
 Coeff-Com:  0.319D+00 0.741D+00
 Coeff:     -0.205D-04 0.267D-04-0.169D-03-0.312D-03-0.734D-03-0.889D-04
 Coeff:      0.217D-02 0.662D-02-0.447D-02-0.344D-01-0.417D-01 0.132D-01
 Coeff:      0.319D+00 0.741D+00
 Gap=     0.135 Goal=   None    Shift=    0.000
 Gap=     0.090 Goal=   None    Shift=    0.000
 RMSDP=8.20D-08 MaxDP=1.19D-05 DE=-4.76D-09 OVMax= 2.26D-05

 Cycle  15  Pass 1  IDiag  1:
 RMSU=  4.35D-08    CP:  9.56D-01  1.93D+00  8.00D-01  6.27D-01  8.51D-01
                    CP:  1.32D+00  1.56D+00  1.56D+00  1.19D+00  1.22D+00
                    CP:  1.13D+00  1.28D+00  1.10D+00  9.51D-01
 E= -1328.78775525017     Delta-E=       -0.000000001409 Rises=F Damp=F
 DIIS: error= 4.18D-07 at cycle  15 NSaved=  15.
 NSaved=15 IEnMin=15 EnMin= -1328.78775525017     IErMin=15 ErrMin= 4.18D-07
 ErrMax= 4.18D-07  0.00D+00 EMaxC= 1.00D-01 BMatC= 6.08D-10 BMatP= 2.93D-09
 IDIUse=1 WtCom= 1.00D+00 WtEn= 0.00D+00
 Coeff-Com: -0.108D-04 0.180D-04-0.847D-04-0.185D-03-0.528D-03-0.840D-03
 Coeff-Com:  0.189D-03 0.504D-02 0.357D-02-0.554D-02-0.260D-01-0.885D-01
 Coeff-Com:  0.615D-01 0.386D+00 0.666D+00
 Coeff:     -0.108D-04 0.180D-04-0.847D-04-0.185D-03-0.528D-03-0.840D-03
 Coeff:      0.189D-03 0.504D-02 0.357D-02-0.554D-02-0.260D-01-0.885D-01
 Coeff:      0.615D-01 0.386D+00 0.666D+00
 Gap=     0.135 Goal=   None    Shift=    0.000
 Gap=     0.090 Goal=   None    Shift=    0.000
 RMSDP=3.86D-08 MaxDP=5.92D-06 DE=-1.41D-09 OVMax= 1.09D-05

 Cycle  16  Pass 1  IDiag  1:
 RMSU=  2.19D-08    CP:  9.56D-01  1.93D+00  8.00D-01  6.27D-01  8.51D-01
                    CP:  1.32D+00  1.56D+00  1.56D+00  1.19D+00  1.22D+00
                    CP:  1.14D+00  1.30D+00  1.19D+00  1.12D+00  8.93D-01
 E= -1328.78775525043     Delta-E=       -0.000000000265 Rises=F Damp=F
 DIIS: error= 2.22D-07 at cycle  16 NSaved=  16.
 NSaved=16 IEnMin=16 EnMin= -1328.78775525043     IErMin=16 ErrMin= 2.22D-07
 ErrMax= 2.22D-07  0.00D+00 EMaxC= 1.00D-01 BMatC= 1.33D-10 BMatP= 6.08D-10
 IDIUse=1 WtCom= 1.00D+00 WtEn= 0.00D+00
 Coeff-Com:  0.182D-05-0.971D-06 0.168D-04 0.266D-04-0.873D-05-0.326D-03
 Coeff-Com: -0.730D-03 0.164D-03 0.313D-02 0.885D-02 0.263D-02-0.473D-01
 Coeff-Com: -0.759D-01-0.480D-01 0.326D+00 0.832D+00
 Coeff:      0.182D-05-0.971D-06 0.168D-04 0.266D-04-0.873D-05-0.326D-03
 Coeff:     -0.730D-03 0.164D-03 0.313D-02 0.885D-02 0.263D-02-0.473D-01
 Coeff:     -0.759D-01-0.480D-01 0.326D+00 0.832D+00
 Gap=     0.135 Goal=   None    Shift=    0.000
 Gap=     0.090 Goal=   None    Shift=    0.000
 RMSDP=2.32D-08 MaxDP=2.89D-06 DE=-2.65D-10 OVMax= 9.04D-06

 Cycle  17  Pass 1  IDiag  1:
 RMSU=  1.10D-08    CP:  9.56D-01  1.93D+00  8.00D-01  6.27D-01  8.51D-01
                    CP:  1.32D+00  1.56D+00  1.56D+00  1.19D+00  1.22D+00
                    CP:  1.14D+00  1.32D+00  1.23D+00  1.21D+00  1.17D+00
                    CP:  1.07D+00
 E= -1328.78775525047     Delta-E=       -0.000000000037 Rises=F Damp=F
 DIIS: error= 1.07D-07 at cycle  17 NSaved=  17.
 NSaved=17 IEnMin=17 EnMin= -1328.78775525047     IErMin=17 ErrMin= 1.07D-07
 ErrMax= 1.07D-07  0.00D+00 EMaxC= 1.00D-01 BMatC= 3.15D-11 BMatP= 1.33D-10
 IDIUse=1 WtCom= 1.00D+00 WtEn= 0.00D+00
 Coeff-Com:  0.195D-05-0.230D-05 0.185D-04 0.378D-04 0.607D-04-0.487D-04
 Coeff-Com: -0.396D-03-0.555D-03 0.109D-02 0.517D-02 0.463D-02-0.117D-01
 Coeff-Com: -0.474D-01-0.783D-01 0.731D-01 0.424D+00 0.630D+00
 Coeff:      0.195D-05-0.230D-05 0.185D-04 0.378D-04 0.607D-04-0.487D-04
 Coeff:     -0.396D-03-0.555D-03 0.109D-02 0.517D-02 0.463D-02-0.117D-01
 Coeff:     -0.474D-01-0.783D-01 0.731D-01 0.424D+00 0.630D+00
 Gap=     0.135 Goal=   None    Shift=    0.000
 Gap=     0.090 Goal=   None    Shift=    0.000
 RMSDP=8.58D-09 MaxDP=1.04D-06 DE=-3.73D-11 OVMax= 3.25D-06

 Cycle  18  Pass 1  IDiag  1:
 RMSU=  5.49D-09    CP:  9.56D-01  1.93D+00  8.00D-01  6.27D-01  8.51D-01
                    CP:  1.32D+00  1.56D+00  1.56D+00  1.19D+00  1.22D+00
                    CP:  1.14D+00  1.32D+00  1.25D+00  1.23D+00  1.24D+00
                    CP:  1.26D+00  1.02D+00
 E= -1328.78775525043     Delta-E=        0.000000000037 Rises=F Damp=F
 DIIS: error= 6.66D-08 at cycle  18 NSaved=  18.
 NSaved=18 IEnMin=17 EnMin= -1328.78775525047     IErMin=18 ErrMin= 6.66D-08
 ErrMax= 6.66D-08  0.00D+00 EMaxC= 1.00D-01 BMatC= 7.71D-12 BMatP= 3.15D-11
 IDIUse=1 WtCom= 1.00D+00 WtEn= 0.00D+00
 Coeff-Com:  0.970D-07-0.593D-06 0.291D-05 0.106D-04 0.380D-04 0.130D-03
 Coeff-Com:  0.106D-03-0.365D-03-0.837D-03-0.123D-02 0.972D-03 0.149D-01
 Coeff-Com:  0.991D-02-0.179D-01-0.984D-01-0.144D+00 0.284D+00 0.953D+00
 Coeff:      0.970D-07-0.593D-06 0.291D-05 0.106D-04 0.380D-04 0.130D-03
 Coeff:      0.106D-03-0.365D-03-0.837D-03-0.123D-02 0.972D-03 0.149D-01
 Coeff:      0.991D-02-0.179D-01-0.984D-01-0.144D+00 0.284D+00 0.953D+00
[...]
   D122       1.04599   0.00059   0.00000   0.00845   0.00846   1.05445
   D123       3.12512   0.00066   0.00000   0.00871   0.00872   3.13384
   D124       3.10975   0.00009   0.00000  -0.00462  -0.00462   3.10513
   D125      -1.04921  -0.00004   0.00000  -0.00295  -0.00295  -1.05216
   D126       1.02992   0.00003   0.00000  -0.00269  -0.00269   1.02723
   D127       1.04496  -0.00070   0.00000  -0.00755  -0.00756   1.03741
   D128      -3.11399  -0.00082   0.00000  -0.00588  -0.00589  -3.11988
   D129      -1.03486  -0.00075   0.00000  -0.00562  -0.00563  -1.04049
   D130      -3.10846  -0.00017   0.00000   0.01273   0.01276  -3.09571
   D131      -1.01310  -0.00016   0.00000   0.01299   0.01301  -1.00009
   D132       1.10536  -0.00052   0.00000   0.00737   0.00740   1.11276
   D133      -1.00817   0.00022   0.00000   0.01582   0.01582  -0.99235
   D134       1.08719   0.00023   0.00000   0.01608   0.01608   1.10327
   D135      -3.07754  -0.00012   0.00000   0.01046   0.01046  -3.06707
   D136       1.04053   0.00008   0.00000   0.01635   0.01632   1.05686
   D137       3.13590   0.00009   0.00000   0.01660   0.01658  -3.13071
   D138      -1.02883  -0.00027   0.00000   0.01099   0.01097  -1.01786
   D139       3.08983   0.00037   0.00000   0.01795   0.01795   3.10778
   D140      -0.04090   0.00085   0.00000   0.01647   0.01647  -0.02442
   D141      -1.21980   0.00082   0.00000   0.02525   0.02526  -1.19453
   D142       0.96072   0.00056   0.00000   0.02205   0.02203   0.98275
   D143       3.02694   0.00027   0.00000   0.01583   0.01583   3.04277
   D144      -3.10723  -0.00065   0.00000  -0.01206  -0.01207  -3.11930
   D145       1.07103  -0.00044   0.00000  -0.01024  -0.01025   1.06078
   D146      -0.96454  -0.00036   0.00000  -0.00749  -0.00750  -0.97204
   D147       0.97484   0.00006   0.00000  -0.00243  -0.00243   0.97241
   D148      -1.13008   0.00026   0.00000  -0.00062  -0.00061  -1.13070
   D149       3.11753   0.00034   0.00000   0.00214   0.00214   3.11967
   D150      -1.10057  -0.00006   0.00000  -0.00413  -0.00413  -1.10470
   D151       3.07769   0.00015   0.00000  -0.00231  -0.00231   3.07538
   D152       1.04212   0.00023   0.00000   0.00044   0.00045   1.04257
   D153       3.12997  -0.00010   0.00000  -0.00047  -0.00047   3.12950
   D154      -1.05699   0.00006   0.00000   0.00125   0.00125  -1.05574
   D155       0.99148  -0.00012   0.00000  -0.00240  -0.00240   0.98908
   D156      -0.98076  -0.00003   0.00000  -0.00038  -0.00038  -0.98114
   D157       1.11547   0.00013   0.00000   0.00134   0.00134   1.11681
   D158      -3.11925  -0.00005   0.00000  -0.00232  -0.00231  -3.12156
   D159       1.09307   0.00015   0.00000   0.00464   0.00463   1.09770
   D160      -3.09389   0.00031   0.00000   0.00636   0.00635  -3.08754
   D161      -1.04542   0.00012   0.00000   0.00270   0.00270  -1.04272
   D162      -0.96770   0.00011   0.00000   0.00335   0.00335  -0.96435
   D163      -3.11451   0.00026   0.00000   0.00663   0.00664  -3.10788
   D164       1.13302   0.00022   0.00000   0.00775   0.00775   1.14077
   D165       1.11894  -0.00003   0.00000   0.00228   0.00228   1.12121
   D166      -1.02787   0.00012   0.00000   0.00556   0.00556  -1.02231
   D167      -3.06352   0.00008   0.00000   0.00667   0.00667  -3.05685
   D168      -3.09827   0.00001   0.00000   0.00230   0.00230  -3.09597
   D169       1.03811   0.00017   0.00000   0.00559   0.00559   1.04370
   D170      -0.99754   0.00012   0.00000   0.00670   0.00670  -0.99085
   D171       0.98338   0.00007   0.00000   0.00062   0.00061   0.98399
   D172       3.12810   0.00009   0.00000  -0.00083  -0.00083   3.12727
   D173      -1.11938   0.00006   0.00000  -0.00074  -0.00074  -1.12012
   D174      -1.11441   0.00002   0.00000   0.00180   0.00180  -1.11261
   D175       1.03031   0.00004   0.00000   0.00035   0.00035   1.03066
   D176       3.06602   0.00001   0.00000   0.00045   0.00045   3.06647
   D177       3.11071  -0.00015   0.00000  -0.00143  -0.00143   3.10928
   D178      -1.02776  -0.00013   0.00000  -0.00288  -0.00288  -1.03063
   D179       1.00795  -0.00015   0.00000  -0.00278  -0.00278   1.00517
   D180       0.96502   0.00003   0.00000  -0.00047  -0.00047   0.96455
   D181       3.09963  -0.00003   0.00000   0.00057   0.00057   3.10021
   D182      -1.13731  -0.00005   0.00000  -0.00104  -0.00104  -1.13834
   D183       3.09873   0.00007   0.00000   0.00035   0.00035   3.09908
   D184      -1.04984   0.00000   0.00000   0.00139   0.00139  -1.04845
   D185       0.99641  -0.00001   0.00000  -0.00022  -0.00022   0.99619
   D186      -1.13640  -0.00001   0.00000  -0.00424  -0.00424  -1.14064
   D187       0.99821  -0.00007   0.00000  -0.00319  -0.00320   0.99502
   D188       3.04446  -0.00009   0.00000  -0.00481  -0.00480   3.03966
   D189      -0.97435  -0.00008   0.00000  -0.00063  -0.00063  -0.97498
   D190      -3.10810  -0.00014   0.00000  -0.00175  -0.00175  -3.10985
   D191       1.13079  -0.00009   0.00000  -0.00252  -0.00252   1.12827
   D192      -3.11041   0.00005   0.00000   0.00129   0.00129  -3.10913
   D193       1.03902  -0.00000   0.00000   0.00017   0.00016   1.03919
   D194      -1.00528   0.00005   0.00000  -0.00060  -0.00060  -1.00588
   D195       1.12709   0.00009   0.00000   0.00205   0.00205   1.12915
   D196      -1.00666   0.00003   0.00000   0.00093   0.00093  -1.00573
   D197      -3.05096   0.00008   0.00000   0.00017   0.00017  -3.05079
         Item               Value     Threshold  Converged?
 Maximum Force            0.010909     0.000015     NO 
 RMS     Force            0.001075     0.000010     NO 
 Maximum Displacement     0.761625     0.000060     NO 
 RMS     Displacement     0.124750     0.000040     NO 
 Predicted change in Energy=-2.388367D-03
 GradGradGradGradGradGradGradGradGradGradGradGradGradGradGradGradGradGrad

 Leave Link  103 at Thu Dec 20 19:14:56 2018, MaxMem=  1342177280 cpu:               3.0 elap:               0.2
 (Enter /gpfs/apps/hpc/Apps/Restricted/Gaussian/Rev_A.03/g16/l202.exe)
 Symmetry turned off by external request.
 Stoichiometry    C28H37N3O(1+,2)
 Framework group  C1[X(C28H37N3O)]
 Deg. of freedom   201
 Full point group                 C1      NOp   1
                          Input orientation:                          
 ---------------------------------------------------------------------
 Center     Atomic      Atomic             Coordinates (Angstroms)
 Number     Number       Type             X           Y           Z
 ---------------------------------------------------------------------
      1          6           0       -0.577376    3.005522    0.351719
      2          6           0       -1.966925    3.147874    0.259940
      3          6           0       -2.535232    4.422927    0.184675
      4          6           0       -1.652146    5.505732    0.204576
      5          6           0       -0.252992    5.351627    0.290326
      6          6           0        0.319780    4.080590    0.365618
      7          6           0       -1.398213    0.981669    0.338977
      8          1           0       -3.604699    4.569884    0.111284
      9          1           0       -2.059867    6.507535    0.148523
     10          1           0        0.382569    6.229181    0.293406
     11          7           0       -2.443248    1.849898    0.256131
     12          6           0       -2.843848   -1.080775    0.242313
     13          6           0       -1.518358   -0.457847    0.355160
     14          6           0       -0.376995   -1.231520    0.470849
     15          6           0       -0.446041   -2.635392    0.484268
     16          6           0       -1.725548   -3.243777    0.385692
     17          6           0       -2.907461   -2.547646    0.267470
     18          1           0        0.581330   -0.737786    0.546305
     19          1           0       -1.766149   -4.321576    0.415148
     20          6           0        0.805809   -3.496261    0.631507
     21          6           0       -4.258088   -3.255845    0.177187
     22          8           0       -3.873769   -0.367871    0.131942
     23          7           0       -0.246077    1.678461    0.401315
     24          6           0        1.736799    3.755881    0.429196
     25          1           0        2.466959    4.564098    0.433521
     26          7           0        2.087512    2.513663    0.468465
     27          6           0        3.501780    2.114205    0.491054
     28          6           0        4.175427    2.437097   -0.853330
     29          6           0        4.272077    2.746813    1.659915
     30          1           0        3.499619    1.028123    0.627068
     31          6           0        5.642490    1.996213   -0.852835
     32          1           0        4.113038    3.520115   -1.014504
     33          1           0        3.620914    1.957315   -1.664557
     34          6           0        5.734372    2.290521    1.654487
     35          1           0        4.234292    3.838006    1.565319
     36          1           0        3.784032    2.484857    2.602576
     37          6           0        6.413370    2.613028    0.319177
     38          1           0        6.108861    2.266760   -1.804786
     39          1           0        5.689322    0.903002   -0.778203
     40          1           0        6.271058    2.761059    2.483403
     41          1           0        5.774287    1.207882    1.826374
     42          1           0        7.445859    2.251232    0.322972
     43          1           0        6.456936    3.701520    0.190210
     44          1           0       -3.394421    1.493600    0.192204
     45          1           0        0.970483    1.689086    0.443429
     46          6           0        2.080207   -2.642330    0.743356
     47          1           0        2.219797   -1.995761   -0.126361
     48          1           0        2.060783   -2.016330    1.639306
     49          1           0        2.949504   -3.301354    0.810635
     50          6           0        0.669003   -4.329869    1.924950
     51          1           0       -0.213103   -4.973737    1.897821
     52          1           0        1.551087   -4.965199    2.038171
     53          1           0        0.592772   -3.681640    2.801703
     54          6           0        0.959463   -4.444624   -0.577444
     55          1           0        1.852993   -5.057319   -0.439465
     56          1           0        0.106623   -5.115153   -0.689736
     57          1           0        1.070797   -3.874774   -1.503427
     58          6           0       -5.151426   -2.820707    1.357137
     59          1           0       -5.238356   -1.736641    1.402297
     60          1           0       -6.147793   -3.253335    1.230705
     61          1           0       -4.736855   -3.184202    2.301882
     62          6           0       -4.106302   -4.782770    0.234633
     63          1           0       -3.510857   -5.162825   -0.600124
     64          1           0       -3.641554   -5.109206    1.168647
     65          1           0       -5.097257   -5.238186    0.174544
     66          6           0       -4.948450   -2.897182   -1.156917
     67          1           0       -5.933182   -3.370907   -1.190894
     68          1           0       -5.074412   -1.820428   -1.260524
     69          1           0       -4.363586   -3.266541   -2.003577
 ---------------------------------------------------------------------
 Rotational constants (GHZ):           0.1734407           0.0819025           0.0584281
 Leave Link  202 at Thu Dec 20 19:14:56 2018, MaxMem=  1342177280 cpu:               0.9 elap:               0.1
 (Enter /gpfs/apps/hpc/Apps/Restricted/Gaussian/Rev_A.03/g16/l301.exe)
 Standard basis: 6-31G(d,p) (6D, 7F)
 Ernie: Thresh=  0.10000D-02 Tol=  0.10000D-05 Strict=F.
   665 basis functions,  1155 primitive gaussians,   665 cartesian basis functions
   117 alpha electrons      116 beta electrons
       nuclear repulsion energy      3214.4384623023 Hartrees.
 IExCor=  402 DFT=T Ex+Corr=B3LYP ExCW=0 ScaHFX=  0.200000
 ScaDFX=  0.800000  0.720000  1.000000  0.810000 ScalE2=  1.000000  1.000000
 IRadAn=      5 IRanWt=     -1 IRanGd=            0 ICorTp=0 IEmpDi=141
 NAtoms=   69 NActive=   69 NUniq=   69 SFac= 1.00D+00 NAtFMM=   60 NAOKFM=T Big=T
 Integral buffers will be    131072 words long.
 Raffenetti 2 integral format.
 Two-electron integral symmetry is turned off.
 R6Disp:  Grimme-D3(BJ) Dispersion energy=       -0.1512280725 Hartrees.
 Nuclear repulsion after empirical dispersion term =     3214.2872342298 Hartrees.
 ------------------------------------------------------------------------------
 Polarizable Continuum Model (PCM)
 =================================
 Model                : C-PCM.
 Atomic radii         : Bondi.
 Polarization charges : Total charges.
 Charge compensation  : None.
 Solution method      : Matrix inversion.
 Cavity type          : Scaled VdW (van der Waals Surface) (Alpha=1.100).
 Cavity algorithm     : GePol (No added spheres)
                        Default sphere list used, NSphG=   69.
                        Lebedev-Laikov grids with approx.  5.0 points / Ang**2.
                        Smoothing algorithm: York/Karplus (Gamma=1.0000).
                        Polarization charges: spherical gaussians, with
                                              point-specific exponents (IZeta= 3).
                        Self-potential: point-specific (ISelfS= 7).
                        Self-field    : sphere-specific E.n sum rule (ISelfD= 2).
 1st derivatives      : Analytical E(r).r(x)/FMM algorithm (CHGder, D1EAlg=3).
                        Cavity 1st derivative terms included.
 Solvent              : Dichloromethane, Eps=   8.930000 Eps(inf)=   2.028346
 ------------------------------------------------------------------------------
 GePol: Number of generator spheres                  =      69
 GePol: Total number of spheres                      =      69
 GePol: Number of exposed spheres                    =      69 (100.00%)
 GePol: Number of points                             =    4344
 GePol: Average weight of points                     =       0.12
 GePol: Minimum weight of points                     =   0.24D-10
 GePol: Maximum weight of points                     =    0.21770
 GePol: Number of points with low weight             =     306
 GePol: Fraction of low-weight points (<1% of avg)   =       7.04%
 GePol: Cavity surface area                          =    516.158 Ang**2
 GePol: Cavity volume                                =    498.777 Ang**3
 PCM non-electrostatic energy =         0.0266397418 Hartrees.
 Nuclear repulsion after PCM non-electrostatic terms =     3214.3138739716 Hartrees.
 Leave Link  301 at Thu Dec 20 19:14:57 2018, MaxMem=  1342177280 cpu:               2.9 elap:               0.2
 (Enter /gpfs/apps/hpc/Apps/Restricted/Gaussian/Rev_A.03/g16/l302.exe)
 NPDir=0 NMtPBC=     1 NCelOv=     1 NCel=       1 NClECP=     1 NCelD=      1
         NCelK=      1 NCelE2=     1 NClLst=     1 CellRange=     0.0.
 One-electron integrals computed using PRISM.
 NBasis=   665 RedAO= T EigKep=  3.03D-04  NBF=   665
 NBsUse=   665 1.00D-06 EigRej= -1.00D+00 NBFU=   665
 Precomputing XC quadrature grid using
 IXCGrd= 4 IRadAn=           5 IRanWt=          -1 IRanGd=           0 AccXCQ= 0.00D+00.
 Generated NRdTot=       0 NPtTot=           0 NUsed=           0 NTot=          32
 NSgBfM=   654   654   654   654   654 MxSgAt=    69 MxSgA2=    69.
 Leave Link  302 at Thu Dec 20 19:14:58 2018, MaxMem=  1342177280 cpu:              17.6 elap:               1.1
 (Enter /gpfs/apps/hpc/Apps/Restricted/Gaussian/Rev_A.03/g16/l303.exe)
 DipDrv:  MaxL=1.
 Leave Link  303 at Thu Dec 20 19:14:58 2018, MaxMem=  1342177280 cpu:               1.3 elap:               0.1
 (Enter /gpfs/apps/hpc/Apps/Restricted/Gaussian/Rev_A.03/g16/l401.exe)
 Initial guess from the checkpoint file:  "cyclohexyl-monoBIP-TS2.chk"
 B after Tr=    -0.009075   -0.007519   -0.007187
         Rot=    0.999999    0.000403   -0.001544    0.000476 Ang=   0.19 deg.
 Guess basis will be translated and rotated to current coordinates.
 JPrj=2 DoOrth=T DoCkMO=T.
 Initial guess <Sx>= 0.0000 <Sy>= 0.0000 <Sz>= 0.5000 <S**2>= 0.7732 S= 0.5115
 Generating alternative initial guess.
 ExpMin= 1.61D-01 ExpMax= 5.48D+03 ExpMxC= 8.25D+02 IAcc=2 IRadAn=         4 AccDes= 0.00D+00
 Harris functional with IExCor=  402 and IRadAn=       4 diagonalized for initial guess.
 HarFok:  IExCor=  402 AccDes= 0.00D+00 IRadAn=         4 IDoV= 1 UseB2=F ITyADJ=14
 ICtDFT=  3500011 ScaDFX=  1.000000  1.000000  1.000000  1.000000
 FoFCou: FMM=F IPFlag=           0 FMFlag=      100000 FMFlg1=        2001
         NFxFlg=           0 DoJE=T BraDBF=F KetDBF=T FulRan=T
         wScrn=  0.000000 ICntrl=       500 IOpCl=  0 I1Cent=   200000004 NGrid=           0
         NMat0=    1 NMatS0=      1 NMatT0=    0 NMatD0=    1 NMtDS0=    0 NMtDT0=    0
 Symmetry not used in FoFCou.
 Harris En= -1328.77211264632    
 Leave Link  401 at Thu Dec 20 19:15:01 2018, MaxMem=  1342177280 cpu:              51.5 elap:               3.3
 (Enter /gpfs/apps/hpc/Apps/Restricted/Gaussian/Rev_A.03/g16/l502.exe)
 Two-electron integral symmetry not used.
 UHF open shell SCF:
 Using DIIS extrapolation, IDIIS=  1040.
 NGot=  1342177280 LenX=  1341276554 LenY=  1340833664
 Requested convergence on RMS density matrix=1.00D-08 within 128 cycles.
 Requested convergence on MAX density matrix=1.00D-06.
 Requested convergence on             energy=1.00D-06.
 No special actions if energy rises.
 Fock matrices will be formed incrementally for  20 cycles.

 Cycle   1  Pass 1  IDiag  1:
 FoFJK:  IHMeth= 1 ICntrl=       0 DoSepK=F KAlg= 0 I1Cent=           0 FoldK=F
 IRaf= 790000000 NMat=       1 IRICut=       1 DoRegI=T DoRafI=F ISym2E= 0 IDoP0=0 IntGTp=1.
 FoFCou: FMM=T IPFlag=           0 FMFlag=      100000 FMFlg1=        2001
         NFxFlg=           0 DoJE=F BraDBF=F KetDBF=F FulRan=T
         wScrn=  0.000000 ICntrl=         0 IOpCl=  1 I1Cent=           0 NGrid=           0
         NMat0=    1 NMatS0=      1 NMatT0=    0 NMatD0=    1 NMtDS0=    0 NMtDT0=    0
 Symmetry not used in FoFCou.
 FMM levels:  10  Number of levels for PrismC:   9
 Inv3:  Mode=1 IEnd=    56611008.
 Iteration    1 A*A^-1 deviation from unit magnitude is 1.09D-14 for    919.
 Iteration    1 A*A^-1 deviation from orthogonality  is 6.45D-15 for   4325   4208.
 Iteration    1 A^-1*A deviation from unit magnitude is 8.88D-15 for    919.
 Iteration    1 A^-1*A deviation from orthogonality  is 4.05D-15 for   4325   4208.
 E= -1328.76616414353    
 DIIS: error= 8.19D-03 at cycle   1 NSaved=   1.
 NSaved= 1 IEnMin= 1 EnMin= -1328.76616414353     IErMin= 1 ErrMin= 8.19D-03
 ErrMax= 8.19D-03  0.00D+00 EMaxC= 1.00D-01 BMatC= 8.41D-02 BMatP= 8.41D-02
 IDIUse=3 WtCom= 9.18D-01 WtEn= 8.19D-02
 Coeff-Com:  0.100D+01
 Coeff-En:   0.100D+01
 Coeff:      0.100D+01
 Gap=     1.646 Goal=   None    Shift=    0.000
 Gap=     1.669 Goal=   None    Shift=    0.000
 GapD=    1.646 DampG=2.000 DampE=1.000 DampFc=2.0000 IDamp=-1.
 RMSDP=3.33D-04 MaxDP=2.33D-02              OVMax= 4.28D-02

 Cycle   2  Pass 1  IDiag  1:
 RMSU=  3.33D-04    CP:  9.99D-01
 E= -1328.80609032174     Delta-E=       -0.039926178211 Rises=F Damp=F
 DIIS: error= 8.83D-04 at cycle   2 NSaved=   2.
 NSaved= 2 IEnMin= 2 EnMin= -1328.80609032174     IErMin= 2 ErrMin= 8.83D-04
 ErrMax= 8.83D-04  0.00D+00 EMaxC= 1.00D-01 BMatC= 7.80D-04 BMatP= 8.41D-02
 IDIUse=3 WtCom= 9.91D-01 WtEn= 8.83D-03
 Coeff-Com: -0.805D-01 0.108D+01
 Coeff-En:   0.000D+00 0.100D+01
 Coeff:     -0.798D-01 0.108D+01
 Gap=     0.137 Goal=   None    Shift=    0.000
 Gap=     0.089 Goal=   None    Shift=    0.000
 RMSDP=4.53D-05 MaxDP=3.19D-03 DE=-3.99D-02 OVMax= 5.06D-03

 Cycle   3  Pass 1  IDiag  1:
 RMSU=  3.10D-05    CP:  9.99D-01  1.10D+00
