 Entering Gaussian System, Link 0=g16
 Initial command:
 /gpfs/apps/hpc/Apps/Restricted/Gaussian/Rev_A.03/g16/l1.exe "/gpfs/scratch60/fas/hammes_schiffer/jg2487/c45n02/Gau-90865.inp" -scrdir="/gpfs/scratch60/fas/hammes_schiffer/jg2487/c45n02/"
 Entering Link 1 = /gpfs/apps/hpc/Apps/Restricted/Gaussian/Rev_A.03/g16/l1.exe PID=     90866.
  
 Copyright (c) 1988,1990,1992,1993,1995,1998,2003,2009,2016,
            Gaussian, Inc.  All Rights Reserved.
  
 This is part of the Gaussian(R) 16 program.  It is based on
 the Gaussian(R) 09 system (copyright 2009, Gaussian, Inc.),
 the Gaussian(R) 03 system (copyright 2003, Gaussian, Inc.),
 the Gaussian(R) 98 system (copyright 1998, Gaussian, Inc.),
 the Gaussian(R) 94 system (copyright 1995, Gaussian, Inc.),
 the Gaussian 92(TM) system (copyright 1992, Gaussian, Inc.),
 the Gaussian 90(TM) system (copyright 1990, Gaussian, Inc.),
 the Gaussian 88(TM) system (copyright 1988, Gaussian, Inc.),
 the Gaussian 86(TM) system (copyright 1986, Carnegie Mellon
 University), and the Gaussian 82(TM) system (copyright 1983,
 Carnegie Mellon University). Gaussian is a federally registered
 trademark of Gaussian, Inc.
  
 This software contains proprietary and confidential information,
 including trade secrets, belonging to Gaussian, Inc.
  
 This software is provided under written license and may be
 used, copied, transmitted, or stored only in accord with that
 written license.
  
 The following legend is applicable only to US Government
 contracts under FAR:
  
                    RESTRICTED RIGHTS LEGEND
  
 Use, reproduction and disclosure by the US Government is
 subject to restrictions as set forth in subparagraphs (a)
 and (c) of the Commercial Computer Software - Restricted
 Rights clause in FAR 52.227-19.
  
 Gaussian, Inc.
 340 Quinnipiac St., Bldg. 40, Wallingford CT 06492
  
  
 ---------------------------------------------------------------
 Warning -- This program may not be used in any manner that
 competes with the business of Gaussian, Inc. or will provide
 assistance to any competitor of Gaussian, Inc.  The licensee
 of this program is prohibited from giving any competitor of
 Gaussian, Inc. access to this program.  By using this program,
 the user acknowledges that Gaussian, Inc. is engaged in the
 business of creating and licensing software in the field of
 computational chemistry and represents and warrants to the
 licensee that it is not a competitor of Gaussian, Inc. and that
 it will not use this program in any manner prohibited above.
 ---------------------------------------------------------------
  

 Cite this work as:
 Gaussian 16, Revision A.03,
 M. J. Frisch, G. W. Trucks, H. B. Schlegel, G. E. Scuseria, 
 M. A. Robb, J. R. Cheeseman, G. Scalmani, V. Barone, 
 G. A. Petersson, H. Nakatsuji, X. Li, M. Caricato, A. V. Marenich, 
 J. Bloino, B. G. Janesko, R. Gomperts, B. Mennucci, H. P. Hratchian, 
 J. V. Ortiz, A. F. Izmaylov, J. L. Sonnenberg, D. Williams-Young, 
 F. Ding, F. Lipparini, F. Egidi, J. Goings, B. Peng, A. Petrone, 
 T. Henderson, D. Ranasinghe, V. G. Zakrzewski, J. Gao, N. Rega, 
 G. Zheng, W. Liang, M. Hada, M. Ehara, K. Toyota, R. Fukuda, 
 J. Hasegawa, M. Ishida, T. Nakajima, Y. Honda, O. Kitao, H. Nakai, 
 T. Vreven, K. Throssell, J. A. Montgomery, Jr., J. E. Peralta, 
 F. Ogliaro, M. J. Bearpark, J. J. Heyd, E. N. Brothers, K. N. Kudin, 
 V. N. Staroverov, T. A. Keith, R. Kobayashi, J. Normand, 
 K. Raghavachari, A. P. Rendell, J. C. Burant, S. S. Iyengar, 
 J. Tomasi, M. Cossi, J. M. Millam, M. Klene, C. Adamo, R. Cammi, 
 J. W. Ochterski, R. L. Martin, K. Morokuma, O. Farkas, 
 J. B. Foresman, and D. J. Fox, Gaussian, Inc., Wallingford CT, 2016.
 
 ******************************************
 Gaussian 16:  ES64L-G16RevA.03 25-Dec-2016
                21-Dec-2018 
 ******************************************
 %chk=cyclohexyl-monoBIP-TS2.chk
 %mem=10GB
 %nprocshared=16
 Will use up to   16 processors via shared memory.
 ----------------------------------------------------------------------
 #p opt=(calcfc,tight,ts,noeigentest) freq=internalmodes b3lyp/6-31g(d,
 p) scrf=(cpcm,solvent=dichloromethane,read) nosymm empiricaldispersion
 =gd3bj int=grid=ultrafine
 ----------------------------------------------------------------------
 1/5=1,7=10,10=4,11=1,18=20,26=6,38=1,40=2/1,3;
 2/9=110,12=2,15=1,17=6,18=5,40=1/2;
 3/5=1,6=6,7=101,11=2,25=1,30=1,70=2103,71=2,72=9,74=-5,75=-5,124=41,140=1/1,2,3;
 4//1;
 5/5=2,38=5,53=9/2;
 8/6=4,10=90,11=11/1;
 11/6=1,8=1,9=11,15=111,16=1,31=1/1,2,10;
 10/6=1,13=1,31=1/2;
 6/7=2,8=2,9=2,10=2,28=1/1;
 7/10=1,18=20,25=1,30=1/1,2,3,16;
 1/5=1,7=10,10=4,11=1,18=20,26=6/3(2);
 2/9=110,15=1/2;
 99//99;
 2/9=110,15=1/2;
 3/5=1,6=6,7=101,11=2,25=1,30=1,70=2105,71=1,72=9,74=-5,75=-5,124=41/1,2,3;
 4/5=5,16=3,69=1/1;
 5/5=2,38=5,53=9/2;
 7/30=1/1,2,3,16;
 1/5=1,7=10,11=1,18=20,26=6/3(-5);
 2/9=110,15=1/2;
 6/7=2,8=2,9=2,10=2,19=2,28=1/1;
 99/9=1/99;
 Leave Link    1 at Fri Dec 21 13:55:52 2018, MaxMem=  1342177280 cpu:               8.6 elap:               0.6
 (Enter /gpfs/apps/hpc/Apps/Restricted/Gaussian/Rev_A.03/g16/l101.exe)
 --------------------------------------------------------------------
 cyclohexylimine monoBIP oxidized, TS opt to both protons transferred
 --------------------------------------------------------------------
 Symbolic Z-matrix:
 Charge =  1 Multiplicity = 2
 C                    -0.58027   3.01419   0.38204 
 C                    -1.97052   3.15274   0.29235 
 C                    -2.54078   4.42586   0.19902 
 C                    -1.65916   5.50993   0.20111 
 C                    -0.25956   5.35942   0.2861 
 C                     0.31573   4.09063   0.37725 
 C                    -1.3975    0.98847   0.39421 
 H                    -3.61036   4.57054   0.12321 
 H                    -2.0684    6.5102    0.13052 
 H                     0.37448   6.23793   0.27263 
 N                    -2.44464   1.85389   0.30624 
 C                    -2.83448  -1.07996   0.29162 
 C                    -1.51306  -0.45093   0.41841 
 C                    -0.36963  -1.22075   0.55433 
 C                    -0.43826  -2.62158   0.5611 
 C                    -1.70921  -3.24002   0.41521 
 C                    -2.89084  -2.54806   0.28622 
 H                     0.58627  -0.72651   0.65694 
 H                    -1.73705  -4.32033   0.40694 
 C                     0.79824  -3.49761   0.70691 
 C                    -4.23719  -3.25338   0.14219 
 O                    -3.86885  -0.37223   0.19257 
 N                    -0.24657   1.68847   0.44503 
 C                     1.73417   3.76878   0.43132 
 H                     2.46373   4.57757   0.42142 
 N                     2.08654   2.52743   0.47948 
 C                     3.50034   2.12684   0.4819 
 C                     4.14749   2.42289  -0.88171 
 C                     4.29781   2.77723   1.62266 
 H                     3.49859   1.04316   0.6352 
 C                     5.60937   1.96695  -0.9038 
 H                     4.09221   3.5037   -1.05915 
 H                     3.57239   1.93494  -1.6734 
 C                     5.75674   2.31004   1.59593 
 H                     4.26378   3.86662   1.50734 
 H                     3.82776   2.53668   2.58003 
 C                     6.41138   2.59689   0.24007 
 H                     6.05767   2.21579  -1.86989 
 H                     5.64688   0.87495  -0.80931 
 H                     6.31465   2.79466   2.40241 
 H                     5.79202   1.23126   1.79178 
 H                     7.43911   2.22195   0.23036 
 H                     6.46672   3.68199   0.08867 
 H                    -3.39517   1.49512   0.24601 
 H                     0.96974   1.70129   0.4745 
 C                     2.08067  -2.67683   0.89807 
 H                     2.28483  -2.03516   0.03675 
 H                     2.02929  -2.05077   1.79225 
 H                     2.92554  -3.35875   1.01376 
 C                     0.6182   -4.42237   1.931 
 H                    -0.27735  -5.04024   1.84434 
 H                     1.48193  -5.08671   2.01169 
 H                     0.54498  -3.8381    2.85122 
 C                     0.94145  -4.36069  -0.56712 
 H                     1.82664  -4.99576  -0.48058 
 H                     0.07361  -5.00743  -0.71206 
 H                     1.05218  -3.73097  -1.45284 
 C                    -5.16698  -2.83868   1.30482 
 H                    -5.37082  -1.76971   1.28438 
 H                    -6.11216  -3.38148   1.22072 
 H                    -4.71262  -3.09193   2.26655 
 C                    -4.08547  -4.78129   0.18245 
 H                    -3.45746  -5.15058  -0.6325 
 H                    -3.65625  -5.11918   1.1296 
 H                    -5.07243  -5.23683   0.07685 
 C                    -4.87961  -2.86971  -1.20957 
 H                    -5.85625  -3.35358  -1.29675 
 H                    -5.01538  -1.79243  -1.29277 
 H                    -4.25745  -3.2108   -2.04136 
 
 Add virtual bond connecting atoms H45        and N23        Dist= 2.30D+00.
 ITRead=  0  0  0  0  0  0  0  0  0  0  0  0  0  0  0  0  0  0  0  0
 ITRead=  0  0  0  0  0  0  0  0  0  0  0  0  0  0  0  0  0  0  0  0
 ITRead=  0  0  0  0  0  0  0  0  0  0  0  0  0  0  0  0  0  0  0  0
 ITRead=  0  0  0  0  0  0  0  0  0
 MicOpt= -1 -1 -1 -1 -1 -1 -1 -1 -1 -1 -1 -1 -1 -1 -1 -1 -1 -1 -1 -1
 MicOpt= -1 -1 -1 -1 -1 -1 -1 -1 -1 -1 -1 -1 -1 -1 -1 -1 -1 -1 -1 -1
 MicOpt= -1 -1 -1 -1 -1 -1 -1 -1 -1 -1 -1 -1 -1 -1 -1 -1 -1 -1 -1 -1
 MicOpt= -1 -1 -1 -1 -1 -1 -1 -1 -1
 NAtoms=     69 NQM=       69 NQMF=       0 NMMI=      0 NMMIF=      0
                NMic=       0 NMicF=      0.
                    Isotopes and Nuclear Properties:
 (Nuclear quadrupole moments (NQMom) in fm**2, nuclear magnetic moments (NMagM)
  in nuclear magnetons)

  Atom         1           2           3           4           5           6           7           8           9          10
 IAtWgt=          12          12          12          12          12          12          12           1           1           1
 AtmWgt=  12.0000000  12.0000000  12.0000000  12.0000000  12.0000000  12.0000000  12.0000000   1.0078250   1.0078250   1.0078250
 NucSpn=           0           0           0           0           0           0           0           1           1           1
 AtZEff=  -0.0000000  -0.0000000  -0.0000000  -0.0000000  -0.0000000  -0.0000000  -0.0000000  -0.0000000  -0.0000000  -0.0000000
 NQMom=    0.0000000   0.0000000   0.0000000   0.0000000   0.0000000   0.0000000   0.0000000   0.0000000   0.0000000   0.0000000
 NMagM=    0.0000000   0.0000000   0.0000000   0.0000000   0.0000000   0.0000000   0.0000000   2.7928460   2.7928460   2.7928460
 AtZNuc=   6.0000000   6.0000000   6.0000000   6.0000000   6.0000000   6.0000000   6.0000000   1.0000000   1.0000000   1.0000000

  Atom        11          12          13          14          15          16          17          18          19          20
 IAtWgt=          14          12          12          12          12          12          12           1           1          12
 AtmWgt=  14.0030740  12.0000000  12.0000000  12.0000000  12.0000000  12.0000000  12.0000000   1.0078250   1.0078250  12.0000000
 NucSpn=           2           0           0           0           0           0           0           1           1           0
 AtZEff=  -0.0000000  -0.0000000  -0.0000000  -0.0000000  -0.0000000  -0.0000000  -0.0000000  -0.0000000  -0.0000000  -0.0000000
 NQMom=    2.0440000   0.0000000   0.0000000   0.0000000   0.0000000   0.0000000   0.0000000   0.0000000   0.0000000   0.0000000
 NMagM=    0.4037610   0.0000000   0.0000000   0.0000000   0.0000000   0.0000000   0.0000000   2.7928460   2.7928460   0.0000000
 AtZNuc=   7.0000000   6.0000000   6.0000000   6.0000000   6.0000000   6.0000000   6.0000000   1.0000000   1.0000000   6.0000000

  Atom        21          22          23          24          25          26          27          28          29          30
 IAtWgt=          12          16          14          12           1          14          12          12          12           1
 AtmWgt=  12.0000000  15.9949146  14.0030740  12.0000000   1.0078250  14.0030740  12.0000000  12.0000000  12.0000000   1.0078250
 NucSpn=           0           0           2           0           1           2           0           0           0           1
 AtZEff=  -0.0000000  -0.0000000  -0.0000000  -0.0000000  -0.0000000  -0.0000000  -0.0000000  -0.0000000  -0.0000000  -0.0000000
 NQMom=    0.0000000   0.0000000   2.0440000   0.0000000   0.0000000   2.0440000   0.0000000   0.0000000   0.0000000   0.0000000
 NMagM=    0.0000000   0.0000000   0.4037610   0.0000000   2.7928460   0.4037610   0.0000000   0.0000000   0.0000000   2.7928460
 AtZNuc=   6.0000000   8.0000000   7.0000000   6.0000000   1.0000000   7.0000000   6.0000000   6.0000000   6.0000000   1.0000000

  Atom        31          32          33          34          35          36          37          38          39          40
 IAtWgt=          12           1           1          12           1           1          12           1           1           1
 AtmWgt=  12.0000000   1.0078250   1.0078250  12.0000000   1.0078250   1.0078250  12.0000000   1.0078250   1.0078250   1.0078250
 NucSpn=           0           1           1           0           1           1           0           1           1           1
 AtZEff=  -0.0000000  -0.0000000  -0.0000000  -0.0000000  -0.0000000  -0.0000000  -0.0000000  -0.0000000  -0.0000000  -0.0000000
 NQMom=    0.0000000   0.0000000   0.0000000   0.0000000   0.0000000   0.0000000   0.0000000   0.0000000   0.0000000   0.0000000
 NMagM=    0.0000000   2.7928460   2.7928460   0.0000000   2.7928460   2.7928460   0.0000000   2.7928460   2.7928460   2.7928460
 AtZNuc=   6.0000000   1.0000000   1.0000000   6.0000000   1.0000000   1.0000000   6.0000000   1.0000000   1.0000000   1.0000000

  Atom        41          42          43          44          45          46          47          48          49          50
 IAtWgt=           1           1           1           1           1          12           1           1           1          12
 AtmWgt=   1.0078250   1.0078250   1.0078250   1.0078250   1.0078250  12.0000000   1.0078250   1.0078250   1.0078250  12.0000000
 NucSpn=           1           1           1           1           1           0           1           1           1           0
 AtZEff=  -0.0000000  -0.0000000  -0.0000000  -0.0000000  -0.0000000  -0.0000000  -0.0000000  -0.0000000  -0.0000000  -0.0000000
 NQMom=    0.0000000   0.0000000   0.0000000   0.0000000   0.0000000   0.0000000   0.0000000   0.0000000   0.0000000   0.0000000
 NMagM=    2.7928460   2.7928460   2.7928460   2.7928460   2.7928460   0.0000000   2.7928460   2.7928460   2.7928460   0.0000000
 AtZNuc=   1.0000000   1.0000000   1.0000000   1.0000000   1.0000000   6.0000000   1.0000000   1.0000000   1.0000000   6.0000000

  Atom        51          52          53          54          55          56          57          58          59          60
 IAtWgt=           1           1           1          12           1           1           1          12           1           1
 AtmWgt=   1.0078250   1.0078250   1.0078250  12.0000000   1.0078250   1.0078250   1.0078250  12.0000000   1.0078250   1.0078250
 NucSpn=           1           1           1           0           1           1           1           0           1           1
 AtZEff=  -0.0000000  -0.0000000  -0.0000000  -0.0000000  -0.0000000  -0.0000000  -0.0000000  -0.0000000  -0.0000000  -0.0000000
 NQMom=    0.0000000   0.0000000   0.0000000   0.0000000   0.0000000   0.0000000   0.0000000   0.0000000   0.0000000   0.0000000
 NMagM=    2.7928460   2.7928460   2.7928460   0.0000000   2.7928460   2.7928460   2.7928460   0.0000000   2.7928460   2.7928460
 AtZNuc=   1.0000000   1.0000000   1.0000000   6.0000000   1.0000000   1.0000000   1.0000000   6.0000000   1.0000000   1.0000000

  Atom        61          62          63          64          65          66          67          68          69
 IAtWgt=           1          12           1           1           1          12           1           1           1
 AtmWgt=   1.0078250  12.0000000   1.0078250   1.0078250   1.0078250  12.0000000   1.0078250   1.0078250   1.0078250
 NucSpn=           1           0           1           1           1           0           1           1           1
 AtZEff=  -0.0000000  -0.0000000  -0.0000000  -0.0000000  -0.0000000  -0.0000000  -0.0000000  -0.0000000  -0.0000000
 NQMom=    0.0000000   0.0000000   0.0000000   0.0000000   0.0000000   0.0000000   0.0000000   0.0000000   0.0000000
 NMagM=    2.7928460   0.0000000   2.7928460   2.7928460   2.7928460   0.0000000   2.7928460   2.7928460   2.7928460
 AtZNuc=   1.0000000   6.0000000   1.0000000   1.0000000   1.0000000   6.0000000   1.0000000   1.0000000   1.0000000
 Leave Link  101 at Fri Dec 21 13:55:52 2018, MaxMem=  1342177280 cpu:               5.8 elap:               0.4
 (Enter /gpfs/apps/hpc/Apps/Restricted/Gaussian/Rev_A.03/g16/l103.exe)

 GradGradGradGradGradGradGradGradGradGradGradGradGradGradGradGradGradGrad
 Berny optimization.
 Initialization pass.
                           ----------------------------
                           !    Initial Parameters    !
                           ! (Angstroms and Degrees)  !
 --------------------------                            --------------------------
 ! Name  Definition              Value          Derivative Info.                !
 --------------------------------------------------------------------------------
 ! R1    R(1,2)                  1.4            calculate D2E/DX2 analytically  !
 ! R2    R(1,6)                  1.4006         calculate D2E/DX2 analytically  !
 ! R3    R(1,23)                 1.3685         calculate D2E/DX2 analytically  !
 ! R4    R(2,3)                  1.3981         calculate D2E/DX2 analytically  !
 ! R5    R(2,11)                 1.3827         calculate D2E/DX2 analytically  !
 ! R6    R(3,4)                  1.3973         calculate D2E/DX2 analytically  !
 ! R7    R(3,8)                  1.082          calculate D2E/DX2 analytically  !
 ! R8    R(4,5)                  1.4102         calculate D2E/DX2 analytically  !
 ! R9    R(4,9)                  1.083          calculate D2E/DX2 analytically  !
 ! R10   R(5,6)                  1.3961         calculate D2E/DX2 analytically  !
 ! R11   R(5,10)                 1.0835         calculate D2E/DX2 analytically  !
 ! R12   R(6,24)                 1.4555         calculate D2E/DX2 analytically  !
 ! R13   R(7,11)                 1.3613         calculate D2E/DX2 analytically  !
 ! R14   R(7,13)                 1.4442         calculate D2E/DX2 analytically  !
 ! R15   R(7,23)                 1.348          calculate D2E/DX2 analytically  !
 ! R16   R(11,44)                1.0178         calculate D2E/DX2 analytically  !
 ! R17   R(12,13)                1.469          calculate D2E/DX2 analytically  !
 ! R18   R(12,17)                1.4692         calculate D2E/DX2 analytically  !
 ! R19   R(12,22)                1.2572         calculate D2E/DX2 analytically  !
 ! R20   R(13,14)                1.3851         calculate D2E/DX2 analytically  !
 ! R21   R(14,15)                1.4025         calculate D2E/DX2 analytically  !
 ! R22   R(14,18)                1.081          calculate D2E/DX2 analytically  !
 ! R23   R(15,16)                1.4209         calculate D2E/DX2 analytically  !
 ! R24   R(15,20)                1.5224         calculate D2E/DX2 analytically  !
 ! R25   R(16,17)                1.3754         calculate D2E/DX2 analytically  !
 ! R26   R(16,19)                1.0807         calculate D2E/DX2 analytically  !
 ! R27   R(17,21)                1.5267         calculate D2E/DX2 analytically  !
 ! R28   R(20,46)                1.5346         calculate D2E/DX2 analytically  !
 ! R29   R(20,50)                1.5447         calculate D2E/DX2 analytically  !
 ! R30   R(20,54)                1.5455         calculate D2E/DX2 analytically  !
 ! R31   R(21,58)                1.5454         calculate D2E/DX2 analytically  !
 ! R32   R(21,62)                1.5359         calculate D2E/DX2 analytically  !
 ! R33   R(21,66)                1.545          calculate D2E/DX2 analytically  !
 ! R34   R(23,45)                1.2167         calculate D2E/DX2 analytically  !
 ! R35   R(24,25)                1.0893         calculate D2E/DX2 analytically  !
 ! R36   R(24,26)                1.2913         calculate D2E/DX2 analytically  !
 ! R37   R(26,27)                1.4695         calculate D2E/DX2 analytically  !
 ! R38   R(27,28)                1.5381         calculate D2E/DX2 analytically  !
 ! R39   R(27,29)                1.5363         calculate D2E/DX2 analytically  !
 ! R40   R(27,30)                1.0945         calculate D2E/DX2 analytically  !
 ! R41   R(28,31)                1.5315         calculate D2E/DX2 analytically  !
 ! R42   R(28,32)                1.0967         calculate D2E/DX2 analytically  !
 ! R43   R(28,33)                1.0934         calculate D2E/DX2 analytically  !
 ! R44   R(29,34)                1.5321         calculate D2E/DX2 analytically  !
 ! R45   R(29,35)                1.096          calculate D2E/DX2 analytically  !
 ! R46   R(29,36)                1.0933         calculate D2E/DX2 analytically  !
 ! R47   R(31,37)                1.5325         calculate D2E/DX2 analytically  !
 ! R48   R(31,38)                1.0937         calculate D2E/DX2 analytically  !
 ! R49   R(31,39)                1.0967         calculate D2E/DX2 analytically  !
 ! R50   R(34,37)                1.5327         calculate D2E/DX2 analytically  !
 ! R51   R(34,40)                1.0939         calculate D2E/DX2 analytically  !
 ! R52   R(34,41)                1.097          calculate D2E/DX2 analytically  !
 ! R53   R(37,42)                1.094          calculate D2E/DX2 analytically  !
 ! R54   R(37,43)                1.097          calculate D2E/DX2 analytically  !
 ! R55   R(46,47)                1.0933         calculate D2E/DX2 analytically  !
 ! R56   R(46,48)                1.0928         calculate D2E/DX2 analytically  !
 ! R57   R(46,49)                1.0919         calculate D2E/DX2 analytically  !
 ! R58   R(50,51)                1.0915         calculate D2E/DX2 analytically  !
 ! R59   R(50,52)                1.0926         calculate D2E/DX2 analytically  !
 ! R60   R(50,53)                1.0925         calculate D2E/DX2 analytically  !
 ! R61   R(54,55)                1.0929         calculate D2E/DX2 analytically  !
 ! R62   R(54,56)                1.092          calculate D2E/DX2 analytically  !
 ! R63   R(54,57)                1.0924         calculate D2E/DX2 analytically  !
 ! R64   R(58,59)                1.0884         calculate D2E/DX2 analytically  !
 ! R65   R(58,60)                1.0932         calculate D2E/DX2 analytically  !
 ! R66   R(58,61)                1.0934         calculate D2E/DX2 analytically  !
 ! R67   R(62,63)                1.0931         calculate D2E/DX2 analytically  !
 ! R68   R(62,64)                1.0934         calculate D2E/DX2 analytically  !
 ! R69   R(62,65)                1.0921         calculate D2E/DX2 analytically  !
 ! R70   R(66,67)                1.0934         calculate D2E/DX2 analytically  !
 ! R71   R(66,68)                1.089          calculate D2E/DX2 analytically  !
 ! R72   R(66,69)                1.0933         calculate D2E/DX2 analytically  !
 ! A1    A(2,1,6)              123.9867         calculate D2E/DX2 analytically  !
 ! A2    A(2,1,23)             109.9355         calculate D2E/DX2 analytically  !
 ! A3    A(6,1,23)             126.0648         calculate D2E/DX2 analytically  !
 ! A4    A(1,2,3)              119.9625         calculate D2E/DX2 analytically  !
 ! A5    A(1,2,11)             104.2935         calculate D2E/DX2 analytically  !
 ! A6    A(3,2,11)             135.7378         calculate D2E/DX2 analytically  !
 ! A7    A(2,3,4)              116.6804         calculate D2E/DX2 analytically  !
 ! A8    A(2,3,8)              121.9815         calculate D2E/DX2 analytically  !
 ! A9    A(4,3,8)              121.3373         calculate D2E/DX2 analytically  !
 ! A10   A(3,4,5)              122.9204         calculate D2E/DX2 analytically  !
 ! A11   A(3,4,9)              118.5568         calculate D2E/DX2 analytically  !
 ! A12   A(5,4,9)              118.5224         calculate D2E/DX2 analytically  !
 ! A13   A(4,5,6)              120.6567         calculate D2E/DX2 analytically  !
 ! A14   A(4,5,10)             119.5698         calculate D2E/DX2 analytically  !
 ! A15   A(6,5,10)             119.7718         calculate D2E/DX2 analytically  !
 ! A16   A(1,6,5)              115.7913         calculate D2E/DX2 analytically  !
 ! A17   A(1,6,24)             116.9605         calculate D2E/DX2 analytically  !
 ! A18   A(5,6,24)             127.2264         calculate D2E/DX2 analytically  !
 ! A19   A(11,7,13)            124.9688         calculate D2E/DX2 analytically  !
 ! A20   A(11,7,23)            109.2117         calculate D2E/DX2 analytically  !
 ! A21   A(13,7,23)            125.818          calculate D2E/DX2 analytically  !
 ! A22   A(2,11,7)             109.5146         calculate D2E/DX2 analytically  !
 ! A23   A(2,11,44)            130.5988         calculate D2E/DX2 analytically  !
 ! A24   A(7,11,44)            119.8756         calculate D2E/DX2 analytically  !
 ! A25   A(13,12,17)           117.5624         calculate D2E/DX2 analytically  !
 ! A26   A(13,12,22)           120.3873         calculate D2E/DX2 analytically  !
 ! A27   A(17,12,22)           122.0503         calculate D2E/DX2 analytically  !
 ! A28   A(7,13,12)            119.8217         calculate D2E/DX2 analytically  !
 ! A29   A(7,13,14)            119.3086         calculate D2E/DX2 analytically  !
 ! A30   A(12,13,14)           120.8687         calculate D2E/DX2 analytically  !
 ! A31   A(13,14,15)           121.0101         calculate D2E/DX2 analytically  !
 ! A32   A(13,14,18)           119.0247         calculate D2E/DX2 analytically  !
 ! A33   A(15,14,18)           119.9652         calculate D2E/DX2 analytically  !
 ! A34   A(14,15,16)           118.553          calculate D2E/DX2 analytically  !
 ! A35   A(14,15,20)           122.3752         calculate D2E/DX2 analytically  !
 ! A36   A(16,15,20)           119.0697         calculate D2E/DX2 analytically  !
 ! A37   A(15,16,17)           123.994          calculate D2E/DX2 analytically  !
 ! A38   A(15,16,19)           117.3158         calculate D2E/DX2 analytically  !
 ! A39   A(17,16,19)           118.6902         calculate D2E/DX2 analytically  !
 ! A40   A(12,17,16)           117.997          calculate D2E/DX2 analytically  !
 ! A41   A(12,17,21)           119.7238         calculate D2E/DX2 analytically  !
 ! A42   A(16,17,21)           122.2791         calculate D2E/DX2 analytically  !
 ! A43   A(15,20,46)           112.5147         calculate D2E/DX2 analytically  !
 ! A44   A(15,20,50)           109.0101         calculate D2E/DX2 analytically  !
 ! A45   A(15,20,54)           108.5215         calculate D2E/DX2 analytically  !
 ! A46   A(46,20,50)           108.5966         calculate D2E/DX2 analytically  !
 ! A47   A(46,20,54)           108.9015         calculate D2E/DX2 analytically  !
 ! A48   A(50,20,54)           109.253          calculate D2E/DX2 analytically  !
 ! A49   A(17,21,58)           109.611          calculate D2E/DX2 analytically  !
 ! A50   A(17,21,62)           111.7147         calculate D2E/DX2 analytically  !
 ! A51   A(17,21,66)           109.5412         calculate D2E/DX2 analytically  !
 ! A52   A(58,21,62)           107.8579         calculate D2E/DX2 analytically  !
 ! A53   A(58,21,66)           109.9627         calculate D2E/DX2 analytically  !
 ! A54   A(62,21,66)           108.1209         calculate D2E/DX2 analytically  !
 ! A55   A(1,23,7)             107.0439         calculate D2E/DX2 analytically  !
 ! A56   A(1,23,45)            103.5715         calculate D2E/DX2 analytically  !
 ! A57   A(7,23,45)            149.3018         calculate D2E/DX2 analytically  !
 ! A58   A(6,24,25)            119.2218         calculate D2E/DX2 analytically  !
 ! A59   A(6,24,26)            118.6784         calculate D2E/DX2 analytically  !
 ! A60   A(25,24,26)           122.0977         calculate D2E/DX2 analytically  !
 ! A61   A(24,26,27)           121.6465         calculate D2E/DX2 analytically  !
 ! A62   A(26,27,28)           110.5404         calculate D2E/DX2 analytically  !
 ! A63   A(26,27,29)           112.658          calculate D2E/DX2 analytically  !
 ! A64   A(26,27,30)           105.5822         calculate D2E/DX2 analytically  !
 ! A65   A(28,27,29)           111.0014         calculate D2E/DX2 analytically  !
 ! A66   A(28,27,30)           108.3863         calculate D2E/DX2 analytically  !
 ! A67   A(29,27,30)           108.4208         calculate D2E/DX2 analytically  !
 ! A68   A(27,28,31)           110.9222         calculate D2E/DX2 analytically  !
 ! A69   A(27,28,32)           108.175          calculate D2E/DX2 analytically  !
 ! A70   A(27,28,33)           109.5537         calculate D2E/DX2 analytically  !
 ! A71   A(31,28,32)           109.8274         calculate D2E/DX2 analytically  !
 ! A72   A(31,28,33)           111.0237         calculate D2E/DX2 analytically  !
 ! A73   A(32,28,33)           107.2261         calculate D2E/DX2 analytically  !
 ! A74   A(27,29,34)           110.6241         calculate D2E/DX2 analytically  !
 ! A75   A(27,29,35)           109.0592         calculate D2E/DX2 analytically  !
 ! A76   A(27,29,36)           109.5048         calculate D2E/DX2 analytically  !
 ! A77   A(34,29,35)           109.3178         calculate D2E/DX2 analytically  !
 ! A78   A(34,29,36)           110.951          calculate D2E/DX2 analytically  !
 ! A79   A(35,29,36)           107.3058         calculate D2E/DX2 analytically  !
 ! A80   A(28,31,37)           111.4946         calculate D2E/DX2 analytically  !
 ! A81   A(28,31,38)           109.6493         calculate D2E/DX2 analytically  !
 ! A82   A(28,31,39)           109.1374         calculate D2E/DX2 analytically  !
 ! A83   A(37,31,38)           110.5661         calculate D2E/DX2 analytically  !
 ! A84   A(37,31,39)           109.0915         calculate D2E/DX2 analytically  !
 ! A85   A(38,31,39)           106.7752         calculate D2E/DX2 analytically  !
 ! A86   A(29,34,37)           111.412          calculate D2E/DX2 analytically  !
 ! A87   A(29,34,40)           109.7374         calculate D2E/DX2 analytically  !
 ! A88   A(29,34,41)           109.1093         calculate D2E/DX2 analytically  !
 ! A89   A(37,34,40)           110.5767         calculate D2E/DX2 analytically  !
 ! A90   A(37,34,41)           109.1624         calculate D2E/DX2 analytically  !
 ! A91   A(40,34,41)           106.717          calculate D2E/DX2 analytically  !
 ! A92   A(31,37,34)           111.0904         calculate D2E/DX2 analytically  !
 ! A93   A(31,37,42)           110.1288         calculate D2E/DX2 analytically  !
 ! A94   A(31,37,43)           109.2677         calculate D2E/DX2 analytically  !
 ! A95   A(34,37,42)           110.1782         calculate D2E/DX2 analytically  !
 ! A96   A(34,37,43)           109.1927         calculate D2E/DX2 analytically  !
 ! A97   A(42,37,43)           106.8808         calculate D2E/DX2 analytically  !
 ! A98   A(20,46,47)           111.8294         calculate D2E/DX2 analytically  !
 ! A99   A(20,46,48)           111.6583         calculate D2E/DX2 analytically  !
 ! A100  A(20,46,49)           109.0142         calculate D2E/DX2 analytically  !
 ! A101  A(47,46,48)           108.492          calculate D2E/DX2 analytically  !
 ! A102  A(47,46,49)           107.7903         calculate D2E/DX2 analytically  !
 ! A103  A(48,46,49)           107.9075         calculate D2E/DX2 analytically  !
 ! A104  A(20,50,51)           111.8154         calculate D2E/DX2 analytically  !
 ! A105  A(20,50,52)           109.2921         calculate D2E/DX2 analytically  !
 ! A106  A(20,50,53)           110.8019         calculate D2E/DX2 analytically  !
 ! A107  A(51,50,52)           108.0761         calculate D2E/DX2 analytically  !
 ! A108  A(51,50,53)           108.3392         calculate D2E/DX2 analytically  !
 ! A109  A(52,50,53)           108.4178         calculate D2E/DX2 analytically  !
 ! A110  A(20,54,55)           109.5297         calculate D2E/DX2 analytically  !
 ! A111  A(20,54,56)           111.5008         calculate D2E/DX2 analytically  !
 ! A112  A(20,54,57)           110.8462         calculate D2E/DX2 analytically  !
 ! A113  A(55,54,56)           108.0623         calculate D2E/DX2 analytically  !
 ! A114  A(55,54,57)           108.4875         calculate D2E/DX2 analytically  !
 ! A115  A(56,54,57)           108.3218         calculate D2E/DX2 analytically  !
 ! A116  A(21,58,59)           111.229          calculate D2E/DX2 analytically  !
 ! A117  A(21,58,60)           109.2127         calculate D2E/DX2 analytically  !
 ! A118  A(21,58,61)           110.4601         calculate D2E/DX2 analytically  !
 ! A119  A(59,58,60)           108.9226         calculate D2E/DX2 analytically  !
 ! A120  A(59,58,61)           108.7735         calculate D2E/DX2 analytically  !
 ! A121  A(60,58,61)           108.1769         calculate D2E/DX2 analytically  !
 ! A122  A(21,62,63)           111.9179         calculate D2E/DX2 analytically  !
 ! A123  A(21,62,64)           111.6474         calculate D2E/DX2 analytically  !
 ! A124  A(21,62,65)           108.8521         calculate D2E/DX2 analytically  !
 ! A125  A(63,62,64)           108.4143         calculate D2E/DX2 analytically  !
 ! A126  A(63,62,65)           107.8292         calculate D2E/DX2 analytically  !
 ! A127  A(64,62,65)           108.0358         calculate D2E/DX2 analytically  !
 ! A128  A(21,66,67)           109.3449         calculate D2E/DX2 analytically  !
 ! A129  A(21,66,68)           111.3666         calculate D2E/DX2 analytically  !
 ! A130  A(21,66,69)           110.5821         calculate D2E/DX2 analytically  !
 ! A131  A(67,66,68)           108.6822         calculate D2E/DX2 analytically  !
 ! A132  A(67,66,69)           108.0336         calculate D2E/DX2 analytically  !
 ! A133  A(68,66,69)           108.7506         calculate D2E/DX2 analytically  !
 ! D1    D(6,1,2,3)             -0.4135         calculate D2E/DX2 analytically  !
 ! D2    D(6,1,2,11)           178.8152         calculate D2E/DX2 analytically  !
 ! D3    D(23,1,2,3)          -179.1733         calculate D2E/DX2 analytically  !
 ! D4    D(23,1,2,11)            0.0554         calculate D2E/DX2 analytically  !
 ! D5    D(2,1,6,5)              0.5006         calculate D2E/DX2 analytically  !
 ! D6    D(2,1,6,24)          -177.9252         calculate D2E/DX2 analytically  !
 ! D7    D(23,1,6,5)           179.0583         calculate D2E/DX2 analytically  !
 ! D8    D(23,1,6,24)            0.6325         calculate D2E/DX2 analytically  !
 ! D9    D(2,1,23,7)             0.1198         calculate D2E/DX2 analytically  !
 ! D10   D(2,1,23,45)          177.8395         calculate D2E/DX2 analytically  !
 ! D11   D(6,1,23,7)          -178.608          calculate D2E/DX2 analytically  !
 ! D12   D(6,1,23,45)           -0.8884         calculate D2E/DX2 analytically  !
 ! D13   D(1,2,3,4)              0.0144         calculate D2E/DX2 analytically  !
 ! D14   D(1,2,3,8)            179.6858         calculate D2E/DX2 analytically  !
 ! D15   D(11,2,3,4)          -178.9146         calculate D2E/DX2 analytically  !
 ! D16   D(11,2,3,8)             0.7569         calculate D2E/DX2 analytically  !
 ! D17   D(1,2,11,7)            -0.2109         calculate D2E/DX2 analytically  !
 ! D18   D(1,2,11,44)         -178.9717         calculate D2E/DX2 analytically  !
 ! D19   D(3,2,11,7)           178.8316         calculate D2E/DX2 analytically  !
 ! D20   D(3,2,11,44)            0.0708         calculate D2E/DX2 analytically  !
 ! D21   D(2,3,4,5)              0.2654         calculate D2E/DX2 analytically  !
 ! D22   D(2,3,4,9)           -179.9746         calculate D2E/DX2 analytically  !
 ! D23   D(8,3,4,5)           -179.4083         calculate D2E/DX2 analytically  !
 ! D24   D(8,3,4,9)              0.3516         calculate D2E/DX2 analytically  !
 ! D25   D(3,4,5,6)             -0.1677         calculate D2E/DX2 analytically  !
 ! D26   D(3,4,5,10)           179.3536         calculate D2E/DX2 analytically  !
 ! D27   D(9,4,5,6)           -179.9277         calculate D2E/DX2 analytically  !
 ! D28   D(9,4,5,10)            -0.4065         calculate D2E/DX2 analytically  !
 ! D29   D(4,5,6,1)             -0.208          calculate D2E/DX2 analytically  !
 ! D30   D(4,5,6,24)           178.0299         calculate D2E/DX2 analytically  !
 ! D31   D(10,5,6,1)          -179.7283         calculate D2E/DX2 analytically  !
 ! D32   D(10,5,6,24)           -1.4904         calculate D2E/DX2 analytically  !
 ! D33   D(1,6,24,25)          179.5146         calculate D2E/DX2 analytically  !
 ! D34   D(1,6,24,26)            0.0316         calculate D2E/DX2 analytically  !
 ! D35   D(5,6,24,25)            1.2947         calculate D2E/DX2 analytically  !
 ! D36   D(5,6,24,26)         -178.1883         calculate D2E/DX2 analytically  !
 ! D37   D(13,7,11,2)         -179.2819         calculate D2E/DX2 analytically  !
 ! D38   D(13,7,11,44)          -0.3669         calculate D2E/DX2 analytically  !
 ! D39   D(23,7,11,2)            0.2963         calculate D2E/DX2 analytically  !
 ! D40   D(23,7,11,44)         179.2113         calculate D2E/DX2 analytically  !
 ! D41   D(11,7,13,12)           2.4137         calculate D2E/DX2 analytically  !
 ! D42   D(11,7,13,14)        -177.9302         calculate D2E/DX2 analytically  !
 ! D43   D(23,7,13,12)        -177.095          calculate D2E/DX2 analytically  !
 ! D44   D(23,7,13,14)           2.561          calculate D2E/DX2 analytically  !
 ! D45   D(11,7,23,1)           -0.2529         calculate D2E/DX2 analytically  !
 ! D46   D(11,7,23,45)        -175.9079         calculate D2E/DX2 analytically  !
 ! D47   D(13,7,23,1)          179.3208         calculate D2E/DX2 analytically  !
 ! D48   D(13,7,23,45)           3.6658         calculate D2E/DX2 analytically  !
 ! D49   D(17,12,13,7)         178.3935         calculate D2E/DX2 analytically  !
 ! D50   D(17,12,13,14)         -1.2571         calculate D2E/DX2 analytically  !
 ! D51   D(22,12,13,7)          -1.6166         calculate D2E/DX2 analytically  !
 ! D52   D(22,12,13,14)        178.7328         calculate D2E/DX2 analytically  !
 ! D53   D(13,12,17,16)          0.7337         calculate D2E/DX2 analytically  !
 ! D54   D(13,12,17,21)       -179.3613         calculate D2E/DX2 analytically  !
 ! D55   D(22,12,17,16)       -179.256          calculate D2E/DX2 analytically  !
 ! D56   D(22,12,17,21)          0.649          calculate D2E/DX2 analytically  !
 ! D57   D(7,13,14,15)        -178.9927         calculate D2E/DX2 analytically  !
 ! D58   D(7,13,14,18)           1.0515         calculate D2E/DX2 analytically  !
 ! D59   D(12,13,14,15)          0.6597         calculate D2E/DX2 analytically  !
 ! D60   D(12,13,14,18)       -179.2962         calculate D2E/DX2 analytically  !
 ! D61   D(13,14,15,16)          0.4575         calculate D2E/DX2 analytically  !
 ! D62   D(13,14,15,20)        179.9284         calculate D2E/DX2 analytically  !
 ! D63   D(18,14,15,16)       -179.5871         calculate D2E/DX2 analytically  !
 ! D64   D(18,14,15,20)         -0.1161         calculate D2E/DX2 analytically  !
 ! D65   D(14,15,16,17)         -1.0083         calculate D2E/DX2 analytically  !
 ! D66   D(14,15,16,19)        179.0218         calculate D2E/DX2 analytically  !
 ! D67   D(20,15,16,17)        179.5029         calculate D2E/DX2 analytically  !
 ! D68   D(20,15,16,19)         -0.467          calculate D2E/DX2 analytically  !
 ! D69   D(14,15,20,46)          2.3174         calculate D2E/DX2 analytically  !
 ! D70   D(14,15,20,50)        122.844          calculate D2E/DX2 analytically  !
 ! D71   D(14,15,20,54)       -118.2593         calculate D2E/DX2 analytically  !
 ! D72   D(16,15,20,46)       -178.2143         calculate D2E/DX2 analytically  !
 ! D73   D(16,15,20,50)        -57.6877         calculate D2E/DX2 analytically  !
 ! D74   D(16,15,20,54)         61.209          calculate D2E/DX2 analytically  !
 ! D75   D(15,16,17,12)          0.3778         calculate D2E/DX2 analytically  !
 ! D76   D(15,16,17,21)       -179.5246         calculate D2E/DX2 analytically  !
 ! D77   D(19,16,17,12)       -179.6527         calculate D2E/DX2 analytically  !
 ! D78   D(19,16,17,21)          0.4449         calculate D2E/DX2 analytically  !
 ! D79   D(12,17,21,58)        -59.5766         calculate D2E/DX2 analytically  !
 ! D80   D(12,17,21,62)       -179.0685         calculate D2E/DX2 analytically  !
 ! D81   D(12,17,21,66)         61.1568         calculate D2E/DX2 analytically  !
 ! D82   D(16,17,21,58)        120.3242         calculate D2E/DX2 analytically  !
 ! D83   D(16,17,21,62)          0.8323         calculate D2E/DX2 analytically  !
 ! D84   D(16,17,21,66)       -118.9424         calculate D2E/DX2 analytically  !
 ! D85   D(15,20,46,47)        -61.9006         calculate D2E/DX2 analytically  !
 ! D86   D(15,20,46,48)         59.8817         calculate D2E/DX2 analytically  !
 ! D87   D(15,20,46,49)        179.0105         calculate D2E/DX2 analytically  !
 ! D88   D(50,20,46,47)        177.3352         calculate D2E/DX2 analytically  !
 ! D89   D(50,20,46,48)        -60.8825         calculate D2E/DX2 analytically  !
 ! D90   D(50,20,46,49)         58.2463         calculate D2E/DX2 analytically  !
 ! D91   D(54,20,46,47)         58.4574         calculate D2E/DX2 analytically  !
 ! D92   D(54,20,46,48)       -179.7604         calculate D2E/DX2 analytically  !
 ! D93   D(54,20,46,49)        -60.6315         calculate D2E/DX2 analytically  !
 ! D94   D(15,20,50,51)         57.6766         calculate D2E/DX2 analytically  !
 ! D95   D(15,20,50,52)        177.2945         calculate D2E/DX2 analytically  !
 ! D96   D(15,20,50,53)        -63.2951         calculate D2E/DX2 analytically  !
 ! D97   D(46,20,50,51)       -179.4188         calculate D2E/DX2 analytically  !
 ! D98   D(46,20,50,52)        -59.8009         calculate D2E/DX2 analytically  !
 ! D99   D(46,20,50,53)         59.6095         calculate D2E/DX2 analytically  !
 ! D100  D(54,20,50,51)        -60.7624         calculate D2E/DX2 analytically  !
 ! D101  D(54,20,50,52)         58.8555         calculate D2E/DX2 analytically  !
 ! D102  D(54,20,50,53)        178.2659         calculate D2E/DX2 analytically  !
 ! D103  D(15,20,54,55)        179.8973         calculate D2E/DX2 analytically  !
 ! D104  D(15,20,54,56)        -60.5443         calculate D2E/DX2 analytically  !
 ! D105  D(15,20,54,57)         60.2217         calculate D2E/DX2 analytically  !
 ! D106  D(46,20,54,55)         57.1071         calculate D2E/DX2 analytically  !
 ! D107  D(46,20,54,56)        176.6655         calculate D2E/DX2 analytically  !
 ! D108  D(46,20,54,57)        -62.5685         calculate D2E/DX2 analytically  !
 ! D109  D(50,20,54,55)        -61.3592         calculate D2E/DX2 analytically  !
 ! D110  D(50,20,54,56)         58.1992         calculate D2E/DX2 analytically  !
 ! D111  D(50,20,54,57)        178.9652         calculate D2E/DX2 analytically  !
 ! D112  D(17,21,58,59)         62.2872         calculate D2E/DX2 analytically  !
 ! D113  D(17,21,58,60)       -177.4618         calculate D2E/DX2 analytically  !
 ! D114  D(17,21,58,61)        -58.6057         calculate D2E/DX2 analytically  !
 ! D115  D(62,21,58,59)       -175.8801         calculate D2E/DX2 analytically  !
 ! D116  D(62,21,58,60)        -55.6291         calculate D2E/DX2 analytically  !
 ! D117  D(62,21,58,61)         63.2271         calculate D2E/DX2 analytically  !
 ! D118  D(66,21,58,59)        -58.1904         calculate D2E/DX2 analytically  !
 ! D119  D(66,21,58,60)         62.0606         calculate D2E/DX2 analytically  !
 ! D120  D(66,21,58,61)       -179.0832         calculate D2E/DX2 analytically  !
 ! D121  D(17,21,62,63)        -60.9634         calculate D2E/DX2 analytically  !
 ! D122  D(17,21,62,64)         60.7739         calculate D2E/DX2 analytically  !
 ! D123  D(17,21,62,65)        179.9503         calculate D2E/DX2 analytically  !
 ! D124  D(58,21,62,63)        178.5152         calculate D2E/DX2 analytically  !
 ! D125  D(58,21,62,64)        -59.7476         calculate D2E/DX2 analytically  !
 ! D126  D(58,21,62,65)         59.4288         calculate D2E/DX2 analytically  !
 ! D127  D(66,21,62,63)         59.6439         calculate D2E/DX2 analytically  !
 ! D128  D(66,21,62,64)       -178.6188         calculate D2E/DX2 analytically  !
 ! D129  D(66,21,62,65)        -59.4424         calculate D2E/DX2 analytically  !
 ! D130  D(17,21,66,67)       -178.3818         calculate D2E/DX2 analytically  !
 ! D131  D(17,21,66,68)        -58.2568         calculate D2E/DX2 analytically  !
 ! D132  D(17,21,66,69)         62.7821         calculate D2E/DX2 analytically  !
 ! D133  D(58,21,66,67)        -57.8622         calculate D2E/DX2 analytically  !
 ! D134  D(58,21,66,68)         62.2628         calculate D2E/DX2 analytically  !
 ! D135  D(58,21,66,69)       -176.6982         calculate D2E/DX2 analytically  !
 ! D136  D(62,21,66,67)         59.6642         calculate D2E/DX2 analytically  !
 ! D137  D(62,21,66,68)        179.7892         calculate D2E/DX2 analytically  !
 ! D138  D(62,21,66,69)        -59.1719         calculate D2E/DX2 analytically  !
 ! D139  D(6,24,26,27)         177.5344         calculate D2E/DX2 analytically  !
 ! D140  D(25,24,26,27)         -1.9331         calculate D2E/DX2 analytically  !
 ! D141  D(24,26,27,28)        -68.8697         calculate D2E/DX2 analytically  !
 ! D142  D(24,26,27,29)         55.9604         calculate D2E/DX2 analytically  !
 ! D143  D(24,26,27,30)        174.1182         calculate D2E/DX2 analytically  !
 ! D144  D(26,27,28,31)       -178.1608         calculate D2E/DX2 analytically  !
 ! D145  D(26,27,28,32)         61.3278         calculate D2E/DX2 analytically  !
 ! D146  D(26,27,28,33)        -55.2476         calculate D2E/DX2 analytically  !
 ! D147  D(29,27,28,31)         56.0718         calculate D2E/DX2 analytically  !
 ! D148  D(29,27,28,32)        -64.4396         calculate D2E/DX2 analytically  !
 ! D149  D(29,27,28,33)        178.9851         calculate D2E/DX2 analytically  !
 ! D150  D(30,27,28,31)        -62.8941         calculate D2E/DX2 analytically  !
 ! D151  D(30,27,28,32)        176.5945         calculate D2E/DX2 analytically  !
 ! D152  D(30,27,28,33)         60.0192         calculate D2E/DX2 analytically  !
 ! D153  D(26,27,29,34)        179.0323         calculate D2E/DX2 analytically  !
 ! D154  D(26,27,29,35)        -60.7038         calculate D2E/DX2 analytically  !
 ! D155  D(26,27,29,36)         56.4422         calculate D2E/DX2 analytically  !
 ! D156  D(28,27,29,34)        -56.3901         calculate D2E/DX2 analytically  !
 ! D157  D(28,27,29,35)         63.8738         calculate D2E/DX2 analytically  !
 ! D158  D(28,27,29,36)       -178.9802         calculate D2E/DX2 analytically  !
 ! D159  D(30,27,29,34)         62.5551         calculate D2E/DX2 analytically  !
 ! D160  D(30,27,29,35)       -177.181          calculate D2E/DX2 analytically  !
 ! D161  D(30,27,29,36)        -60.035          calculate D2E/DX2 analytically  !
 ! D162  D(27,28,31,37)        -55.4205         calculate D2E/DX2 analytically  !
 ! D163  D(27,28,31,38)       -178.2061         calculate D2E/DX2 analytically  !
 ! D164  D(27,28,31,39)         65.1597         calculate D2E/DX2 analytically  !
 ! D165  D(32,28,31,37)         64.1061         calculate D2E/DX2 analytically  !
 ! D166  D(32,28,31,38)        -58.6795         calculate D2E/DX2 analytically  !
 ! D167  D(32,28,31,39)       -175.3137         calculate D2E/DX2 analytically  !
 ! D168  D(33,28,31,37)       -177.4802         calculate D2E/DX2 analytically  !
 ! D169  D(33,28,31,38)         59.7341         calculate D2E/DX2 analytically  !
 ! D170  D(33,28,31,39)        -56.9001         calculate D2E/DX2 analytically  !
 ! D171  D(27,29,34,37)         56.2157         calculate D2E/DX2 analytically  !
 ! D172  D(27,29,34,40)        179.0202         calculate D2E/DX2 analytically  !
 ! D173  D(27,29,34,41)        -64.3818         calculate D2E/DX2 analytically  !
 ! D174  D(35,29,34,37)        -63.8935         calculate D2E/DX2 analytically  !
 ! D175  D(35,29,34,40)         58.911          calculate D2E/DX2 analytically  !
 ! D176  D(35,29,34,41)        175.509          calculate D2E/DX2 analytically  !
 ! D177  D(36,29,34,37)        177.9584         calculate D2E/DX2 analytically  !
 ! D178  D(36,29,34,40)        -59.2371         calculate D2E/DX2 analytically  !
 ! D179  D(36,29,34,41)         57.3609         calculate D2E/DX2 analytically  !
 ! D180  D(28,31,37,34)         55.1079         calculate D2E/DX2 analytically  !
 ! D181  D(28,31,37,42)        177.4596         calculate D2E/DX2 analytically  !
 ! D182  D(28,31,37,43)        -65.4277         calculate D2E/DX2 analytically  !
 ! D183  D(38,31,37,34)        177.3672         calculate D2E/DX2 analytically  !
 ! D184  D(38,31,37,42)        -60.2811         calculate D2E/DX2 analytically  !
 ! D185  D(38,31,37,43)         56.8316         calculate D2E/DX2 analytically  !
 ! D186  D(39,31,37,34)        -65.4992         calculate D2E/DX2 analytically  !
 ! D187  D(39,31,37,42)         56.8525         calculate D2E/DX2 analytically  !
 ! D188  D(39,31,37,43)        173.9652         calculate D2E/DX2 analytically  !
 ! D189  D(29,34,37,31)        -55.5516         calculate D2E/DX2 analytically  !
 ! D190  D(29,34,37,42)       -177.8746         calculate D2E/DX2 analytically  !
 ! D191  D(29,34,37,43)         65.0283         calculate D2E/DX2 analytically  !
 ! D192  D(40,34,37,31)       -177.8736         calculate D2E/DX2 analytically  !
 ! D193  D(40,34,37,42)         59.8033         calculate D2E/DX2 analytically  !
 ! D194  D(40,34,37,43)        -57.2938         calculate D2E/DX2 analytically  !
 ! D195  D(41,34,37,31)         65.0148         calculate D2E/DX2 analytically  !
 ! D196  D(41,34,37,42)        -57.3083         calculate D2E/DX2 analytically  !
 ! D197  D(41,34,37,43)       -174.4054         calculate D2E/DX2 analytically  !
 --------------------------------------------------------------------------------
 Trust Radius=3.00D-01 FncErr=5.00D-06 GrdErr=5.00D-06 EigMax=2.50D+02 EigMin=1.00D-04
 Number of steps in this run=    412 maximum allowed number of steps=    414.
 Search for a saddle point of order  1.
 GradGradGradGradGradGradGradGradGradGradGradGradGradGradGradGradGradGrad

 Leave Link  103 at Fri Dec 21 13:55:52 2018, MaxMem=  1342177280 cpu:               0.4 elap:               0.0
 (Enter /gpfs/apps/hpc/Apps/Restricted/Gaussian/Rev_A.03/g16/l202.exe)
 Symmetry turned off by external request.
 Stoichiometry    C28H37N3O(1+,2)
 Framework group  C1[X(C28H37N3O)]
 Deg. of freedom   201
 Full point group                 C1      NOp   1
                          Input orientation:                          
 ---------------------------------------------------------------------
 Center     Atomic      Atomic             Coordinates (Angstroms)
 Number     Number       Type             X           Y           Z
 ---------------------------------------------------------------------
      1          6           0       -0.580274    3.014188    0.382035
      2          6           0       -1.970516    3.152743    0.292349
      3          6           0       -2.540783    4.425858    0.199023
      4          6           0       -1.659162    5.509930    0.201107
      5          6           0       -0.259562    5.359421    0.286104
      6          6           0        0.315730    4.090631    0.377245
      7          6           0       -1.397498    0.988469    0.394211
      8          1           0       -3.610356    4.570535    0.123207
      9          1           0       -2.068396    6.510200    0.130520
     10          1           0        0.374480    6.237932    0.272629
     11          7           0       -2.444642    1.853894    0.306244
     12          6           0       -2.834483   -1.079962    0.291623
     13          6           0       -1.513056   -0.450932    0.418412
     14          6           0       -0.369626   -1.220750    0.554325
     15          6           0       -0.438255   -2.621584    0.561101
     16          6           0       -1.709214   -3.240017    0.415214
     17          6           0       -2.890843   -2.548056    0.286216
     18          1           0        0.586265   -0.726505    0.656937
     19          1           0       -1.737050   -4.320326    0.406939
     20          6           0        0.798239   -3.497613    0.706909
     21          6           0       -4.237188   -3.253380    0.142189
     22          8           0       -3.868846   -0.372232    0.192569
     23          7           0       -0.246569    1.688465    0.445025
     24          6           0        1.734172    3.768781    0.431323
     25          1           0        2.463730    4.577569    0.421422
     26          7           0        2.086541    2.527431    0.479480
     27          6           0        3.500339    2.126837    0.481900
     28          6           0        4.147493    2.422894   -0.881709
     29          6           0        4.297808    2.777225    1.622656
     30          1           0        3.498592    1.043162    0.635197
     31          6           0        5.609371    1.966953   -0.903802
     32          1           0        4.092212    3.503704   -1.059146
     33          1           0        3.572386    1.934939   -1.673395
     34          6           0        5.756744    2.310042    1.595927
     35          1           0        4.263782    3.866622    1.507337
     36          1           0        3.827760    2.536678    2.580029
     37          6           0        6.411383    2.596885    0.240065
     38          1           0        6.057669    2.215789   -1.869894
     39          1           0        5.646883    0.874947   -0.809312
     40          1           0        6.314647    2.794659    2.402411
     41          1           0        5.792024    1.231258    1.791783
     42          1           0        7.439113    2.221948    0.230356
     43          1           0        6.466720    3.681992    0.088668
     44          1           0       -3.395166    1.495124    0.246009
     45          1           0        0.969743    1.701293    0.474495
     46          6           0        2.080667   -2.676831    0.898068
     47          1           0        2.284827   -2.035155    0.036753
     48          1           0        2.029288   -2.050771    1.792246
     49          1           0        2.925538   -3.358749    1.013762
     50          6           0        0.618200   -4.422373    1.931002
     51          1           0       -0.277349   -5.040240    1.844336
     52          1           0        1.481929   -5.086709    2.011689
     53          1           0        0.544980   -3.838102    2.851223
     54          6           0        0.941454   -4.360686   -0.567123
     55          1           0        1.826635   -4.995762   -0.480583
     56          1           0        0.073608   -5.007427   -0.712063
     57          1           0        1.052177   -3.730966   -1.452836
     58          6           0       -5.166984   -2.838680    1.304821
     59          1           0       -5.370819   -1.769713    1.284375
     60          1           0       -6.112160   -3.381480    1.220718
     61          1           0       -4.712621   -3.091933    2.266549
     62          6           0       -4.085465   -4.781287    0.182445
     63          1           0       -3.457460   -5.150582   -0.632502
     64          1           0       -3.656246   -5.119178    1.129599
     65          1           0       -5.072431   -5.236834    0.076846
     66          6           0       -4.879609   -2.869713   -1.209573
     67          1           0       -5.856250   -3.353578   -1.296748
     68          1           0       -5.015380   -1.792431   -1.292771
     69          1           0       -4.257454   -3.210798   -2.041361
 ---------------------------------------------------------------------
 Rotational constants (GHZ):           0.1731216           0.0820167           0.0585027
 Leave Link  202 at Fri Dec 21 13:55:53 2018, MaxMem=  1342177280 cpu:               0.4 elap:               0.0
 (Enter /gpfs/apps/hpc/Apps/Restricted/Gaussian/Rev_A.03/g16/l301.exe)
 Standard basis: 6-31G(d,p) (6D, 7F)
 Ernie: Thresh=  0.10000D-02 Tol=  0.10000D-05 Strict=F.
   665 basis functions,  1155 primitive gaussians,   665 cartesian basis functions
   117 alpha electrons      116 beta electrons
       nuclear repulsion energy      3215.0909631345 Hartrees.
 IExCor=  402 DFT=T Ex+Corr=B3LYP ExCW=0 ScaHFX=  0.200000
 ScaDFX=  0.800000  0.720000  1.000000  0.810000 ScalE2=  1.000000  1.000000
 IRadAn=      5 IRanWt=     -1 IRanGd=            0 ICorTp=0 IEmpDi=141
 NAtoms=   69 NActive=   69 NUniq=   69 SFac= 1.00D+00 NAtFMM=   60 NAOKFM=T Big=T
 Integral buffers will be    131072 words long.
 Raffenetti 2 integral format.
 Two-electron integral symmetry is turned off.
 R6Disp:  Grimme-D3(BJ) Dispersion energy=       -0.1513211141 Hartrees.
 Nuclear repulsion after empirical dispersion term =     3214.9396420205 Hartrees.
 Force inversion solution in PCM.
 Using the following non-standard input for PCM:
 radii=bondi
 dis
 rep
 cav
 --- end of non-standard input.
 Force inversion solution in PCM.
 ------------------------------------------------------------------------------
 Polarizable Continuum Model (PCM)
 =================================
 Model                : C-PCM.
 Atomic radii         : Bondi.
 Polarization charges : Total charges.
 Charge compensation  : None.
 Solution method      : Matrix inversion.
 Cavity type          : Scaled VdW (van der Waals Surface) (Alpha=1.100).
 Cavity algorithm     : GePol (No added spheres)
                        Default sphere list used, NSphG=   69.
                        Lebedev-Laikov grids with approx.  5.0 points / Ang**2.
                        Smoothing algorithm: York/Karplus (Gamma=1.0000).
                        Polarization charges: spherical gaussians, with
                                              point-specific exponents (IZeta= 3).
                        Self-potential: point-specific (ISelfS= 7).
                        Self-field    : sphere-specific E.n sum rule (ISelfD= 2).
 1st derivatives      : Analytical E(r).r(x)/FMM algorithm (CHGder, D1EAlg=3).
                        Cavity 1st derivative terms included.
 2nd derivatives      : Analytical E(r).r(xy)/FMM algorithm (CHGder, D2EAlg=3).
                        Cavity 2nd derivative terms included.
 Solvent              : Dichloromethane, Eps=   8.930000 Eps(inf)=   2.028346
 ------------------------------------------------------------------------------
 GePol: Number of generator spheres                  =      69
 GePol: Total number of spheres                      =      69
 GePol: Number of exposed spheres                    =      69 (100.00%)
 GePol: Number of points                             =    4336
 GePol: Average weight of points                     =       0.12
 GePol: Minimum weight of points                     =   0.11D-10
 GePol: Maximum weight of points                     =    0.21770
 GePol: Number of points with low weight             =     300
 GePol: Fraction of low-weight points (<1% of avg)   =       6.92%
 GePol: Cavity surface area                          =    515.969 Ang**2
 GePol: Cavity volume                                =    499.035 Ang**3
 PCM non-electrostatic energy =         0.0262714164 Hartrees.
 Nuclear repulsion after PCM non-electrostatic terms =     3214.9659134369 Hartrees.
 Leave Link  301 at Fri Dec 21 13:55:53 2018, MaxMem=  1342177280 cpu:               3.0 elap:               0.2
 (Enter /gpfs/apps/hpc/Apps/Restricted/Gaussian/Rev_A.03/g16/l302.exe)
 NPDir=0 NMtPBC=     1 NCelOv=     1 NCel=       1 NClECP=     1 NCelD=      1
         NCelK=      1 NCelE2=     1 NClLst=     1 CellRange=     0.0.
 One-electron integrals computed using PRISM.
 NBasis=   665 RedAO= T EigKep=  3.03D-04  NBF=   665
 NBsUse=   665 1.00D-06 EigRej= -1.00D+00 NBFU=   665
 Precomputing XC quadrature grid using
 IXCGrd= 4 IRadAn=           5 IRanWt=          -1 IRanGd=           0 AccXCQ= 0.00D+00.
 Generated NRdTot=       0 NPtTot=           0 NUsed=           0 NTot=          32
 NSgBfM=   654   654   654   654   654 MxSgAt=    69 MxSgA2=    69.
 Leave Link  302 at Fri Dec 21 13:55:54 2018, MaxMem=  1342177280 cpu:              20.0 elap:               1.4
 (Enter /gpfs/apps/hpc/Apps/Restricted/Gaussian/Rev_A.03/g16/l303.exe)
 DipDrv:  MaxL=1.
 Leave Link  303 at Fri Dec 21 13:55:54 2018, MaxMem=  1342177280 cpu:               1.3 elap:               0.1
 (Enter /gpfs/apps/hpc/Apps/Restricted/Gaussian/Rev_A.03/g16/l401.exe)
 ExpMin= 1.61D-01 ExpMax= 5.48D+03 ExpMxC= 8.25D+02 IAcc=3 IRadAn=         5 AccDes= 0.00D+00
 Harris functional with IExCor=  402 and IRadAn=       5 diagonalized for initial guess.
 HarFok:  IExCor=  402 AccDes= 0.00D+00 IRadAn=         5 IDoV= 1 UseB2=F ITyADJ=14
 ICtDFT=  3500011 ScaDFX=  1.000000  1.000000  1.000000  1.000000
 FoFCou: FMM=F IPFlag=           0 FMFlag=      100000 FMFlg1=        2001
         NFxFlg=           0 DoJE=T BraDBF=F KetDBF=T FulRan=T
         wScrn=  0.000000 ICntrl=       500 IOpCl=  0 I1Cent=   200000004 NGrid=           0
         NMat0=    1 NMatS0=      1 NMatT0=    0 NMatD0=    1 NMtDS0=    0 NMtDT0=    0
 Symmetry not used in FoFCou.
 Harris En= -1328.77334276982    
 JPrj=0 DoOrth=F DoCkMO=F.
 Initial guess <Sx>= 0.0000 <Sy>= 0.0000 <Sz>= 0.5000 <S**2>= 0.7500 S= 0.5000
 Leave Link  401 at Fri Dec 21 13:55:58 2018, MaxMem=  1342177280 cpu:              63.0 elap:               4.0
 (Enter /gpfs/apps/hpc/Apps/Restricted/Gaussian/Rev_A.03/g16/l502.exe)
 Two-electron integral symmetry not used.
 UHF open shell SCF:
 Using DIIS extrapolation, IDIIS=  1040.
 NGot=  1342177280 LenX=  1341276554 LenY=  1340833664
 Requested convergence on RMS density matrix=1.00D-08 within 128 cycles.
 Requested convergence on MAX density matrix=1.00D-06.
 Requested convergence on             energy=1.00D-06.
 No special actions if energy rises.
 Fock matrices will be formed incrementally for  20 cycles.

 Cycle   1  Pass 1  IDiag  1:
 FoFJK:  IHMeth= 1 ICntrl=       0 DoSepK=F KAlg= 0 I1Cent=           0 FoldK=F
 IRaf= 800000000 NMat=       1 IRICut=       1 DoRegI=T DoRafI=F ISym2E= 0 IDoP0=0 IntGTp=1.
 FoFCou: FMM=T IPFlag=           0 FMFlag=      100000 FMFlg1=        2001
         NFxFlg=           0 DoJE=F BraDBF=F KetDBF=F FulRan=T
         wScrn=  0.000000 ICntrl=         0 IOpCl=  1 I1Cent=           0 NGrid=           0
         NMat0=    1 NMatS0=      1 NMatT0=    0 NMatD0=    1 NMtDS0=    0 NMtDT0=    0
 Symmetry not used in FoFCou.
 FMM levels:  10  Number of levels for PrismC:   9
 Inv3:  Mode=1 IEnd=    56402688.
 Iteration    1 A*A^-1 deviation from unit magnitude is 1.40D-14 for   2157.
 Iteration    1 A*A^-1 deviation from orthogonality  is 5.26D-15 for    943    869.
 Iteration    1 A^-1*A deviation from unit magnitude is 1.40D-14 for   2157.
 Iteration    1 A^-1*A deviation from orthogonality  is 3.13D-15 for   4157    806.
 E= -1327.98921147481    
 DIIS: error= 3.04D-02 at cycle   1 NSaved=   1.
 NSaved= 1 IEnMin= 1 EnMin= -1327.98921147481     IErMin= 1 ErrMin= 3.04D-02
 ErrMax= 3.04D-02  0.00D+00 EMaxC= 1.00D-01 BMatC= 3.10D+00 BMatP= 3.10D+00
 IDIUse=3 WtCom= 6.96D-01 WtEn= 3.04D-01
 Coeff-Com:  0.100D+01
 Coeff-En:   0.100D+01
 Coeff:      0.100D+01
 Gap=     0.118 Goal=   None    Shift=    0.000
 Gap=     0.084 Goal=   None    Shift=    0.000
 GapD=    0.084 DampG=0.500 DampE=0.500 DampFc=0.2500 IDamp=-1.
 Damping current iteration by 2.50D-01
 RMSDP=3.16D-03 MaxDP=1.82D-01              OVMax= 2.58D-01

 Cycle   2  Pass 1  IDiag  1:
 RMSU=  7.70D-04    CP:  9.85D-01
 E= -1328.28420260348     Delta-E=       -0.294991128670 Rises=F Damp=T
 DIIS: error= 1.66D-02 at cycle   2 NSaved=   2.
 NSaved= 2 IEnMin= 2 EnMin= -1328.28420260348     IErMin= 2 ErrMin= 1.66D-02
 ErrMax= 1.66D-02  0.00D+00 EMaxC= 1.00D-01 BMatC= 8.05D-01 BMatP= 3.10D+00
 IDIUse=3 WtCom= 8.34D-01 WtEn= 1.66D-01
 Coeff-Com: -0.824D+00 0.182D+01
 Coeff-En:   0.000D+00 0.100D+01
 Coeff:     -0.687D+00 0.169D+01
 Gap=     0.153 Goal=   None    Shift=    0.000
 Gap=     0.122 Goal=   None    Shift=    0.000
 RMSDP=1.17D-03 MaxDP=6.46D-02 DE=-2.95D-01 OVMax= 1.98D-01

 Cycle   3  Pass 1  IDiag  1:
 RMSU=  8.44D-04    CP:  9.55D-01  1.95D+00
 E= -1328.77454161614     Delta-E=       -0.490339012657 Rises=F Damp=F
 DIIS: error= 8.37D-03 at cycle   3 NSaved=   3.
 NSaved= 3 IEnMin= 3 EnMin= -1328.77454161614     IErMin= 3 ErrMin= 8.37D-03
 ErrMax= 8.37D-03  0.00D+00 EMaxC= 1.00D-01 BMatC= 1.35D-01 BMatP= 8.05D-01
 IDIUse=3 WtCom= 9.16D-01 WtEn= 8.37D-02
 Coeff-Com: -0.348D+00 0.773D+00 0.575D+00
 Coeff-En:   0.000D+00 0.000D+00 0.100D+01
 Coeff:     -0.319D+00 0.708D+00 0.611D+00
 Gap=     0.132 Goal=   None    Shift=    0.000
 Gap=     0.085 Goal=   None    Shift=    0.000
 RMSDP=4.72D-04 MaxDP=7.09D-02 DE=-4.90D-01 OVMax= 8.17D-02

 Cycle   4  Pass 1  IDiag  1:
 RMSU=  3.82D-04    CP:  9.58D-01  1.99D+00  6.78D-01
 E= -1328.79276809894     Delta-E=       -0.018226482797 Rises=F Damp=F
 DIIS: error= 7.22D-03 at cycle   4 NSaved=   4.
 NSaved= 4 IEnMin= 4 EnMin= -1328.79276809894     IErMin= 4 ErrMin= 7.22D-03
 ErrMax= 7.22D-03  0.00D+00 EMaxC= 1.00D-01 BMatC= 6.87D-02 BMatP= 1.35D-01
 IDIUse=3 WtCom= 9.28D-01 WtEn= 7.22D-02
 Coeff-Com: -0.497D-01 0.131D+00 0.408D+00 0.511D+00
 Coeff-En:   0.000D+00 0.000D+00 0.327D+00 0.673D+00
 Coeff:     -0.461D-01 0.122D+00 0.402D+00 0.522D+00
 Gap=     0.135 Goal=   None    Shift=    0.000
 Gap=     0.084 Goal=   None    Shift=    0.000
 RMSDP=2.30D-04 MaxDP=3.57D-02 DE=-1.82D-02 OVMax= 3.43D-02

 Cycle   5  Pass 1  IDiag  1:
 RMSU=  1.21D-04    CP:  9.58D-01  1.95D+00  7.87D-01  5.54D-01
 E= -1328.80628131851     Delta-E=       -0.013513219573 Rises=F Damp=F
 DIIS: error= 1.47D-03 at cycle   5 NSaved=   5.
 NSaved= 5 IEnMin= 5 EnMin= -1328.80628131851     IErMin= 5 ErrMin= 1.47D-03
 ErrMax= 1.47D-03  0.00D+00 EMaxC= 1.00D-01 BMatC= 4.03D-03 BMatP= 6.87D-02
 IDIUse=3 WtCom= 9.85D-01 WtEn= 1.47D-02
 Coeff-Com:  0.439D-02 0.139D-02 0.172D+00 0.285D+00 0.537D+00
 Coeff-En:   0.000D+00 0.000D+00 0.000D+00 0.000D+00 0.100D+01
 Coeff:      0.432D-02 0.137D-02 0.170D+00 0.281D+00 0.544D+00
 Gap=     0.134 Goal=   None    Shift=    0.000
 Gap=     0.087 Goal=   None    Shift=    0.000
 RMSDP=6.60D-05 MaxDP=1.11D-02 DE=-1.35D-02 OVMax= 1.73D-02

 Cycle   6  Pass 1  IDiag  1:
 RMSU=  4.35D-05    CP:  9.57D-01  1.94D+00  8.00D-01  6.10D-01  6.44D-01
 E= -1328.80719766762     Delta-E=       -0.000916349110 Rises=F Damp=F
 DIIS: error= 4.35D-04 at cycle   6 NSaved=   6.
 NSaved= 6 IEnMin= 6 EnMin= -1328.80719766762     IErMin= 6 ErrMin= 4.35D-04
 ErrMax= 4.35D-04  0.00D+00 EMaxC= 1.00D-01 BMatC= 4.93D-04 BMatP= 4.03D-03
 IDIUse=3 WtCom= 9.96D-01 WtEn= 4.35D-03
 Coeff-Com:  0.711D-02-0.114D-01 0.510D-01 0.929D-01 0.299D+00 0.562D+00
 Coeff-En:   0.000D+00 0.000D+00 0.000D+00 0.000D+00 0.000D+00 0.100D+01
 Coeff:      0.708D-02-0.114D-01 0.508D-01 0.925D-01 0.298D+00 0.563D+00
 Gap=     0.135 Goal=   None    Shift=    0.000
 Gap=     0.087 Goal=   None    Shift=    0.000
 RMSDP=2.37D-05 MaxDP=3.02D-03 DE=-9.16D-04 OVMax= 8.35D-03

 Cycle   7  Pass 1  IDiag  1:
 RMSU=  1.96D-05    CP:  9.57D-01  1.94D+00  8.01D-01  6.09D-01  7.46D-01
                    CP:  9.01D-01
 E= -1328.80735252979     Delta-E=       -0.000154862168 Rises=F Damp=F
 DIIS: error= 1.58D-04 at cycle   7 NSaved=   7.
 NSaved= 7 IEnMin= 7 EnMin= -1328.80735252979     IErMin= 7 ErrMin= 1.58D-04
 ErrMax= 1.58D-04  0.00D+00 EMaxC= 1.00D-01 BMatC= 7.05D-05 BMatP= 4.93D-04
 IDIUse=3 WtCom= 9.98D-01 WtEn= 1.58D-03
 Coeff-Com:  0.188D-02-0.459D-02-0.163D-01-0.307D-01 0.886D-02 0.226D+00
 Coeff-Com:  0.815D+00
 Coeff-En:   0.000D+00 0.000D+00 0.000D+00 0.000D+00 0.000D+00 0.000D+00
 Coeff-En:   0.100D+01
 Coeff:      0.188D-02-0.458D-02-0.163D-01-0.307D-01 0.884D-02 0.226D+00
 Coeff:      0.815D+00
 Gap=     0.136 Goal=   None    Shift=    0.000
 Gap=     0.088 Goal=   None    Shift=    0.000
 RMSDP=1.52D-05 MaxDP=2.55D-03 DE=-1.55D-04 OVMax= 6.36D-03

 Cycle   8  Pass 1  IDiag  1:
 RMSU=  9.48D-06    CP:  9.57D-01  1.94D+00  8.04D-01  6.14D-01  7.92D-01
                    CP:  1.13D+00  1.05D+00
 E= -1328.80740584597     Delta-E=       -0.000053316182 Rises=F Damp=F
 DIIS: error= 9.78D-05 at cycle   8 NSaved=   8.
 NSaved= 8 IEnMin= 8 EnMin= -1328.80740584597     IErMin= 8 ErrMin= 9.78D-05
 ErrMax= 9.78D-05  0.00D+00 EMaxC= 1.00D-01 BMatC= 2.53D-05 BMatP= 7.05D-05
 IDIUse=1 WtCom= 1.00D+00 WtEn= 0.00D+00
 Coeff-Com: -0.136D-02 0.187D-02-0.226D-01-0.475D-01-0.933D-01-0.124D+00
 Coeff-Com:  0.364D+00 0.923D+00
 Coeff:     -0.136D-02 0.187D-02-0.226D-01-0.475D-01-0.933D-01-0.124D+00
 Coeff:      0.364D+00 0.923D+00
 Gap=     0.136 Goal=   None    Shift=    0.000
 Gap=     0.089 Goal=   None    Shift=    0.000
 RMSDP=1.21D-05 MaxDP=1.72D-03 DE=-5.33D-05 OVMax= 5.32D-03

 Cycle   9  Pass 1  IDiag  1:
 RMSU=  5.13D-06    CP:  9.57D-01  1.94D+00  8.05D-01  6.14D-01  8.34D-01
                    CP:  1.27D+00  1.43D+00  1.23D+00
 E= -1328.80742678938     Delta-E=       -0.000020943413 Rises=F Damp=F
 DIIS: error= 7.23D-05 at cycle   9 NSaved=   9.
 NSaved= 9 IEnMin= 9 EnMin= -1328.80742678938     IErMin= 9 ErrMin= 7.23D-05
 ErrMax= 7.23D-05  0.00D+00 EMaxC= 1.00D-01 BMatC= 7.30D-06 BMatP= 2.53D-05
 IDIUse=1 WtCom= 1.00D+00 WtEn= 0.00D+00
 Coeff-Com: -0.841D-03 0.152D-02-0.911D-02-0.210D-01-0.527D-01-0.127D+00
 Coeff-Com:  0.387D-01 0.516D+00 0.654D+00
 Coeff:     -0.841D-03 0.152D-02-0.911D-02-0.210D-01-0.527D-01-0.127D+00
 Coeff:      0.387D-01 0.516D+00 0.654D+00
 Gap=     0.136 Goal=   None    Shift=    0.000
 Gap=     0.089 Goal=   None    Shift=    0.000
 RMSDP=4.79D-06 MaxDP=8.78D-04 DE=-2.09D-05 OVMax= 1.81D-03

 Cycle  10  Pass 1  IDiag  1:
 RMSU=  2.53D-06    CP:  9.57D-01  1.94D+00  8.06D-01  6.14D-01  8.45D-01
                    CP:  1.32D+00  1.53D+00  1.45D+00  8.58D-01
 E= -1328.80743062815     Delta-E=       -0.000003838772 Rises=F Damp=F
 DIIS: error= 2.68D-05 at cycle  10 NSaved=  10.
 NSaved=10 IEnMin=10 EnMin= -1328.80743062815     IErMin=10 ErrMin= 2.68D-05
 ErrMax= 2.68D-05  0.00D+00 EMaxC= 1.00D-01 BMatC= 1.38D-06 BMatP= 7.30D-06
 IDIUse=1 WtCom= 1.00D+00 WtEn= 0.00D+00
 Coeff-Com: -0.171D-04 0.188D-03 0.562D-03-0.374D-04-0.453D-02-0.385D-01
 Coeff-Com: -0.531D-01 0.416D-01 0.334D+00 0.720D+00
 Coeff:     -0.171D-04 0.188D-03 0.562D-03-0.374D-04-0.453D-02-0.385D-01
 Coeff:     -0.531D-01 0.416D-01 0.334D+00 0.720D+00
 Gap=     0.136 Goal=   None    Shift=    0.000
 Gap=     0.089 Goal=   None    Shift=    0.000
 RMSDP=2.04D-06 MaxDP=4.72D-04 DE=-3.84D-06 OVMax= 6.72D-04

 Cycle  11  Pass 1  IDiag  1:
 RMSU=  1.14D-06    CP:  9.57D-01  1.94D+00  8.06D-01  6.13D-01  8.49D-01
                    CP:  1.33D+00  1.57D+00  1.52D+00  1.08D+00  9.83D-01
 E= -1328.80743130669     Delta-E=       -0.000000678537 Rises=F Damp=F
 DIIS: error= 1.47D-05 at cycle  11 NSaved=  11.
 NSaved=11 IEnMin=11 EnMin= -1328.80743130669     IErMin=11 ErrMin= 1.47D-05
 ErrMax= 1.47D-05  0.00D+00 EMaxC= 1.00D-01 BMatC= 2.89D-07 BMatP= 1.38D-06
 IDIUse=1 WtCom= 1.00D+00 WtEn= 0.00D+00
 Coeff-Com:  0.174D-03-0.220D-03 0.249D-02 0.494D-02 0.103D-01 0.911D-02
 Coeff-Com: -0.337D-01-0.992D-01 0.358D-01 0.376D+00 0.695D+00
 Coeff:      0.174D-03-0.220D-03 0.249D-02 0.494D-02 0.103D-01 0.911D-02
 Coeff:     -0.337D-01-0.992D-01 0.358D-01 0.376D+00 0.695D+00
 Gap=     0.136 Goal=   None    Shift=    0.000
 Gap=     0.089 Goal=   None    Shift=    0.000
 RMSDP=8.09D-07 MaxDP=1.62D-04 DE=-6.79D-07 OVMax= 3.65D-04

 Cycle  12  Pass 1  IDiag  1:
 RMSU=  4.34D-07    CP:  9.57D-01  1.94D+00  8.06D-01  6.13D-01  8.50D-01
                    CP:  1.33D+00  1.58D+00  1.55D+00  1.14D+00  1.18D+00
                    CP:  9.34D-01
 E= -1328.80743145629     Delta-E=       -0.000000149599 Rises=F Damp=F
 DIIS: error= 3.98D-06 at cycle  12 NSaved=  12.
 NSaved=12 IEnMin=12 EnMin= -1328.80743145629     IErMin=12 ErrMin= 3.98D-06
 ErrMax= 3.98D-06  0.00D+00 EMaxC= 1.00D-01 BMatC= 3.45D-08 BMatP= 2.89D-07
 IDIUse=1 WtCom= 1.00D+00 WtEn= 0.00D+00
 Coeff-Com:  0.495D-04-0.103D-03 0.610D-03 0.154D-02 0.402D-02 0.110D-01
 Coeff-Com:  0.164D-03-0.403D-01-0.536D-01-0.429D-01 0.216D+00 0.903D+00
 Coeff:      0.495D-04-0.103D-03 0.610D-03 0.154D-02 0.402D-02 0.110D-01
 Coeff:      0.164D-03-0.403D-01-0.536D-01-0.429D-01 0.216D+00 0.903D+00
 Gap=     0.136 Goal=   None    Shift=    0.000
 Gap=     0.089 Goal=   None    Shift=    0.000
 RMSDP=4.17D-07 MaxDP=9.12D-05 DE=-1.50D-07 OVMax= 1.44D-04

 Cycle  13  Pass 1  IDiag  1:
 RMSU=  2.06D-07    CP:  9.57D-01  1.94D+00  8.06D-01  6.13D-01  8.50D-01
                    CP:  1.33D+00  1.59D+00  1.57D+00  1.18D+00  1.25D+00
                    CP:  1.11D+00  1.08D+00
 E= -1328.80743148230     Delta-E=       -0.000000026005 Rises=F Damp=F
 DIIS: error= 1.90D-06 at cycle  13 NSaved=  13.
 NSaved=13 IEnMin=13 EnMin= -1328.80743148230     IErMin=13 ErrMin= 1.90D-06
 ErrMax= 1.90D-06  0.00D+00 EMaxC= 1.00D-01 BMatC= 1.48D-08 BMatP= 3.45D-08
 IDIUse=1 WtCom= 1.00D+00 WtEn= 0.00D+00
 Coeff-Com: -0.277D-05-0.193D-04-0.326D-05 0.210D-03 0.841D-03 0.537D-02
 Coeff-Com:  0.451D-02-0.923D-02-0.356D-01-0.815D-01 0.339D-01 0.518D+00
 Coeff-Com:  0.564D+00
 Coeff:     -0.277D-05-0.193D-04-0.326D-05 0.210D-03 0.841D-03 0.537D-02
 Coeff:      0.451D-02-0.923D-02-0.356D-01-0.815D-01 0.339D-01 0.518D+00
 Coeff:      0.564D+00
 Gap=     0.136 Goal=   None    Shift=    0.000
 Gap=     0.089 Goal=   None    Shift=    0.000
 RMSDP=1.50D-07 MaxDP=2.12D-05 DE=-2.60D-08 OVMax= 4.71D-05

 Cycle  14  Pass 1  IDiag  1:
 RMSU=  1.03D-07    CP:  9.57D-01  1.94D+00  8.06D-01  6.13D-01  8.50D-01
                    CP:  1.33D+00  1.59D+00  1.57D+00  1.18D+00  1.27D+00
                    CP:  1.15D+00  1.25D+00  8.97D-01
 E= -1328.80743148759     Delta-E=       -0.000000005297 Rises=F Damp=F
 DIIS: error= 9.88D-07 at cycle  14 NSaved=  14.
 NSaved=14 IEnMin=14 EnMin= -1328.80743148759     IErMin=14 ErrMin= 9.88D-07
 ErrMax= 9.88D-07  0.00D+00 EMaxC= 1.00D-01 BMatC= 3.46D-09 BMatP= 1.48D-08
 IDIUse=1 WtCom= 1.00D+00 WtEn= 0.00D+00
 Coeff-Com: -0.214D-04 0.282D-04-0.188D-03-0.341D-03-0.824D-03-0.196D-03
 Coeff-Com:  0.215D-02 0.745D-02-0.343D-02-0.356D-01-0.436D-01-0.123D-03
 Coeff-Com:  0.335D+00 0.739D+00
 Coeff:     -0.214D-04 0.282D-04-0.188D-03-0.341D-03-0.824D-03-0.196D-03
 Coeff:      0.215D-02 0.745D-02-0.343D-02-0.356D-01-0.436D-01-0.123D-03
 Coeff:      0.335D+00 0.739D+00
 Gap=     0.136 Goal=   None    Shift=    0.000
 Gap=     0.089 Goal=   None    Shift=    0.000
 RMSDP=9.10D-08 MaxDP=1.50D-05 DE=-5.30D-09 OVMax= 3.21D-05

 Cycle  15  Pass 1  IDiag  1:
 RMSU=  4.52D-08    CP:  9.57D-01  1.94D+00  8.06D-01  6.13D-01  8.50D-01
                    CP:  1.33D+00  1.59D+00  1.57D+00  1.19D+00  1.27D+00
                    CP:  1.18D+00  1.33D+00  1.13D+00  9.52D-01
 E= -1328.80743148922     Delta-E=       -0.000000001630 Rises=F Damp=F
 DIIS: error= 3.54D-07 at cycle  15 NSaved=  15.
 NSaved=15 IEnMin=15 EnMin= -1328.80743148922     IErMin=15 ErrMin= 3.54D-07
 ErrMax= 3.54D-07  0.00D+00 EMaxC= 1.00D-01 BMatC= 6.21D-10 BMatP= 3.46D-09
 IDIUse=1 WtCom= 1.00D+00 WtEn= 0.00D+00
 Coeff-Com: -0.107D-04 0.178D-04-0.940D-04-0.198D-03-0.567D-03-0.888D-03
 Coeff-Com:  0.172D-03 0.526D-02 0.383D-02-0.551D-02-0.252D-01-0.887D-01
 Coeff-Com:  0.744D-01 0.374D+00 0.663D+00
 Coeff:     -0.107D-04 0.178D-04-0.940D-04-0.198D-03-0.567D-03-0.888D-03
 Coeff:      0.172D-03 0.526D-02 0.383D-02-0.551D-02-0.252D-01-0.887D-01
 Coeff:      0.744D-01 0.374D+00 0.663D+00
 Gap=     0.136 Goal=   None    Shift=    0.000
 Gap=     0.089 Goal=   None    Shift=    0.000
 RMSDP=4.05D-08 MaxDP=6.51D-06 DE=-1.63D-09 OVMax= 1.56D-05

 Cycle  16  Pass 1  IDiag  1:
 RMSU=  2.30D-08    CP:  9.57D-01  1.94D+00  8.06D-01  6.13D-01  8.50D-01
                    CP:  1.33D+00  1.59D+00  1.57D+00  1.19D+00  1.27D+00
                    CP:  1.18D+00  1.36D+00  1.23D+00  1.11D+00  9.05D-01
 E= -1328.80743148946     Delta-E=       -0.000000000239 Rises=F Damp=F
 DIIS: error= 2.10D-07 at cycle  16 NSaved=  16.
 NSaved=16 IEnMin=16 EnMin= -1328.80743148946     IErMin=16 ErrMin= 2.10D-07
 ErrMax= 2.10D-07  0.00D+00 EMaxC= 1.00D-01 BMatC= 1.49D-10 BMatP= 6.21D-10
 IDIUse=1 WtCom= 1.00D+00 WtEn= 0.00D+00
 Coeff-Com:  0.213D-05-0.130D-05 0.173D-04 0.238D-04-0.158D-04-0.324D-03
 Coeff-Com: -0.754D-03 0.185D-03 0.302D-02 0.894D-02 0.324D-02-0.476D-01
 Coeff-Com: -0.729D-01-0.420D-01 0.351D+00 0.797D+00
 Coeff:      0.213D-05-0.130D-05 0.173D-04 0.238D-04-0.158D-04-0.324D-03
 Coeff:     -0.754D-03 0.185D-03 0.302D-02 0.894D-02 0.324D-02-0.476D-01
 Coeff:     -0.729D-01-0.420D-01 0.351D+00 0.797D+00
 Gap=     0.136 Goal=   None    Shift=    0.000
 Gap=     0.089 Goal=   None    Shift=    0.000
 RMSDP=2.46D-08 MaxDP=3.59D-06 DE=-2.39D-10 OVMax= 1.32D-05

 Cycle  17  Pass 1  IDiag  1:
 RMSU=  1.08D-08    CP:  9.57D-01  1.94D+00  8.06D-01  6.13D-01  8.50D-01
                    CP:  1.33D+00  1.59D+00  1.57D+00  1.19D+00  1.27D+00
                    CP:  1.19D+00  1.37D+00  1.27D+00  1.20D+00  1.19D+00
                    CP:  1.03D+00
 E= -1328.80743148957     Delta-E=       -0.000000000112 Rises=F Damp=F
 DIIS: error= 1.08D-07 at cycle  17 NSaved=  17.
 NSaved=17 IEnMin=17 EnMin= -1328.80743148957     IErMin=17 ErrMin= 1.08D-07
 ErrMax= 1.08D-07  0.00D+00 EMaxC= 1.00D-01 BMatC= 3.03D-11 BMatP= 1.49D-10
 IDIUse=1 WtCom= 1.00D+00 WtEn= 0.00D+00
 Coeff-Com:  0.204D-05-0.236D-05 0.190D-04 0.358D-04 0.563D-04-0.371D-04
 Coeff-Com: -0.401D-03-0.502D-03 0.972D-03 0.493D-02 0.459D-02-0.128D-01
 Coeff-Com: -0.457D-01-0.684D-01 0.894D-01 0.400D+00 0.628D+00
 Coeff:      0.204D-05-0.236D-05 0.190D-04 0.358D-04 0.563D-04-0.371D-04
 Coeff:     -0.401D-03-0.502D-03 0.972D-03 0.493D-02 0.459D-02-0.128D-01
 Coeff:     -0.457D-01-0.684D-01 0.894D-01 0.400D+00 0.628D+00
 Gap=     0.136 Goal=   None    Shift=    0.000
 Gap=     0.089 Goal=   None    Shift=    0.000
 RMSDP=8.49D-09 MaxDP=9.00D-07 DE=-1.12D-10 OVMax= 2.73D-06

 Error on total polarization charges =  0.04405
 SCF Done:  E(UB3LYP) =  -1328.80743149     A.U. after   17 cycles
            NFock= 17  Conv=0.85D-08     -V/T= 2.0097
 <Sx>= 0.0000 <Sy>= 0.0000 <Sz>= 0.5000 <S**2>= 0.7733 S= 0.5116
 <L.S>= 0.000000000000E+00
 KE= 1.316085203813D+03 PE=-9.482160499144D+03 EE= 3.622301950405D+03
 Annihilation of the first spin contaminant:
 S**2 before annihilation     0.7733,   after     0.7504
 Leave Link  502 at Fri Dec 21 13:59:39 2018, MaxMem=  1342177280 cpu:            3463.9 elap:             220.9
 (Enter /gpfs/apps/hpc/Apps/Restricted/Gaussian/Rev_A.03/g16/l801.exe)
 DoSCS=F DFT=T ScalE2(SS,OS)=  1.000000  1.000000
 Range of M.O.s used for correlation:     1   665
 NBasis=   665 NAE=   117 NBE=   116 NFC=     0 NFV=     0
 NROrb=    665 NOA=   117 NOB=   116 NVA=   548 NVB=   549

 **** Warning!!: The smallest beta delta epsilon is  0.88997723D-01

 Leave Link  801 at Fri Dec 21 13:59:40 2018, MaxMem=  1342177280 cpu:               1.4 elap:               0.1
 (Enter /gpfs/apps/hpc/Apps/Restricted/Gaussian/Rev_A.03/g16/l1101.exe)
 Using compressed storage, NAtomX=    69.
[...]
 00000103,-0.00004121,-0.00000070,-0.00045995,-0.00008815,-0.00000501,0
 .00002098,-0.00010129,0.00015195,-0.00019205,0.00018058,-0.00005102,-0
 .00011209,0.00086564,0.00044766,0.00030650,0.00000925,-0.00004175,-0.0
 0002637,-0.00001947,0.00022244,-0.00021186,0.00006435,0.00019263,0.000
 40638,-0.10775343,-0.10119964,-0.00833365,0.11728831,0.10502063,0.0000
 3882,-0.00015123,-0.00000069,-0.00006910,-0.00017015,-0.00000159,-0.00
 002543,0.00013001,-0.00000613,-0.00015438,-0.00008356,-0.00000459,0.00
 013986,-0.00011291,0.00001363,0.00000512,0.00010458,-0.00000582,-0.000
 03220,0.00016756,0.00002226,0.00000739,-0.00000280,0.00000043,-0.00000
 073,-0.00000692,-0.00000020,-0.00000133,-0.00000596,0.00000042,0.00002
 316,0.00005125,0.00000515,-0.00033579,-0.00016937,0.00005557,-0.000040
 77,0.00007952,-0.00000743,0.00006473,-0.00047763,0.00000260,0.00048008
 ,0.00080446,0.00060599,-0.00204295,-0.00076168,0.00017210,-0.00034349,
 0.00280673,-0.00433925,-0.00001208,-0.00002849,-0.00002022,0.00000531,
 -0.00000095,-0.00027397,0.00000576,-0.00005523,-0.00006249,-0.02697845
 ,-0.01273783,-0.00547120,0.00019838,-0.00028544,-0.00003677,-0.0000954
 3,0.00001289,0.00000175,0.00005934,-0.00002117,0.00000307,-0.00000826,
 -0.00000455,0.00000037,-0.00006252,0.00001381,-0.00000492,0.00001448,-
 0.00002037,0.00000356,-0.00000599,0.00000488,-0.00001057,-0.00000504,0
 .00000721,0.00000717,-0.00000353,0.00000299,-0.00000057,0.00000101,-0.
 00000259,0.00000516,0.00000043,-0.00000060,0.00000041,0.00000094,0.000
 00025,0.00000037,0.00000066,-0.00000343,-0.00000390,0.00000075,-0.0000
 0047,-0.00000001,0.00000055,-0.00000004,-0.00000054,0.00000067,0.00000
 156,-0.00000034,-0.00000320,0.00000057,0.00000083,-0.00000016,0.000000
 41,-0.00000053,-0.00000301,0.00000033,-0.00000054,-0.00000019,0.000000
 48,0.00000038,-0.00000146,-0.00000001,0.00000010,0.00000013,-0.0000006
 0,0.00000008,-0.00001558,0.00008163,-0.00000749,0.00013441,0.00003965,
 0.00000317,-0.00003180,0.00007135,-0.00001836,0.00000310,-0.00000679,-
 0.00000127,-0.00000122,-0.00000775,0.00000140,-0.00003243,-0.00000558,
 -0.00000826,-0.00007597,0.00003206,0.00003844,-0.00000301,-0.00002824,
 0.00001508,-0.00001635,0.00001483,-0.00003397,0.00000010,-0.00000384,-
 0.00000952,-0.00001738,-0.00001371,-0.00007205,-0.00001908,0.00001249,
 0.00002383,0.00000758,-0.00001910,-0.00001134,-0.00000264,-0.00000444,
 0.00001041,-0.00067123,-0.00078042,0.00150684,0.00005982,-0.00006413,-
 0.00007389,0.00078604,0.00022484,-0.00024416,0.00008569,0.00017710,0.0
 0040825,-0.00006633,-0.00114828,0.00084960,0.00004132,0.00012382,-0.00
 002630,0.00029510,-0.00027063,0.00004482,0.00034742,0.00056914,0.00028
 825,-0.01457080,-0.00754812,-0.04515316,0.01969661,0.00679091,0.050264
 04,0.00000786,0.00004201,0.00000278,0.00002835,0.00001910,0.00000389,0
 .00001350,-0.00004818,0.00000276,0.00006012,0.00003415,0.00000153,-0.0
 0005233,0.00004644,-0.00000484,0.00000542,-0.00003852,0.00000168,-0.00
 004950,-0.00012870,-0.00001372,-0.00000284,0.00000155,-0.00000016,0.00
 000080,0.00000427,-0.00000016,0.00000081,0.00000310,-0.00000017,0.0000
 4370,0.00008516,-0.00000030,-0.00252556,0.00034445,-0.00097711,0.00009
 101,0.00002582,-0.00010169,0.00012660,-0.00012499,-0.00000582,0.000103
 64,0.00021266,-0.00001897,-0.00019429,-0.00003330,0.00002940,0.0005919
 6,0.00065560,0.00061947,0.00001946,-0.00000806,0.00002689,0.00009407,-
 0.00001785,-0.00000017,-0.00002591,-0.00002601,-0.00001662,-0.00338058
 ,0.01383971,-0.00052868,0.00078536,-0.00079615,0.00080353,0.00008698,0
 .00004116,0.00000407,-0.00002870,0.00001179,-0.00000122,0.00000454,0.0
 0000265,-0.00000059,0.00003640,-0.00000332,0.00000372,-0.00000912,0.00
 001110,-0.00000223,0.00000281,-0.00000300,0.00000495,0.00000264,-0.000
 00394,-0.00000407,0.00000164,-0.00000132,0.00000011,-0.00000089,0.0000
 0151,-0.00000251,-0.00000019,0.00000040,-0.00000020,-0.00000041,0.0000
 0007,0.00000037,-0.00000058,0.00000205,0.00000216,-0.00000034,0.000000
 34,0.00000004,-0.00000033,0.,0.00000037,-0.00000035,-0.00000113,-0.000
 00001,0.00000181,-0.00000029,-0.00000057,0.00000006,-0.00000019,0.0000
 0027,0.00000191,-0.00000005,0.00000055,0.00000006,-0.00000034,-0.00000
 032,0.00000123,-0.00000002,0.00000006,-0.00000013,0.00000047,0.,-0.000
 01976,-0.00019048,0.00000583,-0.00007724,-0.00002319,-0.00000410,0.000
 00199,-0.00002060,-0.00000059,-0.00000405,0.00000225,0.00000274,-0.000
 00191,0.00000227,-0.00000280,0.00000963,-0.00000230,0.00000181,0.00003
 555,0.00001012,-0.00002627,-0.00000459,-0.00000162,-0.00000151,0.00000
 066,-0.00001214,0.00001350,-0.00000095,0.00000154,0.00000327,0.0000324
 0,0.00000366,0.00003469,0.00000420,-0.00001185,-0.00001406,-0.00000325
 ,0.00000055,0.00000061,-0.00000094,0.00000244,-0.00000185,0.00013264,-
 0.00053897,0.00078509,0.00047919,-0.00017860,-0.00003601,0.00001773,-0
 .00006860,-0.00003653,-0.00013741,-0.00007188,0.00001295,-0.00100324,0
 .00007181,-0.00276351,0.00005018,-0.00038797,-0.00007614,0.00032732,0.
 00102506,-0.00034578,0.00030775,0.00022723,0.00005625,-0.05411434,0.03
 183246,-0.00015399,0.00527511,-0.02888191,0.00201542,0.05510802,-0.000
 00943,0.00001558,0.00001235,-0.00000062,0.00003487,0.00001988,0.000002
 34,-0.00002065,-0.00000103,0.00002246,0.00001167,-0.00000025,-0.000020
 90,0.00001539,-0.00000292,-0.00000272,-0.00001437,0.00000020,0.0000372
 0,-0.00004911,-0.00004173,-0.00000226,-0.00000023,0.00000069,0.0000000
 3,0.00000076,-0.00000038,0.00000014,0.00000060,-0.00000047,-0.00003866
 ,-0.00005606,-0.00002297,-0.00027518,-0.00005821,-0.00042170,0.0001582
 4,0.00014083,0.00050599,-0.00008663,0.00017010,-0.00009062,-0.00010842
 ,-0.00019960,0.00000232,0.00023918,-0.00003504,-0.00001282,-0.00031871
 ,-0.00013984,-0.00006497,0.00000192,0.00000953,-0.00006897,-0.00005757
 ,0.00000760,0.00000946,0.00000182,0.00000879,0.00000438,0.00053727,-0.
 00662647,-0.00020015,-0.00191325,-0.00335385,-0.00357266,0.00001207,0.
 00000151,-0.00000832,-0.00000679,0.00000136,0.00000141,0.00000073,0.00
 000044,0.00000006,0.00000507,-0.00000160,-0.00000084,-0.00000094,0.000
 00129,0.00000026,0.00000059,-0.00000039,0.00000119,0.00000049,-0.00000
 064,-0.00000054,0.00000035,-0.00000016,0.00000001,-0.00000005,-0.00000
 007,-0.00000041,-0.00000003,0.00000026,-0.00000004,-0.00000019,-0.0000
 0026,-0.00000029,0.,-0.00000003,0.00000035,-0.00000010,0.00000022,-0.0
 0000003,-0.00000002,-0.00000008,-0.00000006,-0.00000012,-0.00000014,0.
 00000021,0.00000034,-0.00000002,-0.00000018,-0.00000004,0.00000015,0.0
 0000004,0.00000019,-0.00000007,-0.00000004,0.,0.00000019,-0.00000003,0
 .,-0.00000003,-0.00000008,0.00000003,0.00000021,-0.00000006,0.00000627
 ,0.00004780,-0.00000661,-0.00001272,-0.00000361,0.00000149,0.00000290,
 -0.00000412,0.00000082,0.00000158,0.00000088,-0.00000076,0.00000086,0.
 00000166,0.00000226,0.00000200,0.00000153,0.00000143,-0.00000095,-0.00
 000725,-0.00000037,0.00000225,0.00000717,-0.00000301,0.00000335,0.0000
 0121,0.00000145,0.00000031,0.00000052,0.00000118,-0.00000707,-0.000002
 18,0.00000236,0.00000249,0.00000102,-0.00000003,0.00000025,0.00000493,
 0.00000266,0.00000128,0.00000086,-0.00000172,-0.00007996,0.00018970,-0
 .00047130,-0.00025446,0.00030329,0.00020917,0.00001030,0.00000736,0.00
 003923,0.00001616,0.00015334,0.00005478,0.00111021,0.00074346,0.002356
 28,-0.00005987,0.00013722,-0.00013345,0.00008814,-0.00054197,-0.000037
 54,0.00001419,0.00026914,-0.00011859,0.03442045,-0.32084088,0.02057049
 ,0.00210365,-0.01094171,0.00055270,-0.03581414,0.34764601,0.00001462,0
 .00002604,0.00000620,0.00002334,-0.00001148,0.00000949,0.00000898,-0.0
 0002649,0.00000167,0.00003647,0.00002169,0.00000039,-0.00003159,0.0000
 3000,-0.00000350,0.00000854,-0.00002420,0.00000178,-0.00009351,-0.0001
 0343,0.00000150,-0.00000260,0.00000079,0.00000160,0.00000061,0.0000031
 6,0.00000010,0.00000071,0.00000224,0.,0.00005956,0.00011453,-0.0000151
 9,-0.00220580,0.00120375,-0.00073718,0.00014956,-0.00014237,-0.0000411
 4,0.00015632,-0.00013723,-0.00001214,0.00018529,0.00026388,-0.00001541
 ,-0.00040108,0.00001503,0.00005741,0.00121022,-0.00017414,0.00100097,0
 .00002509,-0.00001793,0.00001769,0.00012747,-0.00002117,-0.00000933,-0
 .00002055,-0.00002335,-0.00002123,-0.00264788,0.02876052,-0.00216413,0
 .00142459,-0.00185752,-0.00057951,0.00007691,0.00003690,-0.00000004,-0
 .00002099,0.00001062,-0.00000043,0.00000345,0.00000188,-0.00000008,0.0
 0002707,-0.00000337,0.00000137,-0.00000655,0.00000862,-0.00000101,0.00
 000244,-0.00000186,0.00000431,0.00000212,-0.00000288,-0.00000271,0.000
 00128,-0.00000112,0.00000022,-0.00000044,0.00000109,-0.00000208,-0.000
 00012,0.00000025,-0.00000013,-0.00000039,-0.00000015,-0.00000010,-0.00
 000041,0.00000145,0.00000156,-0.00000032,0.00000016,0.00000004,-0.0000
 0022,0.00000005,0.,-0.00000022,-0.00000067,0.00000022,0.00000141,-0.00
 000020,-0.00000045,0.00000005,-0.00000020,0.00000025,0.00000125,-0.000
 00011,0.00000023,0.00000010,-0.00000023,-0.00000016,0.00000073,0.,-0.0
 0000009,-0.00000008,0.00000025,-0.00000003,-0.00003850,-0.00022388,0.0
 0002121,-0.00005671,-0.00001576,-0.00000046,-0.00000057,-0.00001256,0.
 00000143,-0.00000371,0.00000078,0.00000251,-0.00000182,0.00000167,-0.0
 0000281,0.00000537,-0.00000262,0.00000138,0.00002752,0.00001212,-0.000
 01726,-0.00000335,-0.00000527,0.00000013,-0.00000164,-0.00000968,0.000
 00872,-0.00000130,0.00000076,0.00000190,0.00002228,0.00000281,0.000026
 35,0.00000171,-0.00000927,-0.00000988,-0.00000183,-0.00000187,-0.00000
 277,-0.00000044,0.00000078,-0.00000059,-0.00008147,0.00051902,0.001728
 26,0.00047707,-0.00033943,-0.00019069,0.00002365,-0.00001079,-0.000076
 09,-0.00012374,-0.00017194,0.00018980,-0.00268673,0.00056300,-0.005349
 00,-0.00021830,0.00000746,0.00019918,-0.00052878,0.00204345,-0.0001355
 5,0.00012136,-0.00032896,-0.00005388,0.00001956,0.01561832,-0.04791513
 ,0.00042438,-0.00159953,-0.00083889,0.00301312,-0.01977599,0.05235454,
 -0.00000988,0.00003228,-0.00000072,0.00001521,0.00003332,-0.00000082,0
 .00000512,-0.00002867,0.00000116,0.00003523,0.00001836,0.00000082,-0.0
 0003177,0.00002571,-0.00000308,0.00000046,-0.00002398,0.00000096,-0.00
 000849,-0.00002710,-0.00000207,-0.00000156,-0.00000007,0.00000019,0.00
 000005,0.00000158,0.00000024,0.00000043,0.00000139,0.00000012,0.000000
 76,-0.00001404,0.00000139,-0.00022150,-0.00007627,0.00029747,0.0000335
 9,-0.00006402,-0.00001195,-0.00001428,0.00011753,-0.00001542,-0.000178
 01,-0.00016692,-0.00004728,0.00048903,0.00014623,0.00014064,0.00118625
 ,-0.00034432,-0.00054000,0.00000212,0.00000516,0.00000503,0.00000669,0
 .00000369,0.00000929,-0.00000455,-0.00000299,0.00000610,0.00711839,-0.
 00477610,-0.01125476,0.00001131,-0.00001241,0.00015992,0.00002358,-0.0
 0000661,-0.00000043,-0.00001520,0.00000525,-0.00000079,0.00000203,0.00
 000120,0.00000001,0.00001563,-0.00000343,0.00000086,-0.00000419,0.0000
 0495,-0.00000082,0.00000148,-0.00000128,0.00000294,0.00000122,-0.00000
 190,-0.00000176,0.00000081,-0.00000064,0.00000012,-0.00000043,0.000000
 70,-0.00000129,-0.00000008,0.00000020,-0.00000015,-0.00000045,-0.00000
 022,-0.00000024,-0.00000032,0.00000091,0.00000102,-0.00000019,0.000000
 14,0.00000004,-0.00000011,0.,-0.00000007,-0.00000019,-0.00000046,0.000
 00018,0.00000101,-0.00000009,-0.00000045,0.,-0.00000015,0.00000020,0.0
 0000080,-0.00000009,0.00000010,0.00000004,-0.00000011,-0.00000011,0.00
 000056,-0.00000003,-0.00000005,-0.00000006,0.00000020,-0.00000005,-0.0
 0000057,-0.00001616,-0.00000013,-0.00003264,-0.00000998,-0.00000058,0.
 00000554,-0.00001260,0.00000176,-0.00000056,0.00000167,-0.00000002,-0.
 00000019,0.00000124,-0.00000090,0.00000644,0.00000037,0.00000108,0.000
 01613,-0.00000385,-0.00001055,0.00000016,0.00000635,-0.00000317,0.0000
 0385,-0.00000357,0.00000732,-0.00000064,0.00000069,0.00000163,-0.00003
 947,0.00000522,-0.00007267,0.00000420,-0.00000330,-0.00000613,0.000050
 40,0.00001873,-0.00001905,0.00000747,-0.00000084,-0.00003170,-0.000653
 97,0.00068622,-0.00225184,-0.00016778,0.00002567,0.00002753,0.00023704
 ,0.00013925,-0.00015193,0.00074579,-0.00000619,-0.00062559,0.00041152,
 -0.00049515,-0.00012867,-0.00038171,0.00035567,0.00032513,0.00003806,-
 0.00024838,0.00000745,-0.00001448,0.00009497,0.00004395,-0.13810526,0.
 04903271,0.11743405,-0.01507389,0.01020780,0.02122909,-0.00225539,0.00
 026474,0.00149742,0.14673938,0.00000399,-0.00002721,0.00000447,-0.0000
 1893,-0.00001387,0.00000409,-0.00000313,0.00001540,-0.00000081,-0.0000
 2107,-0.00001103,-0.00000036,0.00001895,-0.00001607,0.00000167,-0.0000
 0115,0.00001483,-0.00000115,0.00001918,0.00001028,-0.00000933,0.000001
 18,-0.00000026,-0.00000032,-0.00000012,-0.00000111,-0.00000051,-0.0000
 0023,-0.00000093,-0.00000031,-0.00001714,-0.00002356,-0.00000572,0.000
 06155,-0.00045604,0.00020875,0.00002050,0.00005247,0.00011018,-0.00003
 730,0.00004472,-0.00002576,0.00002777,-0.00003317,0.00005130,-0.000140
 46,-0.00003567,-0.00002331,-0.00002179,0.00005586,-0.00035738,-0.00000
 743,0.00000131,-0.00001032,0.00001893,0.00001279,-0.00001158,0.0000055
 6,0.00001350,-0.00000748,-0.00484292,0.00070310,0.00583479,-0.00073921
 ,-0.00052522,-0.00057280,-0.00001909,0.00000573,-0.00000160,0.00000913
 ,-0.00000503,0.00000076,-0.00000142,-0.00000052,-0.00000032,-0.0000091
 7,0.00000357,0.00000015,0.00000178,-0.00000342,0.00000011,-0.00000145,
 0.00000027,-0.00000249,-0.00000095,0.00000104,0.00000075,-0.00000072,0
 .00000063,-0.00000032,-0.00000013,-0.00000032,0.00000103,0.00000008,-0
 .00000002,0.00000008,0.00000035,0.00000026,0.00000063,0.,-0.00000032,-
 0.00000056,0.00000020,0.00000002,0.00000004,0.00000004,-0.00000002,0.0
 0000019,0.00000007,0.00000002,-0.00000031,-0.00000055,0.00000005,0.000
 00017,-0.00000007,0.00000015,-0.00000016,-0.00000021,0.00000016,0.0000
 0018,-0.00000009,0.,-0.00000005,0.00000007,-0.00000002,0.00000015,0.,0
 .00000002,0.00000008,0.00001204,0.00005751,-0.00000501,0.00001820,0.00
 000407,-0.00000085,0.00000067,0.00000807,-0.00000217,-0.00000022,-0.00
 000202,0.00000032,0.00000007,-0.00000110,0.00000049,-0.00000305,-0.000
 00016,-0.00000038,-0.00001317,0.00000229,0.00000801,-0.00000055,-0.000
 00174,0.00000072,-0.00000049,0.00000337,-0.00000492,-0.00000008,-0.000
 00096,-0.00000095,-0.00000440,0.00000218,-0.00000842,-0.00000105,0.000
 00267,0.00000617,0.00000428,-0.00000909,0.00002565,-0.00001395,-0.0000
 0129,0.00000137,0.00055122,-0.00007000,0.00167308,-0.00010829,0.000134
 75,0.00012598,0.00025555,-0.00003915,-0.00013831,-0.00013079,0.0004746
 4,0.00043979,-0.00062221,0.00057444,0.00102402,0.00061976,-0.00045856,
 -0.00030544,-0.00012216,0.00010556,-0.00016113,-0.00004781,-0.00002359
 ,0.00000430,0.04937937,-0.07611568,-0.06485543,-0.00806399,0.00474133,
 0.01212500,0.01887461,-0.00703977,-0.02421542,-0.05488815,0.07786986,-
 0.00000575,-0.00001651,-0.00000204,-0.00000566,-0.00001156,-0.00000623
 ,-0.00000362,0.00001709,0.,-0.00001994,-0.00001167,0.00000010,0.000017
 47,-0.00001614,0.00000226,-0.00000283,0.00001295,-0.00000033,-0.000009
 57,0.00005251,-0.00001182,0.00000118,-0.00000011,-0.00000087,-0.000000
 16,-0.00000107,-0.00000008,-0.00000014,-0.00000111,-0.00000026,-0.0000
 0839,-0.00001860,0.00001521,0.00036394,-0.00012920,-0.00007205,-0.0000
 0370,-0.00008661,-0.00001681,-0.00000191,-0.00002676,0.00000398,0.0000
 2992,0.00010474,-0.00009509,-0.00050525,0.00005598,-0.00013784,0.00210
 042,0.00043156,0.00036723,-0.00000807,-0.00000193,0.00000600,-0.000012
 52,0.00001355,0.00003002,0.00000227,-0.00001219,0.00001448,0.01545029,
 -0.00876554,-0.02088784,-0.00035336,-0.00013299,-0.00001321,-0.0000309
 5,-0.00002311,0.00000455,0.00001205,-0.00000599,0.00000004,-0.00000146
 ,-0.00000083,-0.00000023,-0.00001268,0.00000416,0.00000055,0.00000311,
 -0.00000532,0.00000023,-0.00000162,0.00000058,-0.00000295,-0.00000121,
 0.00000152,0.00000093,-0.00000081,0.00000095,-0.00000044,0.00000012,-0
 .00000094,0.00000131,0.00000010,0.00000021,0.00000016,0.00000060,0.000
 00017,0.00000081,0.00000018,-0.00000080,-0.00000071,0.00000026,0.00000
 015,0.00000003,0.00000004,-0.00000009,0.00000032,0.00000007,0.00000017
 ,-0.00000043,-0.00000077,0.00000006,0.00000032,-0.00000012,0.00000046,
 -0.00000028,-0.00000038,0.00000023,0.00000018,-0.00000012,0.00000018,-
 0.00000010,-0.00000022,-0.00000003,0.00000018,0.00000006,0.00000012,0.
 00000012,0.00001182,0.00005248,-0.00000873,0.00002694,0.00000627,-0.00
 000154,-0.00000702,0.00001632,0.00000361,-0.00000042,-0.00000283,-0.00
 000003,0.00000192,0.00000017,0.00000222,-0.00000679,-0.00000130,-0.000
 00087,-0.00000974,-0.00000345,0.00001244,0.00000370,-0.00000364,0.0000
 0090,-0.00000300,0.00000433,-0.00000530,0.00000183,0.00000069,0.000001
 35,-0.00000165,0.00000381,0.00001329,-0.00000110,0.00000462,0.00001025
 ,0.00003295,-0.00002866,0.00007867,-0.00008154,-0.00000210,-0.00003659
 ,-0.00416300,0.00197781,-0.00468867,-0.00010825,-0.00001151,0.00025183
 ,-0.00004898,0.00017038,0.00034161,0.00121918,-0.00045742,-0.00163897,
 0.00078639,-0.00147744,0.00074599,-0.00017407,0.00039032,0.00013100,-0
 .00026387,-0.00008282,0.00029344,-0.00002308,0.00011605,-0.00002105,0.
 11591520,-0.06331792,-0.19771331,-0.00176769,0.00143385,0.00239538,-0.
 00231061,0.00070684,0.00255667,-0.12601999,0.06907691,0.21807699\\-0.0
 0000203,-0.00000052,0.00000655,-0.00000110,-0.00000021,0.00000987,-0.0
 0000297,-0.00000018,0.00001303,-0.00000251,-0.00000159,0.00001291,-0.0
 0000333,0.00000008,0.00000968,-0.00000083,0.00000009,0.00000663,0.0000
 0048,-0.00000078,0.00000527,-0.00000216,-0.00000136,0.00001547,-0.0000
 0360,-0.00000023,0.00001531,-0.00000281,0.00000036,0.00000983,-0.00000
 101,-0.00000139,0.00000873,-0.00000067,-0.00000090,0.00000474,0.000000
 19,-0.00000072,0.00000319,0.00000115,0.00000027,-0.00000057,0.00000098
 ,-0.00000141,-0.00000241,0.00000179,-0.00000057,-0.00000082,0.00000139
 ,-0.00000081,0.00000256,0.00000056,-0.00000040,-0.00000173,0.00000187,
 -0.00000114,-0.00000260,0.00000186,0.00000001,-0.00000668,0.00000049,-
 0.00000211,0.00000476,0.00000037,-0.00000188,0.00000823,-0.00000097,-0
 .00000067,0.00000383,-0.00000204,0.00000067,0.00000289,-0.00000201,0.0
 0000098,0.00000285,-0.00000140,0.00000080,0.00000045,-0.00000054,0.000
 00108,-0.00000301,-0.00000388,0.00000404,-0.00000464,0.00000139,0.0000
 0028,-0.00000391,0.00000005,0.00000119,-0.00000496,-0.00000374,0.00000
 432,-0.00000818,-0.00000455,0.00000367,-0.00000216,-0.00000507,0.00000
 478,-0.00000351,0.00000112,0.00000019,-0.00000706,0.00000055,-0.000000
 41,-0.00000212,0.00000345,-0.00000198,-0.00000329,-0.00000090,0.000002
 69,-0.00000884,-0.00000576,0.00000617,-0.00000826,-0.00000285,0.000004
 36,-0.00000959,0.00000286,-0.00000065,-0.00000820,0.00000244,0.0000005
 0,-0.00000951,-0.00000170,0.00000359,-0.00001129,-0.00000229,0.0000032
 3,-0.00000696,-0.00000140,-0.00000145,0.00001009,-0.00000065,0.0000000
 1,0.00000136,0.00000264,0.00000003,-0.00000850,-0.00000003,0.00000121,
 -0.00000704,0.00000369,-0.00000128,-0.00000650,0.00000271,0.00000021,-
 0.00001075,0.00000504,-0.00000164,-0.00000702,0.00000503,-0.00000278,-
 0.00000675,0.00000563,-0.00000218,-0.00001042,0.00000686,-0.00000411,-
 0.00000703,0.,0.00000159,-0.00000854,0.00000017,0.00000221,-0.00001105
 ,-0.00000005,0.00000177,-0.00000736,-0.00000225,0.00000324,-0.00000732
 ,0.00000306,-0.00000346,0.00000700,0.00000259,-0.00000408,0.00000911,0
 .00000311,-0.00000410,0.00000799,0.00000523,-0.00000516,0.00000560,0.0
 0000209,-0.00000138,0.00000130,0.00000002,0.00000001,-0.00000011,0.000
 00371,-0.00000288,0.00000012,0.00000131,-0.00000186,0.00000299,-0.0000
 0219,0.00000020,0.00000602,-0.00000213,-0.00000002,0.00000762,-0.00000
 281,0.00000063,0.00000831,-0.00000366,0.00000186,0.00000443\\\@


 This summer one third of the nation will be ill-housed
 ill-nourished and ill-clad. Only they call it a vacation.
 -- Jonas Salk
 Job cpu time:       0 days 15 hours  7 minutes 40.3 seconds.
 Elapsed time:       0 days  0 hours 56 minutes 58.1 seconds.
 File lengths (MBytes):  RWF=   6148 Int=      0 D2E=      0 Chk=     84 Scr=      8
 Normal termination of Gaussian 16 at Fri Dec 21 15:50:50 2018.
