 Entering Gaussian System, Link 0=g16
 Initial command:
 /gpfs/apps/hpc/Apps/Restricted/Gaussian/Rev_A.03/g16/l1.exe "/gpfs/scratch60/fas/hammes_schiffer/jg2487/c23n09/Gau-6716.inp" -scrdir="/gpfs/scratch60/fas/hammes_schiffer/jg2487/c23n09/"
 Entering Link 1 = /gpfs/apps/hpc/Apps/Restricted/Gaussian/Rev_A.03/g16/l1.exe PID=      6717.
  
 Copyright (c) 1988,1990,1992,1993,1995,1998,2003,2009,2016,
            Gaussian, Inc.  All Rights Reserved.
  
 This is part of the Gaussian(R) 16 program.  It is based on
 the Gaussian(R) 09 system (copyright 2009, Gaussian, Inc.),
 the Gaussian(R) 03 system (copyright 2003, Gaussian, Inc.),
 the Gaussian(R) 98 system (copyright 1998, Gaussian, Inc.),
 the Gaussian(R) 94 system (copyright 1995, Gaussian, Inc.),
 the Gaussian 92(TM) system (copyright 1992, Gaussian, Inc.),
 the Gaussian 90(TM) system (copyright 1990, Gaussian, Inc.),
 the Gaussian 88(TM) system (copyright 1988, Gaussian, Inc.),
 the Gaussian 86(TM) system (copyright 1986, Carnegie Mellon
 University), and the Gaussian 82(TM) system (copyright 1983,
 Carnegie Mellon University). Gaussian is a federally registered
 trademark of Gaussian, Inc.
  
 This software contains proprietary and confidential information,
 including trade secrets, belonging to Gaussian, Inc.
  
 This software is provided under written license and may be
 used, copied, transmitted, or stored only in accord with that
 written license.
  
 The following legend is applicable only to US Government
 contracts under FAR:
  
                    RESTRICTED RIGHTS LEGEND
  
 Use, reproduction and disclosure by the US Government is
 subject to restrictions as set forth in subparagraphs (a)
 and (c) of the Commercial Computer Software - Restricted
 Rights clause in FAR 52.227-19.
  
 Gaussian, Inc.
 340 Quinnipiac St., Bldg. 40, Wallingford CT 06492
  
  
 ---------------------------------------------------------------
 Warning -- This program may not be used in any manner that
 competes with the business of Gaussian, Inc. or will provide
 assistance to any competitor of Gaussian, Inc.  The licensee
 of this program is prohibited from giving any competitor of
 Gaussian, Inc. access to this program.  By using this program,
 the user acknowledges that Gaussian, Inc. is engaged in the
 business of creating and licensing software in the field of
 computational chemistry and represents and warrants to the
 licensee that it is not a competitor of Gaussian, Inc. and that
 it will not use this program in any manner prohibited above.
 ---------------------------------------------------------------
  

 Cite this work as:
 Gaussian 16, Revision A.03,
 M. J. Frisch, G. W. Trucks, H. B. Schlegel, G. E. Scuseria, 
 M. A. Robb, J. R. Cheeseman, G. Scalmani, V. Barone, 
 G. A. Petersson, H. Nakatsuji, X. Li, M. Caricato, A. V. Marenich, 
 J. Bloino, B. G. Janesko, R. Gomperts, B. Mennucci, H. P. Hratchian, 
 J. V. Ortiz, A. F. Izmaylov, J. L. Sonnenberg, D. Williams-Young, 
 F. Ding, F. Lipparini, F. Egidi, J. Goings, B. Peng, A. Petrone, 
 T. Henderson, D. Ranasinghe, V. G. Zakrzewski, J. Gao, N. Rega, 
 G. Zheng, W. Liang, M. Hada, M. Ehara, K. Toyota, R. Fukuda, 
 J. Hasegawa, M. Ishida, T. Nakajima, Y. Honda, O. Kitao, H. Nakai, 
 T. Vreven, K. Throssell, J. A. Montgomery, Jr., J. E. Peralta, 
 F. Ogliaro, M. J. Bearpark, J. J. Heyd, E. N. Brothers, K. N. Kudin, 
 V. N. Staroverov, T. A. Keith, R. Kobayashi, J. Normand, 
 K. Raghavachari, A. P. Rendell, J. C. Burant, S. S. Iyengar, 
 J. Tomasi, M. Cossi, J. M. Millam, M. Klene, C. Adamo, R. Cammi, 
 J. W. Ochterski, R. L. Martin, K. Morokuma, O. Farkas, 
 J. B. Foresman, and D. J. Fox, Gaussian, Inc., Wallingford CT, 2016.
 
 ******************************************
 Gaussian 16:  ES64L-G16RevA.03 25-Dec-2016
                14-Dec-2018 
 ******************************************
 %chk=cyclohexyl-diBIP-E2PT.chk
 %mem=10GB
 %nprocshared=16
 Will use up to   16 processors via shared memory.
 ----------------------------------------------------------------------
 #p opt=tight freq=internalmodes b3lyp/6-31g(d,p) scrf=(cpcm,solvent=di
 chloromethane,read) nosymm empiricaldispersion=gd3bj int=grid=ultrafin
 e
 ----------------------------------------------------------------------
 1/7=10,18=20,19=15,26=6,38=1,40=2/1,3;
 2/9=110,12=2,15=1,17=6,18=5,40=1/2;
 3/5=1,6=6,7=101,11=2,25=1,30=1,70=2103,71=1,72=9,74=-5,75=-5,124=41/1,2,3;
 4//1;
 5/5=2,38=5,53=9/2;
 6/7=2,8=2,9=2,10=2,28=1/1;
 7/30=1/1,2,3,16;
 1/7=10,18=20,19=15,26=6/3(2);
 2/9=110,15=1/2;
 99//99;
 2/9=110,15=1/2;
 3/5=1,6=6,7=101,11=2,25=1,30=1,70=2105,71=1,72=9,74=-5,75=-5,124=41/1,2,3;
 4/5=5,16=3,69=1/1;
 5/5=2,38=5,53=9/2;
 7/30=1/1,2,3,16;
 1/7=10,18=20,19=15,26=6/3(-5);
 2/9=110,15=1/2;
 6/7=2,8=2,9=2,10=2,19=2,28=1/1;
 99/9=1/99;
 Leave Link    1 at Fri Dec 14 11:54:13 2018, MaxMem=  1342177280 cpu:               8.2 elap:               0.5
 (Enter /gpfs/apps/hpc/Apps/Restricted/Gaussian/Rev_A.03/g16/l101.exe)
 ----------------------------------------------------------------------
 cyclohexylimine diBIP oxidized, first and second proton transferred, o
 ptimization
 ----------------------------------------------------------------------
 Symbolic Z-matrix:
 Charge =  1 Multiplicity = 2
 C                     1.53641   1.14546   0.16109 
 C                     0.32049   1.84478   0.13093 
 C                     0.28354   3.23609   0.03512 
 C                     1.5123    3.88831  -0.03626 
 C                     2.72964   3.18533  -0.01175 
 C                     2.77775   1.79106   0.08759 
 C                    -0.11352  -0.34855   0.26909 
 H                    -0.65335   3.77663   0.01343 
 H                     1.53222   4.96826  -0.11264 
 H                     3.66155   3.73567  -0.07265 
 C                    -2.2923   -1.49242   0.28384 
 C                    -3.0649   -2.68059   0.32755 
 C                    -2.48241  -3.94135   0.44334 
 C                    -1.08937  -3.99243   0.50891 
 C                    -0.30037  -2.83431   0.45627 
 C                    -0.8811   -1.56569   0.34158 
 C                    -4.35446  -0.88368   0.14284 
 H                    -3.08158  -4.84232   0.47889 
 H                    -0.60019  -4.95396   0.60057 
 H                     0.77715  -2.92939   0.51025 
 N                    -0.67063   0.8781    0.20307 
 C                    -6.8702   -0.74412  -0.09185 
 C                    -5.56042  -0.08951   0.00754 
 C                    -5.47572   1.29007  -0.03993 
 C                    -6.62197   2.09323  -0.19766 
 C                    -7.88798   1.47423  -0.31461 
 C                    -8.04513   0.10778  -0.25993 
 H                    -4.50229   1.75954   0.04308 
 H                    -8.76215   2.10386  -0.43947 
 C                    -6.49194   3.58467  -0.24925 
 H                    -5.90566   3.95253   0.59771 
 H                    -5.96207   3.89029  -1.15801 
 H                    -7.46807   4.07047  -0.24091 
 C                    -9.38269  -0.55322  -0.35647 
 H                    -9.40312  -1.27534  -1.17751 
 H                    -9.6023   -1.11537   0.55654 
 H                    -10.1694   0.18594  -0.50868 
 O                    -7.00057  -1.99477  -0.03518 
 N                    -3.10832  -0.39351   0.17511 
 N                    -4.36589  -2.24745   0.23504 
 N                     1.22676  -0.19832   0.24893 
 H                     1.96174  -0.90226   0.26737 
 C                     4.0317    1.04112   0.10375 
 H                     4.94441   1.63949   0.02363 
 N                     4.0425   -0.23678   0.19699 
 C                     5.35629  -0.90392   0.17585 
 C                     6.0713   -0.6904   -1.16909 
 C                     6.25506  -0.46855   1.34555 
 H                     5.15848  -1.97555   0.28738 
 C                     7.42422  -1.40849  -1.20407 
 H                     6.22486   0.38622  -1.31085 
 H                     5.42636  -1.03406  -1.98371 
 C                     7.60629  -1.19088   1.30596 
 H                     6.42039   0.61297   1.28057 
 H                     5.74012  -0.66082   2.29172 
 C                     8.31663  -0.97769  -0.03523 
 H                     7.92069  -1.20996  -2.15917 
 H                     7.26038  -2.49186  -1.14998 
 H                     8.23309  -0.84226   2.13272 
 H                     7.44608  -2.26533   1.46129 
 H                     9.26085  -1.53032  -0.05614 
 H                     8.566     0.08519  -0.14614 
 H                    -5.23972  -2.7666    0.20563 
 H                    -1.69004   0.98008   0.18901 
 
 ITRead=  0  0  0  0  0  0  0  0  0  0  0  0  0  0  0  0  0  0  0  0
 ITRead=  0  0  0  0  0  0  0  0  0  0  0  0  0  0  0  0  0  0  0  0
 ITRead=  0  0  0  0  0  0  0  0  0  0  0  0  0  0  0  0  0  0  0  0
 ITRead=  0  0  0  0
 MicOpt= -1 -1 -1 -1 -1 -1 -1 -1 -1 -1 -1 -1 -1 -1 -1 -1 -1 -1 -1 -1
 MicOpt= -1 -1 -1 -1 -1 -1 -1 -1 -1 -1 -1 -1 -1 -1 -1 -1 -1 -1 -1 -1
 MicOpt= -1 -1 -1 -1 -1 -1 -1 -1 -1 -1 -1 -1 -1 -1 -1 -1 -1 -1 -1 -1
 MicOpt= -1 -1 -1 -1
 NAtoms=     64 NQM=       64 NQMF=       0 NMMI=      0 NMMIF=      0
                NMic=       0 NMicF=      0.
                    Isotopes and Nuclear Properties:
 (Nuclear quadrupole moments (NQMom) in fm**2, nuclear magnetic moments (NMagM)
  in nuclear magnetons)

  Atom         1           2           3           4           5           6           7           8           9          10
 IAtWgt=          12          12          12          12          12          12          12           1           1           1
 AtmWgt=  12.0000000  12.0000000  12.0000000  12.0000000  12.0000000  12.0000000  12.0000000   1.0078250   1.0078250   1.0078250
 NucSpn=           0           0           0           0           0           0           0           1           1           1
 AtZEff=  -0.0000000  -0.0000000  -0.0000000  -0.0000000  -0.0000000  -0.0000000  -0.0000000  -0.0000000  -0.0000000  -0.0000000
 NQMom=    0.0000000   0.0000000   0.0000000   0.0000000   0.0000000   0.0000000   0.0000000   0.0000000   0.0000000   0.0000000
 NMagM=    0.0000000   0.0000000   0.0000000   0.0000000   0.0000000   0.0000000   0.0000000   2.7928460   2.7928460   2.7928460
 AtZNuc=   6.0000000   6.0000000   6.0000000   6.0000000   6.0000000   6.0000000   6.0000000   1.0000000   1.0000000   1.0000000

  Atom        11          12          13          14          15          16          17          18          19          20
 IAtWgt=          12          12          12          12          12          12          12           1           1           1
 AtmWgt=  12.0000000  12.0000000  12.0000000  12.0000000  12.0000000  12.0000000  12.0000000   1.0078250   1.0078250   1.0078250
 NucSpn=           0           0           0           0           0           0           0           1           1           1
 AtZEff=  -0.0000000  -0.0000000  -0.0000000  -0.0000000  -0.0000000  -0.0000000  -0.0000000  -0.0000000  -0.0000000  -0.0000000
 NQMom=    0.0000000   0.0000000   0.0000000   0.0000000   0.0000000   0.0000000   0.0000000   0.0000000   0.0000000   0.0000000
 NMagM=    0.0000000   0.0000000   0.0000000   0.0000000   0.0000000   0.0000000   0.0000000   2.7928460   2.7928460   2.7928460
 AtZNuc=   6.0000000   6.0000000   6.0000000   6.0000000   6.0000000   6.0000000   6.0000000   1.0000000   1.0000000   1.0000000

  Atom        21          22          23          24          25          26          27          28          29          30
 IAtWgt=          14          12          12          12          12          12          12           1           1          12
 AtmWgt=  14.0030740  12.0000000  12.0000000  12.0000000  12.0000000  12.0000000  12.0000000   1.0078250   1.0078250  12.0000000
 NucSpn=           2           0           0           0           0           0           0           1           1           0
 AtZEff=  -0.0000000  -0.0000000  -0.0000000  -0.0000000  -0.0000000  -0.0000000  -0.0000000  -0.0000000  -0.0000000  -0.0000000
 NQMom=    2.0440000   0.0000000   0.0000000   0.0000000   0.0000000   0.0000000   0.0000000   0.0000000   0.0000000   0.0000000
 NMagM=    0.4037610   0.0000000   0.0000000   0.0000000   0.0000000   0.0000000   0.0000000   2.7928460   2.7928460   0.0000000
 AtZNuc=   7.0000000   6.0000000   6.0000000   6.0000000   6.0000000   6.0000000   6.0000000   1.0000000   1.0000000   6.0000000

  Atom        31          32          33          34          35          36          37          38          39          40
 IAtWgt=           1           1           1          12           1           1           1          16          14          14
 AtmWgt=   1.0078250   1.0078250   1.0078250  12.0000000   1.0078250   1.0078250   1.0078250  15.9949146  14.0030740  14.0030740
 NucSpn=           1           1           1           0           1           1           1           0           2           2
 AtZEff=  -0.0000000  -0.0000000  -0.0000000  -0.0000000  -0.0000000  -0.0000000  -0.0000000  -0.0000000  -0.0000000  -0.0000000
 NQMom=    0.0000000   0.0000000   0.0000000   0.0000000   0.0000000   0.0000000   0.0000000   0.0000000   2.0440000   2.0440000
 NMagM=    2.7928460   2.7928460   2.7928460   0.0000000   2.7928460   2.7928460   2.7928460   0.0000000   0.4037610   0.4037610
 AtZNuc=   1.0000000   1.0000000   1.0000000   6.0000000   1.0000000   1.0000000   1.0000000   8.0000000   7.0000000   7.0000000

  Atom        41          42          43          44          45          46          47          48          49          50
 IAtWgt=          14           1          12           1          14          12          12          12           1          12
 AtmWgt=  14.0030740   1.0078250  12.0000000   1.0078250  14.0030740  12.0000000  12.0000000  12.0000000   1.0078250  12.0000000
 NucSpn=           2           1           0           1           2           0           0           0           1           0
 AtZEff=  -0.0000000  -0.0000000  -0.0000000  -0.0000000  -0.0000000  -0.0000000  -0.0000000  -0.0000000  -0.0000000  -0.0000000
 NQMom=    2.0440000   0.0000000   0.0000000   0.0000000   2.0440000   0.0000000   0.0000000   0.0000000   0.0000000   0.0000000
 NMagM=    0.4037610   2.7928460   0.0000000   2.7928460   0.4037610   0.0000000   0.0000000   0.0000000   2.7928460   0.0000000
 AtZNuc=   7.0000000   1.0000000   6.0000000   1.0000000   7.0000000   6.0000000   6.0000000   6.0000000   1.0000000   6.0000000

  Atom        51          52          53          54          55          56          57          58          59          60
 IAtWgt=           1           1          12           1           1          12           1           1           1           1
 AtmWgt=   1.0078250   1.0078250  12.0000000   1.0078250   1.0078250  12.0000000   1.0078250   1.0078250   1.0078250   1.0078250
 NucSpn=           1           1           0           1           1           0           1           1           1           1
 AtZEff=  -0.0000000  -0.0000000  -0.0000000  -0.0000000  -0.0000000  -0.0000000  -0.0000000  -0.0000000  -0.0000000  -0.0000000
 NQMom=    0.0000000   0.0000000   0.0000000   0.0000000   0.0000000   0.0000000   0.0000000   0.0000000   0.0000000   0.0000000
 NMagM=    2.7928460   2.7928460   0.0000000   2.7928460   2.7928460   0.0000000   2.7928460   2.7928460   2.7928460   2.7928460
 AtZNuc=   1.0000000   1.0000000   6.0000000   1.0000000   1.0000000   6.0000000   1.0000000   1.0000000   1.0000000   1.0000000

  Atom        61          62          63          64
 IAtWgt=           1           1           1           1
 AtmWgt=   1.0078250   1.0078250   1.0078250   1.0078250
 NucSpn=           1           1           1           1
 AtZEff=  -0.0000000  -0.0000000  -0.0000000  -0.0000000
 NQMom=    0.0000000   0.0000000   0.0000000   0.0000000
 NMagM=    2.7928460   2.7928460   2.7928460   2.7928460
 AtZNuc=   1.0000000   1.0000000   1.0000000   1.0000000
 Leave Link  101 at Fri Dec 14 11:54:13 2018, MaxMem=  1342177280 cpu:               5.1 elap:               0.4
 (Enter /gpfs/apps/hpc/Apps/Restricted/Gaussian/Rev_A.03/g16/l103.exe)

 GradGradGradGradGradGradGradGradGradGradGradGradGradGradGradGradGradGrad
 Berny optimization.
 Initialization pass.
                           ----------------------------
                           !    Initial Parameters    !
                           ! (Angstroms and Degrees)  !
 --------------------------                            --------------------------
 ! Name  Definition              Value          Derivative Info.                !
 --------------------------------------------------------------------------------
 ! R1    R(1,2)                  1.403          estimate D2E/DX2                !
 ! R2    R(1,6)                  1.4011         estimate D2E/DX2                !
 ! R3    R(1,41)                 1.3818         estimate D2E/DX2                !
 ! R4    R(2,3)                  1.3951         estimate D2E/DX2                !
 ! R5    R(2,21)                 1.3864         estimate D2E/DX2                !
 ! R6    R(3,4)                  1.393          estimate D2E/DX2                !
 ! R7    R(3,8)                  1.0819         estimate D2E/DX2                !
 ! R8    R(4,5)                  1.4059         estimate D2E/DX2                !
 ! R9    R(4,9)                  1.0828         estimate D2E/DX2                !
 ! R10   R(5,6)                  1.3986         estimate D2E/DX2                !
 ! R11   R(5,10)                 1.084          estimate D2E/DX2                !
 ! R12   R(6,43)                 1.4612         estimate D2E/DX2                !
 ! R13   R(7,16)                 1.4408         estimate D2E/DX2                !
 ! R14   R(7,21)                 1.3488         estimate D2E/DX2                !
 ! R15   R(7,41)                 1.3488         estimate D2E/DX2                !
 ! R16   R(11,12)                1.4179         estimate D2E/DX2                !
 ! R17   R(11,16)                1.4143         estimate D2E/DX2                !
 ! R18   R(11,39)                1.3731         estimate D2E/DX2                !
 ! R19   R(12,13)                1.3936         estimate D2E/DX2                !
 ! R20   R(12,40)                1.3743         estimate D2E/DX2                !
 ! R21   R(13,14)                1.3955         estimate D2E/DX2                !
 ! R22   R(13,18)                1.0826         estimate D2E/DX2                !
 ! R23   R(14,15)                1.4023         estimate D2E/DX2                !
 ! R24   R(14,19)                1.0827         estimate D2E/DX2                !
 ! R25   R(15,16)                1.3999         estimate D2E/DX2                !
 ! R26   R(15,20)                1.083          estimate D2E/DX2                !
 ! R27   R(17,23)                1.4503         estimate D2E/DX2                !
 ! R28   R(17,39)                1.3395         estimate D2E/DX2                !
 ! R29   R(17,40)                1.3669         estimate D2E/DX2                !
 ! R30   R(21,64)                1.0246         estimate D2E/DX2                !
 ! R31   R(22,23)                1.4676         estimate D2E/DX2                !
 ! R32   R(22,27)                1.461          estimate D2E/DX2                !
 ! R33   R(22,38)                1.2587         estimate D2E/DX2                !
 ! R34   R(23,24)                1.383          estimate D2E/DX2                !
 ! R35   R(24,25)                1.4085         estimate D2E/DX2                !
 ! R36   R(24,28)                1.0839         estimate D2E/DX2                !
 ! R37   R(25,26)                1.4141         estimate D2E/DX2                !
 ! R38   R(25,30)                1.498          estimate D2E/DX2                !
 ! R39   R(26,27)                1.3765         estimate D2E/DX2                !
 ! R40   R(26,29)                1.0845         estimate D2E/DX2                !
 ! R41   R(27,34)                1.4951         estimate D2E/DX2                !
 ! R42   R(30,31)                1.0938         estimate D2E/DX2                !
 ! R43   R(30,32)                1.0954         estimate D2E/DX2                !
 ! R44   R(30,33)                1.0904         estimate D2E/DX2                !
 ! R45   R(34,35)                1.0936         estimate D2E/DX2                !
 ! R46   R(34,36)                1.0944         estimate D2E/DX2                !
 ! R47   R(34,37)                1.0902         estimate D2E/DX2                !
 ! R48   R(40,63)                1.0168         estimate D2E/DX2                !
 ! R49   R(41,42)                1.0179         estimate D2E/DX2                !
 ! R50   R(43,44)                1.0943         estimate D2E/DX2                !
 ! R51   R(43,45)                1.2813         estimate D2E/DX2                !
 ! R52   R(45,46)                1.4736         estimate D2E/DX2                !
 ! R53   R(46,47)                1.5381         estimate D2E/DX2                !
 ! R54   R(46,48)                1.538          estimate D2E/DX2                !
 ! R55   R(46,49)                1.0954         estimate D2E/DX2                !
 ! R56   R(47,50)                1.5321         estimate D2E/DX2                !
 ! R57   R(47,51)                1.0967         estimate D2E/DX2                !
 ! R58   R(47,52)                1.0944         estimate D2E/DX2                !
 ! R59   R(48,53)                1.5327         estimate D2E/DX2                !
 ! R60   R(48,54)                1.096          estimate D2E/DX2                !
 ! R61   R(48,55)                1.0942         estimate D2E/DX2                !
 ! R62   R(50,56)                1.5324         estimate D2E/DX2                !
 ! R63   R(50,57)                1.0946         estimate D2E/DX2                !
 ! R64   R(50,58)                1.097          estimate D2E/DX2                !
 ! R65   R(53,56)                1.5326         estimate D2E/DX2                !
 ! R66   R(53,59)                1.0945         estimate D2E/DX2                !
 ! R67   R(53,60)                1.0974         estimate D2E/DX2                !
 ! R68   R(56,61)                1.0943         estimate D2E/DX2                !
 ! R69   R(56,62)                1.0974         estimate D2E/DX2                !
 ! A1    A(2,1,6)              122.4817         estimate D2E/DX2                !
 ! A2    A(2,1,41)             106.971          estimate D2E/DX2                !
 ! A3    A(6,1,41)             130.5395         estimate D2E/DX2                !
 ! A4    A(1,2,3)              121.4345         estimate D2E/DX2                !
 ! A5    A(1,2,21)             105.7181         estimate D2E/DX2                !
 ! A6    A(3,2,21)             132.8457         estimate D2E/DX2                !
 ! A7    A(2,3,4)              116.5584         estimate D2E/DX2                !
 ! A8    A(2,3,8)              121.5073         estimate D2E/DX2                !
 ! A9    A(4,3,8)              121.9338         estimate D2E/DX2                !
 ! A10   A(3,4,5)              121.9227         estimate D2E/DX2                !
 ! A11   A(3,4,9)              119.1319         estimate D2E/DX2                !
 ! A12   A(5,4,9)              118.9454         estimate D2E/DX2                !
 ! A13   A(4,5,6)              121.9696         estimate D2E/DX2                !
 ! A14   A(4,5,10)             119.3102         estimate D2E/DX2                !
 ! A15   A(6,5,10)             118.7202         estimate D2E/DX2                !
 ! A16   A(1,6,5)              115.6317         estimate D2E/DX2                !
 ! A17   A(1,6,43)             121.5503         estimate D2E/DX2                !
 ! A18   A(5,6,43)             122.8162         estimate D2E/DX2                !
 ! A19   A(16,7,21)            123.4125         estimate D2E/DX2                !
 ! A20   A(16,7,41)            128.6248         estimate D2E/DX2                !
 ! A21   A(21,7,41)            107.9624         estimate D2E/DX2                !
 ! A22   A(12,11,16)           119.9354         estimate D2E/DX2                !
 ! A23   A(12,11,39)           110.4417         estimate D2E/DX2                !
 ! A24   A(16,11,39)           129.6209         estimate D2E/DX2                !
 ! A25   A(11,12,13)           122.2            estimate D2E/DX2                !
 ! A26   A(11,12,40)           104.456          estimate D2E/DX2                !
 ! A27   A(13,12,40)           133.344          estimate D2E/DX2                !
 ! A28   A(12,13,14)           117.0163         estimate D2E/DX2                !
 ! A29   A(12,13,18)           121.6205         estimate D2E/DX2                !
 ! A30   A(14,13,18)           121.3631         estimate D2E/DX2                !
 ! A31   A(13,14,15)           121.981          estimate D2E/DX2                !
 ! A32   A(13,14,19)           119.1764         estimate D2E/DX2                !
 ! A33   A(15,14,19)           118.8424         estimate D2E/DX2                !
 ! A34   A(14,15,16)           121.2028         estimate D2E/DX2                !
 ! A35   A(14,15,20)           119.0376         estimate D2E/DX2                !
 ! A36   A(16,15,20)           119.7591         estimate D2E/DX2                !
 ! A37   A(7,16,11)            119.063          estimate D2E/DX2                !
 ! A38   A(7,16,15)            123.275          estimate D2E/DX2                !
 ! A39   A(11,16,15)           117.6598         estimate D2E/DX2                !
 ! A40   A(23,17,39)           125.1313         estimate D2E/DX2                !
 ! A41   A(23,17,40)           123.0704         estimate D2E/DX2                !
 ! A42   A(39,17,40)           111.7925         estimate D2E/DX2                !
 ! A43   A(2,21,7)             109.9609         estimate D2E/DX2                !
 ! A44   A(2,21,64)            129.8791         estimate D2E/DX2                !
 ! A45   A(7,21,64)            120.1409         estimate D2E/DX2                !
 ! A46   A(23,22,27)           117.7376         estimate D2E/DX2                !
 ! A47   A(23,22,38)           122.179          estimate D2E/DX2                !
 ! A48   A(27,22,38)           120.0833         estimate D2E/DX2                !
 ! A49   A(17,23,22)           120.2763         estimate D2E/DX2                !
 ! A50   A(17,23,24)           119.9022         estimate D2E/DX2                !
 ! A51   A(22,23,24)           119.8191         estimate D2E/DX2                !
 ! A52   A(23,24,25)           121.5225         estimate D2E/DX2                !
 ! A53   A(23,24,28)           118.9754         estimate D2E/DX2                !
 ! A54   A(25,24,28)           119.5018         estimate D2E/DX2                !
 ! A55   A(24,25,26)           119.2251         estimate D2E/DX2                !
 ! A56   A(24,25,30)           120.0637         estimate D2E/DX2                !
 ! A57   A(26,25,30)           120.71           estimate D2E/DX2                !
 ! A58   A(25,26,27)           122.2391         estimate D2E/DX2                !
 ! A59   A(25,26,29)           118.4909         estimate D2E/DX2                !
 ! A60   A(27,26,29)           119.2658         estimate D2E/DX2                !
 ! A61   A(22,27,26)           119.4454         estimate D2E/DX2                !
 ! A62   A(22,27,34)           117.9762         estimate D2E/DX2                !
 ! A63   A(26,27,34)           122.577          estimate D2E/DX2                !
 ! A64   A(25,30,31)           110.7753         estimate D2E/DX2                !
 ! A65   A(25,30,32)           110.3848         estimate D2E/DX2                !
 ! A66   A(25,30,33)           111.4457         estimate D2E/DX2                !
 ! A67   A(31,30,32)           106.814          estimate D2E/DX2                !
 ! A68   A(31,30,33)           108.9104         estimate D2E/DX2                !
 ! A69   A(32,30,33)           108.3654         estimate D2E/DX2                !
 ! A70   A(27,34,35)           110.9232         estimate D2E/DX2                !
 ! A71   A(27,34,36)           110.655          estimate D2E/DX2                !
 ! A72   A(27,34,37)           110.7851         estimate D2E/DX2                !
 ! A73   A(35,34,36)           106.4622         estimate D2E/DX2                !
 ! A74   A(35,34,37)           109.2328         estimate D2E/DX2                !
 ! A75   A(36,34,37)           108.6588         estimate D2E/DX2                !
 ! A76   A(11,39,17)           105.1845         estimate D2E/DX2                !
 ! A77   A(12,40,17)           108.1237         estimate D2E/DX2                !
 ! A78   A(12,40,63)           130.885          estimate D2E/DX2                !
 ! A79   A(17,40,63)           120.9711         estimate D2E/DX2                !
 ! A80   A(1,41,7)             109.3865         estimate D2E/DX2                !
 ! A81   A(1,41,42)            120.7897         estimate D2E/DX2                !
 ! A82   A(7,41,42)            129.8073         estimate D2E/DX2                !
 ! A83   A(6,43,44)            115.7417         estimate D2E/DX2                !
 ! A84   A(6,43,45)            121.3257         estimate D2E/DX2                !
 ! A85   A(44,43,45)           122.9308         estimate D2E/DX2                !
 ! A86   A(43,45,46)           117.2569         estimate D2E/DX2                !
 ! A87   A(45,46,47)           111.355          estimate D2E/DX2                !
 ! A88   A(45,46,48)           112.4529         estimate D2E/DX2                !
 ! A89   A(45,46,49)           106.2865         estimate D2E/DX2                !
 ! A90   A(47,46,48)           110.7361         estimate D2E/DX2                !
 ! A91   A(47,46,49)           107.9856         estimate D2E/DX2                !
 ! A92   A(48,46,49)           107.7589         estimate D2E/DX2                !
 ! A93   A(46,47,50)           111.4326         estimate D2E/DX2                !
 ! A94   A(46,47,51)           108.3238         estimate D2E/DX2                !
 ! A95   A(46,47,52)           109.4715         estimate D2E/DX2                !
 ! A96   A(50,47,51)           109.4827         estimate D2E/DX2                !
 ! A97   A(50,47,52)           110.8691         estimate D2E/DX2                !
 ! A98   A(51,47,52)           107.1323         estimate D2E/DX2                !
 ! A99   A(46,48,53)           111.2309         estimate D2E/DX2                !
 ! A100  A(46,48,54)           108.8072         estimate D2E/DX2                !
 ! A101  A(46,48,55)           109.4426         estimate D2E/DX2                !
 ! A102  A(53,48,54)           109.3013         estimate D2E/DX2                !
 ! A103  A(53,48,55)           110.7569         estimate D2E/DX2                !
 ! A104  A(54,48,55)           107.1961         estimate D2E/DX2                !
 ! A105  A(47,50,56)           111.4128         estimate D2E/DX2                !
 ! A106  A(47,50,57)           109.5989         estimate D2E/DX2                !
 ! A107  A(47,50,58)           109.2606         estimate D2E/DX2                !
 ! A108  A(56,50,57)           110.5136         estimate D2E/DX2                !
 ! A109  A(56,50,58)           109.0872         estimate D2E/DX2                !
 ! A110  A(57,50,58)           106.8506         estimate D2E/DX2                !
 ! A111  A(48,53,56)           111.4485         estimate D2E/DX2                !
 ! A112  A(48,53,59)           109.5878         estimate D2E/DX2                !
 ! A113  A(48,53,60)           109.212          estimate D2E/DX2                !
 ! A114  A(56,53,59)           110.5669         estimate D2E/DX2                !
 ! A115  A(56,53,60)           109.1314         estimate D2E/DX2                !
 ! A116  A(59,53,60)           106.7713         estimate D2E/DX2                !
 ! A117  A(50,56,53)           111.0066         estimate D2E/DX2                !
 ! A118  A(50,56,61)           110.2402         estimate D2E/DX2                !
 ! A119  A(50,56,62)           109.1202         estimate D2E/DX2                !
 ! A120  A(53,56,61)           110.2682         estimate D2E/DX2                !
 ! A121  A(53,56,62)           109.1785         estimate D2E/DX2                !
 ! A122  A(61,56,62)           106.9263         estimate D2E/DX2                !
 ! D1    D(6,1,2,3)             -0.4884         estimate D2E/DX2                !
 ! D2    D(6,1,2,21)           179.0947         estimate D2E/DX2                !
 ! D3    D(41,1,2,3)          -179.5723         estimate D2E/DX2                !
 ! D4    D(41,1,2,21)            0.0108         estimate D2E/DX2                !
 ! D5    D(2,1,6,5)              0.3017         estimate D2E/DX2                !
 ! D6    D(2,1,6,43)          -179.2137         estimate D2E/DX2                !
 ! D7    D(41,1,6,5)           179.1487         estimate D2E/DX2                !
 ! D8    D(41,1,6,43)           -0.3667         estimate D2E/DX2                !
 ! D9    D(2,1,41,7)             0.199          estimate D2E/DX2                !
 ! D10   D(2,1,41,42)          178.8595         estimate D2E/DX2                !
 ! D11   D(6,1,41,7)          -178.7841         estimate D2E/DX2                !
 ! D12   D(6,1,41,42)           -0.1236         estimate D2E/DX2                !
 ! D13   D(1,2,3,4)              0.3537         estimate D2E/DX2                !
 ! D14   D(1,2,3,8)           -179.8968         estimate D2E/DX2                !
 ! D15   D(21,2,3,4)          -179.0989         estimate D2E/DX2                !
 ! D16   D(21,2,3,8)             0.6505         estimate D2E/DX2                !
 ! D17   D(1,2,21,7)            -0.2178         estimate D2E/DX2                !
 ! D18   D(1,2,21,64)         -178.5991         estimate D2E/DX2                !
 ! D19   D(3,2,21,7)           179.297          estimate D2E/DX2                !
 ! D20   D(3,2,21,64)            0.9158         estimate D2E/DX2                !
 ! D21   D(2,3,4,5)             -0.0737         estimate D2E/DX2                !
 ! D22   D(2,3,4,9)            179.941          estimate D2E/DX2                !
 ! D23   D(8,3,4,5)           -179.822          estimate D2E/DX2                !
 ! D24   D(8,3,4,9)              0.1927         estimate D2E/DX2                !
 ! D25   D(3,4,5,6)             -0.0934         estimate D2E/DX2                !
 ! D26   D(3,4,5,10)           179.8282         estimate D2E/DX2                !
 ! D27   D(9,4,5,6)            179.8919         estimate D2E/DX2                !
 ! D28   D(9,4,5,10)            -0.1865         estimate D2E/DX2                !
 ! D29   D(4,5,6,1)             -0.0177         estimate D2E/DX2                !
 ! D30   D(4,5,6,43)           179.4909         estimate D2E/DX2                !
 ! D31   D(10,5,6,1)          -179.9398         estimate D2E/DX2                !
 ! D32   D(10,5,6,43)           -0.4312         estimate D2E/DX2                !
 ! D33   D(1,6,43,44)          178.9499         estimate D2E/DX2                !
 ! D34   D(1,6,43,45)           -0.5809         estimate D2E/DX2                !
 ! D35   D(5,6,43,44)           -0.5302         estimate D2E/DX2                !
 ! D36   D(5,6,43,45)          179.939          estimate D2E/DX2                !
 ! D37   D(21,7,16,11)           2.8281         estimate D2E/DX2                !
 ! D38   D(21,7,16,15)        -177.7299         estimate D2E/DX2                !
 ! D39   D(41,7,16,11)        -176.9217         estimate D2E/DX2                !
 ! D40   D(41,7,16,15)           2.5203         estimate D2E/DX2                !
 ! D41   D(16,7,21,2)         -179.4497         estimate D2E/DX2                !
 ! D42   D(16,7,21,64)          -0.8861         estimate D2E/DX2                !
 ! D43   D(41,7,21,2)            0.3448         estimate D2E/DX2                !
 ! D44   D(41,7,21,64)         178.9084         estimate D2E/DX2                !
 ! D45   D(16,7,41,1)          179.445          estimate D2E/DX2                !
 ! D46   D(16,7,41,42)           0.9429         estimate D2E/DX2                !
 ! D47   D(21,7,41,1)           -0.3355         estimate D2E/DX2                !
 ! D48   D(21,7,41,42)        -178.8376         estimate D2E/DX2                !
 ! D49   D(16,11,12,13)          0.7997         estimate D2E/DX2                !
 ! D50   D(16,11,12,40)       -179.2757         estimate D2E/DX2                !
 ! D51   D(39,11,12,13)       -179.6696         estimate D2E/DX2                !
 ! D52   D(39,11,12,40)          0.2549         estimate D2E/DX2                !
 ! D53   D(12,11,16,7)         178.7826         estimate D2E/DX2                !
 ! D54   D(12,11,16,15)         -0.6907         estimate D2E/DX2                !
 ! D55   D(39,11,16,7)          -0.6465         estimate D2E/DX2                !
 ! D56   D(39,11,16,15)        179.8803         estimate D2E/DX2                !
 ! D57   D(12,11,39,17)         -0.3932         estimate D2E/DX2                !
 ! D58   D(16,11,39,17)        179.0788         estimate D2E/DX2                !
 ! D59   D(11,12,13,14)         -0.3171         estimate D2E/DX2                !
 ! D60   D(11,12,13,18)        179.8094         estimate D2E/DX2                !
 ! D61   D(40,12,13,14)        179.7834         estimate D2E/DX2                !
 ! D62   D(40,12,13,18)         -0.0901         estimate D2E/DX2                !
 ! D63   D(11,12,40,17)         -0.0143         estimate D2E/DX2                !
 ! D64   D(11,12,40,63)        178.3247         estimate D2E/DX2                !
 ! D65   D(13,12,40,17)        179.8979         estimate D2E/DX2                !
 ! D66   D(13,12,40,63)         -1.7631         estimate D2E/DX2                !
 ! D67   D(12,13,14,15)         -0.2469         estimate D2E/DX2                !
 ! D68   D(12,13,14,19)        179.9178         estimate D2E/DX2                !
 ! D69   D(18,13,14,15)        179.6269         estimate D2E/DX2                !
 ! D70   D(18,13,14,19)         -0.2083         estimate D2E/DX2                !
 ! D71   D(13,14,15,16)          0.3332         estimate D2E/DX2                !
 ! D72   D(13,14,15,20)       -179.9436         estimate D2E/DX2                !
 ! D73   D(19,14,15,16)       -179.831          estimate D2E/DX2                !
 ! D74   D(19,14,15,20)         -0.1078         estimate D2E/DX2                !
 ! D75   D(14,15,16,7)        -179.3012         estimate D2E/DX2                !
 ! D76   D(14,15,16,11)          0.1481         estimate D2E/DX2                !
 ! D77   D(20,15,16,7)           0.9775         estimate D2E/DX2                !
 ! D78   D(20,15,16,11)       -179.5732         estimate D2E/DX2                !
 ! D79   D(39,17,23,22)        176.5385         estimate D2E/DX2                !
 ! D80   D(39,17,23,24)         -2.8923         estimate D2E/DX2                !
 ! D81   D(40,17,23,22)         -2.514          estimate D2E/DX2                !
 ! D82   D(40,17,23,24)        178.0552         estimate D2E/DX2                !
 ! D83   D(23,17,39,11)       -178.757          estimate D2E/DX2                !
 ! D84   D(40,17,39,11)          0.3879         estimate D2E/DX2                !
 ! D85   D(23,17,40,12)        178.9266         estimate D2E/DX2                !
 ! D86   D(23,17,40,63)          0.3911         estimate D2E/DX2                !
 ! D87   D(39,17,40,12)         -0.2388         estimate D2E/DX2                !
 ! D88   D(39,17,40,63)       -178.7744         estimate D2E/DX2                !
 ! D89   D(27,22,23,17)       -178.5087         estimate D2E/DX2                !
 ! D90   D(27,22,23,24)          0.9226         estimate D2E/DX2                !
 ! D91   D(38,22,23,17)          1.5734         estimate D2E/DX2                !
 ! D92   D(38,22,23,24)       -178.9953         estimate D2E/DX2                !
 ! D93   D(23,22,27,26)         -0.1919         estimate D2E/DX2                !
 ! D94   D(23,22,27,34)       -179.7687         estimate D2E/DX2                !
 ! D95   D(38,22,27,26)        179.7278         estimate D2E/DX2                !
 ! D96   D(38,22,27,34)          0.151          estimate D2E/DX2                !
 ! D97   D(17,23,24,25)        178.7074         estimate D2E/DX2                !
 ! D98   D(17,23,24,28)         -1.0752         estimate D2E/DX2                !
 ! D99   D(22,23,24,25)         -0.726          estimate D2E/DX2                !
 ! D100  D(22,23,24,28)        179.4914         estimate D2E/DX2                !
 ! D101  D(23,24,25,26)         -0.2131         estimate D2E/DX2                !
 ! D102  D(23,24,25,30)       -179.8043         estimate D2E/DX2                !
 ! D103  D(28,24,25,26)        179.5684         estimate D2E/DX2                !
 ! D104  D(28,24,25,30)         -0.0228         estimate D2E/DX2                !
 ! D105  D(24,25,26,27)          0.9853         estimate D2E/DX2                !
 ! D106  D(24,25,26,29)       -179.766          estimate D2E/DX2                !
 ! D107  D(30,25,26,27)       -179.4262         estimate D2E/DX2                !
 ! D108  D(30,25,26,29)         -0.1775         estimate D2E/DX2                !
 ! D109  D(24,25,30,31)        -51.0368         estimate D2E/DX2                !
 ! D110  D(24,25,30,32)         67.064          estimate D2E/DX2                !
 ! D111  D(24,25,30,33)       -172.4654         estimate D2E/DX2                !
 ! D112  D(26,25,30,31)        129.3781         estimate D2E/DX2                !
 ! D113  D(26,25,30,32)       -112.5211         estimate D2E/DX2                !
 ! D114  D(26,25,30,33)          7.9496         estimate D2E/DX2                !
 ! D115  D(25,26,27,22)         -0.7581         estimate D2E/DX2                !
 ! D116  D(25,26,27,34)        178.7983         estimate D2E/DX2                !
 ! D117  D(29,26,27,22)        179.9988         estimate D2E/DX2                !
 ! D118  D(29,26,27,34)         -0.4448         estimate D2E/DX2                !
 ! D119  D(22,27,34,35)        -56.844          estimate D2E/DX2                !
 ! D120  D(22,27,34,36)         61.0836         estimate D2E/DX2                !
 ! D121  D(22,27,34,37)       -178.3327         estimate D2E/DX2                !
 ! D122  D(26,27,34,35)        123.5934         estimate D2E/DX2                !
 ! D123  D(26,27,34,36)       -118.479          estimate D2E/DX2                !
 ! D124  D(26,27,34,37)          2.1047         estimate D2E/DX2                !
 ! D125  D(6,43,45,46)         178.7189         estimate D2E/DX2                !
 ! D126  D(44,43,45,46)         -0.7775         estimate D2E/DX2                !
 ! D127  D(43,45,46,47)        -63.8471         estimate D2E/DX2                !
 ! D128  D(43,45,46,48)         61.1074         estimate D2E/DX2                !
 ! D129  D(43,45,46,49)        178.7894         estimate D2E/DX2                !
 ! D130  D(45,46,47,50)       -178.7733         estimate D2E/DX2                !
 ! D131  D(45,46,47,51)         60.7331         estimate D2E/DX2                !
 ! D132  D(45,46,47,52)        -55.7689         estimate D2E/DX2                !
 ! D133  D(48,46,47,50)         55.3172         estimate D2E/DX2                !
 ! D134  D(48,46,47,51)        -65.1764         estimate D2E/DX2                !
 ! D135  D(48,46,47,52)        178.3216         estimate D2E/DX2                !
 ! D136  D(49,46,47,50)        -62.4449         estimate D2E/DX2                !
 ! D137  D(49,46,47,51)        177.0615         estimate D2E/DX2                !
 ! D138  D(49,46,47,52)         60.5595         estimate D2E/DX2                !
 ! D139  D(45,46,48,53)        179.3231         estimate D2E/DX2                !
 ! D140  D(45,46,48,54)        -60.2184         estimate D2E/DX2                !
 ! D141  D(45,46,48,55)         56.6165         estimate D2E/DX2                !
 ! D142  D(47,46,48,53)        -55.3838         estimate D2E/DX2                !
 ! D143  D(47,46,48,54)         65.0746         estimate D2E/DX2                !
 ! D144  D(47,46,48,55)       -178.0904         estimate D2E/DX2                !
 ! D145  D(49,46,48,53)         62.5166         estimate D2E/DX2                !
 ! D146  D(49,46,48,54)       -177.0249         estimate D2E/DX2                !
 ! D147  D(49,46,48,55)        -60.19           estimate D2E/DX2                !
 ! D148  D(46,47,50,56)        -55.5173         estimate D2E/DX2                !
 ! D149  D(46,47,50,57)       -178.146          estimate D2E/DX2                !
 ! D150  D(46,47,50,58)         65.0869         estimate D2E/DX2                !
 ! D151  D(51,47,50,56)         64.2931         estimate D2E/DX2                !
 ! D152  D(51,47,50,57)        -58.3355         estimate D2E/DX2                !
 ! D153  D(51,47,50,58)       -175.1026         estimate D2E/DX2                !
 ! D154  D(52,47,50,56)       -177.7191         estimate D2E/DX2                !
 ! D155  D(52,47,50,57)         59.6523         estimate D2E/DX2                !
 ! D156  D(52,47,50,58)        -57.1148         estimate D2E/DX2                !
 ! D157  D(46,48,53,56)         55.7933         estimate D2E/DX2                !
 ! D158  D(46,48,53,59)        178.5059         estimate D2E/DX2                !
 ! D159  D(46,48,53,60)        -64.8567         estimate D2E/DX2                !
 ! D160  D(54,48,53,56)        -64.3732         estimate D2E/DX2                !
 ! D161  D(54,48,53,59)         58.3394         estimate D2E/DX2                !
 ! D162  D(54,48,53,60)        174.9767         estimate D2E/DX2                !
 ! D163  D(55,48,53,56)        177.7399         estimate D2E/DX2                !
 ! D164  D(55,48,53,59)        -59.5475         estimate D2E/DX2                !
 ! D165  D(55,48,53,60)         57.0899         estimate D2E/DX2                !
 ! D166  D(47,50,56,53)         55.2856         estimate D2E/DX2                !
 ! D167  D(47,50,56,61)        177.7713         estimate D2E/DX2                !
 ! D168  D(47,50,56,62)        -65.0835         estimate D2E/DX2                !
 ! D169  D(57,50,56,53)        177.3873         estimate D2E/DX2                !
 ! D170  D(57,50,56,61)        -60.127          estimate D2E/DX2                !
 ! D171  D(57,50,56,62)         57.0182         estimate D2E/DX2                !
 ! D172  D(58,50,56,53)        -65.4203         estimate D2E/DX2                !
 ! D173  D(58,50,56,61)         57.0653         estimate D2E/DX2                !
 ! D174  D(58,50,56,62)        174.2106         estimate D2E/DX2                !
 ! D175  D(48,53,56,50)        -55.4873         estimate D2E/DX2                !
 ! D176  D(48,53,56,61)       -177.9568         estimate D2E/DX2                !
 ! D177  D(48,53,56,62)         64.8471         estimate D2E/DX2                !
 ! D178  D(59,53,56,50)       -177.6367         estimate D2E/DX2                !
 ! D179  D(59,53,56,61)         59.8939         estimate D2E/DX2                !
 ! D180  D(59,53,56,62)        -57.3022         estimate D2E/DX2                !
 ! D181  D(60,53,56,50)         65.21           estimate D2E/DX2                !
 ! D182  D(60,53,56,61)        -57.2595         estimate D2E/DX2                !
 ! D183  D(60,53,56,62)       -174.4555         estimate D2E/DX2                !
 --------------------------------------------------------------------------------
 Trust Radius=3.00D-01 FncErr=5.00D-06 GrdErr=5.00D-06 EigMax=2.50D+02 EigMin=1.00D-04
 Number of steps in this run=    384 maximum allowed number of steps=    384.
 GradGradGradGradGradGradGradGradGradGradGradGradGradGradGradGradGradGrad

 Leave Link  103 at Fri Dec 14 11:54:13 2018, MaxMem=  1342177280 cpu:               0.7 elap:               0.1
 (Enter /gpfs/apps/hpc/Apps/Restricted/Gaussian/Rev_A.03/g16/l202.exe)
 Symmetry turned off by external request.
 Stoichiometry    C29H29N5O(1+,2)
 Framework group  C1[X(C29H29N5O)]
 Deg. of freedom   186
 Full point group                 C1      NOp   1
                          Input orientation:                          
 ---------------------------------------------------------------------
 Center     Atomic      Atomic             Coordinates (Angstroms)
 Number     Number       Type             X           Y           Z
 ---------------------------------------------------------------------
      1          6           0        1.536409    1.145462    0.161085
      2          6           0        0.320488    1.844781    0.130934
      3          6           0        0.283535    3.236085    0.035117
      4          6           0        1.512304    3.888310   -0.036256
      5          6           0        2.729640    3.185329   -0.011752
      6          6           0        2.777753    1.791060    0.087594
      7          6           0       -0.113519   -0.348549    0.269085
      8          1           0       -0.653348    3.776632    0.013432
      9          1           0        1.532223    4.968258   -0.112639
     10          1           0        3.661545    3.735670   -0.072654
     11          6           0       -2.292295   -1.492424    0.283844
     12          6           0       -3.064902   -2.680587    0.327548
     13          6           0       -2.482412   -3.941347    0.443335
     14          6           0       -1.089369   -3.992433    0.508908
     15          6           0       -0.300367   -2.834306    0.456267
     16          6           0       -0.881100   -1.565692    0.341582
     17          6           0       -4.354461   -0.883679    0.142842
     18          1           0       -3.081576   -4.842320    0.478894
     19          1           0       -0.600194   -4.953956    0.600572
     20          1           0        0.777146   -2.929390    0.510254
     21          7           0       -0.670631    0.878097    0.203068
     22          6           0       -6.870201   -0.744120   -0.091847
     23          6           0       -5.560418   -0.089510    0.007537
     24          6           0       -5.475723    1.290065   -0.039931
     25          6           0       -6.621967    2.093233   -0.197659
     26          6           0       -7.887983    1.474225   -0.314606
     27          6           0       -8.045126    0.107781   -0.259932
     28          1           0       -4.502290    1.759544    0.043080
     29          1           0       -8.762153    2.103861   -0.439466
     30          6           0       -6.491944    3.584672   -0.249249
     31          1           0       -5.905656    3.952534    0.597710
     32          1           0       -5.962072    3.890287   -1.158005
     33          1           0       -7.468074    4.070468   -0.240907
     34          6           0       -9.382690   -0.553215   -0.356468
     35          1           0       -9.403118   -1.275344   -1.177513
     36          1           0       -9.602304   -1.115367    0.556535
     37          1           0      -10.169399    0.185942   -0.508680
     38          8           0       -7.000571   -1.994770   -0.035179
     39          7           0       -3.108316   -0.393511    0.175106
     40          7           0       -4.365885   -2.247447    0.235036
     41          7           0        1.226758   -0.198319    0.248933
     42          1           0        1.961743   -0.902255    0.267371
     43          6           0        4.031700    1.041124    0.103751
     44          1           0        4.944412    1.639491    0.023633
     45          7           0        4.042504   -0.236775    0.196985
     46          6           0        5.356286   -0.903917    0.175850
     47          6           0        6.071303   -0.690401   -1.169094
     48          6           0        6.255063   -0.468545    1.345554
     49          1           0        5.158478   -1.975551    0.287380
     50          6           0        7.424218   -1.408494   -1.204066
     51          1           0        6.224864    0.386219   -1.310846
     52          1           0        5.426359   -1.034063   -1.983710
     53          6           0        7.606292   -1.190875    1.305959
     54          1           0        6.420386    0.612967    1.280574
     55          1           0        5.740120   -0.660820    2.291719
     56          6           0        8.316628   -0.977686   -0.035225
     57          1           0        7.920686   -1.209963   -2.159169
     58          1           0        7.260381   -2.491864   -1.149979
     59          1           0        8.233088   -0.842259    2.132715
     60          1           0        7.446075   -2.265333    1.461288
     61          1           0        9.260848   -1.530320   -0.056141
     62          1           0        8.566001    0.085189   -0.146139
     63          1           0       -5.239723   -2.766604    0.205631
     64          1           0       -1.690037    0.980082    0.189007
 ---------------------------------------------------------------------
 Rotational constants (GHZ):           0.2576331           0.0429146           0.0374174
 Leave Link  202 at Fri Dec 14 11:54:13 2018, MaxMem=  1342177280 cpu:               0.2 elap:               0.0
 (Enter /gpfs/apps/hpc/Apps/Restricted/Gaussian/Rev_A.03/g16/l301.exe)
 Standard basis: 6-31G(d,p) (6D, 7F)
 Ernie: Thresh=  0.10000D-02 Tol=  0.10000D-05 Strict=F.
   670 basis functions,  1183 primitive gaussians,   670 cartesian basis functions
   123 alpha electrons      122 beta electrons
       nuclear repulsion energy      3338.5283800091 Hartrees.
 IExCor=  402 DFT=T Ex+Corr=B3LYP ExCW=0 ScaHFX=  0.200000
 ScaDFX=  0.800000  0.720000  1.000000  0.810000 ScalE2=  1.000000  1.000000
 IRadAn=      5 IRanWt=     -1 IRanGd=            0 ICorTp=0 IEmpDi=141
 NAtoms=   64 NActive=   64 NUniq=   64 SFac= 1.00D+00 NAtFMM=   60 NAOKFM=T Big=T
 Integral buffers will be    131072 words long.
 Raffenetti 2 integral format.
 Two-electron integral symmetry is turned off.
 R6Disp:  Grimme-D3(BJ) Dispersion energy=       -0.1440727629 Hartrees.
 Nuclear repulsion after empirical dispersion term =     3338.3843072462 Hartrees.
 Using the following non-standard input for PCM:
 radii=bondi
 dis
 rep
 cav
 --- end of non-standard input.
 ------------------------------------------------------------------------------
 Polarizable Continuum Model (PCM)
 =================================
 Model                : C-PCM.
 Atomic radii         : Bondi.
 Polarization charges : Total charges.
 Charge compensation  : None.
 Solution method      : On-the-fly selection.
 Cavity type          : Scaled VdW (van der Waals Surface) (Alpha=1.100).
 Cavity algorithm     : GePol (No added spheres)
                        Default sphere list used, NSphG=   64.
                        Lebedev-Laikov grids with approx.  5.0 points / Ang**2.
                        Smoothing algorithm: York/Karplus (Gamma=1.0000).
                        Polarization charges: spherical gaussians, with
                                              point-specific exponents (IZeta= 3).
                        Self-potential: point-specific (ISelfS= 7).
                        Self-field    : sphere-specific E.n sum rule (ISelfD= 2).
 1st derivatives      : Analytical E(r).r(x)/FMM algorithm (CHGder, D1EAlg=3).
                        Cavity 1st derivative terms included.
 Solvent              : Dichloromethane, Eps=   8.930000 Eps(inf)=   2.028346
 ------------------------------------------------------------------------------
 GePol: Number of generator spheres                  =      64
 GePol: Total number of spheres                      =      64
 GePol: Number of exposed spheres                    =      64 (100.00%)
 GePol: Number of points                             =    4399
 GePol: Average weight of points                     =       0.12
 GePol: Minimum weight of points                     =   0.77D-09
 GePol: Maximum weight of points                     =    0.21770
 GePol: Number of points with low weight             =     287
 GePol: Fraction of low-weight points (<1% of avg)   =       6.52%
 GePol: Cavity surface area                          =    516.562 Ang**2
 GePol: Cavity volume                                =    497.907 Ang**3
 PCM non-electrostatic energy =         0.0187333545 Hartrees.
 Nuclear repulsion after PCM non-electrostatic terms =     3338.4030406006 Hartrees.
 Leave Link  301 at Fri Dec 14 11:54:14 2018, MaxMem=  1342177280 cpu:               4.0 elap:               0.3
 (Enter /gpfs/apps/hpc/Apps/Restricted/Gaussian/Rev_A.03/g16/l302.exe)
 NPDir=0 NMtPBC=     1 NCelOv=     1 NCel=       1 NClECP=     1 NCelD=      1
         NCelK=      1 NCelE2=     1 NClLst=     1 CellRange=     0.0.
 One-electron integrals computed using PRISM.
 NBasis=   670 RedAO= T EigKep=  2.93D-04  NBF=   670
 NBsUse=   670 1.00D-06 EigRej= -1.00D+00 NBFU=   670
 Precomputing XC quadrature grid using
 IXCGrd= 4 IRadAn=           5 IRanWt=          -1 IRanGd=           0 AccXCQ= 0.00D+00.
 Generated NRdTot=       0 NPtTot=           0 NUsed=           0 NTot=          32
 NSgBfM=   618   618   618   618   618 MxSgAt=    64 MxSgA2=    64.
 Leave Link  302 at Fri Dec 14 11:54:15 2018, MaxMem=  1342177280 cpu:              25.0 elap:               1.7
 (Enter /gpfs/apps/hpc/Apps/Restricted/Gaussian/Rev_A.03/g16/l303.exe)
 DipDrv:  MaxL=1.
 Leave Link  303 at Fri Dec 14 11:54:16 2018, MaxMem=  1342177280 cpu:               2.3 elap:               0.2
 (Enter /gpfs/apps/hpc/Apps/Restricted/Gaussian/Rev_A.03/g16/l401.exe)
 ExpMin= 1.61D-01 ExpMax= 5.48D+03 ExpMxC= 8.25D+02 IAcc=3 IRadAn=         5 AccDes= 0.00D+00
 Harris functional with IExCor=  402 and IRadAn=       5 diagonalized for initial guess.
 HarFok:  IExCor=  402 AccDes= 0.00D+00 IRadAn=         5 IDoV= 1 UseB2=F ITyADJ=14
 ICtDFT=  3500011 ScaDFX=  1.000000  1.000000  1.000000  1.000000
 FoFCou: FMM=F IPFlag=           0 FMFlag=      100000 FMFlg1=        2001
         NFxFlg=           0 DoJE=T BraDBF=F KetDBF=T FulRan=T
         wScrn=  0.000000 ICntrl=       500 IOpCl=  0 I1Cent=   200000004 NGrid=           0
         NMat0=    1 NMatS0=      1 NMatT0=    0 NMatD0=    1 NMtDS0=    0 NMtDT0=    0
 Symmetry not used in FoFCou.
 Harris En= -1471.50444634342    
 JPrj=0 DoOrth=F DoCkMO=F.
 Initial guess <Sx>= 0.0000 <Sy>= 0.0000 <Sz>= 0.5000 <S**2>= 0.7500 S= 0.5000
 Leave Link  401 at Fri Dec 14 11:54:21 2018, MaxMem=  1342177280 cpu:              85.1 elap:               5.5
 (Enter /gpfs/apps/hpc/Apps/Restricted/Gaussian/Rev_A.03/g16/l502.exe)
 Two-electron integral symmetry not used.
 UHF open shell SCF:
 Using DIIS extrapolation, IDIIS=  1040.
 NGot=  1342177280 LenX=  1341263254 LenY=  1340813684
 Requested convergence on RMS density matrix=1.00D-08 within 128 cycles.
 Requested convergence on MAX density matrix=1.00D-06.
 Requested convergence on             energy=1.00D-06.
 No special actions if energy rises.
 Fock matrices will be formed incrementally for  20 cycles.

 Cycle   1  Pass 1  IDiag  1:
 FoFJK:  IHMeth= 1 ICntrl=       0 DoSepK=F KAlg= 0 I1Cent=           0 FoldK=F
 IRaf= 680000000 NMat=       1 IRICut=       1 DoRegI=T DoRafI=F ISym2E= 0 IDoP0=0 IntGTp=1.
 FoFCou: FMM=T IPFlag=           0 FMFlag=      100000 FMFlg1=        2001
         NFxFlg=           0 DoJE=F BraDBF=F KetDBF=F FulRan=T
         wScrn=  0.000000 ICntrl=         0 IOpCl=  1 I1Cent=           0 NGrid=           0
         NMat0=    1 NMatS0=      1 NMatT0=    0 NMatD0=    1 NMtDS0=    0 NMtDT0=    0
 Symmetry not used in FoFCou.
 FMM levels:  10  Number of levels for PrismC:   9
 Inv3:  Mode=1 IEnd=    58053603.
 Iteration    1 A*A^-1 deviation from unit magnitude is 2.04D-14 for    913.
 Iteration    1 A*A^-1 deviation from orthogonality  is 5.82D-15 for   4385   4285.
 Iteration    1 A^-1*A deviation from unit magnitude is 2.04D-14 for    913.
 Iteration    1 A^-1*A deviation from orthogonality  is 6.68D-15 for   4200    273.
 E= -1470.92207105266    
 DIIS: error= 3.02D-02 at cycle   1 NSaved=   1.
 NSaved= 1 IEnMin= 1 EnMin= -1470.92207105266     IErMin= 1 ErrMin= 3.02D-02
 ErrMax= 3.02D-02  0.00D+00 EMaxC= 1.00D-01 BMatC= 2.77D+00 BMatP= 2.77D+00
 IDIUse=3 WtCom= 6.98D-01 WtEn= 3.02D-01
 Coeff-Com:  0.100D+01
 Coeff-En:   0.100D+01
 Coeff:      0.100D+01
 Gap=     0.114 Goal=   None    Shift=    0.000
 Gap=     0.089 Goal=   None    Shift=    0.000
 GapD=    0.089 DampG=0.500 DampE=0.500 DampFc=0.2500 IDamp=-1.
 Damping current iteration by 2.50D-01
 RMSDP=3.09D-03 MaxDP=1.87D-01              OVMax= 3.01D-01

 Cycle   2  Pass 1  IDiag  1:
 RMSU=  7.50D-04    CP:  9.85D-01
 E= -1471.17722523371     Delta-E=       -0.255154181045 Rises=F Damp=T
 DIIS: error= 1.84D-02 at cycle   2 NSaved=   2.
 NSaved= 2 IEnMin= 2 EnMin= -1471.17722523371     IErMin= 2 ErrMin= 1.84D-02
 ErrMax= 1.84D-02  0.00D+00 EMaxC= 1.00D-01 BMatC= 7.59D-01 BMatP= 2.77D+00
 IDIUse=3 WtCom= 8.16D-01 WtEn= 1.84D-01
 Coeff-Com: -0.837D+00 0.184D+01
 Coeff-En:   0.000D+00 0.100D+01
 Coeff:     -0.683D+00 0.168D+01
 Gap=     0.147 Goal=   None    Shift=    0.000
 Gap=     0.130 Goal=   None    Shift=    0.000
 RMSDP=1.27D-03 MaxDP=7.84D-02 DE=-2.55D-01 OVMax= 1.81D-01

 Cycle   3  Pass 1  IDiag  1:
 RMSU=  8.81D-04    CP:  9.50D-01  2.07D+00
 E= -1471.60661799491     Delta-E=       -0.429392761202 Rises=F Damp=F
 DIIS: error= 1.24D-02 at cycle   3 NSaved=   3.
 NSaved= 3 IEnMin= 3 EnMin= -1471.60661799491     IErMin= 3 ErrMin= 1.24D-02
 ErrMax= 1.24D-02  0.00D+00 EMaxC= 1.00D-01 BMatC= 1.35D-01 BMatP= 7.59D-01
 IDIUse=3 WtCom= 8.76D-01 WtEn= 1.24D-01
 Coeff-Com: -0.366D+00 0.781D+00 0.585D+00
 Coeff-En:   0.000D+00 0.000D+00 0.100D+01
 Coeff:     -0.321D+00 0.684D+00 0.637D+00
 Gap=     0.124 Goal=   None    Shift=    0.000
 Gap=     0.083 Goal=   None    Shift=    0.000
 RMSDP=4.79D-04 MaxDP=6.64D-02 DE=-4.29D-01 OVMax= 8.37D-02

 Cycle   4  Pass 1  IDiag  1:
 RMSU=  3.79D-04    CP:  9.55D-01  2.12D+00  6.76D-01
 E= -1471.62608418850     Delta-E=       -0.019466193588 Rises=F Damp=F
 DIIS: error= 9.89D-03 at cycle   4 NSaved=   4.
 NSaved= 4 IEnMin= 4 EnMin= -1471.62608418850     IErMin= 4 ErrMin= 9.89D-03
 ErrMax= 9.89D-03  0.00D+00 EMaxC= 1.00D-01 BMatC= 6.49D-02 BMatP= 1.35D-01
 IDIUse=3 WtCom= 9.01D-01 WtEn= 9.89D-02
 Coeff-Com: -0.604D-01 0.147D+00 0.405D+00 0.509D+00
 Coeff-En:   0.000D+00 0.000D+00 0.310D+00 0.690D+00
 Coeff:     -0.544D-01 0.132D+00 0.396D+00 0.526D+00
 Gap=     0.127 Goal=   None    Shift=    0.000
 Gap=     0.081 Goal=   None    Shift=    0.000
 RMSDP=2.40D-04 MaxDP=3.38D-02 DE=-1.95D-02 OVMax= 3.33D-02

 Cycle   5  Pass 1  IDiag  1:
 RMSU=  1.27D-04    CP:  9.54D-01  2.06D+00  7.93D-01  5.54D-01
 E= -1471.63879632629     Delta-E=       -0.012712137797 Rises=F Damp=F
 DIIS: error= 2.51D-03 at cycle   5 NSaved=   5.
 NSaved= 5 IEnMin= 5 EnMin= -1471.63879632629     IErMin= 5 ErrMin= 2.51D-03
 ErrMax= 2.51D-03  0.00D+00 EMaxC= 1.00D-01 BMatC= 5.08D-03 BMatP= 6.49D-02
 IDIUse=3 WtCom= 9.75D-01 WtEn= 2.51D-02
 Coeff-Com:  0.345D-02 0.234D-02 0.173D+00 0.306D+00 0.516D+00
 Coeff-En:   0.000D+00 0.000D+00 0.000D+00 0.000D+00 0.100D+01
 Coeff:      0.336D-02 0.228D-02 0.169D+00 0.298D+00 0.528D+00
 Gap=     0.127 Goal=   None    Shift=    0.000
 Gap=     0.084 Goal=   None    Shift=    0.000
 RMSDP=7.17D-05 MaxDP=1.20D-02 DE=-1.27D-02 OVMax= 1.58D-02

 Cycle   6  Pass 1  IDiag  1:
 RMSU=  4.35D-05    CP:  9.53D-01  2.07D+00  8.01D-01  6.19D-01  6.02D-01
 E= -1471.63993081329     Delta-E=       -0.001134486993 Rises=F Damp=F
 DIIS: error= 7.24D-04 at cycle   6 NSaved=   6.
 NSaved= 6 IEnMin= 6 EnMin= -1471.63993081329     IErMin= 6 ErrMin= 7.24D-04
 ErrMax= 7.24D-04  0.00D+00 EMaxC= 1.00D-01 BMatC= 4.93D-04 BMatP= 5.08D-03
 IDIUse=3 WtCom= 9.93D-01 WtEn= 7.24D-03
 Coeff-Com:  0.688D-02-0.110D-01 0.517D-01 0.102D+00 0.288D+00 0.563D+00
 Coeff-En:   0.000D+00 0.000D+00 0.000D+00 0.000D+00 0.000D+00 0.100D+01
 Coeff:      0.683D-02-0.109D-01 0.513D-01 0.101D+00 0.285D+00 0.566D+00
 Gap=     0.127 Goal=   None    Shift=    0.000
 Gap=     0.084 Goal=   None    Shift=    0.000
 RMSDP=2.26D-05 MaxDP=3.03D-03 DE=-1.13D-03 OVMax= 6.89D-03

 Cycle   7  Pass 1  IDiag  1:
 RMSU=  1.79D-05    CP:  9.53D-01  2.07D+00  8.03D-01  6.18D-01  7.05D-01
                    CP:  9.16D-01
 E= -1471.64007997815     Delta-E=       -0.000149164866 Rises=F Damp=F
 DIIS: error= 2.98D-04 at cycle   7 NSaved=   7.
 NSaved= 7 IEnMin= 7 EnMin= -1471.64007997815     IErMin= 7 ErrMin= 2.98D-04
 ErrMax= 2.98D-04  0.00D+00 EMaxC= 1.00D-01 BMatC= 6.31D-05 BMatP= 4.93D-04
 IDIUse=3 WtCom= 9.97D-01 WtEn= 2.98D-03
 Coeff-Com:  0.216D-02-0.493D-02-0.163D-01-0.311D-01 0.758D-02 0.218D+00
 Coeff-Com:  0.825D+00
 Coeff-En:   0.000D+00 0.000D+00 0.000D+00 0.000D+00 0.000D+00 0.000D+00
 Coeff-En:   0.100D+01
 Coeff:      0.215D-02-0.491D-02-0.163D-01-0.311D-01 0.756D-02 0.217D+00
 Coeff:      0.825D+00
 Gap=     0.128 Goal=   None    Shift=    0.000
 Gap=     0.085 Goal=   None    Shift=    0.000
 RMSDP=1.41D-05 MaxDP=2.41D-03 DE=-1.49D-04 OVMax= 5.81D-03

 Cycle   8  Pass 1  IDiag  1:
 RMSU=  9.09D-06    CP:  9.53D-01  2.07D+00  8.05D-01  6.23D-01  7.44D-01
                    CP:  1.12D+00  1.10D+00
 E= -1471.64012954277     Delta-E=       -0.000049564618 Rises=F Damp=F
 DIIS: error= 1.55D-04 at cycle   8 NSaved=   8.
 NSaved= 8 IEnMin= 8 EnMin= -1471.64012954277     IErMin= 8 ErrMin= 1.55D-04
 ErrMax= 1.55D-04  0.00D+00 EMaxC= 1.00D-01 BMatC= 2.02D-05 BMatP= 6.31D-05
 IDIUse=3 WtCom= 9.98D-01 WtEn= 1.55D-03
 Coeff-Com: -0.107D-02 0.152D-02-0.217D-01-0.477D-01-0.902D-01-0.145D+00
 Coeff-Com:  0.299D+00 0.101D+01
 Coeff-En:   0.000D+00 0.000D+00 0.000D+00 0.000D+00 0.000D+00 0.000D+00
 Coeff-En:   0.000D+00 0.100D+01
 Coeff:     -0.107D-02 0.152D-02-0.217D-01-0.477D-01-0.901D-01-0.144D+00
 Coeff:      0.298D+00 0.101D+01
 Gap=     0.128 Goal=   None    Shift=    0.000
 Gap=     0.085 Goal=   None    Shift=    0.000
 RMSDP=1.19D-05 MaxDP=1.71D-03 DE=-4.96D-05 OVMax= 4.69D-03

 Cycle   9  Pass 1  IDiag  1:
 RMSU=  4.73D-06    CP:  9.53D-01  2.07D+00  8.07D-01  6.23D-01  7.81D-01
                    CP:  1.26D+00  1.49D+00  1.32D+00
 E= -1471.64014829102     Delta-E=       -0.000018748254 Rises=F Damp=F
 DIIS: error= 6.60D-05 at cycle   9 NSaved=   9.
 NSaved= 9 IEnMin= 9 EnMin= -1471.64014829102     IErMin= 9 ErrMin= 6.60D-05
 ErrMax= 6.60D-05  0.00D+00 EMaxC= 1.00D-01 BMatC= 6.13D-06 BMatP= 2.02D-05
 IDIUse=1 WtCom= 1.00D+00 WtEn= 0.00D+00
 Coeff-Com: -0.716D-03 0.133D-02-0.921D-02-0.218D-01-0.506D-01-0.125D+00
 Coeff-Com:  0.256D-01 0.566D+00 0.615D+00
 Coeff:     -0.716D-03 0.133D-02-0.921D-02-0.218D-01-0.506D-01-0.125D+00
 Coeff:      0.256D-01 0.566D+00 0.615D+00
 Gap=     0.128 Goal=   None    Shift=    0.000
 Gap=     0.086 Goal=   None    Shift=    0.000
 RMSDP=3.93D-06 MaxDP=6.30D-04 DE=-1.87D-05 OVMax= 1.19D-03

 Cycle  10  Pass 1  IDiag  1:
 RMSU=  2.28D-06    CP:  9.53D-01  2.07D+00  8.08D-01  6.22D-01  7.90D-01
                    CP:  1.30D+00  1.58D+00  1.50D+00  8.31D-01
 E= -1471.64015111253     Delta-E=       -0.000002821506 Rises=F Damp=F
 DIIS: error= 2.79D-05 at cycle  10 NSaved=  10.
 NSaved=10 IEnMin=10 EnMin= -1471.64015111253     IErMin=10 ErrMin= 2.79D-05
 ErrMax= 2.79D-05  0.00D+00 EMaxC= 1.00D-01 BMatC= 1.16D-06 BMatP= 6.13D-06
 IDIUse=1 WtCom= 1.00D+00 WtEn= 0.00D+00
 Coeff-Com: -0.408D-05 0.147D-03 0.868D-03 0.954D-03-0.212D-02-0.295D-01
 Coeff-Com: -0.576D-01 0.345D-01 0.322D+00 0.730D+00
 Coeff:     -0.408D-05 0.147D-03 0.868D-03 0.954D-03-0.212D-02-0.295D-01
 Coeff:     -0.576D-01 0.345D-01 0.322D+00 0.730D+00
 Gap=     0.128 Goal=   None    Shift=    0.000
 Gap=     0.086 Goal=   None    Shift=    0.000
 RMSDP=1.81D-06 MaxDP=3.30D-04 DE=-2.82D-06 OVMax= 5.10D-04

 Cycle  11  Pass 1  IDiag  1:
 RMSU=  1.07D-06    CP:  9.53D-01  2.07D+00  8.08D-01  6.22D-01  7.93D-01
                    CP:  1.31D+00  1.62D+00  1.58D+00  1.04D+00  9.73D-01
 E= -1471.64015162558     Delta-E=       -0.000000513051 Rises=F Damp=F
 DIIS: error= 9.13D-06 at cycle  11 NSaved=  11.
 NSaved=11 IEnMin=11 EnMin= -1471.64015162558     IErMin=11 ErrMin= 9.13D-06
 ErrMax= 9.13D-06  0.00D+00 EMaxC= 1.00D-01 BMatC= 3.14D-07 BMatP= 1.16D-06
 IDIUse=1 WtCom= 1.00D+00 WtEn= 0.00D+00
 Coeff-Com:  0.116D-03-0.130D-03 0.238D-02 0.499D-02 0.922D-02 0.820D-02
 Coeff-Com: -0.373D-01-0.943D-01 0.690D-01 0.433D+00 0.604D+00
 Coeff:      0.116D-03-0.130D-03 0.238D-02 0.499D-02 0.922D-02 0.820D-02
 Coeff:     -0.373D-01-0.943D-01 0.690D-01 0.433D+00 0.604D+00
 Gap=     0.128 Goal=   None    Shift=    0.000
 Gap=     0.086 Goal=   None    Shift=    0.000
 RMSDP=7.25D-07 MaxDP=1.12D-04 DE=-5.13D-07 OVMax= 2.03D-04

 Cycle  12  Pass 1  IDiag  1:
 RMSU=  4.30D-07    CP:  9.53D-01  2.07D+00  8.08D-01  6.22D-01  7.93D-01
                    CP:  1.31D+00  1.63D+00  1.60D+00  1.09D+00  1.15D+00
                    CP:  8.61D-01
 E= -1471.64015175168     Delta-E=       -0.000000126100 Rises=F Damp=F
 DIIS: error= 4.59D-06 at cycle  12 NSaved=  12.
 NSaved=12 IEnMin=12 EnMin= -1471.64015175168     IErMin=12 ErrMin= 4.59D-06
 ErrMax= 4.59D-06  0.00D+00 EMaxC= 1.00D-01 BMatC= 3.87D-08 BMatP= 3.14D-07
 IDIUse=1 WtCom= 1.00D+00 WtEn= 0.00D+00
 Coeff-Com:  0.409D-04-0.840D-04 0.815D-03 0.202D-02 0.455D-02 0.109D-01
 Coeff-Com: -0.327D-02-0.492D-01-0.437D-01 0.143D-01 0.244D+00 0.820D+00
 Coeff:      0.409D-04-0.840D-04 0.815D-03 0.202D-02 0.455D-02 0.109D-01
 Coeff:     -0.327D-02-0.492D-01-0.437D-01 0.143D-01 0.244D+00 0.820D+00
 Gap=     0.128 Goal=   None    Shift=    0.000
 Gap=     0.086 Goal=   None    Shift=    0.000
 RMSDP=3.70D-07 MaxDP=5.93D-05 DE=-1.26D-07 OVMax= 1.39D-04

 Cycle  13  Pass 1  IDiag  1:
 RMSU=  2.17D-07    CP:  9.53D-01  2.07D+00  8.08D-01  6.22D-01  7.93D-01
                    CP:  1.31D+00  1.63D+00  1.61D+00  1.12D+00  1.22D+00
                    CP:  1.03D+00  9.86D-01
 E= -1471.64015177495     Delta-E=       -0.000000023270 Rises=F Damp=F
 DIIS: error= 2.99D-06 at cycle  13 NSaved=  13.
 NSaved=13 IEnMin=13 EnMin= -1471.64015177495     IErMin=13 ErrMin= 2.99D-06
 ErrMax= 2.99D-06  0.00D+00 EMaxC= 1.00D-01 BMatC= 1.85D-08 BMatP= 3.87D-08
 IDIUse=1 WtCom= 1.00D+00 WtEn= 0.00D+00
 Coeff-Com: -0.488D-05-0.175D-04 0.329D-04 0.301D-03 0.974D-03 0.545D-02
 Coeff-Com:  0.495D-02-0.121D-01-0.415D-01-0.797D-01 0.285D-01 0.508D+00
 Coeff-Com:  0.585D+00
 Coeff:     -0.488D-05-0.175D-04 0.329D-04 0.301D-03 0.974D-03 0.545D-02
 Coeff:      0.495D-02-0.121D-01-0.415D-01-0.797D-01 0.285D-01 0.508D+00
 Coeff:      0.585D+00
 Gap=     0.128 Goal=   None    Shift=    0.000
 Gap=     0.086 Goal=   None    Shift=    0.000
 RMSDP=1.74D-07 MaxDP=3.24D-05 DE=-2.33D-08 OVMax= 5.06D-05

 Cycle  14  Pass 1  IDiag  1:
 RMSU=  1.07D-07    CP:  9.53D-01  2.07D+00  8.08D-01  6.22D-01  7.93D-01
                    CP:  1.31D+00  1.63D+00  1.62D+00  1.13D+00  1.25D+00
                    CP:  1.08D+00  1.19D+00  8.44D-01
 E= -1471.64015178228     Delta-E=       -0.000000007326 Rises=F Damp=F
 DIIS: error= 1.19D-06 at cycle  14 NSaved=  14.
 NSaved=14 IEnMin=14 EnMin= -1471.64015178228     IErMin=14 ErrMin= 1.19D-06
 ErrMax= 1.19D-06  0.00D+00 EMaxC= 1.00D-01 BMatC= 2.09D-09 BMatP= 1.85D-08
 IDIUse=1 WtCom= 1.00D+00 WtEn= 0.00D+00
 Coeff-Com: -0.181D-04 0.225D-04-0.171D-03-0.317D-03-0.707D-03-0.642D-04
 Coeff-Com:  0.245D-02 0.655D-02-0.705D-02-0.365D-01-0.443D-01 0.106D-01
 Coeff-Com:  0.230D+00 0.839D+00
 Coeff:     -0.181D-04 0.225D-04-0.171D-03-0.317D-03-0.707D-03-0.642D-04
 Coeff:      0.245D-02 0.655D-02-0.705D-02-0.365D-01-0.443D-01 0.106D-01
 Coeff:      0.230D+00 0.839D+00
 Gap=     0.128 Goal=   None    Shift=    0.000
 Gap=     0.086 Goal=   None    Shift=    0.000
 RMSDP=8.74D-08 MaxDP=1.30D-05 DE=-7.33D-09 OVMax= 2.62D-05

 Cycle  15  Pass 1  IDiag  1:
 RMSU=  4.43D-08    CP:  9.53D-01  2.07D+00  8.08D-01  6.22D-01  7.93D-01
                    CP:  1.31D+00  1.63D+00  1.62D+00  1.13D+00  1.26D+00
                    CP:  1.10D+00  1.27D+00  1.07D+00  1.07D+00
 E= -1471.64015178371     Delta-E=       -0.000000001430 Rises=F Damp=F
 DIIS: error= 5.56D-07 at cycle  15 NSaved=  15.
 NSaved=15 IEnMin=15 EnMin= -1471.64015178371     IErMin=15 ErrMin= 5.56D-07
 ErrMax= 5.56D-07  0.00D+00 EMaxC= 1.00D-01 BMatC= 6.76D-10 BMatP= 2.09D-09
 IDIUse=1 WtCom= 1.00D+00 WtEn= 0.00D+00
 Coeff-Com: -0.942D-05 0.160D-04-0.971D-04-0.214D-03-0.572D-03-0.974D-03
 Coeff-Com:  0.243D-03 0.559D-02 0.367D-02-0.439D-02-0.269D-01-0.861D-01
 Coeff-Com:  0.122D-01 0.447D+00 0.651D+00
 Coeff:     -0.942D-05 0.160D-04-0.971D-04-0.214D-03-0.572D-03-0.974D-03
 Coeff:      0.243D-03 0.559D-02 0.367D-02-0.439D-02-0.269D-01-0.861D-01
 Coeff:      0.122D-01 0.447D+00 0.651D+00
 Gap=     0.128 Goal=   None    Shift=    0.000
 Gap=     0.086 Goal=   None    Shift=    0.000
 RMSDP=4.04D-08 MaxDP=4.72D-06 DE=-1.43D-09 OVMax= 1.27D-05

 Cycle  16  Pass 1  IDiag  1:
 RMSU=  2.37D-08    CP:  9.53D-01  2.07D+00  8.08D-01  6.22D-01  7.93D-01
                    CP:  1.31D+00  1.63D+00  1.62D+00  1.13D+00  1.26D+00
                    CP:  1.11D+00  1.29D+00  1.13D+00  1.27D+00  9.05D-01
 E= -1471.64015178401     Delta-E=       -0.000000000306 Rises=F Damp=F
 DIIS: error= 3.25D-07 at cycle  16 NSaved=  16.
 NSaved=16 IEnMin=16 EnMin= -1471.64015178401     IErMin=16 ErrMin= 3.25D-07
 ErrMax= 3.25D-07  0.00D+00 EMaxC= 1.00D-01 BMatC= 1.44D-10 BMatP= 6.76D-10
 IDIUse=1 WtCom= 1.00D+00 WtEn= 0.00D+00
 Coeff-Com:  0.119D-05 0.361D-06 0.123D-04 0.145D-04-0.345D-04-0.354D-03
 Coeff-Com: -0.716D-03 0.360D-03 0.362D-02 0.967D-02 0.186D-02-0.442D-01
 Coeff-Com: -0.694D-01-0.560D-01 0.320D+00 0.836D+00
 Coeff:      0.119D-05 0.361D-06 0.123D-04 0.145D-04-0.345D-04-0.354D-03
 Coeff:     -0.716D-03 0.360D-03 0.362D-02 0.967D-02 0.186D-02-0.442D-01
 Coeff:     -0.694D-01-0.560D-01 0.320D+00 0.836D+00
 Gap=     0.128 Goal=   None    Shift=    0.000
 Gap=     0.086 Goal=   None    Shift=    0.000
 RMSDP=2.64D-08 MaxDP=3.30D-06 DE=-3.06D-10 OVMax= 1.08D-05

 Cycle  17  Pass 1  IDiag  1:
 RMSU=  1.21D-08    CP:  9.53D-01  2.07D+00  8.08D-01  6.22D-01  7.93D-01
                    CP:  1.31D+00  1.63D+00  1.62D+00  1.13D+00  1.26D+00
                    CP:  1.11D+00  1.31D+00  1.18D+00  1.37D+00  1.22D+00
                    CP:  1.05D+00
 E= -1471.64015178413     Delta-E=       -0.000000000115 Rises=F Damp=F
 DIIS: error= 1.67D-07 at cycle  17 NSaved=  17.
 NSaved=17 IEnMin=17 EnMin= -1471.64015178413     IErMin=17 ErrMin= 1.67D-07
 ErrMax= 1.67D-07  0.00D+00 EMaxC= 1.00D-01 BMatC= 4.62D-11 BMatP= 1.44D-10
 IDIUse=1 WtCom= 1.00D+00 WtEn= 0.00D+00
 Coeff-Com:  0.212D-05-0.235D-05 0.235D-04 0.468D-04 0.770D-04-0.367D-04
 Coeff-Com: -0.487D-03-0.741D-03 0.151D-02 0.645D-02 0.557D-02-0.110D-01
 Coeff-Com: -0.417D-01-0.109D+00 0.781D-01 0.482D+00 0.590D+00
 Coeff:      0.212D-05-0.235D-05 0.235D-04 0.468D-04 0.770D-04-0.367D-04
 Coeff:     -0.487D-03-0.741D-03 0.151D-02 0.645D-02 0.557D-02-0.110D-01
 Coeff:     -0.417D-01-0.109D+00 0.781D-01 0.482D+00 0.590D+00
 Gap=     0.128 Goal=   None    Shift=    0.000
 Gap=     0.086 Goal=   None    Shift=    0.000
 RMSDP=1.02D-08 MaxDP=1.21D-06 DE=-1.15D-10 OVMax= 2.95D-06

 Cycle  18  Pass 1  IDiag  1:
 RMSU=  6.39D-09    CP:  9.53D-01  2.07D+00  8.08D-01  6.22D-01  7.93D-01
                    CP:  1.31D+00  1.63D+00  1.62D+00  1.13D+00  1.26D+00
                    CP:  1.11D+00  1.31D+00  1.19D+00  1.40D+00  1.29D+00
                    CP:  1.28D+00  9.10D-01
 E= -1471.64015178414     Delta-E=       -0.000000000013 Rises=F Damp=F
 DIIS: error= 9.37D-08 at cycle  18 NSaved=  18.
 NSaved=18 IEnMin=18 EnMin= -1471.64015178414     IErMin=18 ErrMin= 9.37D-08
 ErrMax= 9.37D-08  0.00D+00 EMaxC= 1.00D-01 BMatC= 8.33D-12 BMatP= 4.62D-11
 IDIUse=1 WtCom= 1.00D+00 WtEn= 0.00D+00
 Coeff-Com:  0.245D-06-0.840D-06 0.568D-05 0.162D-04 0.491D-04 0.132D-03
 Coeff-Com:  0.704D-04-0.455D-03-0.795D-03-0.109D-02 0.158D-02 0.125D-01
 Coeff-Com:  0.955D-02-0.292D-01-0.854D-01-0.110D+00 0.248D+00 0.955D+00
 Coeff:      0.245D-06-0.840D-06 0.568D-05 0.162D-04 0.491D-04 0.132D-03
 Coeff:      0.704D-04-0.455D-03-0.795D-03-0.109D-02 0.158D-02 0.125D-01
 Coeff:      0.955D-02-0.292D-01-0.854D-01-0.110D+00 0.248D+00 0.955D+00
 Gap=     0.128 Goal=   None    Shift=    0.000
 Gap=     0.086 Goal=   None    Shift=    0.000
 RMSDP=7.88D-09 MaxDP=1.19D-06 DE=-1.27D-11 OVMax= 2.36D-06

 Cycle  19  Pass 1  IDiag  1:
 RMSU=  3.07D-09    CP:  9.53D-01  2.07D+00  8.08D-01  6.22D-01  7.93D-01
                    CP:  1.31D+00  1.63D+00  1.62D+00  1.13D+00  1.26D+00
                    CP:  1.11D+00  1.31D+00  1.20D+00  1.42D+00  1.37D+00
                    CP:  1.42D+00  1.27D+00  1.22D+00
 E= -1471.64015178419     Delta-E=       -0.000000000049 Rises=F Damp=F
 DIIS: error= 5.59D-08 at cycle  19 NSaved=  19.
 NSaved=19 IEnMin=19 EnMin= -1471.64015178419     IErMin=19 ErrMin= 5.59D-08
 ErrMax= 5.59D-08  0.00D+00 EMaxC= 1.00D-01 BMatC= 2.44D-12 BMatP= 8.33D-12
 IDIUse=1 WtCom= 1.00D+00 WtEn= 0.00D+00
 Coeff-Com: -0.349D-06 0.154D-06-0.228D-05-0.268D-05 0.707D-05 0.736D-04
 Coeff-Com:  0.148D-03-0.453D-04-0.727D-03-0.202D-02-0.491D-03 0.825D-02
 Coeff-Com:  0.141D-01 0.108D-01-0.549D-01-0.154D+00-0.212D-01 0.443D+00
 Coeff-Com:  0.757D+00
 Coeff:     -0.349D-06 0.154D-06-0.228D-05-0.268D-05 0.707D-05 0.736D-04
 Coeff:      0.148D-03-0.453D-04-0.727D-03-0.202D-02-0.491D-03 0.825D-02
 Coeff:      0.141D-01 0.108D-01-0.549D-01-0.154D+00-0.212D-01 0.443D+00
 Coeff:      0.757D+00
 Gap=     0.128 Goal=   None    Shift=    0.000
 Gap=     0.086 Goal=   None    Shift=    0.000
 RMSDP=3.55D-09 MaxDP=5.79D-07 DE=-4.91D-11 OVMax= 1.12D-06

 Error on total polarization charges =  0.04402
 SCF Done:  E(UB3LYP) =  -1471.64015178     A.U. after   19 cycles
            NFock= 19  Conv=0.35D-08     -V/T= 2.0096
 <Sx>= 0.0000 <Sy>= 0.0000 <Sz>= 0.5000 <S**2>= 0.7743 S= 0.5121
 <L.S>= 0.000000000000E+00
 KE= 1.457633295435D+03 PE=-1.006379183849D+04 EE= 3.796115350674D+03
 Annihilation of the first spin contaminant:
 S**2 before annihilation     0.7743,   after     0.7504
 Leave Link  502 at Fri Dec 14 11:59:42 2018, MaxMem=  1342177280 cpu:            5016.6 elap:             321.1
 (Enter /gpfs/apps/hpc/Apps/Restricted/Gaussian/Rev_A.03/g16/l601.exe)
 Copying SCF densities to generalized density rwf, IOpCl= 1 IROHF=0.

 **********************************************************************

            Population analysis using the SCF density.

 **********************************************************************

 Alpha  occ. eigenvalues --  -19.16441 -14.42851 -14.42587 -14.40411 -14.35389
 Alpha  occ. eigenvalues --  -14.34710 -10.32573 -10.28914 -10.28445 -10.26488
 Alpha  occ. eigenvalues --  -10.26365 -10.25333 -10.24947 -10.24783 -10.24041
 Alpha  occ. eigenvalues --  -10.23877 -10.23681 -10.22976 -10.22824 -10.22527
 Alpha  occ. eigenvalues --  -10.22357 -10.22303 -10.21938 -10.21849 -10.21789
 Alpha  occ. eigenvalues --  -10.21643 -10.21507 -10.21071 -10.19587 -10.19110
 Alpha  occ. eigenvalues --  -10.18460 -10.18438 -10.18142 -10.18135 -10.17909
 Alpha  occ. eigenvalues --   -1.08268  -1.05718  -1.04185  -0.95460  -0.93771
 Alpha  occ. eigenvalues --   -0.90937  -0.89228  -0.88326  -0.87377  -0.82948
 Alpha  occ. eigenvalues --   -0.81619  -0.80972  -0.79701  -0.79012  -0.76329
 Alpha  occ. eigenvalues --   -0.75456  -0.74484  -0.73840  -0.71031  -0.69597
 Alpha  occ. eigenvalues --   -0.68978  -0.68424  -0.67162  -0.65949  -0.64623
 Alpha  occ. eigenvalues --   -0.63653  -0.62178  -0.61370  -0.60403  -0.59506
 Alpha  occ. eigenvalues --   -0.58914  -0.56949  -0.55999  -0.55298  -0.54244
 Alpha  occ. eigenvalues --   -0.53296  -0.53128  -0.51213  -0.50755  -0.50286
 Alpha  occ. eigenvalues --   -0.50176  -0.49689  -0.48711  -0.47985  -0.47739
 Alpha  occ. eigenvalues --   -0.46659  -0.46296  -0.45919  -0.45396  -0.45291
 Alpha  occ. eigenvalues --   -0.45033  -0.44190  -0.43826  -0.43340  -0.43280
 Alpha  occ. eigenvalues --   -0.42833  -0.41261  -0.41247  -0.40845  -0.40711
[...]
 040,0.00000012,0.,-0.00000225,0.00000318,-0.00000012,0.00000368,0.0000
 0062,0.00000013,0.00000161,-0.00000269,0.00000016,0.00000034,0.0000021
 4,-0.00000011,0.00000309,-0.00000269,0.00000034,-0.00000553,-0.0000021
 9,0.,0.00000151,0.00000572,-0.00000015,-0.00000065,-0.00000471,0.00000
 037,-0.00000027,0.00000088,-0.00000003,0.00000004,-0.00000011,-0.00000
 002,0.00000050,0.00000046,-0.00000010,-0.00000004,-0.00000022,-0.00000
 021,-0.00001034,0.00000746,-0.00000022,-0.00000067,-0.00000039,0.,0.00
 000213,-0.00000228,0.00000022,-0.00000310,0.00000456,-0.00000045,0.000
 00399,-0.00000272,0.00000058,-0.00000110,-0.00000168,-0.00000004,0.000
 00073,0.00000158,-0.00000004,0.00000008,-0.00000033,0.00000004,-0.0000
 0030,0.00000011,-0.00000002,0.00000032,0.00000041,-0.00000022,-0.00000
 007,0.00000014,0.00000011,-0.00000007,0.00000022,-0.00000009,-0.000000
 24,0.00000025,0.00000004,0.00000006,-0.00000028,0.00000004,-0.00000008
 ,-0.00000011,0.,-0.00000010,-0.00000012,0.,-0.00000023,0.00000013,-0.0
 0000004,-0.00000103,0.00000032,-0.00000011,-0.00000419,0.00000097,-0.0
 0000028,-0.00000157,-0.00000103,-0.00000002,-0.00002884,-0.00000664,0.
 00000053,0.00002635,0.00000191,-0.00000061,-0.00003854,-0.00010911,0.0
 0001433,-0.00022728,-0.00009169,0.00003913,-0.00012638,0.00008125,0.00
 001304,0.00013175,0.00020093,-0.00004836,0.00066111,0.00055311,0.00047
 958,0.00038922,0.00054804,-0.00049295,0.00008587,-0.00010681,-0.000001
 80,-0.00195525,-0.01000127,0.00023336,-0.00071126,0.00005628,0.0000843
 9,-0.00006298,0.00028988,-0.00012519,-0.00082172,-0.00536074,0.0010474
 7,-0.00043881,0.00005893,-0.00013758,-0.00010164,0.00027245,0.00007563
 ,-0.05322225,-0.28665123,0.02455799,0.00011560,0.00043816,-0.00029514,
 -0.00138118,0.00059455,-0.00195363,0.00011103,0.00048621,0.00037315,-0
 .00046274,0.00110578,0.00117817,-0.00345750,-0.01566268,0.00156861,0.0
 6152249,0.31326066,-0.00000037,-0.00000044,0.00000040,-0.00000003,-0.0
 0000018,0.00000006,0.00000051,-0.00000038,-0.00000002,0.00000003,-0.00
 000013,0.00000115,0.00000162,0.00000090,0.00000045,-0.00000131,-0.0000
 0407,-0.00001531,-0.00000145,0.00000005,-0.00000001,0.,-0.00000003,-0.
 00000011,0.00000021,-0.00000023,0.00000010,-0.00000023,-0.00000015,0.0
 0000091,-0.00000003,0.00000007,-0.00000011,0.,-0.00000015,-0.00000009,
 -0.00000020,0.00000014,0.00000006,0.00000032,0.00000017,0.00000027,-0.
 00000025,-0.00000030,0.00000040,0.00000003,0.00000023,0.00000007,0.000
 00017,-0.00000002,-0.00000007,0.,0.,-0.00000010,-0.00000004,-0.0000000
 7,-0.00000029,0.,0.,-0.00000063,0.00000075,-0.00000076,0.00000007,0.00
 000003,0.00000022,-0.00000007,-0.00000016,0.00000011,-0.00000014,0.000
 00019,-0.00000028,0.00000006,-0.00000028,0.00000016,-0.00000006,0.0000
 0011,0.00000016,0.,0.,-0.00000020,0.00000009,0.,0.00000002,0.,0.000000
 01,0.,-0.00000001,0.,0.,0.00000003,0.,0.,-0.00000003,0.,-0.00000002,0.
 ,0.00000002,-0.00000001,0.,-0.00000002,-0.00000002,-0.00000006,-0.0000
 0001,0.00000004,0.,0.,-0.00000001,0.00000002,0.00000002,-0.00000001,-0
 .00000001,0.00000003,-0.00000011,0.00000017,0.00000012,-0.00000006,0.0
 0000022,0.00000007,0.00000001,0.00000015,0.00000255,0.00000028,0.00000
 021,-0.00000259,-0.00000040,-0.00000098,0.00000708,0.00001477,0.000025
 69,0.00001651,0.00000833,-0.00000535,0.00002471,0.00000148,0.00012378,
 -0.00003004,-0.00005386,-0.00027937,0.00117585,-0.00029491,0.00089180,
 -0.00120378,0.00053645,0.00116390,-0.00001844,-0.00000503,-0.00005283,
 -0.00650941,-0.02664693,0.00082135,-0.00007078,0.00055648,0.00005295,0
 .00030953,0.00015853,-0.00009659,0.00712841,0.03025523,-0.00534863,0.0
 0021507,-0.00066266,0.00010045,-0.00033917,-0.00025080,-0.00002946,0.0
 0616321,0.02444249,-0.04894614,0.00091658,0.00036171,0.00106640,-0.004
 04876,-0.00170748,-0.00355222,-0.00084552,-0.00042726,0.00118993,0.003
 73204,0.00093991,-0.00506937,-0.00020445,-0.00061571,-0.00046117,-0.00
 641823,-0.02660525,0.05841844,0.00009986,0.00003201,-0.00000157,0.0000
 2655,-0.00003462,-0.00000199,-0.00000510,-0.00012649,0.00000853,0.0001
 4927,0.00003609,-0.00000557,-0.00005058,0.00014423,-0.00000937,-0.0000
 4263,-0.00007934,0.00000750,-0.00052441,-0.00054796,-0.00000485,-0.000
 00653,0.00000488,-0.00000023,0.00000768,0.00001055,-0.00000003,0.00000
 708,0.00000719,-0.00000031,-0.00302114,0.00529545,-0.00071394,-0.01279
 158,-0.00786072,0.00013071,0.00222084,-0.00078821,0.00028440,-0.001143
 75,-0.00094586,0.00002746,0.00046759,0.00102576,-0.00003718,0.00108308
 ,-0.00051073,0.00000820,0.00816987,-0.00754492,0.00143019,-0.00089940,
 -0.00001365,-0.00023606,0.00010847,-0.00003063,-0.00000380,0.00005983,
 0.00001304,-0.00000470,0.00032786,0.00028954,0.00001690,0.00388663,0.0
 1076578,-0.00022158,0.00025982,-0.00047840,0.00029531,-0.00073463,-0.0
 0023855,-0.00004004,0.00073020,0.00055761,0.00001107,-0.00010067,-0.00
 110008,0.00003022,-0.00049384,-0.00164453,-0.00010589,-0.00008739,-0.0
 0030304,-0.00000525,0.00000864,-0.00031230,0.00002988,-0.00034424,-0.0
 0021141,0.00008455,0.00006817,-0.00010444,-0.00001748,0.00005961,-0.00
 011610,-0.00000971,0.00001254,-0.00002117,-0.00001849,-0.00013870,-0.0
 0012130,0.00001497,-0.00002229,-0.00000548,-0.00007461,-0.00002059,0.0
 0000483,0.00005567,0.00011193,-0.00003820,0.00001138,-0.00245100,-0.01
 188520,0.00116027,0.00815918,0.00570355,-0.00044900,-0.32430257,-0.168
 49650,-0.01039562,0.00039017,0.00005572,0.00000563,-0.00009168,0.00003
 597,-0.00000387,-0.00006541,0.00003541,-0.00000169,0.00001602,0.000003
 40,-0.00000084,0.00004380,-0.00003720,0.00000375,-0.00001347,0.0000270
 9,-0.00000271,0.00000532,-0.00000879,0.00001105,0.00000407,-0.00001060
 ,-0.00000971,0.00000403,-0.00000443,0.00000018,-0.00000162,0.00000364,
 -0.00000582,-0.00000027,0.00000078,-0.00000006,-0.00000084,0.00000008,
 0.00000090,-0.00000074,0.00000476,0.00000529,-0.00000056,0.00000087,-0
 .00000025,-0.00000080,0.00000002,-0.00000028,-0.00000140,-0.00000259,0
 .00000020,0.00000454,-0.00000139,-0.00000181,0.00000017,-0.00000035,0.
 00000073,0.00000468,-0.00000109,0.00000135,0.00000006,-0.00000061,-0.0
 0000071,0.00000319,-0.00000064,-0.00000006,-0.00000015,0.00000135,-0.0
 0000005,0.32148239,0.00003529,0.00002199,-0.00000481,0.00001133,0.0001
 9639,-0.00001803,-0.00001550,-0.00008485,0.00000588,0.00009999,0.00001
 163,-0.00000255,-0.00003115,0.00008674,-0.00000531,-0.00004801,-0.0000
 2162,0.00000292,0.00023637,-0.00063169,0.00006796,-0.00000372,0.000000
 38,-0.00000029,0.00000107,0.00000337,-0.00000016,0.00000253,0.00000460
 ,-0.00000006,0.00504906,-0.00212764,0.00050238,0.00919947,0.01610144,-
 0.00065427,-0.00010190,0.00013400,-0.00008105,-0.00027634,-0.00021665,
 -0.00000904,0.00022992,0.00007746,-0.00001703,0.00006006,0.00127598,-0
 .00002628,-0.02895102,-0.00737923,-0.00180849,-0.00031383,-0.00058569,
 -0.00005775,0.00007161,-0.00003592,0.00001331,0.00003207,-0.00000825,0
 .00000380,-0.00042703,-0.00012246,-0.00001639,0.00213637,-0.00581567,0
 .00058329,0.00063128,0.00020212,-0.00008562,-0.00037993,0.00042774,-0.
 00006922,0.00022121,-0.00030328,0.00006049,-0.00001886,0.00017490,-0.0
 0000551,0.00016526,0.00032071,0.00006132,0.00003139,0.00015818,0.00000
 002,-0.00005193,0.00010306,-0.00001662,0.00010222,0.00010826,-0.000057
 64,-0.00003623,0.00006282,0.00000825,-0.00003362,0.00007608,0.00000336
 ,-0.00001928,0.00005799,0.00000829,-0.00002458,0.00001727,-0.00000444,
 -0.00002602,0.00000447,0.00002351,-0.00003171,-0.00000248,-0.00002532,
 -0.00007360,0.00001692,-0.00000810,-0.00486848,0.00068154,-0.00081137,
 -0.00157435,-0.00597882,0.00071874,-0.16160299,-0.17336418,-0.00158668
 ,0.00010919,0.00015867,-0.00001296,-0.00005934,0.00000724,0.00000281,-
 0.00003538,0.00001272,0.00000020,0.00000634,0.00000215,-0.00000044,0.0
 0002151,-0.00002075,0.00000169,-0.00000504,0.00001540,-0.00000155,0.00
 000326,-0.00000406,0.00000574,0.00000237,-0.00000483,-0.00000484,0.000
 00180,-0.00000319,0.00000023,-0.00000051,0.00000276,-0.00000306,-0.000
 00045,-0.00000027,-0.00000002,-0.00000067,0.00000024,-0.00000011,-0.00
 000018,0.00000300,0.00000250,-0.00000062,-0.00000015,0.,-0.00000056,0.
 00000022,0.00000020,-0.00000038,-0.00000109,0.00000020,0.00000214,-0.0
 0000070,-0.00000078,0.00000011,-0.00000099,0.00000043,0.00000219,-0.00
 000059,0.00000056,0.00000008,-0.00000098,-0.00000025,0.00000143,-0.000
 00028,-0.00000011,-0.00000027,0.00000015,-0.00000002,0.18009768,0.1758
 8034,0.00000664,0.00000504,-0.00003227,0.00000393,-0.00001877,0.000022
 78,-0.00000031,-0.00000357,-0.00000413,0.00000408,0.00000100,-0.000002
 93,-0.00000124,0.00000490,0.00000134,-0.00000055,-0.00000555,-0.000003
 59,-0.00004136,0.00004662,0.00032534,-0.00000013,0.00000060,0.00000425
 ,0.00000047,0.00000051,-0.00000048,0.00000034,0.00000037,0.00000272,-0
 .00034210,0.00042778,0.00281758,-0.00027668,-0.00136356,-0.00669286,0.
 00008916,-0.00005857,-0.00119805,-0.00000650,-0.00003608,0.00005047,0.
 00001160,-0.00000501,-0.00031474,-0.00001122,0.00004566,0.00122737,0.0
 0294979,-0.00009643,-0.00459645,-0.00020872,-0.00006519,-0.00039344,0.
 00000332,0.00000781,0.00009230,-0.00000029,0.00000512,0.00004525,0.000
 06772,0.00003080,-0.00016102,0.00022395,0.00143970,0.00014619,0.000138
 00,-0.00022601,-0.00195153,-0.00001198,-0.00006634,-0.00019137,0.00002
 406,0.00009132,0.00020417,0.00000583,-0.00012333,-0.00002238,-0.000193
 36,-0.00014870,0.00103935,-0.00000622,-0.00004333,-0.00005693,0.000020
 44,-0.00004672,-0.00012963,-0.00003842,-0.00002772,0.00003478,0.000007
 55,-0.00001888,-0.00000472,0.00000730,-0.00001578,-0.00000387,0.000002
 43,-0.00000755,-0.00000727,-0.00000907,-0.00001191,-0.00004785,-0.0000
 1017,0.00000324,0.00000143,0.00001327,0.00000061,0.00001960,0.00001677
 ,-0.00000568,0.00000001,0.00039977,-0.00145113,-0.00445830,0.00018255,
 0.00131682,0.00559440,-0.01171209,-0.00279709,-0.01040998,0.00001019,-
 0.00001863,-0.00009358,-0.00000036,0.00000276,0.00002365,-0.00000139,0
 .00000154,0.00000319,0.00000067,0.,-0.00000023,0.00000132,-0.00000102,
 -0.00000214,-0.00000037,0.00000060,0.00000059,0.00000055,0.00000014,0.
 00000140,-0.00000009,-0.00000048,0.00000083,0.00000013,-0.00000001,0.0
 0000026,0.00000009,0.00000010,-0.00000032,0.00000011,0.00000006,-0.000
 00008,-0.00000044,-0.00000029,-0.00000075,-0.00000024,-0.00000007,0.00
 000003,-0.00000010,0.00000003,-0.00000008,0.00000028,0.00000007,-0.000
 00099,0.,-0.00000004,0.00000053,0.00000048,0.,-0.00000051,-0.00000004,
 -0.00000007,0.00000022,-0.00000020,-0.00000014,-0.00000031,0.00000007,
 0.00000019,0.00000013,0.00000004,-0.00000002,-0.00000023,0.,0.00000006
 ,-0.00000014,0.00877768,0.00328515,0.01884286,0.00126927,-0.00335678,0
 .00013241,-0.00709528,-0.00470678,0.00033757,0.00159990,0.00113050,-0.
 00000402,-0.00108367,0.00042265,-0.00000664,0.00066488,-0.00036895,0.0
 0002043,0.00070559,0.00029744,-0.00005411,-0.00718195,0.01209363,-0.00
 063030,-0.00015444,-0.00010626,-0.00002338,0.00012462,0.00011960,-0.00
 001407,0.00006866,0.00004309,-0.00000218,0.00668370,-0.00442028,0.0005
 0034,0.00139968,0.00232616,-0.00010115,0.00116136,-0.00080752,0.000101
 26,-0.00146626,-0.00052256,-0.00002577,-0.00111319,0.00145298,-0.00010
 417,-0.00057380,-0.00226435,0.00021460,-0.00720189,0.00169348,-0.00042
 085,-0.00009227,0.00018470,-0.00001901,-0.00009062,-0.00007628,-0.0000
 0330,-0.00002140,0.00017151,-0.00002958,-0.39910141,0.04666296,-0.0047
 9022,0.00005321,-0.00064637,0.00003814,0.00006643,0.00037222,0.0000217
 0,0.00034232,-0.00069931,0.00002812,-0.00045774,0.00038355,-0.00007550
 ,0.00020672,0.00018989,0.00001400,-0.00010171,-0.00011159,0.00000229,-
 0.00023619,0.00040749,-0.00032783,0.00005887,-0.00001411,0.00000559,-0
 .00001723,-0.00003799,0.00002655,0.00000989,-0.00002221,-0.00000127,0.
 00001241,-0.00003503,-0.00000252,0.00002179,-0.00004872,-0.00000217,0.
 00002157,0.00003251,-0.00000807,0.00003525,0.00001006,0.00000828,0.000
 03919,0.00001067,0.00000124,0.00004148,-0.00000090,0.00000561,0.000240
 80,0.00034655,0.00000296,0.00192530,0.00305678,0.00066026,0.00199548,0
 .00450439,-0.00024576,0.00798049,-0.00110438,-0.00006725,-0.00009223,0
 .00061135,-0.00008769,-0.00042828,0.00050447,-0.00003471,0.00015140,0.
 00001260,-0.00000520,0.00034464,-0.00039031,0.00004372,-0.00007644,0.0
 0026580,-0.00002808,0.00005967,-0.00007142,0.00009479,0.00004612,-0.00
 008501,-0.00008196,0.00003826,-0.00005676,0.00000375,-0.00000488,0.000
 03403,-0.00005085,-0.00000737,-0.00000042,0.00000168,-0.00001094,0.000
 00060,-0.00000610,0.00000139,0.00004054,0.00004316,-0.00001025,0.00000
 062,-0.00000254,-0.00000900,0.00000174,0.00000923,-0.00000902,-0.00001
 443,0.00000176,0.00003128,-0.00001203,-0.00000870,0.00000318,-0.000009
 67,0.00000454,0.00003169,-0.00001040,0.00000624,0.00000261,-0.00001038
 ,-0.00000321,0.00001584,-0.00000227,-0.00000077,-0.00000152,0.00000381
 ,-0.00000016,-0.00062519,0.00044888,-0.00009692,0.39980933,-0.00346366
 ,-0.00502229,0.00053811,-0.02007542,0.01128305,-0.00135120,0.00096326,
 0.00078220,0.00008835,-0.00000744,0.00004094,0.00001008,-0.00000939,0.
 00000231,-0.00001709,-0.00052408,0.00123509,0.00000462,0.03149824,0.00
 691320,-0.00033129,0.00035710,-0.00035278,0.00006295,0.00000410,-0.000
 01846,0.00000304,0.00001053,-0.00001834,0.00000222,0.00067959,-0.00703
 095,0.00049413,0.00106893,0.00049080,0.00004570,0.00027769,-0.00016227
 ,0.00002190,-0.00038385,0.00004901,-0.00000705,-0.00032169,0.00021888,
 -0.00003266,-0.00066035,-0.00016483,-0.00014300,-0.00397834,0.00142301
 ,-0.00032236,-0.00002098,0.00009681,-0.00001016,-0.00002424,0.00003675
 ,-0.00000175,-0.00008559,0.00014647,-0.00002495,0.03887325,-0.07762154
 ,0.00472749,0.00013766,-0.00051048,0.00003616,-0.00012369,0.00037396,-
 0.00002056,0.00064798,-0.00063781,0.00008856,-0.00055943,0.00034366,-0
 .00007811,0.00018837,0.00022095,0.00000863,-0.00012868,-0.00011835,0.0
 0000018,0.00000466,0.00014995,-0.00005867,0.00003932,-0.00001671,0.000
 00377,-0.00003557,-0.00005005,0.00003515,0.00002980,-0.00003751,-0.000
 01040,0.00003058,-0.00004489,0.00000652,0.00000435,-0.00004505,-0.0000
 0516,0.00001627,0.00002816,-0.00000677,0.00002787,0.00000744,0.0000052
 5,0.00003081,0.00000847,0.00000258,0.00003344,-0.00000034,0.00000452,0
 .00018489,0.00024599,0.00000330,0.00628351,-0.00261211,0.00051236,0.00
 191720,0.00304901,-0.00010036,0.00499954,-0.00682023,0.00047673,0.0003
 1711,0.00116596,0.00005754,-0.00016619,-0.00043907,0.00004848,-0.00009
 761,0.00009442,-0.00000946,0.00036260,0.00008010,-0.00001737,0.0000013
 5,0.00010036,-0.00000251,0.00001189,-0.00000875,0.00000845,0.00001352,
 -0.00001326,-0.00000908,-0.00000224,-0.00000902,0.00000088,-0.00000078
 ,0.00000483,-0.00000609,0.00000069,0.00000100,-0.00000130,-0.00000101,
 0.00000183,-0.00000056,0.00000056,0.00000670,0.00000622,0.00000101,0.0
 0000197,0.00000103,-0.00000091,0.00000187,0.00000011,-0.00000090,-0.00
 000105,0.00000029,0.00000312,-0.00000116,-0.00000093,0.,-0.00000158,0.
 00000042,0.00000353,-0.00000133,0.00000054,-0.00000021,-0.00000156,-0.
 00000004,0.00000183,-0.00000033,-0.00000017,-0.00000036,-0.00000013,0.
 ,-0.00052978,0.00030737,-0.00005493,-0.05782373,0.07284971,0.00043385,
 0.00062149,0.00253469,0.00183181,-0.00146767,-0.00552634,-0.00017348,-
 0.00012998,-0.00115638,0.00003238,0.00001477,0.00001397,-0.00001342,0.
 00000483,-0.00022746,0.00006903,-0.00005342,0.00110171,-0.00139768,-0.
 00065765,-0.00325407,0.00000582,0.00012636,-0.00018094,0.00000698,0.00
 001028,0.00007479,0.00000174,0.00000468,0.00003123,-0.00001330,0.00021
 140,0.00056917,-0.00003135,0.00013010,0.00029122,0.00003174,-0.0000035
 6,0.00000566,-0.00001645,0.00000266,0.00015929,0.00000802,-0.00002446,
 -0.00037936,0.00002863,-0.00005728,-0.00203246,-0.00006796,-0.00002845
 ,-0.00094930,-0.00000297,0.00000573,-0.00000654,-0.00000319,0.00000387
 ,0.00004751,-0.00000106,-0.00000577,-0.00003415,-0.00538817,0.00522959
 ,-0.01846651,0.00000138,-0.00001296,-0.00000663,0.00001356,0.00000024,
 -0.00017668,0.00003579,-0.00001195,-0.00013133,-0.00001651,0.00000928,
 0.00001290,0.00000601,0.00000610,-0.00000362,-0.00000210,-0.00000488,0
 .00000750,-0.00018561,-0.00014588,-0.00022170,0.00000066,0.00000027,0.
 00000626,0.00000313,0.00000044,0.00000127,0.00000159,-0.00000562,0.000
 00299,-0.00000277,0.00000637,-0.00000283,0.00000121,-0.00000123,-0.000
 00289,0.00000027,0.00000089,0.00000027,0.00000011,-0.00000095,0.000000
 04,0.00000169,0.00000135,-0.00000037,0.00000070,0.,0.00000070,0.000002
 89,0.00000705,-0.00000716,-0.00005411,0.00023627,-0.00403070,0.0000186
 6,0.00009655,0.00036320,-0.00021305,0.00046880,0.00328754,0.00002663,0
 .00004898,0.00225735,0.00001787,0.00004714,0.00018606,0.00000894,-0.00
 001061,-0.00004949,-0.00001688,-0.00002228,-0.00017619,0.00000077,0.00
 000224,0.00003588,-0.00000475,0.00000549,-0.00000161,0.00000453,-0.000
 00811,-0.00000402,0.00000092,-0.00000065,-0.00000102,-0.00000022,-0.00
 000204,0.00000207,0.00000028,-0.00000147,0.00000032,-0.00000082,-0.000
 00126,-0.00000226,0.00000081,0.00000314,0.00000290,-0.00000070,0.00000
 130,-0.00000024,0.00000026,0.00000052,-0.00000212,-0.00000005,0.,0.000
 00173,-0.00000009,0.00000057,-0.00000109,0.00000027,0.00000001,0.00000
 030,0.00000082,-0.00000107,-0.00000091,-0.00000008,-0.00000015,0.00000
 023,0.00000008,-0.00000010,-0.00000104,0.,0.00000004,-0.00000025,-0.00
 002884,0.00003292,0.00028011,0.00503580,-0.00468227,0.02575881\\0.0000
 0075,-0.00000191,0.00001564,0.00000098,-0.00000121,0.00002319,0.000001
 44,0.00000014,0.00004010,0.00000195,0.00000042,0.00004884,0.00000162,-
 0.00000080,0.00004120,0.00000066,-0.00000177,0.00002436,-0.00000022,-0
 .00000274,-0.00000369,0.00000176,0.00000078,0.00004601,0.00000241,0.00
 000130,0.00006198,0.00000181,-0.00000016,0.00004851,-0.00000118,-0.000
 00155,-0.00001891,-0.00000096,-0.00000217,-0.00003408,-0.00000214,-0.0
 0000349,-0.00004893,-0.00000240,-0.00000521,-0.00004853,-0.00000146,-0
 .00000488,-0.00003396,-0.00000099,-0.00000285,-0.00001893,0.00000004,0
 .00000139,-0.00001316,-0.00000246,-0.00000373,-0.00006023,-0.00000261,
 -0.00000637,-0.00005984,-0.00000155,-0.00000594,-0.00003435,0.00000036
 ,-0.00000161,0.00001089,-0.00000059,0.00000414,-0.00001201,-0.00000010
 ,0.00000290,-0.00000460,0.00000080,0.00000386,0.00001242,0.00000107,0.
 00000616,0.00002154,0.00000089,0.00000807,0.00001297,0.00000033,0.0000
 0751,-0.00000405,0.00000088,0.00000219,0.00001890,0.00000133,0.0000100
 0,0.00002012,0.00000191,0.00000668,0.00003954,0.00000147,-0.00000391,0
 .00004452,0.00000266,0.00001740,0.00004370,0.00000208,0.00000697,0.000
 04483,0.00000008,0.00000925,-0.00001248,0.00000030,0.00001923,-0.00002
 134,-0.00000083,-0.00000170,-0.00001956,0.00000050,0.00001147,-0.00000
 416,-0.00000073,0.00000468,-0.00002884,-0.00000026,-0.00000041,-0.0000
 0642,-0.00000105,-0.00000042,-0.00002950,-0.00000026,-0.00000283,-0.00
 000089,-0.00000055,-0.00000354,-0.00000895,0.00000029,-0.00000208,0.00
 001597,0.00000078,-0.00000204,0.00002405,-0.00000023,-0.00000376,0.000
 00064,-0.00000029,-0.00000416,-0.00000663,0.00000042,0.00001201,-0.000
 00343,-0.00000124,-0.00001852,-0.00000078,-0.00000093,-0.00000525,-0.0
 0001971,0.00000014,0.00001181,-0.00001134,0.00000124,0.00001364,0.0000
 0975,0.00000095,0.00002230,-0.00000816,-0.00000148,-0.00001872,-0.0000
 0844,-0.00000048,-0.00001791,0.00001251,-0.00000185,-0.00002975,-0.000
 00337,-0.00000036,-0.00000276,-0.00000548,0.00000098,0.00002317,-0.000
 00852,-0.00000024,0.00001123,-0.00002451,-0.00000182,-0.00002900,-0.00
 000385,-0.00000194,-0.00002055,-0.00002162,-0.00000063,-0.00000302,-0.
 00001147,0.00000030,-0.00000154,0.00000763,-0.00000162,0.00000047,-0.0
 0003655,0.00000025,-0.00000089,0.00001147\\\@


 Not by the face shall a man be known, but by the mask.
                               -- Karen Blixen
 Job cpu time:       0 days 17 hours 18 minutes 22.8 seconds.
 Elapsed time:       0 days  1 hours  5 minutes  8.5 seconds.
 File lengths (MBytes):  RWF=   5668 Int=      0 D2E=      0 Chk=     76 Scr=      8
 Normal termination of Gaussian 16 at Fri Dec 14 13:47:08 2018.
