 Entering Gaussian System, Link 0=g16
 Initial command:
 /gpfs/apps/hpc/Apps/Restricted/Gaussian/Rev_A.03/g16/l1.exe "/gpfs/scratch60/fas/hammes_schiffer/jg2487/c42n01/Gau-51150.inp" -scrdir="/gpfs/scratch60/fas/hammes_schiffer/jg2487/c42n01/"
 Entering Link 1 = /gpfs/apps/hpc/Apps/Restricted/Gaussian/Rev_A.03/g16/l1.exe PID=     51151.
  
 Copyright (c) 1988,1990,1992,1993,1995,1998,2003,2009,2016,
            Gaussian, Inc.  All Rights Reserved.
  
 This is part of the Gaussian(R) 16 program.  It is based on
 the Gaussian(R) 09 system (copyright 2009, Gaussian, Inc.),
 the Gaussian(R) 03 system (copyright 2003, Gaussian, Inc.),
 the Gaussian(R) 98 system (copyright 1998, Gaussian, Inc.),
 the Gaussian(R) 94 system (copyright 1995, Gaussian, Inc.),
 the Gaussian 92(TM) system (copyright 1992, Gaussian, Inc.),
 the Gaussian 90(TM) system (copyright 1990, Gaussian, Inc.),
 the Gaussian 88(TM) system (copyright 1988, Gaussian, Inc.),
 the Gaussian 86(TM) system (copyright 1986, Carnegie Mellon
 University), and the Gaussian 82(TM) system (copyright 1983,
 Carnegie Mellon University). Gaussian is a federally registered
 trademark of Gaussian, Inc.
  
 This software contains proprietary and confidential information,
 including trade secrets, belonging to Gaussian, Inc.
  
 This software is provided under written license and may be
 used, copied, transmitted, or stored only in accord with that
 written license.
  
 The following legend is applicable only to US Government
 contracts under FAR:
  
                    RESTRICTED RIGHTS LEGEND
  
 Use, reproduction and disclosure by the US Government is
 subject to restrictions as set forth in subparagraphs (a)
 and (c) of the Commercial Computer Software - Restricted
 Rights clause in FAR 52.227-19.
  
 Gaussian, Inc.
 340 Quinnipiac St., Bldg. 40, Wallingford CT 06492
  
  
 ---------------------------------------------------------------
 Warning -- This program may not be used in any manner that
 competes with the business of Gaussian, Inc. or will provide
 assistance to any competitor of Gaussian, Inc.  The licensee
 of this program is prohibited from giving any competitor of
 Gaussian, Inc. access to this program.  By using this program,
 the user acknowledges that Gaussian, Inc. is engaged in the
 business of creating and licensing software in the field of
 computational chemistry and represents and warrants to the
 licensee that it is not a competitor of Gaussian, Inc. and that
 it will not use this program in any manner prohibited above.
 ---------------------------------------------------------------
  

 Cite this work as:
 Gaussian 16, Revision A.03,
 M. J. Frisch, G. W. Trucks, H. B. Schlegel, G. E. Scuseria, 
 M. A. Robb, J. R. Cheeseman, G. Scalmani, V. Barone, 
 G. A. Petersson, H. Nakatsuji, X. Li, M. Caricato, A. V. Marenich, 
 J. Bloino, B. G. Janesko, R. Gomperts, B. Mennucci, H. P. Hratchian, 
 J. V. Ortiz, A. F. Izmaylov, J. L. Sonnenberg, D. Williams-Young, 
 F. Ding, F. Lipparini, F. Egidi, J. Goings, B. Peng, A. Petrone, 
 T. Henderson, D. Ranasinghe, V. G. Zakrzewski, J. Gao, N. Rega, 
 G. Zheng, W. Liang, M. Hada, M. Ehara, K. Toyota, R. Fukuda, 
 J. Hasegawa, M. Ishida, T. Nakajima, Y. Honda, O. Kitao, H. Nakai, 
 T. Vreven, K. Throssell, J. A. Montgomery, Jr., J. E. Peralta, 
 F. Ogliaro, M. J. Bearpark, J. J. Heyd, E. N. Brothers, K. N. Kudin, 
 V. N. Staroverov, T. A. Keith, R. Kobayashi, J. Normand, 
 K. Raghavachari, A. P. Rendell, J. C. Burant, S. S. Iyengar, 
 J. Tomasi, M. Cossi, J. M. Millam, M. Klene, C. Adamo, R. Cammi, 
 J. W. Ochterski, R. L. Martin, K. Morokuma, O. Farkas, 
 J. B. Foresman, and D. J. Fox, Gaussian, Inc., Wallingford CT, 2016.
 
 ******************************************
 Gaussian 16:  ES64L-G16RevA.03 25-Dec-2016
                21-Dec-2018 
 ******************************************
 %chk=cyclohexyl-diBIP-E2PT.chk
 %mem=10GB
 %nprocshared=16
 Will use up to   16 processors via shared memory.
 ----------------------------------------------------------------------
 #p opt=tight freq=internalmodes b3lyp/6-31g(d,p) scrf=(cpcm,solvent=di
 chloromethane,read) nosymm empiricaldispersion=gd3bj int=grid=ultrafin
 e
 ----------------------------------------------------------------------
 1/7=10,18=20,19=15,26=6,38=1,40=2/1,3;
 2/9=110,12=2,15=1,17=6,18=5,40=1/2;
 3/5=1,6=6,7=101,11=2,25=1,30=1,70=2103,71=1,72=9,74=-5,75=-5,124=41/1,2,3;
 4//1;
 5/5=2,38=5,53=9/2;
 6/7=2,8=2,9=2,10=2,28=1/1;
 7/30=1/1,2,3,16;
 1/7=10,18=20,19=15,26=6/3(2);
 2/9=110,15=1/2;
 99//99;
 2/9=110,15=1/2;
 3/5=1,6=6,7=101,11=2,25=1,30=1,70=2105,71=1,72=9,74=-5,75=-5,124=41/1,2,3;
 4/5=5,16=3,69=1/1;
 5/5=2,38=5,53=9/2;
 7/30=1/1,2,3,16;
 1/7=10,18=20,19=15,26=6/3(-5);
 2/9=110,15=1/2;
 6/7=2,8=2,9=2,10=2,19=2,28=1/1;
 99/9=1/99;
 Leave Link    1 at Fri Dec 21 14:03:03 2018, MaxMem=  1342177280 cpu:               7.0 elap:               0.5
 (Enter /gpfs/apps/hpc/Apps/Restricted/Gaussian/Rev_A.03/g16/l101.exe)
 ----------------------------------------------------------------------
 cyclohexylimine diBIP oxidized, first and second proton transferred, o
 ptimization
 ----------------------------------------------------------------------
 Symbolic Z-matrix:
 Charge =  1 Multiplicity = 2
 C                     1.53415   1.14232  -0.1401 
 C                     0.31502   1.82781  -0.25379 
 C                     0.27338   3.20721  -0.45828 
 C                     1.50037   3.8611   -0.54897 
 C                     2.72073   3.17185  -0.43162 
 C                     2.77344   1.78994  -0.22639 
 C                    -0.1087   -0.35036   0.05537 
 H                    -0.66588   3.73722  -0.54573 
 H                     1.51665   4.93236  -0.70759 
 H                     3.65143   3.72265  -0.50254 
 C                    -2.2781   -1.5079    0.16837 
 C                    -3.03789  -2.70036   0.27506 
 C                    -2.44146  -3.94989   0.43363 
 C                    -1.04682  -3.98553   0.48173 
 C                    -0.2707   -2.82356   0.36451 
 C                    -0.86595  -1.5666    0.20438 
 C                    -4.34895  -0.92204   0.05281 
 H                    -3.03137  -4.85387   0.51732 
 H                    -0.54639  -4.93709   0.61018 
 H                     0.80861  -2.90574   0.40166 
 N                    -0.67179   0.86282  -0.12068 
 C                    -6.87359  -0.78331  -0.13278 
 C                    -5.56136  -0.12873  -0.04234 
 C                    -5.4673    1.249    -0.0352 
 C                    -6.61172   2.0656   -0.10606 
 C                    -7.87778   1.44412  -0.21108 
 C                    -8.05901   0.07598  -0.22785 
 H                    -4.48527   1.69844   0.04053 
 H                    -8.74794   2.07842  -0.2738 
 C                    -6.44996   3.58138  -0.06792 
 C                    -9.44724  -0.55118  -0.33723 
 O                    -6.9626   -2.03985  -0.12727 
 N                    -3.10624  -0.42157   0.03512 
 N                    -4.34461  -2.28182   0.19184 
 N                     1.23048  -0.19224   0.0473 
 H                     1.96916  -0.88564   0.1485 
 C                     4.03002   1.05485  -0.09769 
 H                     4.94092   1.6562   -0.17496 
 N                     4.04187  -0.21223   0.09153 
 C                     5.35362  -0.87124   0.20809 
 C                     6.19449  -0.71763  -1.07096 
 C                     6.13789  -0.38361   1.43836 
 H                     5.14761  -1.93847   0.34594 
 C                     7.53488  -1.44736  -0.9417 
 H                     6.3768    0.34897  -1.24738 
 H                     5.62559  -1.09191  -1.92714 
 C                     7.47904  -1.11444   1.56097 
 H                     6.31696   0.69372   1.33819 
 H                     5.53167  -0.52634   2.33796 
 C                     8.31503  -0.96284   0.28533 
 H                     8.12248  -1.30471  -1.8537 
 H                     7.35247  -2.52533  -0.84869 
 H                     8.02957  -0.73729   2.42788 
 H                     7.29351  -2.18031   1.74374 
 H                     9.25506  -1.51491   0.37987 
 H                     8.57824   0.09393   0.14979 
 H                    -5.21176  -2.81099   0.18842 
 H                    -1.69109   0.96049  -0.1393 
 C                    -9.52699  -1.40033  -1.62532 
 H                    -8.79325  -2.20512  -1.60891 
 H                    -10.52635  -1.83526  -1.71298 
 H                    -9.34631  -0.78099  -2.50792 
 C                    -5.62268   4.02282  -1.29535 
 H                    -5.48487   5.10721  -1.27116 
 H                    -4.63566   3.55403  -1.30256 
 H                    -6.13454   3.76083  -2.22455 
 C                    -10.55181   0.51472  -0.39696 
 H                    -10.55354   1.14618   0.49521 
 H                    -10.45531   1.15932  -1.27467 
 H                    -11.52108   0.01445  -0.45582 
 C                    -9.72231  -1.44267   0.89599 
 H                    -8.99977  -2.25351   0.96753 
 H                    -9.68124  -0.85062   1.8141 
 H                    -10.72613  -1.86867   0.81436 
 C                    -7.79851   4.31282  -0.08758 
 H                    -8.35678   4.1011   -1.00277 
 H                    -8.41717   4.03118   0.76841 
 H                    -7.62566   5.38985  -0.03928 
 C                    -5.69545   3.97489   1.22063 
 H                    -6.24888   3.66053   2.10886 
 H                    -4.70089   3.5253    1.2591 
 H                    -5.57741   5.0611    1.2566 
 
 ITRead=  0  0  0  0  0  0  0  0  0  0  0  0  0  0  0  0  0  0  0  0
 ITRead=  0  0  0  0  0  0  0  0  0  0  0  0  0  0  0  0  0  0  0  0
 ITRead=  0  0  0  0  0  0  0  0  0  0  0  0  0  0  0  0  0  0  0  0
 ITRead=  0  0  0  0  0  0  0  0  0  0  0  0  0  0  0  0  0  0  0  0
 ITRead=  0  0
 MicOpt= -1 -1 -1 -1 -1 -1 -1 -1 -1 -1 -1 -1 -1 -1 -1 -1 -1 -1 -1 -1
 MicOpt= -1 -1 -1 -1 -1 -1 -1 -1 -1 -1 -1 -1 -1 -1 -1 -1 -1 -1 -1 -1
 MicOpt= -1 -1 -1 -1 -1 -1 -1 -1 -1 -1 -1 -1 -1 -1 -1 -1 -1 -1 -1 -1
 MicOpt= -1 -1 -1 -1 -1 -1 -1 -1 -1 -1 -1 -1 -1 -1 -1 -1 -1 -1 -1 -1
 MicOpt= -1 -1
 NAtoms=     82 NQM=       82 NQMF=       0 NMMI=      0 NMMIF=      0
                NMic=       0 NMicF=      0.
                    Isotopes and Nuclear Properties:
 (Nuclear quadrupole moments (NQMom) in fm**2, nuclear magnetic moments (NMagM)
  in nuclear magnetons)

  Atom         1           2           3           4           5           6           7           8           9          10
 IAtWgt=          12          12          12          12          12          12          12           1           1           1
 AtmWgt=  12.0000000  12.0000000  12.0000000  12.0000000  12.0000000  12.0000000  12.0000000   1.0078250   1.0078250   1.0078250
 NucSpn=           0           0           0           0           0           0           0           1           1           1
 AtZEff=  -0.0000000  -0.0000000  -0.0000000  -0.0000000  -0.0000000  -0.0000000  -0.0000000  -0.0000000  -0.0000000  -0.0000000
 NQMom=    0.0000000   0.0000000   0.0000000   0.0000000   0.0000000   0.0000000   0.0000000   0.0000000   0.0000000   0.0000000
 NMagM=    0.0000000   0.0000000   0.0000000   0.0000000   0.0000000   0.0000000   0.0000000   2.7928460   2.7928460   2.7928460
 AtZNuc=   6.0000000   6.0000000   6.0000000   6.0000000   6.0000000   6.0000000   6.0000000   1.0000000   1.0000000   1.0000000

  Atom        11          12          13          14          15          16          17          18          19          20
 IAtWgt=          12          12          12          12          12          12          12           1           1           1
 AtmWgt=  12.0000000  12.0000000  12.0000000  12.0000000  12.0000000  12.0000000  12.0000000   1.0078250   1.0078250   1.0078250
 NucSpn=           0           0           0           0           0           0           0           1           1           1
 AtZEff=  -0.0000000  -0.0000000  -0.0000000  -0.0000000  -0.0000000  -0.0000000  -0.0000000  -0.0000000  -0.0000000  -0.0000000
 NQMom=    0.0000000   0.0000000   0.0000000   0.0000000   0.0000000   0.0000000   0.0000000   0.0000000   0.0000000   0.0000000
 NMagM=    0.0000000   0.0000000   0.0000000   0.0000000   0.0000000   0.0000000   0.0000000   2.7928460   2.7928460   2.7928460
 AtZNuc=   6.0000000   6.0000000   6.0000000   6.0000000   6.0000000   6.0000000   6.0000000   1.0000000   1.0000000   1.0000000

  Atom        21          22          23          24          25          26          27          28          29          30
 IAtWgt=          14          12          12          12          12          12          12           1           1          12
 AtmWgt=  14.0030740  12.0000000  12.0000000  12.0000000  12.0000000  12.0000000  12.0000000   1.0078250   1.0078250  12.0000000
 NucSpn=           2           0           0           0           0           0           0           1           1           0
 AtZEff=  -0.0000000  -0.0000000  -0.0000000  -0.0000000  -0.0000000  -0.0000000  -0.0000000  -0.0000000  -0.0000000  -0.0000000
 NQMom=    2.0440000   0.0000000   0.0000000   0.0000000   0.0000000   0.0000000   0.0000000   0.0000000   0.0000000   0.0000000
 NMagM=    0.4037610   0.0000000   0.0000000   0.0000000   0.0000000   0.0000000   0.0000000   2.7928460   2.7928460   0.0000000
 AtZNuc=   7.0000000   6.0000000   6.0000000   6.0000000   6.0000000   6.0000000   6.0000000   1.0000000   1.0000000   6.0000000

  Atom        31          32          33          34          35          36          37          38          39          40
 IAtWgt=          12          16          14          14          14           1          12           1          14          12
 AtmWgt=  12.0000000  15.9949146  14.0030740  14.0030740  14.0030740   1.0078250  12.0000000   1.0078250  14.0030740  12.0000000
 NucSpn=           0           0           2           2           2           1           0           1           2           0
 AtZEff=  -0.0000000  -0.0000000  -0.0000000  -0.0000000  -0.0000000  -0.0000000  -0.0000000  -0.0000000  -0.0000000  -0.0000000
 NQMom=    0.0000000   0.0000000   2.0440000   2.0440000   2.0440000   0.0000000   0.0000000   0.0000000   2.0440000   0.0000000
 NMagM=    0.0000000   0.0000000   0.4037610   0.4037610   0.4037610   2.7928460   0.0000000   2.7928460   0.4037610   0.0000000
 AtZNuc=   6.0000000   8.0000000   7.0000000   7.0000000   7.0000000   1.0000000   6.0000000   1.0000000   7.0000000   6.0000000

  Atom        41          42          43          44          45          46          47          48          49          50
 IAtWgt=          12          12           1          12           1           1          12           1           1          12
 AtmWgt=  12.0000000  12.0000000   1.0078250  12.0000000   1.0078250   1.0078250  12.0000000   1.0078250   1.0078250  12.0000000
 NucSpn=           0           0           1           0           1           1           0           1           1           0
 AtZEff=  -0.0000000  -0.0000000  -0.0000000  -0.0000000  -0.0000000  -0.0000000  -0.0000000  -0.0000000  -0.0000000  -0.0000000
 NQMom=    0.0000000   0.0000000   0.0000000   0.0000000   0.0000000   0.0000000   0.0000000   0.0000000   0.0000000   0.0000000
 NMagM=    0.0000000   0.0000000   2.7928460   0.0000000   2.7928460   2.7928460   0.0000000   2.7928460   2.7928460   0.0000000
 AtZNuc=   6.0000000   6.0000000   1.0000000   6.0000000   1.0000000   1.0000000   6.0000000   1.0000000   1.0000000   6.0000000

  Atom        51          52          53          54          55          56          57          58          59          60
 IAtWgt=           1           1           1           1           1           1           1           1          12           1
 AtmWgt=   1.0078250   1.0078250   1.0078250   1.0078250   1.0078250   1.0078250   1.0078250   1.0078250  12.0000000   1.0078250
 NucSpn=           1           1           1           1           1           1           1           1           0           1
 AtZEff=  -0.0000000  -0.0000000  -0.0000000  -0.0000000  -0.0000000  -0.0000000  -0.0000000  -0.0000000  -0.0000000  -0.0000000
 NQMom=    0.0000000   0.0000000   0.0000000   0.0000000   0.0000000   0.0000000   0.0000000   0.0000000   0.0000000   0.0000000
 NMagM=    2.7928460   2.7928460   2.7928460   2.7928460   2.7928460   2.7928460   2.7928460   2.7928460   0.0000000   2.7928460
 AtZNuc=   1.0000000   1.0000000   1.0000000   1.0000000   1.0000000   1.0000000   1.0000000   1.0000000   6.0000000   1.0000000

  Atom        61          62          63          64          65          66          67          68          69          70
 IAtWgt=           1           1          12           1           1           1          12           1           1           1
 AtmWgt=   1.0078250   1.0078250  12.0000000   1.0078250   1.0078250   1.0078250  12.0000000   1.0078250   1.0078250   1.0078250
 NucSpn=           1           1           0           1           1           1           0           1           1           1
 AtZEff=  -0.0000000  -0.0000000  -0.0000000  -0.0000000  -0.0000000  -0.0000000  -0.0000000  -0.0000000  -0.0000000  -0.0000000
 NQMom=    0.0000000   0.0000000   0.0000000   0.0000000   0.0000000   0.0000000   0.0000000   0.0000000   0.0000000   0.0000000
 NMagM=    2.7928460   2.7928460   0.0000000   2.7928460   2.7928460   2.7928460   0.0000000   2.7928460   2.7928460   2.7928460
 AtZNuc=   1.0000000   1.0000000   6.0000000   1.0000000   1.0000000   1.0000000   6.0000000   1.0000000   1.0000000   1.0000000

  Atom        71          72          73          74          75          76          77          78          79          80
 IAtWgt=          12           1           1           1          12           1           1           1          12           1
 AtmWgt=  12.0000000   1.0078250   1.0078250   1.0078250  12.0000000   1.0078250   1.0078250   1.0078250  12.0000000   1.0078250
 NucSpn=           0           1           1           1           0           1           1           1           0           1
 AtZEff=  -0.0000000  -0.0000000  -0.0000000  -0.0000000  -0.0000000  -0.0000000  -0.0000000  -0.0000000  -0.0000000  -0.0000000
 NQMom=    0.0000000   0.0000000   0.0000000   0.0000000   0.0000000   0.0000000   0.0000000   0.0000000   0.0000000   0.0000000
 NMagM=    0.0000000   2.7928460   2.7928460   2.7928460   0.0000000   2.7928460   2.7928460   2.7928460   0.0000000   2.7928460
 AtZNuc=   6.0000000   1.0000000   1.0000000   1.0000000   6.0000000   1.0000000   1.0000000   1.0000000   6.0000000   1.0000000

  Atom        81          82
 IAtWgt=           1           1
 AtmWgt=   1.0078250   1.0078250
 NucSpn=           1           1
 AtZEff=  -0.0000000  -0.0000000
 NQMom=    0.0000000   0.0000000
 NMagM=    2.7928460   2.7928460
 AtZNuc=   1.0000000   1.0000000
 Leave Link  101 at Fri Dec 21 14:03:04 2018, MaxMem=  1342177280 cpu:               5.4 elap:               0.4
 (Enter /gpfs/apps/hpc/Apps/Restricted/Gaussian/Rev_A.03/g16/l103.exe)

 GradGradGradGradGradGradGradGradGradGradGradGradGradGradGradGradGradGrad
 Berny optimization.
 Initialization pass.
                           ----------------------------
                           !    Initial Parameters    !
                           ! (Angstroms and Degrees)  !
 --------------------------                            --------------------------
 ! Name  Definition              Value          Derivative Info.                !
 --------------------------------------------------------------------------------
 ! R1    R(1,2)                  1.4032         estimate D2E/DX2                !
 ! R2    R(1,6)                  1.401          estimate D2E/DX2                !
 ! R3    R(1,35)                 1.3814         estimate D2E/DX2                !
 ! R4    R(2,3)                  1.3951         estimate D2E/DX2                !
 ! R5    R(2,21)                 1.3866         estimate D2E/DX2                !
 ! R6    R(3,4)                  1.3933         estimate D2E/DX2                !
 ! R7    R(3,8)                  1.082          estimate D2E/DX2                !
 ! R8    R(4,5)                  1.4065         estimate D2E/DX2                !
 ! R9    R(4,9)                  1.0831         estimate D2E/DX2                !
 ! R10   R(5,6)                  1.3981         estimate D2E/DX2                !
 ! R11   R(5,10)                 1.0838         estimate D2E/DX2                !
 ! R12   R(6,37)                 1.4615         estimate D2E/DX2                !
 ! R13   R(7,16)                 1.4404         estimate D2E/DX2                !
 ! R14   R(7,21)                 1.349          estimate D2E/DX2                !
 ! R15   R(7,35)                 1.3485         estimate D2E/DX2                !
 ! R16   R(11,12)                1.418          estimate D2E/DX2                !
 ! R17   R(11,16)                1.4138         estimate D2E/DX2                !
 ! R18   R(11,33)                1.3725         estimate D2E/DX2                !
 ! R19   R(12,13)                1.3936         estimate D2E/DX2                !
 ! R20   R(12,34)                1.3746         estimate D2E/DX2                !
 ! R21   R(13,14)                1.3959         estimate D2E/DX2                !
 ! R22   R(13,18)                1.0827         estimate D2E/DX2                !
 ! R23   R(14,15)                1.4022         estimate D2E/DX2                !
 ! R24   R(14,19)                1.0828         estimate D2E/DX2                !
 ! R25   R(15,16)                1.4            estimate D2E/DX2                !
 ! R26   R(15,20)                1.0831         estimate D2E/DX2                !
 ! R27   R(17,23)                1.452          estimate D2E/DX2                !
 ! R28   R(17,33)                1.3398         estimate D2E/DX2                !
 ! R29   R(17,34)                1.3669         estimate D2E/DX2                !
 ! R30   R(21,58)                1.0241         estimate D2E/DX2                !
 ! R31   R(22,23)                1.4692         estimate D2E/DX2                !
 ! R32   R(22,27)                1.4672         estimate D2E/DX2                !
 ! R33   R(22,32)                1.2597         estimate D2E/DX2                !
 ! R34   R(23,24)                1.381          estimate D2E/DX2                !
 ! R35   R(24,25)                1.4077         estimate D2E/DX2                !
 ! R36   R(24,28)                1.0826         estimate D2E/DX2                !
 ! R37   R(25,26)                1.4143         estimate D2E/DX2                !
 ! R38   R(25,30)                1.5249         estimate D2E/DX2                !
 ! R39   R(26,27)                1.3802         estimate D2E/DX2                !
 ! R40   R(26,29)                1.0786         estimate D2E/DX2                !
 ! R41   R(27,31)                1.5273         estimate D2E/DX2                !
 ! R42   R(30,63)                1.5446         estimate D2E/DX2                !
 ! R43   R(30,75)                1.5343         estimate D2E/DX2                !
 ! R44   R(30,79)                1.5442         estimate D2E/DX2                !
 ! R45   R(31,59)                1.5449         estimate D2E/DX2                !
 ! R46   R(31,67)                1.5362         estimate D2E/DX2                !
 ! R47   R(31,71)                1.5464         estimate D2E/DX2                !
 ! R48   R(34,57)                1.0159         estimate D2E/DX2                !
 ! R49   R(35,36)                1.0182         estimate D2E/DX2                !
 ! R50   R(37,38)                1.0942         estimate D2E/DX2                !
 ! R51   R(37,39)                1.2812         estimate D2E/DX2                !
 ! R52   R(39,40)                1.4726         estimate D2E/DX2                !
 ! R53   R(40,41)                1.5384         estimate D2E/DX2                !
 ! R54   R(40,42)                1.5383         estimate D2E/DX2                !
 ! R55   R(40,43)                1.0956         estimate D2E/DX2                !
 ! R56   R(41,44)                1.5316         estimate D2E/DX2                !
 ! R57   R(41,45)                1.0964         estimate D2E/DX2                !
 ! R58   R(41,46)                1.094          estimate D2E/DX2                !
 ! R59   R(42,47)                1.5323         estimate D2E/DX2                !
 ! R60   R(42,48)                1.0967         estimate D2E/DX2                !
 ! R61   R(42,49)                1.0941         estimate D2E/DX2                !
 ! R62   R(44,50)                1.5326         estimate D2E/DX2                !
 ! R63   R(44,51)                1.0942         estimate D2E/DX2                !
 ! R64   R(44,52)                1.0972         estimate D2E/DX2                !
 ! R65   R(47,50)                1.5327         estimate D2E/DX2                !
 ! R66   R(47,53)                1.094          estimate D2E/DX2                !
 ! R67   R(47,54)                1.0972         estimate D2E/DX2                !
 ! R68   R(50,55)                1.0943         estimate D2E/DX2                !
 ! R69   R(50,56)                1.0975         estimate D2E/DX2                !
 ! R70   R(59,60)                1.0892         estimate D2E/DX2                !
 ! R71   R(59,61)                1.0934         estimate D2E/DX2                !
 ! R72   R(59,62)                1.0933         estimate D2E/DX2                !
 ! R73   R(63,64)                1.0934         estimate D2E/DX2                !
 ! R74   R(63,65)                1.0927         estimate D2E/DX2                !
 ! R75   R(63,66)                1.0927         estimate D2E/DX2                !
 ! R76   R(67,68)                1.093          estimate D2E/DX2                !
 ! R77   R(67,69)                1.0933         estimate D2E/DX2                !
 ! R78   R(67,70)                1.0923         estimate D2E/DX2                !
 ! R79   R(71,72)                1.0884         estimate D2E/DX2                !
 ! R80   R(71,73)                1.0932         estimate D2E/DX2                !
 ! R81   R(71,74)                1.0935         estimate D2E/DX2                !
 ! R82   R(75,76)                1.0927         estimate D2E/DX2                !
 ! R83   R(75,77)                1.0931         estimate D2E/DX2                !
 ! R84   R(75,78)                1.0919         estimate D2E/DX2                !
 ! R85   R(79,80)                1.0927         estimate D2E/DX2                !
 ! R86   R(79,81)                1.0921         estimate D2E/DX2                !
 ! R87   R(79,82)                1.0932         estimate D2E/DX2                !
 ! A1    A(2,1,6)              122.529          estimate D2E/DX2                !
 ! A2    A(2,1,35)             106.9738         estimate D2E/DX2                !
 ! A3    A(6,1,35)             130.4954         estimate D2E/DX2                !
 ! A4    A(1,2,3)              121.3869         estimate D2E/DX2                !
 ! A5    A(1,2,21)             105.6969         estimate D2E/DX2                !
 ! A6    A(3,2,21)             132.9162         estimate D2E/DX2                !
 ! A7    A(2,3,4)              116.5694         estimate D2E/DX2                !
 ! A8    A(2,3,8)              121.4717         estimate D2E/DX2                !
 ! A9    A(4,3,8)              121.9584         estimate D2E/DX2                !
 ! A10   A(3,4,5)              121.9171         estimate D2E/DX2                !
 ! A11   A(3,4,9)              119.1412         estimate D2E/DX2                !
 ! A12   A(5,4,9)              118.9403         estimate D2E/DX2                !
 ! A13   A(4,5,6)              121.9626         estimate D2E/DX2                !
 ! A14   A(4,5,10)             119.38           estimate D2E/DX2                !
 ! A15   A(6,5,10)             118.6573         estimate D2E/DX2                !
 ! A16   A(1,6,5)              115.6333         estimate D2E/DX2                !
 ! A17   A(1,6,37)             121.5101         estimate D2E/DX2                !
 ! A18   A(5,6,37)             122.855          estimate D2E/DX2                !
 ! A19   A(16,7,21)            123.5997         estimate D2E/DX2                !
 ! A20   A(16,7,35)            128.4404         estimate D2E/DX2                !
 ! A21   A(21,7,35)            107.9562         estimate D2E/DX2                !
 ! A22   A(12,11,16)           119.8919         estimate D2E/DX2                !
 ! A23   A(12,11,33)           110.4646         estimate D2E/DX2                !
 ! A24   A(16,11,33)           129.6433         estimate D2E/DX2                !
 ! A25   A(11,12,13)           122.2257         estimate D2E/DX2                !
 ! A26   A(11,12,34)           104.4038         estimate D2E/DX2                !
 ! A27   A(13,12,34)           133.3696         estimate D2E/DX2                !
 ! A28   A(12,13,14)           117.0254         estimate D2E/DX2                !
 ! A29   A(12,13,18)           121.6166         estimate D2E/DX2                !
 ! A30   A(14,13,18)           121.358          estimate D2E/DX2                !
 ! A31   A(13,14,15)           121.9336         estimate D2E/DX2                !
 ! A32   A(13,14,19)           119.2268         estimate D2E/DX2                !
 ! A33   A(15,14,19)           118.8393         estimate D2E/DX2                !
 ! A34   A(14,15,16)           121.214          estimate D2E/DX2                !
 ! A35   A(14,15,20)           119.066          estimate D2E/DX2                !
 ! A36   A(16,15,20)           119.7198         estimate D2E/DX2                !
 ! A37   A(7,16,11)            119.1695         estimate D2E/DX2                !
 ! A38   A(7,16,15)            123.121          estimate D2E/DX2                !
 ! A39   A(11,16,15)           117.7018         estimate D2E/DX2                !
 ! A40   A(23,17,33)           124.7168         estimate D2E/DX2                !
 ! A41   A(23,17,34)           123.5619         estimate D2E/DX2                !
 ! A42   A(33,17,34)           111.7151         estimate D2E/DX2                !
 ! A43   A(2,21,7)             109.9572         estimate D2E/DX2                !
 ! A44   A(2,21,58)            129.8059         estimate D2E/DX2                !
 ! A45   A(7,21,58)            120.2369         estimate D2E/DX2                !
 ! A46   A(23,22,27)           117.6891         estimate D2E/DX2                !
 ! A47   A(23,22,32)           120.481          estimate D2E/DX2                !
 ! A48   A(27,22,32)           121.8299         estimate D2E/DX2                !
 ! A49   A(17,23,22)           120.4233         estimate D2E/DX2                !
 ! A50   A(17,23,24)           119.2001         estimate D2E/DX2                !
 ! A51   A(22,23,24)           120.3742         estimate D2E/DX2                !
 ! A52   A(23,24,25)           121.5413         estimate D2E/DX2                !
 ! A53   A(23,24,28)           118.4448         estimate D2E/DX2                !
 ! A54   A(25,24,28)           120.0086         estimate D2E/DX2                !
 ! A55   A(24,25,26)           118.4639         estimate D2E/DX2                !
 ! A56   A(24,25,30)           119.2846         estimate D2E/DX2                !
 ! A57   A(26,25,30)           122.2515         estimate D2E/DX2                !
 ! A58   A(25,26,27)           123.6447         estimate D2E/DX2                !
 ! A59   A(25,26,29)           117.9107         estimate D2E/DX2                !
 ! A60   A(27,26,29)           118.443          estimate D2E/DX2                !
 ! A61   A(22,27,26)           118.2738         estimate D2E/DX2                !
 ! A62   A(22,27,31)           119.9036         estimate D2E/DX2                !
 ! A63   A(26,27,31)           121.8223         estimate D2E/DX2                !
 ! A64   A(25,30,63)           108.7255         estimate D2E/DX2                !
 ! A65   A(25,30,75)           112.3543         estimate D2E/DX2                !
 ! A66   A(25,30,79)           109.0276         estimate D2E/DX2                !
 ! A67   A(63,30,75)           108.9245         estimate D2E/DX2                !
 ! A68   A(63,30,79)           109.182          estimate D2E/DX2                !
 ! A69   A(75,30,79)           108.5829         estimate D2E/DX2                !
 ! A70   A(27,31,59)           109.4118         estimate D2E/DX2                !
 ! A71   A(27,31,67)           111.8044         estimate D2E/DX2                !
 ! A72   A(27,31,71)           109.9571         estimate D2E/DX2                !
 ! A73   A(59,31,67)           108.1714         estimate D2E/DX2                !
 ! A74   A(59,31,71)           109.8087         estimate D2E/DX2                !
 ! A75   A(67,31,71)           107.6454         estimate D2E/DX2                !
 ! A76   A(11,33,17)           105.2311         estimate D2E/DX2                !
 ! A77   A(12,34,17)           108.184          estimate D2E/DX2                !
 ! A78   A(12,34,57)           130.7715         estimate D2E/DX2                !
 ! A79   A(17,34,57)           121.0069         estimate D2E/DX2                !
 ! A80   A(1,35,7)             109.4142         estimate D2E/DX2                !
 ! A81   A(1,35,36)            120.7909         estimate D2E/DX2                !
 ! A82   A(7,35,36)            129.7935         estimate D2E/DX2                !
 ! A83   A(6,37,38)            115.6653         estimate D2E/DX2                !
 ! A84   A(6,37,39)            121.225          estimate D2E/DX2                !
 ! A85   A(38,37,39)           123.1096         estimate D2E/DX2                !
 ! A86   A(37,39,40)           117.5496         estimate D2E/DX2                !
 ! A87   A(39,40,41)           112.1104         estimate D2E/DX2                !
 ! A88   A(39,40,42)           112.0603         estimate D2E/DX2                !
 ! A89   A(39,40,43)           106.1633         estimate D2E/DX2                !
 ! A90   A(41,40,42)           110.7696         estimate D2E/DX2                !
 ! A91   A(41,40,43)           107.7365         estimate D2E/DX2                !
 ! A92   A(42,40,43)           107.699          estimate D2E/DX2                !
 ! A93   A(40,41,44)           111.1377         estimate D2E/DX2                !
 ! A94   A(40,41,45)           108.7728         estimate D2E/DX2                !
 ! A95   A(40,41,46)           109.4078         estimate D2E/DX2                !
 ! A96   A(44,41,45)           109.3643         estimate D2E/DX2                !
 ! A97   A(44,41,46)           110.9869         estimate D2E/DX2                !
 ! A98   A(45,41,46)           107.0599         estimate D2E/DX2                !
 ! A99   A(40,42,47)           111.041          estimate D2E/DX2                !
 ! A100  A(40,42,48)           108.7592         estimate D2E/DX2                !
 ! A101  A(40,42,49)           109.4952         estimate D2E/DX2                !
 ! A102  A(47,42,48)           109.4471         estimate D2E/DX2                !
 ! A103  A(47,42,49)           110.912          estimate D2E/DX2                !
 ! A104  A(48,42,49)           107.0805         estimate D2E/DX2                !
 ! A105  A(41,44,50)           111.2485         estimate D2E/DX2                !
 ! A106  A(41,44,51)           109.7243         estimate D2E/DX2                !
 ! A107  A(41,44,52)           109.253          estimate D2E/DX2                !
 ! A108  A(50,44,51)           110.6533         estimate D2E/DX2                !
 ! A109  A(50,44,52)           109.1074         estimate D2E/DX2                !
 ! A110  A(51,44,52)           106.7377         estimate D2E/DX2                !
 ! A111  A(42,47,50)           111.3235         estimate D2E/DX2                !
 ! A112  A(42,47,53)           109.8427         estimate D2E/DX2                !
 ! A113  A(42,47,54)           109.1879         estimate D2E/DX2                !
 ! A114  A(50,47,53)           110.5449         estimate D2E/DX2                !
 ! A115  A(50,47,54)           109.0837         estimate D2E/DX2                !
 ! A116  A(53,47,54)           106.7372         estimate D2E/DX2                !
 ! A117  A(44,50,47)           110.9418         estimate D2E/DX2                !
 ! A118  A(44,50,55)           110.3011         estimate D2E/DX2                !
 ! A119  A(44,50,56)           109.1246         estimate D2E/DX2                !
 ! A120  A(47,50,55)           110.2893         estimate D2E/DX2                !
 ! A121  A(47,50,56)           109.199          estimate D2E/DX2                !
 ! A122  A(55,50,56)           106.8848         estimate D2E/DX2                !
 ! A123  A(31,59,60)           111.0267         estimate D2E/DX2                !
 ! A124  A(31,59,61)           109.4306         estimate D2E/DX2                !
 ! A125  A(31,59,62)           110.6837         estimate D2E/DX2                !
 ! A126  A(60,59,61)           108.845          estimate D2E/DX2                !
 ! A127  A(60,59,62)           108.628          estimate D2E/DX2                !
 ! A128  A(61,59,62)           108.1594         estimate D2E/DX2                !
 ! A129  A(30,63,64)           109.4739         estimate D2E/DX2                !
 ! A130  A(30,63,65)           111.4946         estimate D2E/DX2                !
 ! A131  A(30,63,66)           110.8748         estimate D2E/DX2                !
 ! A132  A(64,63,65)           108.1668         estimate D2E/DX2                !
 ! A133  A(64,63,66)           108.3995         estimate D2E/DX2                !
 ! A134  A(65,63,66)           108.3388         estimate D2E/DX2                !
 ! A135  A(31,67,68)           111.7321         estimate D2E/DX2                !
 ! A136  A(31,67,69)           112.14           estimate D2E/DX2                !
 ! A137  A(31,67,70)           108.8049         estimate D2E/DX2                !
 ! A138  A(68,67,69)           108.35           estimate D2E/DX2                !
 ! A139  A(68,67,70)           107.8881         estimate D2E/DX2                !
 ! A140  A(69,67,70)           107.7632         estimate D2E/DX2                !
 ! A141  A(31,71,72)           111.3344         estimate D2E/DX2                !
 ! A142  A(31,71,73)           110.5395         estimate D2E/DX2                !
 ! A143  A(31,71,74)           109.1683         estimate D2E/DX2                !
 ! A144  A(72,71,73)           108.8634         estimate D2E/DX2                !
 ! A145  A(72,71,74)           108.91           estimate D2E/DX2                !
 ! A146  A(73,71,74)           107.9482         estimate D2E/DX2                !
 ! A147  A(30,75,76)           111.5568         estimate D2E/DX2                !
 ! A148  A(30,75,77)           111.3838         estimate D2E/DX2                !
 ! A149  A(30,75,78)           109.3021         estimate D2E/DX2                !
 ! A150  A(76,75,77)           108.4688         estimate D2E/DX2                !
 ! A151  A(76,75,78)           108.0013         estimate D2E/DX2                !
 ! A152  A(77,75,78)           108.0051         estimate D2E/DX2                !
 ! A153  A(30,79,80)           110.9469         estimate D2E/DX2                !
 ! A154  A(30,79,81)           111.6813         estimate D2E/DX2                !
 ! A155  A(30,79,82)           109.4768         estimate D2E/DX2                !
 ! A156  A(80,79,81)           108.3098         estimate D2E/DX2                !
 ! A157  A(80,79,82)           108.2876         estimate D2E/DX2                !
 ! A158  A(81,79,82)           108.0322         estimate D2E/DX2                !
 ! D1    D(6,1,2,3)             -0.1418         estimate D2E/DX2                !
 ! D2    D(6,1,2,21)           179.8702         estimate D2E/DX2                !
 ! D3    D(35,1,2,3)          -179.7006         estimate D2E/DX2                !
 ! D4    D(35,1,2,21)            0.3114         estimate D2E/DX2                !
 ! D5    D(2,1,6,5)              0.1225         estimate D2E/DX2                !
 ! D6    D(2,1,6,37)           179.6706         estimate D2E/DX2                !
 ! D7    D(35,1,6,5)           179.5676         estimate D2E/DX2                !
 ! D8    D(35,1,6,37)           -0.8843         estimate D2E/DX2                !
 ! D9    D(2,1,35,7)            -0.1062         estimate D2E/DX2                !
 ! D10   D(2,1,35,36)          179.5114         estimate D2E/DX2                !
 ! D11   D(6,1,35,7)          -179.617          estimate D2E/DX2                !
 ! D12   D(6,1,35,36)            0.0006         estimate D2E/DX2                !
 ! D13   D(1,2,3,4)              0.2864         estimate D2E/DX2                !
 ! D14   D(1,2,3,8)           -179.9741         estimate D2E/DX2                !
 ! D15   D(21,2,3,4)          -179.7293         estimate D2E/DX2                !
 ! D16   D(21,2,3,8)             0.0102         estimate D2E/DX2                !
 ! D17   D(1,2,21,7)            -0.4144         estimate D2E/DX2                !
 ! D18   D(1,2,21,58)          179.568          estimate D2E/DX2                !
 ! D19   D(3,2,21,7)           179.5995         estimate D2E/DX2                !
 ! D20   D(3,2,21,58)           -0.4181         estimate D2E/DX2                !
 ! D21   D(2,3,4,5)             -0.4346         estimate D2E/DX2                !
 ! D22   D(2,3,4,9)            179.9967         estimate D2E/DX2                !
 ! D23   D(8,3,4,5)            179.8272         estimate D2E/DX2                !
 ! D24   D(8,3,4,9)              0.2586         estimate D2E/DX2                !
 ! D25   D(3,4,5,6)              0.4455         estimate D2E/DX2                !
 ! D26   D(3,4,5,10)          -179.6189         estimate D2E/DX2                !
 ! D27   D(9,4,5,6)           -179.985          estimate D2E/DX2                !
 ! D28   D(9,4,5,10)            -0.0494         estimate D2E/DX2                !
 ! D29   D(4,5,6,1)             -0.2686         estimate D2E/DX2                !
 ! D30   D(4,5,6,37)          -179.8099         estimate D2E/DX2                !
 ! D31   D(10,5,6,1)           179.7954         estimate D2E/DX2                !
 ! D32   D(10,5,6,37)            0.2541         estimate D2E/DX2                !
 ! D33   D(1,6,37,38)         -179.6772         estimate D2E/DX2                !
 ! D34   D(1,6,37,39)            0.4012         estimate D2E/DX2                !
 ! D35   D(5,6,37,38)           -0.1622         estimate D2E/DX2                !
 ! D36   D(5,6,37,39)          179.9162         estimate D2E/DX2                !
 ! D37   D(21,7,16,11)          -0.0594         estimate D2E/DX2                !
 ! D38   D(21,7,16,15)         178.9099         estimate D2E/DX2                !
 ! D39   D(35,7,16,11)        -179.2807         estimate D2E/DX2                !
 ! D40   D(35,7,16,15)          -0.3115         estimate D2E/DX2                !
 ! D41   D(16,7,21,2)         -179.0023         estimate D2E/DX2                !
 ! D42   D(16,7,21,58)           1.0134         estimate D2E/DX2                !
 ! D43   D(35,7,21,2)            0.3566         estimate D2E/DX2                !
 ! D44   D(35,7,21,58)        -179.6277         estimate D2E/DX2                !
 ! D45   D(16,7,35,1)          179.1673         estimate D2E/DX2                !
 ! D46   D(16,7,35,36)          -0.4052         estimate D2E/DX2                !
 ! D47   D(21,7,35,1)           -0.1509         estimate D2E/DX2                !
 ! D48   D(21,7,35,36)        -179.7234         estimate D2E/DX2                !
 ! D49   D(16,11,12,13)          0.8324         estimate D2E/DX2                !
 ! D50   D(16,11,12,34)       -179.4703         estimate D2E/DX2                !
 ! D51   D(33,11,12,13)       -179.3356         estimate D2E/DX2                !
 ! D52   D(33,11,12,34)          0.3617         estimate D2E/DX2                !
 ! D53   D(12,11,16,7)         178.1957         estimate D2E/DX2                !
 ! D54   D(12,11,16,15)         -0.8293         estimate D2E/DX2                !
 ! D55   D(33,11,16,7)          -1.5999         estimate D2E/DX2                !
 ! D56   D(33,11,16,15)        179.3751         estimate D2E/DX2                !
 ! D57   D(12,11,33,17)         -0.2279         estimate D2E/DX2                !
 ! D58   D(16,11,33,17)        179.5829         estimate D2E/DX2                !
 ! D59   D(11,12,13,14)         -0.1232         estimate D2E/DX2                !
 ! D60   D(11,12,13,18)        179.7974         estimate D2E/DX2                !
 ! D61   D(34,12,13,14)       -179.7199         estimate D2E/DX2                !
 ! D62   D(34,12,13,18)          0.2007         estimate D2E/DX2                !
 ! D63   D(11,12,34,17)         -0.349          estimate D2E/DX2                !
 ! D64   D(11,12,34,57)        177.3832         estimate D2E/DX2                !
 ! D65   D(13,12,34,17)        179.2988         estimate D2E/DX2                !
 ! D66   D(13,12,34,57)         -2.9691         estimate D2E/DX2                !
 ! D67   D(12,13,14,15)         -0.5672         estimate D2E/DX2                !
 ! D68   D(12,13,14,19)        179.6252         estimate D2E/DX2                !
 ! D69   D(18,13,14,15)        179.512          estimate D2E/DX2                !
 ! D70   D(18,13,14,19)         -0.2956         estimate D2E/DX2                !
 ! D71   D(13,14,15,16)          0.5554         estimate D2E/DX2                !
 ! D72   D(13,14,15,20)       -179.5956         estimate D2E/DX2                !
 ! D73   D(19,14,15,16)       -179.6363         estimate D2E/DX2                !
 ! D74   D(19,14,15,20)          0.2127         estimate D2E/DX2                !
 ! D75   D(14,15,16,7)        -178.8191         estimate D2E/DX2                !
 ! D76   D(14,15,16,11)          0.1643         estimate D2E/DX2                !
 ! D77   D(20,15,16,7)           1.3328         estimate D2E/DX2                !
 ! D78   D(20,15,16,11)       -179.6837         estimate D2E/DX2                !
 ! D79   D(33,17,23,22)        174.5785         estimate D2E/DX2                !
 ! D80   D(33,17,23,24)         -5.9759         estimate D2E/DX2                !
 ! D81   D(34,17,23,22)         -6.4066         estimate D2E/DX2                !
 ! D82   D(34,17,23,24)        173.039          estimate D2E/DX2                !
 ! D83   D(23,17,33,11)        179.1167         estimate D2E/DX2                !
 ! D84   D(34,17,33,11)          0.0003         estimate D2E/DX2                !
 ! D85   D(23,17,34,12)       -178.897          estimate D2E/DX2                !
 ! D86   D(23,17,34,57)          3.1067         estimate D2E/DX2                !
 ! D87   D(33,17,34,12)          0.2314         estimate D2E/DX2                !
 ! D88   D(33,17,34,57)       -177.7649         estimate D2E/DX2                !
 ! D89   D(27,22,23,17)       -179.9414         estimate D2E/DX2                !
 ! D90   D(27,22,23,24)          0.6196         estimate D2E/DX2                !
 ! D91   D(32,22,23,17)          0.084          estimate D2E/DX2                !
 ! D92   D(32,22,23,24)       -179.3551         estimate D2E/DX2                !
 ! D93   D(23,22,27,26)         -0.7544         estimate D2E/DX2                !
 ! D94   D(23,22,27,31)        179.4345         estimate D2E/DX2                !
 ! D95   D(32,22,27,26)        179.2199         estimate D2E/DX2                !
 ! D96   D(32,22,27,31)         -0.5912         estimate D2E/DX2                !
 ! D97   D(17,23,24,25)       -179.0967         estimate D2E/DX2                !
 ! D98   D(17,23,24,28)          0.0697         estimate D2E/DX2                !
 ! D99   D(22,23,24,25)          0.3492         estimate D2E/DX2                !
 ! D100  D(22,23,24,28)        179.5156         estimate D2E/DX2                !
 ! D101  D(23,24,25,26)         -1.1609         estimate D2E/DX2                !
 ! D102  D(23,24,25,30)        178.8547         estimate D2E/DX2                !
 ! D103  D(28,24,25,26)        179.6856         estimate D2E/DX2                !
 ! D104  D(28,24,25,30)         -0.2988         estimate D2E/DX2                !
 ! D105  D(24,25,26,27)          1.0245         estimate D2E/DX2                !
 ! D106  D(24,25,26,29)       -179.4556         estimate D2E/DX2                !
 ! D107  D(30,25,26,27)       -178.9916         estimate D2E/DX2                !
 ! D108  D(30,25,26,29)          0.5283         estimate D2E/DX2                !
 ! D109  D(24,25,30,63)         62.089          estimate D2E/DX2                !
 ! D110  D(24,25,30,75)       -177.2688         estimate D2E/DX2                !
 ! D111  D(24,25,30,79)        -56.8506         estimate D2E/DX2                !
 ! D112  D(26,25,30,63)       -117.8948         estimate D2E/DX2                !
 ! D113  D(26,25,30,75)          2.7474         estimate D2E/DX2                !
 ! D114  D(26,25,30,79)        123.1657         estimate D2E/DX2                !
 ! D115  D(25,26,27,22)         -0.0579         estimate D2E/DX2                !
 ! D116  D(25,26,27,31)        179.7493         estimate D2E/DX2                !
 ! D117  D(29,26,27,22)       -179.5754         estimate D2E/DX2                !
 ! D118  D(29,26,27,31)          0.2318         estimate D2E/DX2                !
 ! D119  D(22,27,31,59)        -61.359          estimate D2E/DX2                !
 ! D120  D(22,27,31,67)        178.8319         estimate D2E/DX2                !
 ! D121  D(22,27,31,71)         59.3195         estimate D2E/DX2                !
 ! D122  D(26,27,31,59)        118.8369         estimate D2E/DX2                !
 ! D123  D(26,27,31,67)         -0.9722         estimate D2E/DX2                !
 ! D124  D(26,27,31,71)       -120.4846         estimate D2E/DX2                !
 ! D125  D(25,30,63,64)       -179.058          estimate D2E/DX2                !
 ! D126  D(25,30,63,65)        -59.4098         estimate D2E/DX2                !
 ! D127  D(25,30,63,66)         61.3933         estimate D2E/DX2                !
 ! D128  D(75,30,63,64)         58.2068         estimate D2E/DX2                !
 ! D129  D(75,30,63,65)        177.855          estimate D2E/DX2                !
 ! D130  D(75,30,63,66)        -61.3419         estimate D2E/DX2                !
 ! D131  D(79,30,63,64)        -60.2153         estimate D2E/DX2                !
 ! D132  D(79,30,63,65)         59.4329         estimate D2E/DX2                !
 ! D133  D(79,30,63,66)       -179.764          estimate D2E/DX2                !
 ! D134  D(25,30,75,76)        -61.7233         estimate D2E/DX2                !
 ! D135  D(25,30,75,77)         59.6415         estimate D2E/DX2                !
 ! D136  D(25,30,75,78)        178.9076         estimate D2E/DX2                !
 ! D137  D(63,30,75,76)         58.8041         estimate D2E/DX2                !
 ! D138  D(63,30,75,77)       -179.8311         estimate D2E/DX2                !
 ! D139  D(63,30,75,78)        -60.565          estimate D2E/DX2                !
 ! D140  D(79,30,75,76)        177.6018         estimate D2E/DX2                !
 ! D141  D(79,30,75,77)        -61.0333         estimate D2E/DX2                !
 ! D142  D(79,30,75,78)         58.2327         estimate D2E/DX2                !
 ! D143  D(25,30,79,80)        -60.4125         estimate D2E/DX2                !
 ! D144  D(25,30,79,81)         60.5306         estimate D2E/DX2                !
 ! D145  D(25,30,79,82)       -179.8693         estimate D2E/DX2                !
 ! D146  D(63,30,79,80)       -179.0669         estimate D2E/DX2                !
 ! D147  D(63,30,79,81)        -58.1238         estimate D2E/DX2                !
 ! D148  D(63,30,79,82)         61.4763         estimate D2E/DX2                !
 ! D149  D(75,30,79,80)         62.2976         estimate D2E/DX2                !
 ! D150  D(75,30,79,81)       -176.7593         estimate D2E/DX2                !
 ! D151  D(75,30,79,82)        -57.1591         estimate D2E/DX2                !
 ! D152  D(27,31,59,60)         60.8185         estimate D2E/DX2                !
 ! D153  D(27,31,59,61)       -179.0127         estimate D2E/DX2                !
 ! D154  D(27,31,59,62)        -59.9062         estimate D2E/DX2                !
 ! D155  D(67,31,59,60)       -177.1651         estimate D2E/DX2                !
 ! D156  D(67,31,59,61)        -56.9963         estimate D2E/DX2                !
 ! D157  D(67,31,59,62)         62.1102         estimate D2E/DX2                !
 ! D158  D(71,31,59,60)        -59.9503         estimate D2E/DX2                !
 ! D159  D(71,31,59,61)         60.2185         estimate D2E/DX2                !
 ! D160  D(71,31,59,62)        179.325          estimate D2E/DX2                !
 ! D161  D(27,31,67,68)        -59.9575         estimate D2E/DX2                !
 ! D162  D(27,31,67,69)         61.9174         estimate D2E/DX2                !
 ! D163  D(27,31,67,70)       -178.9724         estimate D2E/DX2                !
 ! D164  D(59,31,67,68)        179.5074         estimate D2E/DX2                !
 ! D165  D(59,31,67,69)        -58.6177         estimate D2E/DX2                !
 ! D166  D(59,31,67,70)         60.4924         estimate D2E/DX2                !
 ! D167  D(71,31,67,68)         60.9078         estimate D2E/DX2                !
 ! D168  D(71,31,67,69)       -177.2173         estimate D2E/DX2                !
 ! D169  D(71,31,67,70)        -58.1071         estimate D2E/DX2                !
 ! D170  D(27,31,71,72)        -60.857          estimate D2E/DX2                !
 ! D171  D(27,31,71,73)         60.2741         estimate D2E/DX2                !
 ! D172  D(27,31,71,74)        178.8703         estimate D2E/DX2                !
 ! D173  D(59,31,71,72)         59.582          estimate D2E/DX2                !
 ! D174  D(59,31,71,73)       -179.2869         estimate D2E/DX2                !
 ! D175  D(59,31,71,74)        -60.6907         estimate D2E/DX2                !
 ! D176  D(67,31,71,72)        177.125          estimate D2E/DX2                !
 ! D177  D(67,31,71,73)        -61.7439         estimate D2E/DX2                !
 ! D178  D(67,31,71,74)         56.8523         estimate D2E/DX2                !
 ! D179  D(6,37,39,40)         179.9294         estimate D2E/DX2                !
 ! D180  D(38,37,39,40)          0.0137         estimate D2E/DX2                !
 ! D181  D(37,39,40,41)        -61.6091         estimate D2E/DX2                !
 ! D182  D(37,39,40,42)         63.6754         estimate D2E/DX2                !
 ! D183  D(37,39,40,43)       -179.0029         estimate D2E/DX2                !
 ! D184  D(39,40,41,44)       -178.2347         estimate D2E/DX2                !
 ! D185  D(39,40,41,45)         61.3092         estimate D2E/DX2                !
 ! D186  D(39,40,41,46)        -55.3236         estimate D2E/DX2                !
 ! D187  D(42,40,41,44)         55.7747         estimate D2E/DX2                !
 ! D188  D(42,40,41,45)        -64.6813         estimate D2E/DX2                !
 ! D189  D(42,40,41,46)        178.6858         estimate D2E/DX2                !
 ! D190  D(43,40,41,44)        -61.7851         estimate D2E/DX2                !
 ! D191  D(43,40,41,45)        177.7588         estimate D2E/DX2                !
 ! D192  D(43,40,41,46)         61.1259         estimate D2E/DX2                !
 ! D193  D(39,40,42,47)        178.2664         estimate D2E/DX2                !
 ! D194  D(39,40,42,48)        -61.2437         estimate D2E/DX2                !
 ! D195  D(39,40,42,49)         55.4547         estimate D2E/DX2                !
 ! D196  D(41,40,42,47)        -55.7151         estimate D2E/DX2                !
 ! D197  D(41,40,42,48)         64.7748         estimate D2E/DX2                !
 ! D198  D(41,40,42,49)       -178.5267         estimate D2E/DX2                !
 ! D199  D(43,40,42,47)         61.8677         estimate D2E/DX2                !
 ! D200  D(43,40,42,48)       -177.6424         estimate D2E/DX2                !
 ! D201  D(43,40,42,49)        -60.9439         estimate D2E/DX2                !
 ! D202  D(40,41,44,50)        -55.9665         estimate D2E/DX2                !
 ! D203  D(40,41,44,51)       -178.7484         estimate D2E/DX2                !
 ! D204  D(40,41,44,52)         64.5534         estimate D2E/DX2                !
 ! D205  D(45,41,44,50)         64.1394         estimate D2E/DX2                !
 ! D206  D(45,41,44,51)        -58.6425         estimate D2E/DX2                !
 ! D207  D(45,41,44,52)       -175.3406         estimate D2E/DX2                !
 ! D208  D(46,41,44,50)       -177.9641         estimate D2E/DX2                !
 ! D209  D(46,41,44,51)         59.2541         estimate D2E/DX2                !
 ! D210  D(46,41,44,52)        -57.4441         estimate D2E/DX2                !
 ! D211  D(40,42,47,50)         55.9548         estimate D2E/DX2                !
 ! D212  D(40,42,47,53)        178.7321         estimate D2E/DX2                !
 ! D213  D(40,42,47,54)        -64.5403         estimate D2E/DX2                !
 ! D214  D(48,42,47,50)        -64.1271         estimate D2E/DX2                !
 ! D215  D(48,42,47,53)         58.6502         estimate D2E/DX2                !
 ! D216  D(48,42,47,54)        175.3778         estimate D2E/DX2                !
 ! D217  D(49,42,47,50)        177.9449         estimate D2E/DX2                !
 ! D218  D(49,42,47,53)        -59.2778         estimate D2E/DX2                !
 ! D219  D(49,42,47,54)         57.4498         estimate D2E/DX2                !
 ! D220  D(41,44,50,47)         55.7807         estimate D2E/DX2                !
 ! D221  D(41,44,50,55)        178.291          estimate D2E/DX2                !
 ! D222  D(41,44,50,56)        -64.5762         estimate D2E/DX2                !
 ! D223  D(51,44,50,47)        178.0266         estimate D2E/DX2                !
 ! D224  D(51,44,50,55)        -59.4631         estimate D2E/DX2                !
 ! D225  D(51,44,50,56)         57.6697         estimate D2E/DX2                !
 ! D226  D(52,44,50,47)        -64.825          estimate D2E/DX2                !
 ! D227  D(52,44,50,55)         57.6853         estimate D2E/DX2                !
 ! D228  D(52,44,50,56)        174.8181         estimate D2E/DX2                !
 ! D229  D(42,47,50,44)        -55.8188         estimate D2E/DX2                !
 ! D230  D(42,47,50,55)       -178.336          estimate D2E/DX2                !
 ! D231  D(42,47,50,56)         64.4939         estimate D2E/DX2                !
 ! D232  D(53,47,50,44)       -178.1919         estimate D2E/DX2                !
 ! D233  D(53,47,50,55)         59.2909         estimate D2E/DX2                !
 ! D234  D(53,47,50,56)        -57.8792         estimate D2E/DX2                !
 ! D235  D(54,47,50,44)         64.7376         estimate D2E/DX2                !
 ! D236  D(54,47,50,55)        -57.7795         estimate D2E/DX2                !
 ! D237  D(54,47,50,56)       -174.9497         estimate D2E/DX2                !
 --------------------------------------------------------------------------------
 Trust Radius=3.00D-01 FncErr=5.00D-06 GrdErr=5.00D-06 EigMax=2.50D+02 EigMin=1.00D-04
 Number of steps in this run=    492 maximum allowed number of steps=    492.
 GradGradGradGradGradGradGradGradGradGradGradGradGradGradGradGradGradGrad

 Leave Link  103 at Fri Dec 21 14:03:04 2018, MaxMem=  1342177280 cpu:               0.7 elap:               0.1
 (Enter /gpfs/apps/hpc/Apps/Restricted/Gaussian/Rev_A.03/g16/l202.exe)
 Symmetry turned off by external request.
 Stoichiometry    C35H41N5O(1+,2)
 Framework group  C1[X(C35H41N5O)]
 Deg. of freedom   240
 Full point group                 C1      NOp   1
                          Input orientation:                          
 ---------------------------------------------------------------------
 Center     Atomic      Atomic             Coordinates (Angstroms)
 Number     Number       Type             X           Y           Z
 ---------------------------------------------------------------------
      1          6           0        1.534152    1.142324   -0.140102
      2          6           0        0.315024    1.827813   -0.253789
      3          6           0        0.273383    3.207211   -0.458283
      4          6           0        1.500366    3.861095   -0.548968
      5          6           0        2.720727    3.171845   -0.431617
      6          6           0        2.773443    1.789938   -0.226393
      7          6           0       -0.108696   -0.350362    0.055371
      8          1           0       -0.665880    3.737220   -0.545728
      9          1           0        1.516647    4.932362   -0.707593
     10          1           0        3.651426    3.722646   -0.502540
     11          6           0       -2.278103   -1.507903    0.168368
     12          6           0       -3.037889   -2.700358    0.275057
     13          6           0       -2.441462   -3.949888    0.433629
     14          6           0       -1.046816   -3.985526    0.481734
     15          6           0       -0.270703   -2.823556    0.364513
     16          6           0       -0.865948   -1.566600    0.204384
     17          6           0       -4.348954   -0.922041    0.052810
     18          1           0       -3.031374   -4.853872    0.517323
     19          1           0       -0.546392   -4.937090    0.610177
     20          1           0        0.808606   -2.905737    0.401659
     21          7           0       -0.671794    0.862816   -0.120675
     22          6           0       -6.873593   -0.783310   -0.132784
     23          6           0       -5.561364   -0.128730   -0.042344
     24          6           0       -5.467298    1.248996   -0.035201
     25          6           0       -6.611719    2.065601   -0.106058
     26          6           0       -7.877779    1.444124   -0.211077
     27          6           0       -8.059005    0.075982   -0.227846
     28          1           0       -4.485266    1.698438    0.040529
     29          1           0       -8.747942    2.078416   -0.273802
     30          6           0       -6.449958    3.581379   -0.067918
     31          6           0       -9.447241   -0.551184   -0.337228
     32          8           0       -6.962604   -2.039846   -0.127272
     33          7           0       -3.106238   -0.421568    0.035116
     34          7           0       -4.344609   -2.281823    0.191841
     35          7           0        1.230478   -0.192236    0.047302
     36          1           0        1.969164   -0.885638    0.148499
     37          6           0        4.030017    1.054853   -0.097685
     38          1           0        4.940918    1.656203   -0.174958
     39          7           0        4.041871   -0.212232    0.091526
     40          6           0        5.353621   -0.871239    0.208093
     41          6           0        6.194495   -0.717633   -1.070959
     42          6           0        6.137891   -0.383605    1.438357
     43          1           0        5.147609   -1.938469    0.345939
     44          6           0        7.534881   -1.447358   -0.941699
     45          1           0        6.376797    0.348971   -1.247381
     46          1           0        5.625591   -1.091907   -1.927137
     47          6           0        7.479035   -1.114437    1.560968
     48          1           0        6.316958    0.693719    1.338187
     49          1           0        5.531675   -0.526341    2.337963
     50          6           0        8.315026   -0.962837    0.285327
     51          1           0        8.122476   -1.304711   -1.853702
     52          1           0        7.352472   -2.525325   -0.848691
     53          1           0        8.029571   -0.737285    2.427882
     54          1           0        7.293510   -2.180310    1.743737
     55          1           0        9.255063   -1.514912    0.379867
     56          1           0        8.578240    0.093933    0.149791
     57          1           0       -5.211757   -2.810985    0.188424
     58          1           0       -1.691094    0.960486   -0.139300
     59          6           0       -9.526986   -1.400333   -1.625318
     60          1           0       -8.793252   -2.205120   -1.608907
     61          1           0      -10.526354   -1.835261   -1.712984
     62          1           0       -9.346307   -0.780987   -2.507921
     63          6           0       -5.622681    4.022824   -1.295346
     64          1           0       -5.484867    5.107205   -1.271163
     65          1           0       -4.635662    3.554028   -1.302559
     66          1           0       -6.134537    3.760830   -2.224547
     67          6           0      -10.551806    0.514719   -0.396956
     68          1           0      -10.553540    1.146178    0.495212
     69          1           0      -10.455312    1.159320   -1.274672
     70          1           0      -11.521080    0.014450   -0.455822
     71          6           0       -9.722312   -1.442671    0.895990
     72          1           0       -8.999774   -2.253509    0.967525
     73          1           0       -9.681236   -0.850621    1.814098
     74          1           0      -10.726129   -1.868667    0.814360
     75          6           0       -7.798505    4.312816   -0.087583
     76          1           0       -8.356776    4.101101   -1.002766
     77          1           0       -8.417173    4.031183    0.768407
     78          1           0       -7.625664    5.389854   -0.039279
     79          6           0       -5.695445    3.974894    1.220631
     80          1           0       -6.248879    3.660527    2.108856
     81          1           0       -4.700894    3.525301    1.259098
     82          1           0       -5.577411    5.061099    1.256605
 ---------------------------------------------------------------------
 Rotational constants (GHZ):           0.1783467           0.0311786           0.0271963
 Leave Link  202 at Fri Dec 21 14:03:04 2018, MaxMem=  1342177280 cpu:               1.3 elap:               0.1
 (Enter /gpfs/apps/hpc/Apps/Restricted/Gaussian/Rev_A.03/g16/l301.exe)
 Standard basis: 6-31G(d,p) (6D, 7F)
 Ernie: Thresh=  0.10000D-02 Tol=  0.10000D-05 Strict=F.
   820 basis functions,  1435 primitive gaussians,   820 cartesian basis functions
   147 alpha electrons      146 beta electrons
       nuclear repulsion energy      4426.7586571644 Hartrees.
 IExCor=  402 DFT=T Ex+Corr=B3LYP ExCW=0 ScaHFX=  0.200000
 ScaDFX=  0.800000  0.720000  1.000000  0.810000 ScalE2=  1.000000  1.000000
 IRadAn=      5 IRanWt=     -1 IRanGd=            0 ICorTp=0 IEmpDi=141
 NAtoms=   82 NActive=   82 NUniq=   82 SFac= 1.00D+00 NAtFMM=   60 NAOKFM=T Big=T
 Integral buffers will be    131072 words long.
 Raffenetti 2 integral format.
 Two-electron integral symmetry is turned off.
 R6Disp:  Grimme-D3(BJ) Dispersion energy=       -0.1860785183 Hartrees.
 Nuclear repulsion after empirical dispersion term =     4426.5725786461 Hartrees.
 Using the following non-standard input for PCM:
 radii=bondi
 dis
 rep
 cav
 --- end of non-standard input.
 ------------------------------------------------------------------------------
 Polarizable Continuum Model (PCM)
 =================================
 Model                : C-PCM.
 Atomic radii         : Bondi.
 Polarization charges : Total charges.
 Charge compensation  : None.
 Solution method      : On-the-fly selection.
 Cavity type          : Scaled VdW (van der Waals Surface) (Alpha=1.100).
 Cavity algorithm     : GePol (No added spheres)
                        Default sphere list used, NSphG=   82.
                        Lebedev-Laikov grids with approx.  5.0 points / Ang**2.
                        Smoothing algorithm: York/Karplus (Gamma=1.0000).
                        Polarization charges: spherical gaussians, with
                                              point-specific exponents (IZeta= 3).
                        Self-potential: point-specific (ISelfS= 7).
                        Self-field    : sphere-specific E.n sum rule (ISelfD= 2).
 1st derivatives      : Analytical E(r).r(x)/FMM algorithm (CHGder, D1EAlg=3).
                        Cavity 1st derivative terms included.
 Solvent              : Dichloromethane, Eps=   8.930000 Eps(inf)=   2.028346
 ------------------------------------------------------------------------------
 GePol: Number of generator spheres                  =      82
 GePol: Total number of spheres                      =      82
 GePol: Number of exposed spheres                    =      82 (100.00%)
 GePol: Number of points                             =    5281
 GePol: Average weight of points                     =       0.12
 GePol: Minimum weight of points                     =   0.14D-10
 GePol: Maximum weight of points                     =    0.21770
 GePol: Number of points with low weight             =     357
 GePol: Fraction of low-weight points (<1% of avg)   =       6.76%
 GePol: Cavity surface area                          =    623.856 Ang**2
 GePol: Cavity volume                                =    610.764 Ang**3
 PCM non-electrostatic energy =         0.0289893720 Hartrees.
 Nuclear repulsion after PCM non-electrostatic terms =     4426.6015680181 Hartrees.
 Leave Link  301 at Fri Dec 21 14:03:04 2018, MaxMem=  1342177280 cpu:               4.1 elap:               0.3
 (Enter /gpfs/apps/hpc/Apps/Restricted/Gaussian/Rev_A.03/g16/l302.exe)
 NPDir=0 NMtPBC=     1 NCelOv=     1 NCel=       1 NClECP=     1 NCelD=      1
         NCelK=      1 NCelE2=     1 NClLst=     1 CellRange=     0.0.
 One-electron integrals computed using PRISM.
 NBasis=   820 RedAO= T EigKep=  2.92D-04  NBF=   820
 NBsUse=   820 1.00D-06 EigRej= -1.00D+00 NBFU=   820
 Precomputing XC quadrature grid using
 IXCGrd= 4 IRadAn=           5 IRanWt=          -1 IRanGd=           0 AccXCQ= 0.00D+00.
 Generated NRdTot=       0 NPtTot=           0 NUsed=           0 NTot=          32
 NSgBfM=   750   750   750   750   750 MxSgAt=    82 MxSgA2=    82.
 Leave Link  302 at Fri Dec 21 14:03:06 2018, MaxMem=  1342177280 cpu:              25.8 elap:               1.7
 (Enter /gpfs/apps/hpc/Apps/Restricted/Gaussian/Rev_A.03/g16/l303.exe)
 DipDrv:  MaxL=1.
 Leave Link  303 at Fri Dec 21 14:03:06 2018, MaxMem=  1342177280 cpu:               2.0 elap:               0.2
 (Enter /gpfs/apps/hpc/Apps/Restricted/Gaussian/Rev_A.03/g16/l401.exe)
 ExpMin= 1.61D-01 ExpMax= 5.48D+03 ExpMxC= 8.25D+02 IAcc=3 IRadAn=         5 AccDes= 0.00D+00
 Harris functional with IExCor=  402 and IRadAn=       5 diagonalized for initial guess.
 HarFok:  IExCor=  402 AccDes= 0.00D+00 IRadAn=         5 IDoV= 1 UseB2=F ITyADJ=14
 ICtDFT=  3500011 ScaDFX=  1.000000  1.000000  1.000000  1.000000
 FoFCou: FMM=F IPFlag=           0 FMFlag=      100000 FMFlg1=        2001
         NFxFlg=           0 DoJE=T BraDBF=F KetDBF=T FulRan=T
         wScrn=  0.000000 ICntrl=       500 IOpCl=  0 I1Cent=   200000004 NGrid=           0
         NMat0=    1 NMatS0=      1 NMatT0=    0 NMatD0=    1 NMtDS0=    0 NMtDT0=    0
 Symmetry not used in FoFCou.
 Harris En= -1707.47954885913    
 JPrj=0 DoOrth=F DoCkMO=F.
 Initial guess <Sx>= 0.0000 <Sy>= 0.0000 <Sz>= 0.5000 <S**2>= 0.7500 S= 0.5000
 Leave Link  401 at Fri Dec 21 14:03:11 2018, MaxMem=  1342177280 cpu:              77.4 elap:               4.9
 (Enter /gpfs/apps/hpc/Apps/Restricted/Gaussian/Rev_A.03/g16/l502.exe)
 Two-electron integral symmetry not used.
 UHF open shell SCF:
 Using DIIS extrapolation, IDIIS=  1040.
 NGot=  1342177280 LenX=  1340812546 LenY=  1340139326
 Requested convergence on RMS density matrix=1.00D-08 within 128 cycles.
 Requested convergence on MAX density matrix=1.00D-06.
 Requested convergence on             energy=1.00D-06.
 No special actions if energy rises.
 Fock matrices will be formed incrementally for  20 cycles.

 Cycle   1  Pass 1  IDiag  1:
 FoFJK:  IHMeth= 1 ICntrl=       0 DoSepK=F KAlg= 0 I1Cent=           0 FoldK=F
 IRaf= 630000000 NMat=       1 IRICut=       1 DoRegI=T DoRafI=F ISym2E= 0 IDoP0=0 IntGTp=1.
 FoFCou: FMM=T IPFlag=           0 FMFlag=      100000 FMFlg1=        2001
         NFxFlg=           0 DoJE=F BraDBF=F KetDBF=F FulRan=T
         wScrn=  0.000000 ICntrl=         0 IOpCl=  1 I1Cent=           0 NGrid=           0
         NMat0=    1 NMatS0=      1 NMatT0=    0 NMatD0=    1 NMtDS0=    0 NMtDT0=    0
 Symmetry not used in FoFCou.
 FMM levels:  10  Number of levels for PrismC:   9
 Inv3:  Mode=1 IEnd=    83666883.
 Iteration    1 A*A^-1 deviation from unit magnitude is 1.44D-14 for    322.
 Iteration    1 A*A^-1 deviation from orthogonality  is 7.86D-15 for   4660    992.
 Iteration    1 A^-1*A deviation from unit magnitude is 1.38D-14 for    322.
 Iteration    1 A^-1*A deviation from orthogonality  is 5.12D-15 for   5271   3401.
 E= -1706.58385109532    
 DIIS: error= 2.98D-02 at cycle   1 NSaved=   1.
 NSaved= 1 IEnMin= 1 EnMin= -1706.58385109532     IErMin= 1 ErrMin= 2.98D-02
 ErrMax= 2.98D-02  0.00D+00 EMaxC= 1.00D-01 BMatC= 3.70D+00 BMatP= 3.70D+00
 IDIUse=3 WtCom= 7.02D-01 WtEn= 2.98D-01
 Coeff-Com:  0.100D+01
 Coeff-En:   0.100D+01
 Coeff:      0.100D+01
 Gap=     0.112 Goal=   None    Shift=    0.000
 Gap=     0.088 Goal=   None    Shift=    0.000
 GapD=    0.088 DampG=0.500 DampE=0.500 DampFc=0.2500 IDamp=-1.
 Damping current iteration by 2.50D-01
 RMSDP=2.86D-03 MaxDP=1.87D-01              OVMax= 3.52D-01

 Cycle   2  Pass 1  IDiag  1:
 RMSU=  6.95D-04    CP:  9.84D-01
 E= -1706.93435302963     Delta-E=       -0.350501934316 Rises=F Damp=T
 DIIS: error= 1.75D-02 at cycle   2 NSaved=   2.
 NSaved= 2 IEnMin= 2 EnMin= -1706.93435302963     IErMin= 2 ErrMin= 1.75D-02
 ErrMax= 1.75D-02  0.00D+00 EMaxC= 1.00D-01 BMatC= 9.82D-01 BMatP= 3.70D+00
 IDIUse=3 WtCom= 8.25D-01 WtEn= 1.75D-01
 Coeff-Com: -0.838D+00 0.184D+01
 Coeff-En:   0.000D+00 0.100D+01
 Coeff:     -0.691D+00 0.169D+01
 Gap=     0.148 Goal=   None    Shift=    0.000
 Gap=     0.121 Goal=   None    Shift=    0.000
 RMSDP=1.11D-03 MaxDP=7.85D-02 DE=-3.51D-01 OVMax= 1.81D-01

 Cycle   3  Pass 1  IDiag  1:
 RMSU=  7.68D-04    CP:  9.51D-01  2.04D+00
 E= -1707.52148565325     Delta-E=       -0.587132623612 Rises=F Damp=F
 DIIS: error= 6.57D-03 at cycle   3 NSaved=   3.
 NSaved= 3 IEnMin= 3 EnMin= -1707.52148565325     IErMin= 3 ErrMin= 6.57D-03
 ErrMax= 6.57D-03  0.00D+00 EMaxC= 1.00D-01 BMatC= 1.50D-01 BMatP= 9.82D-01
 IDIUse=3 WtCom= 9.34D-01 WtEn= 6.57D-02
 Coeff-Com: -0.338D+00 0.746D+00 0.593D+00
 Coeff-En:   0.000D+00 0.000D+00 0.100D+01
 Coeff:     -0.316D+00 0.697D+00 0.619D+00
 Gap=     0.124 Goal=   None    Shift=    0.000
 Gap=     0.081 Goal=   None    Shift=    0.000
 RMSDP=3.99D-04 MaxDP=6.78D-02 DE=-5.87D-01 OVMax= 7.72D-02

 Cycle   4  Pass 1  IDiag  1:
 RMSU=  3.29D-04    CP:  9.55D-01  2.05D+00  7.10D-01
 E= -1707.54353787318     Delta-E=       -0.022052219937 Rises=F Damp=F
 DIIS: error= 6.67D-03 at cycle   4 NSaved=   4.
 NSaved= 4 IEnMin= 4 EnMin= -1707.54353787318     IErMin= 3 ErrMin= 6.57D-03
 ErrMax= 6.67D-03  0.00D+00 EMaxC= 1.00D-01 BMatC= 7.05D-02 BMatP= 1.50D-01
 IDIUse=3 WtCom= 9.33D-01 WtEn= 6.67D-02
 Coeff-Com: -0.500D-01 0.130D+00 0.401D+00 0.519D+00
 Coeff-En:   0.000D+00 0.000D+00 0.305D+00 0.695D+00
 Coeff:     -0.466D-01 0.121D+00 0.395D+00 0.531D+00
 Gap=     0.127 Goal=   None    Shift=    0.000
 Gap=     0.080 Goal=   None    Shift=    0.000
 RMSDP=1.94D-04 MaxDP=3.51D-02 DE=-2.21D-02 OVMax= 3.42D-02

 Cycle   5  Pass 1  IDiag  1:
 RMSU=  1.10D-04    CP:  9.54D-01  2.01D+00  8.03D-01  5.73D-01
 E= -1707.55740972086     Delta-E=       -0.013871847677 Rises=F Damp=F
 DIIS: error= 1.71D-03 at cycle   5 NSaved=   5.
 NSaved= 5 IEnMin= 5 EnMin= -1707.55740972086     IErMin= 5 ErrMin= 1.71D-03
 ErrMax= 1.71D-03  0.00D+00 EMaxC= 1.00D-01 BMatC= 5.42D-03 BMatP= 7.05D-02
 IDIUse=3 WtCom= 9.83D-01 WtEn= 1.71D-02
 Coeff-Com:  0.424D-02 0.201D-02 0.172D+00 0.301D+00 0.520D+00
 Coeff-En:   0.000D+00 0.000D+00 0.000D+00 0.000D+00 0.100D+01
 Coeff:      0.417D-02 0.198D-02 0.169D+00 0.296D+00 0.529D+00
 Gap=     0.126 Goal=   None    Shift=    0.000
 Gap=     0.083 Goal=   None    Shift=    0.000
 RMSDP=6.09D-05 MaxDP=1.28D-02 DE=-1.39D-02 OVMax= 1.75D-02

 Cycle   6  Pass 1  IDiag  1:
 RMSU=  3.93D-05    CP:  9.54D-01  2.01D+00  8.16D-01  6.28D-01  6.22D-01
 E= -1707.55860436803     Delta-E=       -0.001194647173 Rises=F Damp=F
 DIIS: error= 4.83D-04 at cycle   6 NSaved=   6.
 NSaved= 6 IEnMin= 6 EnMin= -1707.55860436803     IErMin= 6 ErrMin= 4.83D-04
 ErrMax= 4.83D-04  0.00D+00 EMaxC= 1.00D-01 BMatC= 6.11D-04 BMatP= 5.42D-03
 IDIUse=3 WtCom= 9.95D-01 WtEn= 4.83D-03
 Coeff-Com:  0.711D-02-0.111D-01 0.534D-01 0.104D+00 0.297D+00 0.550D+00
 Coeff-En:   0.000D+00 0.000D+00 0.000D+00 0.000D+00 0.000D+00 0.100D+01
 Coeff:      0.707D-02-0.110D-01 0.531D-01 0.103D+00 0.296D+00 0.552D+00
 Gap=     0.127 Goal=   None    Shift=    0.000
 Gap=     0.083 Goal=   None    Shift=    0.000
 RMSDP=2.04D-05 MaxDP=3.33D-03 DE=-1.19D-03 OVMax= 7.85D-03

 Cycle   7  Pass 1  IDiag  1:
 RMSU=  1.66D-05    CP:  9.54D-01  2.01D+00  8.18D-01  6.28D-01  7.21D-01
                    CP:  9.00D-01
 E= -1707.55878583340     Delta-E=       -0.000181465366 Rises=F Damp=F
 DIIS: error= 2.20D-04 at cycle   7 NSaved=   7.
 NSaved= 7 IEnMin= 7 EnMin= -1707.55878583340     IErMin= 7 ErrMin= 2.20D-04
 ErrMax= 2.20D-04  0.00D+00 EMaxC= 1.00D-01 BMatC= 7.24D-05 BMatP= 6.11D-04
 IDIUse=3 WtCom= 9.98D-01 WtEn= 2.20D-03
 Coeff-Com:  0.193D-02-0.454D-02-0.135D-01-0.261D-01 0.160D-01 0.208D+00
 Coeff-Com:  0.818D+00
 Coeff-En:   0.000D+00 0.000D+00 0.000D+00 0.000D+00 0.000D+00 0.000D+00
 Coeff-En:   0.100D+01
 Coeff:      0.193D-02-0.453D-02-0.135D-01-0.260D-01 0.160D-01 0.208D+00
 Coeff:      0.818D+00
 Gap=     0.127 Goal=   None    Shift=    0.000
 Gap=     0.084 Goal=   None    Shift=    0.000
 RMSDP=1.26D-05 MaxDP=2.55D-03 DE=-1.81D-04 OVMax= 6.42D-03

 Cycle   8  Pass 1  IDiag  1:
 RMSU=  8.12D-06    CP:  9.54D-01  2.01D+00  8.20D-01  6.34D-01  7.64D-01
                    CP:  1.10D+00  1.09D+00
 E= -1707.55884144373     Delta-E=       -0.000055610327 Rises=F Damp=F
 DIIS: error= 1.15D-04 at cycle   8 NSaved=   8.
 NSaved= 8 IEnMin= 8 EnMin= -1707.55884144373     IErMin= 8 ErrMin= 1.15D-04
 ErrMax= 1.15D-04  0.00D+00 EMaxC= 1.00D-01 BMatC= 2.62D-05 BMatP= 7.24D-05
 IDIUse=3 WtCom= 9.99D-01 WtEn= 1.15D-03
 Coeff-Com: -0.126D-02 0.166D-02-0.212D-01-0.468D-01-0.849D-01-0.121D+00
 Coeff-Com:  0.349D+00 0.924D+00
 Coeff-En:   0.000D+00 0.000D+00 0.000D+00 0.000D+00 0.000D+00 0.000D+00
 Coeff-En:   0.000D+00 0.100D+01
 Coeff:     -0.126D-02 0.166D-02-0.212D-01-0.467D-01-0.848D-01-0.121D+00
 Coeff:      0.349D+00 0.924D+00
 Gap=     0.128 Goal=   None    Shift=    0.000
 Gap=     0.085 Goal=   None    Shift=    0.000
 RMSDP=1.02D-05 MaxDP=1.70D-03 DE=-5.56D-05 OVMax= 5.26D-03

 Cycle   9  Pass 1  IDiag  1:
 RMSU=  4.52D-06    CP:  9.54D-01  2.01D+00  8.22D-01  6.34D-01  8.00D-01
                    CP:  1.23D+00  1.45D+00  1.25D+00
 E= -1707.55886315179     Delta-E=       -0.000021708061 Rises=F Damp=F
 DIIS: error= 6.32D-05 at cycle   9 NSaved=   9.
 NSaved= 9 IEnMin= 9 EnMin= -1707.55886315179     IErMin= 9 ErrMin= 6.32D-05
 ErrMax= 6.32D-05  0.00D+00 EMaxC= 1.00D-01 BMatC= 8.78D-06 BMatP= 2.62D-05
 IDIUse=1 WtCom= 1.00D+00 WtEn= 0.00D+00
 Coeff-Com: -0.914D-03 0.158D-02-0.964D-02-0.230D-01-0.530D-01-0.127D+00
 Coeff-Com:  0.295D-01 0.544D+00 0.638D+00
 Coeff:     -0.914D-03 0.158D-02-0.964D-02-0.230D-01-0.530D-01-0.127D+00
 Coeff:      0.295D-01 0.544D+00 0.638D+00
 Gap=     0.128 Goal=   None    Shift=    0.000
 Gap=     0.085 Goal=   None    Shift=    0.000
 RMSDP=4.19D-06 MaxDP=8.45D-04 DE=-2.17D-05 OVMax= 1.67D-03

 Cycle  10  Pass 1  IDiag  1:
 RMSU=  2.17D-06    CP:  9.54D-01  2.01D+00  8.22D-01  6.34D-01  8.12D-01
[...]
 0000106,-0.00000078,0.00007963,-0.00000740,0.00003915,-0.00003026,0.00
 000261,-0.00007692,-0.00005464,0.00006719,0.00000139,0.00000380,-0.000
 00042,-0.00000273,0.00000197,-0.00000029,-0.00000336,0.00000067,-0.000
 00009,-0.00034339,0.00015029,0.00003629,-0.00014851,0.00010373,-0.0001
 3566,0.00048989,-0.00044272,0.00009900,-0.00069900,0.00078871,0.000627
 46,0.00040485,0.00148055,0.00006969,-0.00028847,-0.00055367,0.00010234
 ,0.00005969,0.00028127,0.00003393,0.00109657,-0.00058068,-0.00055257,0
 .00007709,0.00009372,0.00000026,-0.01426796,0.00581835,0.00043458,-0.0
 0000824,-0.00002640,-0.00003073,0.00010715,-0.00000844,0.00001891,0.00
 002176,0.00004928,0.00009771,0.00004091,-0.00002762,0.00000616,-0.0000
 2456,0.00000286,0.00000066,0.00000823,-0.00000279,-0.00000025,0.000008
 03,-0.00000374,0.00000073,-0.00000191,-0.00000042,-0.00000005,-0.00000
 534,0.00000478,-0.00000019,0.00000178,-0.00000347,0.00000033,-0.000000
 55,0.00000118,-0.00000163,-0.00000051,0.00000144,0.00000096,-0.0000005
 0,0.00000060,-0.00000005,0.00000027,-0.00000063,0.00000076,0.00000004,
 -0.00000010,0.00000002,0.00000011,-0.00000003,-0.00000002,0.00000028,-
 0.00000070,-0.00000059,0.00000011,-0.00000005,-0.00000003,-0.00000004,
 -0.00000006,0.00000037,0.00000018,0.00000039,-0.00000016,-0.00000076,0
 .00000020,0.00000034,0.,0.00000011,-0.00000016,-0.00000061,0.00000015,
 -0.00000024,-0.00000005,0.00000010,0.00000011,-0.00000060,0.00000020,0
 .00000004,0.00000006,-0.00000019,0.00000005,-0.00001226,-0.00001266,-0
 .00000041,0.00017274,-0.00014894,-0.00016969,-0.00000641,0.00000537,0.
 00000761,0.00000109,-0.00000812,-0.00000438,0.00000360,-0.00000251,-0.
 00000178,-0.00000024,0.00000018,0.00000130,0.00060317,-0.00013337,0.00
 123827,0.00001507,-0.00002140,-0.00008115,0.00055494,0.00004530,-0.000
 40895,0.00014740,-0.00022035,-0.00003540,0.00000678,0.00000674,-0.0000
 0114,0.00000394,0.00000038,-0.00000577,0.00000227,-0.00000048,0.000006
 96,0.00000069,-0.00000524,0.00000006,0.00001232,0.00000548,-0.00000167
 ,-0.00000338,-0.00000532,0.00000411,-0.00000122,0.00000051,-0.00000128
 ,0.00000247,0.00000111,-0.00000124,-0.00042235,-0.00199379,-0.00379748
 ,-0.00101812,0.00069163,-0.00019784,0.00028901,-0.00012190,0.00009917,
 0.00021999,0.00007952,0.00012994,-0.26985760,0.10138784,-0.00622191,-0
 .01352123,0.00668008,-0.00098743,0.29257777,-0.00000835,-0.00000648,0.
 00000127,-0.00002034,0.00001152,0.00002293,0.00000260,0.00001047,-0.00
 001658,-0.00001274,-0.00000670,0.00000007,0.00000392,-0.00001142,0.000
 00150,0.00001089,0.00000553,-0.00000069,0.00002931,0.00004732,-0.00000
 644,-0.00012739,-0.00004753,0.00005741,-0.00000326,-0.00000120,0.00000
 128,0.00000041,-0.00000066,0.00000047,-0.00001241,0.00003062,-0.000009
 36,-0.00005796,0.00003799,-0.00000262,0.00003873,-0.00004613,0.0000069
 5,-0.00007335,-0.00002582,0.00000148,-0.00000238,0.00008052,-0.0000102
 0,0.00003487,-0.00003847,0.00000805,-0.00003968,-0.00000346,-0.0000307
 5,0.00000125,0.00000297,-0.00000039,-0.00000239,0.00000114,-0.00000051
 ,-0.00000327,0.00000138,0.00000004,0.00012106,-0.00007616,-0.00001853,
 -0.00007302,-0.00003439,0.00006957,0.00016879,-0.00018428,0.00001687,-
 0.00062857,-0.00210743,-0.00130514,-0.00034742,0.00021444,0.00055610,0
 .00000962,0.00000253,0.00001867,0.00000074,0.00005509,-0.00005478,-0.0
 0041965,-0.00127010,-0.00108302,0.00002776,0.00001931,0.00000509,-0.00
 865907,0.00246372,0.00008888,-0.00001676,0.00000699,0.00001167,0.00002
 989,0.00010575,-0.00000966,-0.00002735,0.00008715,0.00007766,0.0000057
 8,-0.00002104,-0.00000106,-0.00001463,-0.00000495,-0.00000018,0.000004
 85,-0.00000009,0.00000047,-0.00000348,0.00000298,-0.00000048,-0.000000
 39,-0.00000002,0.00000016,-0.00000071,-0.00000407,0.00000018,-0.000000
 32,0.00000182,-0.00000008,0.00000030,-0.00000024,0.00000075,0.00000030
 ,-0.00000028,-0.00000045,0.00000023,-0.00000069,0.00000005,-0.00000003
 ,0.00000049,-0.00000034,-0.00000015,-0.00000030,0.00000003,-0.00000007
 ,0.00000008,-0.00000017,-0.00000007,0.00000050,0.00000021,-0.00000022,
 -0.00000033,0.00000012,0.,0.00000020,-0.00000007,-0.00000002,0.0000000
 9,0.00000007,0.00000022,-0.00000005,-0.00000007,0.00000002,-0.00000034
 ,0.00000008,0.00000014,-0.00000004,-0.00000002,0.00000006,-0.00000034,
 0.,0.00000026,-0.00000009,-0.00000004,-0.00000014,-0.00000018,0.000000
 02,0.00001923,-0.00001861,0.00000374,-0.00006376,0.00011075,0.00008397
 ,0.00001164,0.00000116,-0.00001159,-0.00000268,-0.00000351,-0.00000364
 ,0.00000376,0.00000399,0.00000629,0.00000033,-0.00000205,0.00000160,0.
 00019216,0.00014944,0.00041769,0.00006402,0.00000413,-0.00004849,0.000
 06397,0.00017106,0.00000307,-0.00010752,-0.00010834,0.00009582,0.00000
 480,0.00000870,-0.00000057,-0.00000091,-0.00000127,0.00000191,0.000000
 36,-0.00000011,-0.00000123,0.00000566,0.00000062,0.00000054,0.00000478
 ,0.00000195,0.00000683,-0.00000320,-0.00000507,0.00000277,-0.00000023,
 -0.00000143,-0.00000216,0.00000684,0.00000200,-0.00000361,-0.00070249,
 -0.00011606,-0.00101900,-0.00023576,0.00061832,-0.00020556,0.00019226,
 -0.00012245,-0.00012914,-0.00014207,0.00042005,-0.00003138,0.10268228,
 -0.09375452,0.00338003,-0.00979561,0.00389784,-0.00082606,-0.11117650,
 0.10115884,-0.00000472,-0.00000507,0.00000140,0.00002620,-0.00001492,-
 0.00003087,-0.00007427,0.00002217,0.00002307,-0.00001018,0.00000016,-0
 .00000088,0.00000254,-0.00000843,0.00000080,0.00000126,0.00000467,-0.0
 0000054,0.00002255,0.00002151,0.00000116,-0.00004531,0.00008695,0.0000
 8182,0.00000003,-0.00000052,0.00000060,-0.00000079,-0.00000025,0.00000
 028,-0.00001929,0.00004720,-0.00000328,-0.00007135,0.00003788,-0.00000
 399,0.00003684,-0.00004040,0.00000607,-0.00006474,-0.00002299,0.000000
 69,0.00000033,0.00007080,-0.00000778,0.00003516,-0.00002651,0.00000449
 ,-0.00008448,-0.00003180,0.00000609,0.00000103,0.00000345,-0.00000002,
 -0.00000207,0.00000153,-0.00000005,-0.00000295,0.00000078,0.00000041,-
 0.00013232,0.00004600,-0.00001271,-0.00009774,0.00005139,0.00000557,0.
 00038109,-0.00031050,0.00002992,-0.00084484,-0.00019844,-0.00048108,0.
 00068296,0.00081465,0.00051523,-0.00023211,-0.00029750,0.00016380,0.00
 002863,0.00019104,-0.00002101,0.00007732,-0.00140404,-0.00063492,0.000
 07140,0.00008465,-0.00001427,-0.02410898,0.01247821,-0.00102594,-0.000
 00572,-0.00001191,-0.00001801,0.00006518,0.00004828,-0.00000087,0.0000
 2255,0.00013931,0.00018453,0.00003261,-0.00002834,0.00000212,-0.000016
 06,0.00000227,-0.00000128,0.00000480,-0.00000155,0.00000147,0.00000495
 ,-0.00000281,0.00000064,-0.00000110,-0.00000012,0.00000025,-0.00000265
 ,0.00000313,-0.00000130,0.00000075,-0.00000189,0.00000058,-0.00000036,
 0.00000063,-0.00000072,-0.00000050,0.00000080,0.00000102,-0.00000033,0
 .00000039,-0.00000004,0.00000006,-0.00000025,0.00000043,0.00000009,-0.
 00000001,0.00000002,0.00000002,-0.00000009,-0.00000016,0.,-0.00000036,
 -0.00000043,0.00000001,-0.00000007,0.00000005,0.00000017,0.00000007,-0
 .00000024,0.00000008,0.00000015,0.00000010,-0.00000023,0.00000010,-0.0
 0000003,-0.00000004,0.00000005,-0.00000003,-0.00000040,0.00000007,-0.0
 0000020,0.,0.00000007,0.00000006,-0.00000016,0.00000002,-0.00000007,0.
 00000001,-0.00000006,0.,0.00000745,-0.00001329,0.00000435,0.00006623,-
 0.00006039,-0.00005359,-0.00000581,0.00000272,0.00000133,-0.00000026,-
 0.00000463,-0.00000305,0.00000184,-0.00000137,-0.00000084,0.00000047,-
 0.00000045,0.00000111,-0.00088040,0.00051506,0.00181918,0.00008877,0.0
 0005657,-0.00009842,0.00047752,-0.00003650,-0.00056371,0.00013456,-0.0
 0019773,0.00027604,0.00000448,0.00000431,-0.00000379,0.00000151,0.0000
 0018,-0.00000158,0.00000195,0.00000057,0.00000427,0.00000120,-0.000002
 68,0.00000078,0.00000608,0.00000519,-0.00000352,-0.00000233,-0.0000044
 3,0.00000429,0.00000081,-0.00000018,-0.00000019,0.00000335,-0.00000027
 ,-0.00000121,-0.00219203,-0.00209364,-0.00480633,-0.00183704,0.0006639
 5,0.00002597,-0.00011939,-0.00013334,0.00019419,0.00029519,-0.00008698
 ,-0.00006423,-0.00484098,0.00241756,-0.04851231,0.02313494,-0.01206420
 ,0.00165657,0.00943579,-0.00059515,0.05226162,0.00000234,0.00000612,-0
 .00000109,0.00000882,0.00000759,-0.00000138,-0.00000385,-0.00000437,0.
 00000176,0.00000752,0.00000138,0.00000009,-0.00000375,0.00000678,-0.00
 000092,-0.00000178,-0.00000388,0.00000062,-0.00001626,-0.00002644,0.00
 000298,-0.00002487,-0.00004432,0.00000013,-0.00000152,0.00000076,0.000
 00075,0.00000030,0.00000035,0.,0.00003647,-0.00003568,0.00001360,0.000
 03450,-0.00000263,0.00000019,-0.00001855,0.00002521,-0.00000326,0.0000
 4867,0.00001907,-0.00000130,-0.00000165,-0.00006051,0.00000701,-0.0000
 3086,0.00002699,-0.00000562,-0.00001351,-0.00001999,0.00002176,-0.0000
 0136,-0.00000190,0.00000038,0.00000171,-0.00000115,0.00000006,0.000002
 32,-0.00000024,0.00000017,-0.00000203,0.00000824,0.00000196,-0.0000095
 8,0.00022805,-0.00008431,0.00003392,-0.00007639,0.00017142,-0.00016254
 ,0.00012710,0.00024929,-0.00110391,0.00089286,-0.00268587,-0.00013252,
 -0.00096618,0.00027980,0.00001890,0.00019938,0.00025562,0.00033832,-0.
 00017492,-0.00024422,0.00002225,-0.00001155,-0.00009449,-0.00345359,-0
 .01650978,-0.00222645,0.00004262,-0.00005569,-0.00011678,0.00004442,-0
 .00027814,0.00001425,-0.00002656,0.00002194,-0.00000780,0.00001465,0.0
 0000109,-0.00000537,0.00000771,-0.00000118,0.00000074,-0.00000376,0.00
 000093,-0.00000043,-0.00000436,0.00000226,-0.00000043,0.00000071,0.000
 00016,0.,0.00000199,-0.00000292,0.00000053,-0.00000072,0.00000174,-0.0
 0000023,0.00000029,-0.00000047,0.00000075,0.00000034,-0.00000063,-0.00
 000068,0.00000026,-0.00000039,0.00000004,-0.00000007,0.00000027,-0.000
 00039,-0.00000008,0.,0.,-0.00000006,0.00000002,0.,-0.00000010,0.000000
 38,0.00000030,-0.00000008,-0.00000002,0.00000003,-0.00000007,0.0000000
 4,0.00000002,-0.00000009,-0.00000012,0.,0.00000029,-0.00000009,-0.0000
 0008,0.00000001,-0.00000009,0.00000006,0.00000030,-0.00000005,0.000000
 13,0.00000001,-0.00000012,-0.00000004,0.00000024,-0.00000008,0.0000000
 2,-0.00000004,0.00000005,0.,-0.00004651,0.00002407,-0.00000770,-0.0000
 0181,-0.00001216,-0.00000444,-0.00004967,0.00000130,0.00004080,0.00000
 569,0.00000302,0.00000435,-0.00000554,-0.00001579,-0.00001986,0.000000
 44,0.00000458,-0.00000207,0.00017276,0.00040609,0.00104834,0.00032941,
 0.00024946,-0.00006700,0.00003975,0.00007428,-0.00004636,-0.00016777,0
 .00008889,0.00010661,-0.00000354,-0.00002032,0.00000093,0.00000383,0.0
 0000383,-0.00000139,0.00000114,0.00000113,0.00000314,-0.00001169,-0.00
 000135,-0.00000009,0.00000484,0.00001070,-0.00001590,0.00000467,0.0000
 0697,-0.00000331,0.00000007,0.00000207,0.00000493,-0.00001079,-0.00000
 334,0.00000502,0.00072945,-0.00123874,0.00023416,0.00023273,0.00012816
 ,0.00018534,-0.00007443,0.00002167,0.00000696,0.00041864,0.00038270,-0
 .00019297,-0.05101870,-0.02591032,0.00127110,-0.00181697,-0.01657720,-
 0.00127516,0.00393132,0.02904214,0.00054117,0.05168091,0.00001071,0.00
 001098,-0.00000177,-0.00000066,0.00000222,-0.00000026,-0.00000022,-0.0
 0001864,0.00000424,0.00002182,0.00000365,0.00000055,-0.00000744,0.0000
 2168,-0.00000307,-0.00001134,-0.00001075,0.00000149,-0.00005703,-0.000
 06514,0.00000710,0.00000434,-0.00002379,-0.00000674,0.00000182,0.00000
 264,-0.00000059,0.00000089,0.00000084,-0.00000026,0.00005375,-0.000064
 30,0.00001001,0.00010684,-0.00006497,0.00001132,-0.00006807,0.00008324
 ,-0.00001232,0.00013449,0.00004896,-0.00000218,0.00000166,-0.00015072,
 0.00001641,-0.00007072,0.00006803,-0.00000845,0.00001937,-0.00000392,0
 .00000307,-0.00000289,-0.00000547,0.00000058,0.00000468,-0.00000284,0.
 00000062,0.00000614,-0.00000158,0.00000028,0.00000918,0.00002258,-0.00
 000330,0.00003671,0.00024174,-0.00000811,-0.00017628,0.00031748,-0.000
 04588,-0.00013265,-0.00040895,-0.00015485,-0.00139892,0.00070343,-0.00
 183650,0.00054317,-0.00014969,-0.00023301,-0.00007159,-0.00015035,0.00
 007978,-0.00015062,0.00016475,0.00017755,-0.00003597,0.00005476,-0.000
 01566,-0.00069401,-0.00872508,0.00034875,0.00006743,-0.00004556,0.0000
 2172,-0.00002533,-0.00033060,0.00001181,-0.00000841,0.00000774,-0.0000
 1546,-0.00000150,0.00002530,-0.00000245,0.00003335,0.00000250,0.000000
 97,-0.00001186,0.00000248,-0.00000067,-0.00000540,0.00000119,-0.000000
 25,0.00000212,0.00000042,-0.00000014,0.00000531,-0.00000095,0.00000040
 ,-0.00000141,0.00000161,-0.00000028,0.00000022,-0.00000092,0.00000083,
 0.00000028,-0.00000127,-0.00000075,0.00000030,0.00000009,0.00000004,-0
 .00000019,0.00000006,-0.00000043,0.00000005,0.00000044,-0.00000005,-0.
 00000004,-0.00000003,0.00000023,-0.00000025,0.00000026,0.00000031,0.00
 000011,0.00000046,-0.00000010,-0.00000010,-0.00000013,-0.00000007,-0.0
 0000021,-0.00000049,-0.00000001,0.00000044,-0.00000015,-0.00000016,0.,
 0.00000027,0.00000005,0.00000053,-0.00000008,0.00000035,-0.00000003,0.
 00000023,-0.00000011,0.00000029,-0.00000009,0.00000007,0.00000009,0.00
 000041,-0.00000005,-0.00003887,0.00003803,-0.00000839,-0.00003921,-0.0
 0002591,0.00000650,-0.00003232,0.00000146,0.00003370,0.00000573,0.0000
 0731,0.00000697,-0.00001168,-0.00001253,-0.00001750,0.00000138,0.00000
 446,-0.00000443,0.00030324,0.00038775,0.00079507,0.00026585,-0.0000131
 1,-0.00053685,-0.00002240,0.00001538,-0.00004101,-0.00000218,0.0003115
 8,-0.00004654,-0.00001194,-0.00002653,-0.00000219,0.00000417,0.0000027
 1,-0.00000428,0.00000177,0.00000234,0.00000548,-0.00001703,-0.00000270
 ,-0.00000101,-0.00003684,-0.00000294,-0.00003397,0.00000913,0.00000921
 ,-0.00000567,0.00000101,0.00000393,0.00000355,-0.00001728,-0.00001376,
 0.00001654,0.00095885,0.00049769,0.00099576,0.00002326,0.00037723,-0.0
 0006874,-0.00002956,-0.00001225,-0.00005186,-0.00032371,0.00064174,-0.
 00009547,-0.02687921,-0.31279397,-0.00607509,-0.00024137,-0.00734379,-
 0.00044020,-0.00203303,-0.01171272,-0.00012044,0.03002935,0.33809543,0
 .00001163,0.00001664,-0.00000273,0.00000963,0.00001048,-0.00000187,0.,
 -0.00002322,0.00000411,0.00002507,0.00000523,-0.00000058,-0.00000919,0
 .00002318,-0.00000353,-0.00001265,-0.00001191,0.00000168,-0.00005914,-
 0.00008562,0.00000969,0.00000053,0.00001683,0.00000080,0.00000191,0.00
 000148,0.00000014,0.00000049,0.00000102,-0.00000006,0.00009135,-0.0001
 0469,0.00002216,0.00015509,-0.00006716,0.00001544,-0.00008582,0.000104
 09,-0.00001394,0.00017157,0.00006352,-0.00000305,-0.00000084,-0.000195
 71,0.00002123,-0.00009574,0.00008667,-0.00001139,0.00005089,-0.0000144
 1,-0.00002789,-0.00000364,-0.00000700,0.00000085,0.00000553,-0.0000033
 3,0.00000018,0.00000725,-0.00000178,0.00000024,0.00000147,0.00002914,-
 0.00000230,0.00004907,0.00024637,-0.00001379,-0.00023000,0.00043209,0.
 00001135,0.00001933,-0.00081052,0.00011829,-0.00310720,0.00075311,-0.0
 0384385,0.00012816,-0.00130068,0.00033767,-0.00011025,0.00002620,0.000
 30405,0.00004920,0.00015111,0.00005371,0.00002632,0.00001829,-0.000118
 36,-0.00359401,-0.02820000,-0.00354913,0.00009365,-0.00008256,-0.00011
 864,0.00000477,-0.00042247,0.00002242,-0.00004677,0.00003404,-0.000017
 50,-0.00001854,0.00004856,-0.00001005,0.00003050,0.00000115,0.00000123
 ,-0.00001157,0.00000231,-0.00000064,-0.00000495,0.00000173,-0.00000039
 ,0.00000179,0.00000029,-0.00000005,0.00000444,-0.00000180,0.00000045,-
 0.00000092,0.00000164,-0.00000021,0.00000029,-0.00000072,0.00000085,0.
 00000032,-0.00000091,-0.00000067,0.00000027,-0.00000012,0.,-0.00000008
 ,0.00000010,-0.00000041,0.00000003,0.00000027,0.00000001,-0.00000008,-
 0.00000008,0.00000007,-0.00000008,0.00000026,0.00000041,0.00000002,0.0
 0000022,-0.00000003,-0.00000005,-0.00000006,-0.00000006,-0.00000014,-0
 .00000029,0.00000004,0.00000038,-0.00000013,-0.00000015,-0.00000002,0.
 00000014,0.00000003,0.00000033,-0.00000010,0.00000013,0.,0.00000010,-0
 .00000007,0.00000018,-0.00000004,0.00000002,0.00000005,0.00000022,-0.0
 0000002,-0.00007434,0.00005438,-0.00001639,-0.00003087,-0.00003533,0.0
 0000298,-0.00007050,-0.00000436,0.00006294,0.00000847,0.00000993,0.000
 00939,-0.00001256,-0.00002364,-0.00003138,-0.00000021,0.00000846,-0.00
 000409,0.00016339,-0.00105165,0.00125759,0.00011651,0.00042030,-0.0003
 6112,0.00006573,0.00004385,-0.00010962,-0.00007920,0.00022072,0.000389
 02,-0.00001145,-0.00003884,0.00000092,0.00000361,0.00000734,-0.0000032
 5,0.00000141,0.00000293,0.00000672,-0.00002232,-0.00000161,-0.00000030
 ,-0.00001934,0.00000362,-0.00003643,0.00001229,0.00001334,-0.00000885,
 -0.00000144,0.00000528,0.00001089,-0.00002209,-0.00000985,0.00001708,0
 .00089388,-0.00059617,0.00089768,0.00039913,0.00007126,0.00002060,-0.0
 0007822,0.00009840,-0.00001612,-0.00005038,0.00026785,-0.00010996,0.00
 110505,-0.00403495,-0.04495168,0.00123954,0.02600523,0.00160658,0.0002
 7402,0.00047683,-0.00090891,0.00264006,0.00734550,0.04908982\\0.000000
 36,-0.00000181,0.00000161,0.00000089,-0.00000044,0.00000367,0.00000166
 ,-0.00000012,0.00000750,0.00000183,-0.00000059,0.00000908,0.00000160,-
 0.00000154,0.00000696,0.00000083,-0.00000224,0.00000322,-0.00000032,-0
 .00000147,-0.00000222,0.00000193,0.00000066,0.00000912,0.00000258,-0.0
 0000016,0.00001202,0.00000193,-0.00000195,0.00000833,-0.00000118,-0.00
 000026,-0.00000495,-0.00000172,-0.00000011,-0.00000824,-0.00000250,-0.
 00000093,-0.00001170,-0.00000244,-0.00000191,-0.00001202,-0.00000176,-
 0.00000199,-0.00000901,-0.00000116,-0.00000127,-0.00000535,-0.00000051
 ,0.00000118,-0.00000313,-0.00000295,-0.00000086,-0.00001406,-0.0000029
 7,-0.00000257,-0.00001469,-0.00000183,-0.00000277,-0.00000938,0.000000
 39,-0.00000055,0.00000122,-0.00000080,0.00000362,-0.00000183,-0.000000
 40,0.00000210,-0.00000078,0.00000048,0.00000220,0.00000308,0.00000092,
 0.00000293,0.00000556,0.00000069,0.00000394,0.00000405,-0.00000015,0.0
 0000415,0.00000020,0.00000081,0.00000129,0.00000417,0.00000100,0.00000
 469,0.00000596,0.00000190,0.00000273,0.00000966,-0.00000053,0.00000529
 ,-0.00000115,-0.00000129,0.00000300,-0.00000582,-0.00000025,0.00000046
 ,-0.00000193,-0.00000159,0.00000070,-0.00000660,-0.00000043,-0.0000020
 6,-0.00000195,-0.00000070,-0.00000275,-0.00000404,0.00000049,-0.000003
 41,0.00000087,0.00000078,-0.00000363,0.00000249,-0.00000021,-0.0000038
 3,-0.00000250,-0.00000070,-0.00000493,-0.00000459,-0.00000080,-0.00000
 189,-0.00000429,-0.00000018,-0.00000877,-0.00000336,-0.00000128,-0.000
 00520,-0.00000745,-0.00000125,-0.00000301,-0.00000651,-0.00000022,-0.0
 0000153,-0.00000138,-0.00000115,0.00000077,-0.00000521,-0.00000059,-0.
 00000988,-0.00000560,0.00000039,-0.00000854,-0.00000047,-0.00000011,-0
 .00001086,-0.00000364,-0.00000071,-0.00000686,-0.00000531,-0.00000126,
 -0.00000088,-0.00000623,-0.00000181,-0.00000318,-0.00000944,-0.0000002
 2,-0.00001256,-0.00000466,-0.00000115,-0.00001024,-0.00000850,-0.00000
 101,-0.00000767,-0.00000701,-0.00000009,-0.00000663,-0.00000247,-0.000
 00178,0.00000129,-0.00000808,0.00000026,0.00000020,0.00000170,-0.00000
 127,0.00000889,-0.00000344,-0.00000175,0.00000834,-0.00000581,-0.00000
 156,0.00000965,-0.00000450,-0.00000107,0.00001115,-0.00000179,0.000001
 95,0.00000565,0.00001075,0.00000259,0.00000549,0.00001369,0.00000166,0
 .00000509,0.00000924,0.00000162,0.00000848,0.00001010,0.00000004,0.000
 00605,0.00000195,0.00000057,0.00000363,0.00000369,0.00000025,0.0000084
 1,0.00000372,-0.00000027,0.00000679,0.00000075,-0.00000093,0.00000202,
 -0.00000355,-0.00000137,0.00000143,-0.00000589,-0.00000037,-0.00000049
 ,-0.00000193,-0.00000115,0.00000286,-0.00000454,0.00000234,0.00000357,
 0.00001189,0.00000204,0.00000645,0.00001143,0.00000230,0.00000162,0.00
 001123,0.00000296,0.00000338,0.00001483,0.00000232,-0.00000122,0.00001
 061,0.00000233,-0.00000333,0.00000984,0.00000209,-0.00000187,0.0000092
 2,0.00000298,-0.00000138,0.00001359\\\@


 The chemist is a guest at the physicist's table and
 frequently dines well.
                   -- Richard Bersohn
 Job cpu time:       0 days 21 hours 37 minutes 32.8 seconds.
 Elapsed time:       0 days  1 hours 21 minutes 26.6 seconds.
 File lengths (MBytes):  RWF=  10696 Int=      0 D2E=      0 Chk=    104 Scr=      8
 Normal termination of Gaussian 16 at Fri Dec 21 15:57:24 2018.
