 Entering Gaussian System, Link 0=g16
 Initial command:
 /gpfs/apps/hpc/Apps/Restricted/Gaussian/Rev_A.03/g16/l1.exe "/gpfs/scratch60/fas/hammes_schiffer/jg2487/c42n04/Gau-290469.inp" -scrdir="/gpfs/scratch60/fas/hammes_schiffer/jg2487/c42n04/"
 Entering Link 1 = /gpfs/apps/hpc/Apps/Restricted/Gaussian/Rev_A.03/g16/l1.exe PID=    290470.
  
 Copyright (c) 1988,1990,1992,1993,1995,1998,2003,2009,2016,
            Gaussian, Inc.  All Rights Reserved.
  
 This is part of the Gaussian(R) 16 program.  It is based on
 the Gaussian(R) 09 system (copyright 2009, Gaussian, Inc.),
 the Gaussian(R) 03 system (copyright 2003, Gaussian, Inc.),
 the Gaussian(R) 98 system (copyright 1998, Gaussian, Inc.),
 the Gaussian(R) 94 system (copyright 1995, Gaussian, Inc.),
 the Gaussian 92(TM) system (copyright 1992, Gaussian, Inc.),
 the Gaussian 90(TM) system (copyright 1990, Gaussian, Inc.),
 the Gaussian 88(TM) system (copyright 1988, Gaussian, Inc.),
 the Gaussian 86(TM) system (copyright 1986, Carnegie Mellon
 University), and the Gaussian 82(TM) system (copyright 1983,
 Carnegie Mellon University). Gaussian is a federally registered
 trademark of Gaussian, Inc.
  
 This software contains proprietary and confidential information,
 including trade secrets, belonging to Gaussian, Inc.
  
 This software is provided under written license and may be
 used, copied, transmitted, or stored only in accord with that
 written license.
  
 The following legend is applicable only to US Government
 contracts under FAR:
  
                    RESTRICTED RIGHTS LEGEND
  
 Use, reproduction and disclosure by the US Government is
 subject to restrictions as set forth in subparagraphs (a)
 and (c) of the Commercial Computer Software - Restricted
 Rights clause in FAR 52.227-19.
  
 Gaussian, Inc.
 340 Quinnipiac St., Bldg. 40, Wallingford CT 06492
  
  
 ---------------------------------------------------------------
 Warning -- This program may not be used in any manner that
 competes with the business of Gaussian, Inc. or will provide
 assistance to any competitor of Gaussian, Inc.  The licensee
 of this program is prohibited from giving any competitor of
 Gaussian, Inc. access to this program.  By using this program,
 the user acknowledges that Gaussian, Inc. is engaged in the
 business of creating and licensing software in the field of
 computational chemistry and represents and warrants to the
 licensee that it is not a competitor of Gaussian, Inc. and that
 it will not use this program in any manner prohibited above.
 ---------------------------------------------------------------
  

 Cite this work as:
 Gaussian 16, Revision A.03,
 M. J. Frisch, G. W. Trucks, H. B. Schlegel, G. E. Scuseria, 
 M. A. Robb, J. R. Cheeseman, G. Scalmani, V. Barone, 
 G. A. Petersson, H. Nakatsuji, X. Li, M. Caricato, A. V. Marenich, 
 J. Bloino, B. G. Janesko, R. Gomperts, B. Mennucci, H. P. Hratchian, 
 J. V. Ortiz, A. F. Izmaylov, J. L. Sonnenberg, D. Williams-Young, 
 F. Ding, F. Lipparini, F. Egidi, J. Goings, B. Peng, A. Petrone, 
 T. Henderson, D. Ranasinghe, V. G. Zakrzewski, J. Gao, N. Rega, 
 G. Zheng, W. Liang, M. Hada, M. Ehara, K. Toyota, R. Fukuda, 
 J. Hasegawa, M. Ishida, T. Nakajima, Y. Honda, O. Kitao, H. Nakai, 
 T. Vreven, K. Throssell, J. A. Montgomery, Jr., J. E. Peralta, 
 F. Ogliaro, M. J. Bearpark, J. J. Heyd, E. N. Brothers, K. N. Kudin, 
 V. N. Staroverov, T. A. Keith, R. Kobayashi, J. Normand, 
 K. Raghavachari, A. P. Rendell, J. C. Burant, S. S. Iyengar, 
 J. Tomasi, M. Cossi, J. M. Millam, M. Klene, C. Adamo, R. Cammi, 
 J. W. Ochterski, R. L. Martin, K. Morokuma, O. Farkas, 
 J. B. Foresman, and D. J. Fox, Gaussian, Inc., Wallingford CT, 2016.
 
 ******************************************
 Gaussian 16:  ES64L-G16RevA.03 25-Dec-2016
                20-Dec-2018 
 ******************************************
 %chk=cyclohexyl-diBIP-E2PT.chk
 %mem=10GB
 %nprocshared=16
 Will use up to   16 processors via shared memory.
 ----------------------------------------------------------------------
 #p opt=tight freq=internalmodes b3lyp/6-31g(d,p) scrf=(cpcm,solvent=di
 chloromethane,read) nosymm empiricaldispersion=gd3bj int=grid=ultrafin
 e
 ----------------------------------------------------------------------
 1/7=10,18=20,19=15,26=6,38=1,40=2/1,3;
 2/9=110,12=2,15=1,17=6,18=5,40=1/2;
 3/5=1,6=6,7=101,11=2,25=1,30=1,70=2103,71=1,72=9,74=-5,75=-5,124=41/1,2,3;
 4//1;
 5/5=2,38=5,53=9/2;
 6/7=2,8=2,9=2,10=2,28=1/1;
 7/30=1/1,2,3,16;
 1/7=10,18=20,19=15,26=6/3(2);
 2/9=110,15=1/2;
 99//99;
 2/9=110,15=1/2;
 3/5=1,6=6,7=101,11=2,25=1,30=1,70=2105,71=1,72=9,74=-5,75=-5,124=41/1,2,3;
 4/5=5,16=3,69=1/1;
 5/5=2,38=5,53=9/2;
 7/30=1/1,2,3,16;
 1/7=10,18=20,19=15,26=6/3(-5);
 2/9=110,15=1/2;
 6/7=2,8=2,9=2,10=2,19=2,28=1/1;
 99/9=1/99;
 Leave Link    1 at Thu Dec 20 18:09:51 2018, MaxMem=  1342177280 cpu:               9.5 elap:               0.6
 (Enter /gpfs/apps/hpc/Apps/Restricted/Gaussian/Rev_A.03/g16/l101.exe)
 ----------------------------------------------------------------------
 cyclohexylimine diBIP oxidized, first and second proton transferred, o
 ptimization
 ----------------------------------------------------------------------
 Symbolic Z-matrix:
 Charge =  1 Multiplicity = 2
 C                     1.53641   1.14546   0.16109 
 C                     0.32049   1.84478   0.13093 
 C                     0.28354   3.23609   0.03512 
 C                     1.5123    3.88831  -0.03626 
 C                     2.72964   3.18533  -0.01175 
 C                     2.77775   1.79106   0.08759 
 C                    -0.11352  -0.34855   0.26909 
 H                    -0.65335   3.77663   0.01343 
 H                     1.53222   4.96826  -0.11264 
 H                     3.66155   3.73567  -0.07265 
 C                    -2.2923   -1.49242   0.28384 
 C                    -3.0649   -2.68059   0.32755 
 C                    -2.48241  -3.94135   0.44334 
 C                    -1.08937  -3.99243   0.50891 
 C                    -0.30037  -2.83431   0.45627 
 C                    -0.8811   -1.56569   0.34158 
 C                    -4.35446  -0.88368   0.14284 
 H                    -3.08158  -4.84232   0.47889 
 H                    -0.60019  -4.95396   0.60057 
 H                     0.77715  -2.92939   0.51025 
 N                    -0.67063   0.8781    0.20307 
 C                    -6.8702   -0.74412  -0.09185 
 C                    -5.56042  -0.08951   0.00754 
 C                    -5.47572   1.29007  -0.03993 
 C                    -6.62197   2.09323  -0.19766 
 C                    -7.88798   1.47423  -0.31461 
 C                    -8.04513   0.10778  -0.25993 
 H                    -4.50229   1.75954   0.04308 
 H                    -8.76215   2.10386  -0.43947 
 C                    -6.49194   3.58467  -0.24925 
 C                    -9.38269  -0.55322  -0.35647 
 O                    -7.00057  -1.99477  -0.03518 
 N                    -3.10832  -0.39351   0.17511 
 N                    -4.36589  -2.24745   0.23504 
 N                     1.22676  -0.19832   0.24893 
 H                     1.96174  -0.90226   0.26737 
 C                     4.0317    1.04112   0.10375 
 H                     4.94441   1.63949   0.02363 
 N                     4.0425   -0.23678   0.19699 
 C                     5.35629  -0.90392   0.17585 
 C                     6.0713   -0.6904   -1.16909 
 C                     6.25506  -0.46855   1.34555 
 H                     5.15848  -1.97555   0.28738 
 C                     7.42422  -1.40849  -1.20407 
 H                     6.22486   0.38622  -1.31085 
 H                     5.42636  -1.03406  -1.98371 
 C                     7.60629  -1.19088   1.30596 
 H                     6.42039   0.61297   1.28057 
 H                     5.74012  -0.66082   2.29172 
 C                     8.31663  -0.97769  -0.03523 
 H                     7.92069  -1.20996  -2.15917 
 H                     7.26038  -2.49186  -1.14998 
 H                     8.23309  -0.84226   2.13272 
 H                     7.44608  -2.26533   1.46129 
 H                     9.26085  -1.53032  -0.05614 
 H                     8.566     0.08519  -0.14614 
 H                    -5.23972  -2.7666    0.20563 
 H                    -1.69004   0.98008   0.18901 
 C                    -9.41146  -1.57009  -1.51264 
 H                    -9.1917   -2.54657  -1.13435 
 H                    -10.38253  -1.57188  -1.96198 
 H                    -8.68012  -1.29836  -2.2449 
 C                    -5.74704   4.01431  -1.5268 
 H                    -6.12567   4.95793  -1.86016 
 H                    -4.70156   4.10343  -1.31717 
 H                    -5.89632   3.2801   -2.2907 
 C                    -10.49403   0.49095  -0.57149 
 H                    -10.50013   1.1792    0.24776 
 H                    -10.31279   1.02231  -1.48237 
 H                    -11.44135  -0.00317  -0.62926 
 C                    -9.69171  -1.34422   0.92822 
 H                    -9.31896  -2.34245   0.8308 
 H                    -9.22093  -0.86754   1.76251 
 H                    -10.74994  -1.37226   1.08395 
 C                    -7.8706    4.2708   -0.23747 
 H                    -8.40876   4.0052   -1.12333 
 H                    -8.42051   3.95159   0.62312 
 H                    -7.74043   5.33232  -0.20401 
 C                    -5.66649   4.1026    0.94322 
 H                    -5.97262   3.59718   1.83526 
 H                    -4.62792   3.91586   0.76601 
 H                    -5.8254    5.15461   1.05691 
 
 ITRead=  0  0  0  0  0  0  0  0  0  0  0  0  0  0  0  0  0  0  0  0
 ITRead=  0  0  0  0  0  0  0  0  0  0  0  0  0  0  0  0  0  0  0  0
 ITRead=  0  0  0  0  0  0  0  0  0  0  0  0  0  0  0  0  0  0  0  0
 ITRead=  0  0  0  0  0  0  0  0  0  0  0  0  0  0  0  0  0  0  0  0
 ITRead=  0  0
 MicOpt= -1 -1 -1 -1 -1 -1 -1 -1 -1 -1 -1 -1 -1 -1 -1 -1 -1 -1 -1 -1
 MicOpt= -1 -1 -1 -1 -1 -1 -1 -1 -1 -1 -1 -1 -1 -1 -1 -1 -1 -1 -1 -1
 MicOpt= -1 -1 -1 -1 -1 -1 -1 -1 -1 -1 -1 -1 -1 -1 -1 -1 -1 -1 -1 -1
 MicOpt= -1 -1 -1 -1 -1 -1 -1 -1 -1 -1 -1 -1 -1 -1 -1 -1 -1 -1 -1 -1
 MicOpt= -1 -1
 NAtoms=     82 NQM=       82 NQMF=       0 NMMI=      0 NMMIF=      0
                NMic=       0 NMicF=      0.
                    Isotopes and Nuclear Properties:
 (Nuclear quadrupole moments (NQMom) in fm**2, nuclear magnetic moments (NMagM)
  in nuclear magnetons)

  Atom         1           2           3           4           5           6           7           8           9          10
 IAtWgt=          12          12          12          12          12          12          12           1           1           1
 AtmWgt=  12.0000000  12.0000000  12.0000000  12.0000000  12.0000000  12.0000000  12.0000000   1.0078250   1.0078250   1.0078250
 NucSpn=           0           0           0           0           0           0           0           1           1           1
 AtZEff=  -0.0000000  -0.0000000  -0.0000000  -0.0000000  -0.0000000  -0.0000000  -0.0000000  -0.0000000  -0.0000000  -0.0000000
 NQMom=    0.0000000   0.0000000   0.0000000   0.0000000   0.0000000   0.0000000   0.0000000   0.0000000   0.0000000   0.0000000
 NMagM=    0.0000000   0.0000000   0.0000000   0.0000000   0.0000000   0.0000000   0.0000000   2.7928460   2.7928460   2.7928460
 AtZNuc=   6.0000000   6.0000000   6.0000000   6.0000000   6.0000000   6.0000000   6.0000000   1.0000000   1.0000000   1.0000000

  Atom        11          12          13          14          15          16          17          18          19          20
 IAtWgt=          12          12          12          12          12          12          12           1           1           1
 AtmWgt=  12.0000000  12.0000000  12.0000000  12.0000000  12.0000000  12.0000000  12.0000000   1.0078250   1.0078250   1.0078250
 NucSpn=           0           0           0           0           0           0           0           1           1           1
 AtZEff=  -0.0000000  -0.0000000  -0.0000000  -0.0000000  -0.0000000  -0.0000000  -0.0000000  -0.0000000  -0.0000000  -0.0000000
 NQMom=    0.0000000   0.0000000   0.0000000   0.0000000   0.0000000   0.0000000   0.0000000   0.0000000   0.0000000   0.0000000
 NMagM=    0.0000000   0.0000000   0.0000000   0.0000000   0.0000000   0.0000000   0.0000000   2.7928460   2.7928460   2.7928460
 AtZNuc=   6.0000000   6.0000000   6.0000000   6.0000000   6.0000000   6.0000000   6.0000000   1.0000000   1.0000000   1.0000000

  Atom        21          22          23          24          25          26          27          28          29          30
 IAtWgt=          14          12          12          12          12          12          12           1           1          12
 AtmWgt=  14.0030740  12.0000000  12.0000000  12.0000000  12.0000000  12.0000000  12.0000000   1.0078250   1.0078250  12.0000000
 NucSpn=           2           0           0           0           0           0           0           1           1           0
 AtZEff=  -0.0000000  -0.0000000  -0.0000000  -0.0000000  -0.0000000  -0.0000000  -0.0000000  -0.0000000  -0.0000000  -0.0000000
 NQMom=    2.0440000   0.0000000   0.0000000   0.0000000   0.0000000   0.0000000   0.0000000   0.0000000   0.0000000   0.0000000
 NMagM=    0.4037610   0.0000000   0.0000000   0.0000000   0.0000000   0.0000000   0.0000000   2.7928460   2.7928460   0.0000000
 AtZNuc=   7.0000000   6.0000000   6.0000000   6.0000000   6.0000000   6.0000000   6.0000000   1.0000000   1.0000000   6.0000000

  Atom        31          32          33          34          35          36          37          38          39          40
 IAtWgt=          12          16          14          14          14           1          12           1          14          12
 AtmWgt=  12.0000000  15.9949146  14.0030740  14.0030740  14.0030740   1.0078250  12.0000000   1.0078250  14.0030740  12.0000000
 NucSpn=           0           0           2           2           2           1           0           1           2           0
 AtZEff=  -0.0000000  -0.0000000  -0.0000000  -0.0000000  -0.0000000  -0.0000000  -0.0000000  -0.0000000  -0.0000000  -0.0000000
 NQMom=    0.0000000   0.0000000   2.0440000   2.0440000   2.0440000   0.0000000   0.0000000   0.0000000   2.0440000   0.0000000
 NMagM=    0.0000000   0.0000000   0.4037610   0.4037610   0.4037610   2.7928460   0.0000000   2.7928460   0.4037610   0.0000000
 AtZNuc=   6.0000000   8.0000000   7.0000000   7.0000000   7.0000000   1.0000000   6.0000000   1.0000000   7.0000000   6.0000000

  Atom        41          42          43          44          45          46          47          48          49          50
 IAtWgt=          12          12           1          12           1           1          12           1           1          12
 AtmWgt=  12.0000000  12.0000000   1.0078250  12.0000000   1.0078250   1.0078250  12.0000000   1.0078250   1.0078250  12.0000000
 NucSpn=           0           0           1           0           1           1           0           1           1           0
 AtZEff=  -0.0000000  -0.0000000  -0.0000000  -0.0000000  -0.0000000  -0.0000000  -0.0000000  -0.0000000  -0.0000000  -0.0000000
 NQMom=    0.0000000   0.0000000   0.0000000   0.0000000   0.0000000   0.0000000   0.0000000   0.0000000   0.0000000   0.0000000
 NMagM=    0.0000000   0.0000000   2.7928460   0.0000000   2.7928460   2.7928460   0.0000000   2.7928460   2.7928460   0.0000000
 AtZNuc=   6.0000000   6.0000000   1.0000000   6.0000000   1.0000000   1.0000000   6.0000000   1.0000000   1.0000000   6.0000000

  Atom        51          52          53          54          55          56          57          58          59          60
 IAtWgt=           1           1           1           1           1           1           1           1          12           1
 AtmWgt=   1.0078250   1.0078250   1.0078250   1.0078250   1.0078250   1.0078250   1.0078250   1.0078250  12.0000000   1.0078250
 NucSpn=           1           1           1           1           1           1           1           1           0           1
 AtZEff=  -0.0000000  -0.0000000  -0.0000000  -0.0000000  -0.0000000  -0.0000000  -0.0000000  -0.0000000  -0.0000000  -0.0000000
 NQMom=    0.0000000   0.0000000   0.0000000   0.0000000   0.0000000   0.0000000   0.0000000   0.0000000   0.0000000   0.0000000
 NMagM=    2.7928460   2.7928460   2.7928460   2.7928460   2.7928460   2.7928460   2.7928460   2.7928460   0.0000000   2.7928460
 AtZNuc=   1.0000000   1.0000000   1.0000000   1.0000000   1.0000000   1.0000000   1.0000000   1.0000000   6.0000000   1.0000000

  Atom        61          62          63          64          65          66          67          68          69          70
 IAtWgt=           1           1          12           1           1           1          12           1           1           1
 AtmWgt=   1.0078250   1.0078250  12.0000000   1.0078250   1.0078250   1.0078250  12.0000000   1.0078250   1.0078250   1.0078250
 NucSpn=           1           1           0           1           1           1           0           1           1           1
 AtZEff=  -0.0000000  -0.0000000  -0.0000000  -0.0000000  -0.0000000  -0.0000000  -0.0000000  -0.0000000  -0.0000000  -0.0000000
 NQMom=    0.0000000   0.0000000   0.0000000   0.0000000   0.0000000   0.0000000   0.0000000   0.0000000   0.0000000   0.0000000
 NMagM=    2.7928460   2.7928460   0.0000000   2.7928460   2.7928460   2.7928460   0.0000000   2.7928460   2.7928460   2.7928460
 AtZNuc=   1.0000000   1.0000000   6.0000000   1.0000000   1.0000000   1.0000000   6.0000000   1.0000000   1.0000000   1.0000000

  Atom        71          72          73          74          75          76          77          78          79          80
 IAtWgt=          12           1           1           1          12           1           1           1          12           1
 AtmWgt=  12.0000000   1.0078250   1.0078250   1.0078250  12.0000000   1.0078250   1.0078250   1.0078250  12.0000000   1.0078250
 NucSpn=           0           1           1           1           0           1           1           1           0           1
 AtZEff=  -0.0000000  -0.0000000  -0.0000000  -0.0000000  -0.0000000  -0.0000000  -0.0000000  -0.0000000  -0.0000000  -0.0000000
 NQMom=    0.0000000   0.0000000   0.0000000   0.0000000   0.0000000   0.0000000   0.0000000   0.0000000   0.0000000   0.0000000
 NMagM=    0.0000000   2.7928460   2.7928460   2.7928460   0.0000000   2.7928460   2.7928460   2.7928460   0.0000000   2.7928460
 AtZNuc=   6.0000000   1.0000000   1.0000000   1.0000000   6.0000000   1.0000000   1.0000000   1.0000000   6.0000000   1.0000000

  Atom        81          82
 IAtWgt=           1           1
 AtmWgt=   1.0078250   1.0078250
 NucSpn=           1           1
 AtZEff=  -0.0000000  -0.0000000
 NQMom=    0.0000000   0.0000000
 NMagM=    2.7928460   2.7928460
 AtZNuc=   1.0000000   1.0000000
 Leave Link  101 at Thu Dec 20 18:09:51 2018, MaxMem=  1342177280 cpu:               4.2 elap:               0.3
 (Enter /gpfs/apps/hpc/Apps/Restricted/Gaussian/Rev_A.03/g16/l103.exe)

 GradGradGradGradGradGradGradGradGradGradGradGradGradGradGradGradGradGrad
 Berny optimization.
 Initialization pass.
                           ----------------------------
                           !    Initial Parameters    !
                           ! (Angstroms and Degrees)  !
 --------------------------                            --------------------------
 ! Name  Definition              Value          Derivative Info.                !
 --------------------------------------------------------------------------------
 ! R1    R(1,2)                  1.403          estimate D2E/DX2                !
 ! R2    R(1,6)                  1.4011         estimate D2E/DX2                !
 ! R3    R(1,35)                 1.3818         estimate D2E/DX2                !
 ! R4    R(2,3)                  1.3951         estimate D2E/DX2                !
 ! R5    R(2,21)                 1.3864         estimate D2E/DX2                !
 ! R6    R(3,4)                  1.393          estimate D2E/DX2                !
 ! R7    R(3,8)                  1.0819         estimate D2E/DX2                !
 ! R8    R(4,5)                  1.4059         estimate D2E/DX2                !
 ! R9    R(4,9)                  1.0828         estimate D2E/DX2                !
 ! R10   R(5,6)                  1.3986         estimate D2E/DX2                !
 ! R11   R(5,10)                 1.084          estimate D2E/DX2                !
 ! R12   R(6,37)                 1.4612         estimate D2E/DX2                !
 ! R13   R(7,16)                 1.4408         estimate D2E/DX2                !
 ! R14   R(7,21)                 1.3488         estimate D2E/DX2                !
 ! R15   R(7,35)                 1.3488         estimate D2E/DX2                !
 ! R16   R(11,12)                1.4179         estimate D2E/DX2                !
 ! R17   R(11,16)                1.4143         estimate D2E/DX2                !
 ! R18   R(11,33)                1.3731         estimate D2E/DX2                !
 ! R19   R(12,13)                1.3936         estimate D2E/DX2                !
 ! R20   R(12,34)                1.3743         estimate D2E/DX2                !
 ! R21   R(13,14)                1.3955         estimate D2E/DX2                !
 ! R22   R(13,18)                1.0826         estimate D2E/DX2                !
 ! R23   R(14,15)                1.4023         estimate D2E/DX2                !
 ! R24   R(14,19)                1.0827         estimate D2E/DX2                !
 ! R25   R(15,16)                1.3999         estimate D2E/DX2                !
 ! R26   R(15,20)                1.083          estimate D2E/DX2                !
 ! R27   R(17,23)                1.4503         estimate D2E/DX2                !
 ! R28   R(17,33)                1.3395         estimate D2E/DX2                !
 ! R29   R(17,34)                1.3669         estimate D2E/DX2                !
 ! R30   R(21,58)                1.0246         estimate D2E/DX2                !
 ! R31   R(22,23)                1.4676         estimate D2E/DX2                !
 ! R32   R(22,27)                1.461          estimate D2E/DX2                !
 ! R33   R(22,32)                1.2587         estimate D2E/DX2                !
 ! R34   R(23,24)                1.383          estimate D2E/DX2                !
 ! R35   R(24,25)                1.4085         estimate D2E/DX2                !
 ! R36   R(24,28)                1.0839         estimate D2E/DX2                !
 ! R37   R(25,26)                1.4141         estimate D2E/DX2                !
 ! R38   R(25,30)                1.498          estimate D2E/DX2                !
 ! R39   R(26,27)                1.3765         estimate D2E/DX2                !
 ! R40   R(26,29)                1.0845         estimate D2E/DX2                !
 ! R41   R(27,31)                1.4951         estimate D2E/DX2                !
 ! R42   R(30,63)                1.54           estimate D2E/DX2                !
 ! R43   R(30,75)                1.54           estimate D2E/DX2                !
 ! R44   R(30,79)                1.54           estimate D2E/DX2                !
 ! R45   R(31,59)                1.54           estimate D2E/DX2                !
 ! R46   R(31,67)                1.54           estimate D2E/DX2                !
 ! R47   R(31,71)                1.54           estimate D2E/DX2                !
 ! R48   R(34,57)                1.0168         estimate D2E/DX2                !
 ! R49   R(35,36)                1.0179         estimate D2E/DX2                !
 ! R50   R(37,38)                1.0943         estimate D2E/DX2                !
 ! R51   R(37,39)                1.2813         estimate D2E/DX2                !
 ! R52   R(39,40)                1.4736         estimate D2E/DX2                !
 ! R53   R(40,41)                1.5381         estimate D2E/DX2                !
 ! R54   R(40,42)                1.538          estimate D2E/DX2                !
 ! R55   R(40,43)                1.0954         estimate D2E/DX2                !
 ! R56   R(41,44)                1.5321         estimate D2E/DX2                !
 ! R57   R(41,45)                1.0967         estimate D2E/DX2                !
 ! R58   R(41,46)                1.0944         estimate D2E/DX2                !
 ! R59   R(42,47)                1.5327         estimate D2E/DX2                !
 ! R60   R(42,48)                1.096          estimate D2E/DX2                !
 ! R61   R(42,49)                1.0942         estimate D2E/DX2                !
 ! R62   R(44,50)                1.5324         estimate D2E/DX2                !
 ! R63   R(44,51)                1.0946         estimate D2E/DX2                !
 ! R64   R(44,52)                1.097          estimate D2E/DX2                !
 ! R65   R(47,50)                1.5326         estimate D2E/DX2                !
 ! R66   R(47,53)                1.0945         estimate D2E/DX2                !
 ! R67   R(47,54)                1.0974         estimate D2E/DX2                !
 ! R68   R(50,55)                1.0943         estimate D2E/DX2                !
 ! R69   R(50,56)                1.0974         estimate D2E/DX2                !
 ! R70   R(59,60)                1.07           estimate D2E/DX2                !
 ! R71   R(59,61)                1.07           estimate D2E/DX2                !
 ! R72   R(59,62)                1.07           estimate D2E/DX2                !
 ! R73   R(63,64)                1.07           estimate D2E/DX2                !
 ! R74   R(63,65)                1.07           estimate D2E/DX2                !
 ! R75   R(63,66)                1.07           estimate D2E/DX2                !
 ! R76   R(67,68)                1.07           estimate D2E/DX2                !
 ! R77   R(67,69)                1.07           estimate D2E/DX2                !
 ! R78   R(67,70)                1.07           estimate D2E/DX2                !
 ! R79   R(71,72)                1.07           estimate D2E/DX2                !
 ! R80   R(71,73)                1.07           estimate D2E/DX2                !
 ! R81   R(71,74)                1.07           estimate D2E/DX2                !
 ! R82   R(75,76)                1.07           estimate D2E/DX2                !
 ! R83   R(75,77)                1.07           estimate D2E/DX2                !
 ! R84   R(75,78)                1.07           estimate D2E/DX2                !
 ! R85   R(79,80)                1.07           estimate D2E/DX2                !
 ! R86   R(79,81)                1.07           estimate D2E/DX2                !
 ! R87   R(79,82)                1.07           estimate D2E/DX2                !
 ! A1    A(2,1,6)              122.4817         estimate D2E/DX2                !
 ! A2    A(2,1,35)             106.971          estimate D2E/DX2                !
 ! A3    A(6,1,35)             130.5395         estimate D2E/DX2                !
 ! A4    A(1,2,3)              121.4345         estimate D2E/DX2                !
 ! A5    A(1,2,21)             105.7181         estimate D2E/DX2                !
 ! A6    A(3,2,21)             132.8457         estimate D2E/DX2                !
 ! A7    A(2,3,4)              116.5584         estimate D2E/DX2                !
 ! A8    A(2,3,8)              121.5073         estimate D2E/DX2                !
 ! A9    A(4,3,8)              121.9338         estimate D2E/DX2                !
 ! A10   A(3,4,5)              121.9227         estimate D2E/DX2                !
 ! A11   A(3,4,9)              119.1319         estimate D2E/DX2                !
 ! A12   A(5,4,9)              118.9454         estimate D2E/DX2                !
 ! A13   A(4,5,6)              121.9696         estimate D2E/DX2                !
 ! A14   A(4,5,10)             119.3102         estimate D2E/DX2                !
 ! A15   A(6,5,10)             118.7202         estimate D2E/DX2                !
 ! A16   A(1,6,5)              115.6317         estimate D2E/DX2                !
 ! A17   A(1,6,37)             121.5503         estimate D2E/DX2                !
 ! A18   A(5,6,37)             122.8162         estimate D2E/DX2                !
 ! A19   A(16,7,21)            123.4125         estimate D2E/DX2                !
 ! A20   A(16,7,35)            128.6248         estimate D2E/DX2                !
 ! A21   A(21,7,35)            107.9624         estimate D2E/DX2                !
 ! A22   A(12,11,16)           119.9354         estimate D2E/DX2                !
 ! A23   A(12,11,33)           110.4417         estimate D2E/DX2                !
 ! A24   A(16,11,33)           129.6209         estimate D2E/DX2                !
 ! A25   A(11,12,13)           122.2            estimate D2E/DX2                !
 ! A26   A(11,12,34)           104.456          estimate D2E/DX2                !
 ! A27   A(13,12,34)           133.344          estimate D2E/DX2                !
 ! A28   A(12,13,14)           117.0163         estimate D2E/DX2                !
 ! A29   A(12,13,18)           121.6205         estimate D2E/DX2                !
 ! A30   A(14,13,18)           121.3631         estimate D2E/DX2                !
 ! A31   A(13,14,15)           121.981          estimate D2E/DX2                !
 ! A32   A(13,14,19)           119.1764         estimate D2E/DX2                !
 ! A33   A(15,14,19)           118.8424         estimate D2E/DX2                !
 ! A34   A(14,15,16)           121.2028         estimate D2E/DX2                !
 ! A35   A(14,15,20)           119.0376         estimate D2E/DX2                !
 ! A36   A(16,15,20)           119.7591         estimate D2E/DX2                !
 ! A37   A(7,16,11)            119.063          estimate D2E/DX2                !
 ! A38   A(7,16,15)            123.275          estimate D2E/DX2                !
 ! A39   A(11,16,15)           117.6598         estimate D2E/DX2                !
 ! A40   A(23,17,33)           125.1313         estimate D2E/DX2                !
 ! A41   A(23,17,34)           123.0704         estimate D2E/DX2                !
 ! A42   A(33,17,34)           111.7925         estimate D2E/DX2                !
 ! A43   A(2,21,7)             109.9609         estimate D2E/DX2                !
 ! A44   A(2,21,58)            129.8791         estimate D2E/DX2                !
 ! A45   A(7,21,58)            120.1409         estimate D2E/DX2                !
 ! A46   A(23,22,27)           117.7376         estimate D2E/DX2                !
 ! A47   A(23,22,32)           122.179          estimate D2E/DX2                !
 ! A48   A(27,22,32)           120.0833         estimate D2E/DX2                !
 ! A49   A(17,23,22)           120.2763         estimate D2E/DX2                !
 ! A50   A(17,23,24)           119.9022         estimate D2E/DX2                !
 ! A51   A(22,23,24)           119.8191         estimate D2E/DX2                !
 ! A52   A(23,24,25)           121.5225         estimate D2E/DX2                !
 ! A53   A(23,24,28)           118.9754         estimate D2E/DX2                !
 ! A54   A(25,24,28)           119.5018         estimate D2E/DX2                !
 ! A55   A(24,25,26)           119.2251         estimate D2E/DX2                !
 ! A56   A(24,25,30)           120.0637         estimate D2E/DX2                !
 ! A57   A(26,25,30)           120.71           estimate D2E/DX2                !
 ! A58   A(25,26,27)           122.2391         estimate D2E/DX2                !
 ! A59   A(25,26,29)           118.4909         estimate D2E/DX2                !
 ! A60   A(27,26,29)           119.2658         estimate D2E/DX2                !
 ! A61   A(22,27,26)           119.4454         estimate D2E/DX2                !
 ! A62   A(22,27,31)           117.9762         estimate D2E/DX2                !
 ! A63   A(26,27,31)           122.577          estimate D2E/DX2                !
 ! A64   A(25,30,63)           110.3848         estimate D2E/DX2                !
 ! A65   A(25,30,75)           111.4457         estimate D2E/DX2                !
 ! A66   A(25,30,79)           110.7753         estimate D2E/DX2                !
 ! A67   A(63,30,75)           108.3654         estimate D2E/DX2                !
 ! A68   A(63,30,79)           106.814          estimate D2E/DX2                !
 ! A69   A(75,30,79)           108.9104         estimate D2E/DX2                !
 ! A70   A(27,31,59)           110.9232         estimate D2E/DX2                !
 ! A71   A(27,31,67)           110.7851         estimate D2E/DX2                !
 ! A72   A(27,31,71)           110.655          estimate D2E/DX2                !
 ! A73   A(59,31,67)           109.2328         estimate D2E/DX2                !
 ! A74   A(59,31,71)           106.4622         estimate D2E/DX2                !
 ! A75   A(67,31,71)           108.6588         estimate D2E/DX2                !
 ! A76   A(11,33,17)           105.1845         estimate D2E/DX2                !
 ! A77   A(12,34,17)           108.1237         estimate D2E/DX2                !
 ! A78   A(12,34,57)           130.885          estimate D2E/DX2                !
 ! A79   A(17,34,57)           120.9711         estimate D2E/DX2                !
 ! A80   A(1,35,7)             109.3865         estimate D2E/DX2                !
 ! A81   A(1,35,36)            120.7897         estimate D2E/DX2                !
 ! A82   A(7,35,36)            129.8073         estimate D2E/DX2                !
 ! A83   A(6,37,38)            115.7417         estimate D2E/DX2                !
 ! A84   A(6,37,39)            121.3257         estimate D2E/DX2                !
 ! A85   A(38,37,39)           122.9308         estimate D2E/DX2                !
 ! A86   A(37,39,40)           117.2569         estimate D2E/DX2                !
 ! A87   A(39,40,41)           111.355          estimate D2E/DX2                !
 ! A88   A(39,40,42)           112.4529         estimate D2E/DX2                !
 ! A89   A(39,40,43)           106.2865         estimate D2E/DX2                !
 ! A90   A(41,40,42)           110.7361         estimate D2E/DX2                !
 ! A91   A(41,40,43)           107.9856         estimate D2E/DX2                !
 ! A92   A(42,40,43)           107.7589         estimate D2E/DX2                !
 ! A93   A(40,41,44)           111.4326         estimate D2E/DX2                !
 ! A94   A(40,41,45)           108.3238         estimate D2E/DX2                !
 ! A95   A(40,41,46)           109.4715         estimate D2E/DX2                !
 ! A96   A(44,41,45)           109.4827         estimate D2E/DX2                !
 ! A97   A(44,41,46)           110.8691         estimate D2E/DX2                !
 ! A98   A(45,41,46)           107.1323         estimate D2E/DX2                !
 ! A99   A(40,42,47)           111.2309         estimate D2E/DX2                !
 ! A100  A(40,42,48)           108.8072         estimate D2E/DX2                !
 ! A101  A(40,42,49)           109.4426         estimate D2E/DX2                !
 ! A102  A(47,42,48)           109.3013         estimate D2E/DX2                !
 ! A103  A(47,42,49)           110.7569         estimate D2E/DX2                !
 ! A104  A(48,42,49)           107.1961         estimate D2E/DX2                !
 ! A105  A(41,44,50)           111.4128         estimate D2E/DX2                !
 ! A106  A(41,44,51)           109.5989         estimate D2E/DX2                !
 ! A107  A(41,44,52)           109.2606         estimate D2E/DX2                !
 ! A108  A(50,44,51)           110.5136         estimate D2E/DX2                !
 ! A109  A(50,44,52)           109.0872         estimate D2E/DX2                !
 ! A110  A(51,44,52)           106.8506         estimate D2E/DX2                !
 ! A111  A(42,47,50)           111.4485         estimate D2E/DX2                !
 ! A112  A(42,47,53)           109.5878         estimate D2E/DX2                !
 ! A113  A(42,47,54)           109.212          estimate D2E/DX2                !
 ! A114  A(50,47,53)           110.5669         estimate D2E/DX2                !
 ! A115  A(50,47,54)           109.1314         estimate D2E/DX2                !
 ! A116  A(53,47,54)           106.7713         estimate D2E/DX2                !
 ! A117  A(44,50,47)           111.0066         estimate D2E/DX2                !
 ! A118  A(44,50,55)           110.2402         estimate D2E/DX2                !
 ! A119  A(44,50,56)           109.1202         estimate D2E/DX2                !
 ! A120  A(47,50,55)           110.2682         estimate D2E/DX2                !
 ! A121  A(47,50,56)           109.1785         estimate D2E/DX2                !
 ! A122  A(55,50,56)           106.9263         estimate D2E/DX2                !
 ! A123  A(31,59,60)           109.4712         estimate D2E/DX2                !
 ! A124  A(31,59,61)           109.4712         estimate D2E/DX2                !
 ! A125  A(31,59,62)           109.4712         estimate D2E/DX2                !
 ! A126  A(60,59,61)           109.4713         estimate D2E/DX2                !
 ! A127  A(60,59,62)           109.4712         estimate D2E/DX2                !
 ! A128  A(61,59,62)           109.4712         estimate D2E/DX2                !
 ! A129  A(30,63,64)           109.4712         estimate D2E/DX2                !
 ! A130  A(30,63,65)           109.4712         estimate D2E/DX2                !
 ! A131  A(30,63,66)           109.4712         estimate D2E/DX2                !
 ! A132  A(64,63,65)           109.4713         estimate D2E/DX2                !
 ! A133  A(64,63,66)           109.4712         estimate D2E/DX2                !
 ! A134  A(65,63,66)           109.4712         estimate D2E/DX2                !
 ! A135  A(31,67,68)           109.4712         estimate D2E/DX2                !
 ! A136  A(31,67,69)           109.4712         estimate D2E/DX2                !
 ! A137  A(31,67,70)           109.4712         estimate D2E/DX2                !
 ! A138  A(68,67,69)           109.4713         estimate D2E/DX2                !
 ! A139  A(68,67,70)           109.4712         estimate D2E/DX2                !
 ! A140  A(69,67,70)           109.4712         estimate D2E/DX2                !
 ! A141  A(31,71,72)           109.4712         estimate D2E/DX2                !
 ! A142  A(31,71,73)           109.4712         estimate D2E/DX2                !
 ! A143  A(31,71,74)           109.4712         estimate D2E/DX2                !
 ! A144  A(72,71,73)           109.4713         estimate D2E/DX2                !
 ! A145  A(72,71,74)           109.4712         estimate D2E/DX2                !
 ! A146  A(73,71,74)           109.4712         estimate D2E/DX2                !
 ! A147  A(30,75,76)           109.4712         estimate D2E/DX2                !
 ! A148  A(30,75,77)           109.4712         estimate D2E/DX2                !
 ! A149  A(30,75,78)           109.4712         estimate D2E/DX2                !
 ! A150  A(76,75,77)           109.4713         estimate D2E/DX2                !
 ! A151  A(76,75,78)           109.4712         estimate D2E/DX2                !
 ! A152  A(77,75,78)           109.4712         estimate D2E/DX2                !
 ! A153  A(30,79,80)           109.4712         estimate D2E/DX2                !
 ! A154  A(30,79,81)           109.4712         estimate D2E/DX2                !
 ! A155  A(30,79,82)           109.4712         estimate D2E/DX2                !
 ! A156  A(80,79,81)           109.4713         estimate D2E/DX2                !
 ! A157  A(80,79,82)           109.4712         estimate D2E/DX2                !
 ! A158  A(81,79,82)           109.4712         estimate D2E/DX2                !
 ! D1    D(6,1,2,3)             -0.4884         estimate D2E/DX2                !
 ! D2    D(6,1,2,21)           179.0947         estimate D2E/DX2                !
 ! D3    D(35,1,2,3)          -179.5723         estimate D2E/DX2                !
 ! D4    D(35,1,2,21)            0.0108         estimate D2E/DX2                !
 ! D5    D(2,1,6,5)              0.3017         estimate D2E/DX2                !
 ! D6    D(2,1,6,37)          -179.2137         estimate D2E/DX2                !
 ! D7    D(35,1,6,5)           179.1487         estimate D2E/DX2                !
 ! D8    D(35,1,6,37)           -0.3667         estimate D2E/DX2                !
 ! D9    D(2,1,35,7)             0.199          estimate D2E/DX2                !
 ! D10   D(2,1,35,36)          178.8595         estimate D2E/DX2                !
 ! D11   D(6,1,35,7)          -178.7841         estimate D2E/DX2                !
 ! D12   D(6,1,35,36)           -0.1236         estimate D2E/DX2                !
 ! D13   D(1,2,3,4)              0.3537         estimate D2E/DX2                !
 ! D14   D(1,2,3,8)           -179.8968         estimate D2E/DX2                !
 ! D15   D(21,2,3,4)          -179.0989         estimate D2E/DX2                !
 ! D16   D(21,2,3,8)             0.6505         estimate D2E/DX2                !
 ! D17   D(1,2,21,7)            -0.2178         estimate D2E/DX2                !
 ! D18   D(1,2,21,58)         -178.5991         estimate D2E/DX2                !
 ! D19   D(3,2,21,7)           179.297          estimate D2E/DX2                !
 ! D20   D(3,2,21,58)            0.9158         estimate D2E/DX2                !
 ! D21   D(2,3,4,5)             -0.0737         estimate D2E/DX2                !
 ! D22   D(2,3,4,9)            179.941          estimate D2E/DX2                !
 ! D23   D(8,3,4,5)           -179.822          estimate D2E/DX2                !
 ! D24   D(8,3,4,9)              0.1927         estimate D2E/DX2                !
 ! D25   D(3,4,5,6)             -0.0934         estimate D2E/DX2                !
 ! D26   D(3,4,5,10)           179.8282         estimate D2E/DX2                !
 ! D27   D(9,4,5,6)            179.8919         estimate D2E/DX2                !
 ! D28   D(9,4,5,10)            -0.1865         estimate D2E/DX2                !
 ! D29   D(4,5,6,1)             -0.0177         estimate D2E/DX2                !
 ! D30   D(4,5,6,37)           179.4909         estimate D2E/DX2                !
 ! D31   D(10,5,6,1)          -179.9398         estimate D2E/DX2                !
 ! D32   D(10,5,6,37)           -0.4312         estimate D2E/DX2                !
 ! D33   D(1,6,37,38)          178.9499         estimate D2E/DX2                !
 ! D34   D(1,6,37,39)           -0.5809         estimate D2E/DX2                !
 ! D35   D(5,6,37,38)           -0.5302         estimate D2E/DX2                !
 ! D36   D(5,6,37,39)          179.939          estimate D2E/DX2                !
 ! D37   D(21,7,16,11)           2.8281         estimate D2E/DX2                !
 ! D38   D(21,7,16,15)        -177.7299         estimate D2E/DX2                !
 ! D39   D(35,7,16,11)        -176.9217         estimate D2E/DX2                !
 ! D40   D(35,7,16,15)           2.5203         estimate D2E/DX2                !
 ! D41   D(16,7,21,2)         -179.4497         estimate D2E/DX2                !
 ! D42   D(16,7,21,58)          -0.8861         estimate D2E/DX2                !
 ! D43   D(35,7,21,2)            0.3448         estimate D2E/DX2                !
 ! D44   D(35,7,21,58)         178.9084         estimate D2E/DX2                !
 ! D45   D(16,7,35,1)          179.445          estimate D2E/DX2                !
 ! D46   D(16,7,35,36)           0.9429         estimate D2E/DX2                !
 ! D47   D(21,7,35,1)           -0.3355         estimate D2E/DX2                !
 ! D48   D(21,7,35,36)        -178.8376         estimate D2E/DX2                !
 ! D49   D(16,11,12,13)          0.7997         estimate D2E/DX2                !
 ! D50   D(16,11,12,34)       -179.2757         estimate D2E/DX2                !
 ! D51   D(33,11,12,13)       -179.6696         estimate D2E/DX2                !
 ! D52   D(33,11,12,34)          0.2549         estimate D2E/DX2                !
 ! D53   D(12,11,16,7)         178.7826         estimate D2E/DX2                !
 ! D54   D(12,11,16,15)         -0.6907         estimate D2E/DX2                !
 ! D55   D(33,11,16,7)          -0.6465         estimate D2E/DX2                !
 ! D56   D(33,11,16,15)        179.8803         estimate D2E/DX2                !
 ! D57   D(12,11,33,17)         -0.3932         estimate D2E/DX2                !
 ! D58   D(16,11,33,17)        179.0788         estimate D2E/DX2                !
 ! D59   D(11,12,13,14)         -0.3171         estimate D2E/DX2                !
 ! D60   D(11,12,13,18)        179.8094         estimate D2E/DX2                !
 ! D61   D(34,12,13,14)        179.7834         estimate D2E/DX2                !
 ! D62   D(34,12,13,18)         -0.0901         estimate D2E/DX2                !
 ! D63   D(11,12,34,17)         -0.0143         estimate D2E/DX2                !
 ! D64   D(11,12,34,57)        178.3247         estimate D2E/DX2                !
 ! D65   D(13,12,34,17)        179.8979         estimate D2E/DX2                !
 ! D66   D(13,12,34,57)         -1.7631         estimate D2E/DX2                !
 ! D67   D(12,13,14,15)         -0.2469         estimate D2E/DX2                !
 ! D68   D(12,13,14,19)        179.9178         estimate D2E/DX2                !
 ! D69   D(18,13,14,15)        179.6269         estimate D2E/DX2                !
 ! D70   D(18,13,14,19)         -0.2083         estimate D2E/DX2                !
 ! D71   D(13,14,15,16)          0.3332         estimate D2E/DX2                !
 ! D72   D(13,14,15,20)       -179.9436         estimate D2E/DX2                !
 ! D73   D(19,14,15,16)       -179.831          estimate D2E/DX2                !
 ! D74   D(19,14,15,20)         -0.1078         estimate D2E/DX2                !
 ! D75   D(14,15,16,7)        -179.3012         estimate D2E/DX2                !
 ! D76   D(14,15,16,11)          0.1481         estimate D2E/DX2                !
 ! D77   D(20,15,16,7)           0.9775         estimate D2E/DX2                !
 ! D78   D(20,15,16,11)       -179.5732         estimate D2E/DX2                !
 ! D79   D(33,17,23,22)        176.5385         estimate D2E/DX2                !
 ! D80   D(33,17,23,24)         -2.8923         estimate D2E/DX2                !
 ! D81   D(34,17,23,22)         -2.514          estimate D2E/DX2                !
 ! D82   D(34,17,23,24)        178.0552         estimate D2E/DX2                !
 ! D83   D(23,17,33,11)       -178.757          estimate D2E/DX2                !
 ! D84   D(34,17,33,11)          0.3879         estimate D2E/DX2                !
 ! D85   D(23,17,34,12)        178.9266         estimate D2E/DX2                !
 ! D86   D(23,17,34,57)          0.3911         estimate D2E/DX2                !
 ! D87   D(33,17,34,12)         -0.2388         estimate D2E/DX2                !
 ! D88   D(33,17,34,57)       -178.7744         estimate D2E/DX2                !
 ! D89   D(27,22,23,17)       -178.5087         estimate D2E/DX2                !
 ! D90   D(27,22,23,24)          0.9226         estimate D2E/DX2                !
 ! D91   D(32,22,23,17)          1.5734         estimate D2E/DX2                !
 ! D92   D(32,22,23,24)       -178.9953         estimate D2E/DX2                !
 ! D93   D(23,22,27,26)         -0.1919         estimate D2E/DX2                !
 ! D94   D(23,22,27,31)       -179.7687         estimate D2E/DX2                !
 ! D95   D(32,22,27,26)        179.7278         estimate D2E/DX2                !
 ! D96   D(32,22,27,31)          0.151          estimate D2E/DX2                !
 ! D97   D(17,23,24,25)        178.7074         estimate D2E/DX2                !
 ! D98   D(17,23,24,28)         -1.0752         estimate D2E/DX2                !
 ! D99   D(22,23,24,25)         -0.726          estimate D2E/DX2                !
 ! D100  D(22,23,24,28)        179.4914         estimate D2E/DX2                !
 ! D101  D(23,24,25,26)         -0.2131         estimate D2E/DX2                !
 ! D102  D(23,24,25,30)       -179.8043         estimate D2E/DX2                !
 ! D103  D(28,24,25,26)        179.5684         estimate D2E/DX2                !
 ! D104  D(28,24,25,30)         -0.0228         estimate D2E/DX2                !
 ! D105  D(24,25,26,27)          0.9853         estimate D2E/DX2                !
 ! D106  D(24,25,26,29)       -179.766          estimate D2E/DX2                !
 ! D107  D(30,25,26,27)       -179.4262         estimate D2E/DX2                !
 ! D108  D(30,25,26,29)         -0.1775         estimate D2E/DX2                !
 ! D109  D(24,25,30,63)         67.064          estimate D2E/DX2                !
 ! D110  D(24,25,30,75)       -172.4654         estimate D2E/DX2                !
 ! D111  D(24,25,30,79)        -51.0368         estimate D2E/DX2                !
 ! D112  D(26,25,30,63)       -112.5211         estimate D2E/DX2                !
 ! D113  D(26,25,30,75)          7.9496         estimate D2E/DX2                !
 ! D114  D(26,25,30,79)        129.3781         estimate D2E/DX2                !
 ! D115  D(25,26,27,22)         -0.7581         estimate D2E/DX2                !
 ! D116  D(25,26,27,31)        178.7983         estimate D2E/DX2                !
 ! D117  D(29,26,27,22)        179.9988         estimate D2E/DX2                !
 ! D118  D(29,26,27,31)         -0.4448         estimate D2E/DX2                !
 ! D119  D(22,27,31,59)        -56.844          estimate D2E/DX2                !
 ! D120  D(22,27,31,67)       -178.3327         estimate D2E/DX2                !
 ! D121  D(22,27,31,71)         61.0836         estimate D2E/DX2                !
 ! D122  D(26,27,31,59)        123.5934         estimate D2E/DX2                !
 ! D123  D(26,27,31,67)          2.1047         estimate D2E/DX2                !
 ! D124  D(26,27,31,71)       -118.479          estimate D2E/DX2                !
 ! D125  D(25,30,63,64)        147.0892         estimate D2E/DX2                !
 ! D126  D(25,30,63,65)        -92.9108         estimate D2E/DX2                !
 ! D127  D(25,30,63,66)         27.0892         estimate D2E/DX2                !
 ! D128  D(75,30,63,64)         24.7898         estimate D2E/DX2                !
 ! D129  D(75,30,63,65)        144.7898         estimate D2E/DX2                !
 ! D130  D(75,30,63,66)        -95.2102         estimate D2E/DX2                !
 ! D131  D(79,30,63,64)        -92.4073         estimate D2E/DX2                !
 ! D132  D(79,30,63,65)         27.5927         estimate D2E/DX2                !
 ! D133  D(79,30,63,66)        147.5927         estimate D2E/DX2                !
 ! D134  D(25,30,75,76)        -64.0387         estimate D2E/DX2                !
 ! D135  D(25,30,75,77)         55.9613         estimate D2E/DX2                !
 ! D136  D(25,30,75,78)        175.9613         estimate D2E/DX2                !
 ! D137  D(63,30,75,76)         57.6111         estimate D2E/DX2                !
 ! D138  D(63,30,75,77)        177.6111         estimate D2E/DX2                !
 ! D139  D(63,30,75,78)        -62.3889         estimate D2E/DX2                !
 ! D140  D(79,30,75,76)        173.4543         estimate D2E/DX2                !
 ! D141  D(79,30,75,77)        -66.5457         estimate D2E/DX2                !
 ! D142  D(79,30,75,78)         53.4543         estimate D2E/DX2                !
 ! D143  D(25,30,79,80)        -43.2497         estimate D2E/DX2                !
 ! D144  D(25,30,79,81)         76.7503         estimate D2E/DX2                !
 ! D145  D(25,30,79,82)       -163.2497         estimate D2E/DX2                !
 ! D146  D(63,30,79,80)       -163.503          estimate D2E/DX2                !
 ! D147  D(63,30,79,81)        -43.503          estimate D2E/DX2                !
 ! D148  D(63,30,79,82)         76.497          estimate D2E/DX2                !
 ! D149  D(75,30,79,80)         79.6603         estimate D2E/DX2                !
 ! D150  D(75,30,79,81)       -160.3397         estimate D2E/DX2                !
 ! D151  D(75,30,79,82)        -40.3397         estimate D2E/DX2                !
 ! D152  D(27,31,59,60)         95.0725         estimate D2E/DX2                !
 ! D153  D(27,31,59,61)       -144.9275         estimate D2E/DX2                !
 ! D154  D(27,31,59,62)        -24.9275         estimate D2E/DX2                !
 ! D155  D(67,31,59,60)       -142.5321         estimate D2E/DX2                !
 ! D156  D(67,31,59,61)        -22.5321         estimate D2E/DX2                !
 ! D157  D(67,31,59,62)         97.4679         estimate D2E/DX2                !
 ! D158  D(71,31,59,60)        -25.3758         estimate D2E/DX2                !
 ! D159  D(71,31,59,61)         94.6243         estimate D2E/DX2                !
 ! D160  D(71,31,59,62)       -145.3758         estimate D2E/DX2                !
 ! D161  D(27,31,67,68)        -59.5274         estimate D2E/DX2                !
 ! D162  D(27,31,67,69)         60.4726         estimate D2E/DX2                !
 ! D163  D(27,31,67,70)       -179.5274         estimate D2E/DX2                !
 ! D164  D(59,31,67,68)        177.9944         estimate D2E/DX2                !
 ! D165  D(59,31,67,69)        -62.0056         estimate D2E/DX2                !
 ! D166  D(59,31,67,70)         57.9944         estimate D2E/DX2                !
 ! D167  D(71,31,67,68)         62.235          estimate D2E/DX2                !
 ! D168  D(71,31,67,69)       -177.765          estimate D2E/DX2                !
 ! D169  D(71,31,67,70)        -57.765          estimate D2E/DX2                !
 ! D170  D(27,31,71,72)        -89.2919         estimate D2E/DX2                !
 ! D171  D(27,31,71,73)         30.7081         estimate D2E/DX2                !
 ! D172  D(27,31,71,74)        150.7081         estimate D2E/DX2                !
 ! D173  D(59,31,71,72)         31.329          estimate D2E/DX2                !
 ! D174  D(59,31,71,73)        151.329          estimate D2E/DX2                !
 ! D175  D(59,31,71,74)        -88.671          estimate D2E/DX2                !
 ! D176  D(67,31,71,72)        148.8663         estimate D2E/DX2                !
 ! D177  D(67,31,71,73)        -91.1337         estimate D2E/DX2                !
 ! D178  D(67,31,71,74)         28.8663         estimate D2E/DX2                !
 ! D179  D(6,37,39,40)         178.7189         estimate D2E/DX2                !
 ! D180  D(38,37,39,40)         -0.7775         estimate D2E/DX2                !
 ! D181  D(37,39,40,41)        -63.8471         estimate D2E/DX2                !
 ! D182  D(37,39,40,42)         61.1074         estimate D2E/DX2                !
 ! D183  D(37,39,40,43)        178.7894         estimate D2E/DX2                !
 ! D184  D(39,40,41,44)       -178.7733         estimate D2E/DX2                !
 ! D185  D(39,40,41,45)         60.7331         estimate D2E/DX2                !
 ! D186  D(39,40,41,46)        -55.7689         estimate D2E/DX2                !
 ! D187  D(42,40,41,44)         55.3172         estimate D2E/DX2                !
 ! D188  D(42,40,41,45)        -65.1764         estimate D2E/DX2                !
 ! D189  D(42,40,41,46)        178.3216         estimate D2E/DX2                !
 ! D190  D(43,40,41,44)        -62.4449         estimate D2E/DX2                !
 ! D191  D(43,40,41,45)        177.0615         estimate D2E/DX2                !
 ! D192  D(43,40,41,46)         60.5595         estimate D2E/DX2                !
 ! D193  D(39,40,42,47)        179.3231         estimate D2E/DX2                !
 ! D194  D(39,40,42,48)        -60.2184         estimate D2E/DX2                !
 ! D195  D(39,40,42,49)         56.6165         estimate D2E/DX2                !
 ! D196  D(41,40,42,47)        -55.3838         estimate D2E/DX2                !
 ! D197  D(41,40,42,48)         65.0746         estimate D2E/DX2                !
 ! D198  D(41,40,42,49)       -178.0904         estimate D2E/DX2                !
 ! D199  D(43,40,42,47)         62.5166         estimate D2E/DX2                !
 ! D200  D(43,40,42,48)       -177.0249         estimate D2E/DX2                !
 ! D201  D(43,40,42,49)        -60.19           estimate D2E/DX2                !
 ! D202  D(40,41,44,50)        -55.5173         estimate D2E/DX2                !
 ! D203  D(40,41,44,51)       -178.146          estimate D2E/DX2                !
 ! D204  D(40,41,44,52)         65.0869         estimate D2E/DX2                !
 ! D205  D(45,41,44,50)         64.2931         estimate D2E/DX2                !
 ! D206  D(45,41,44,51)        -58.3355         estimate D2E/DX2                !
 ! D207  D(45,41,44,52)       -175.1026         estimate D2E/DX2                !
 ! D208  D(46,41,44,50)       -177.7191         estimate D2E/DX2                !
 ! D209  D(46,41,44,51)         59.6523         estimate D2E/DX2                !
 ! D210  D(46,41,44,52)        -57.1148         estimate D2E/DX2                !
 ! D211  D(40,42,47,50)         55.7933         estimate D2E/DX2                !
 ! D212  D(40,42,47,53)        178.5059         estimate D2E/DX2                !
 ! D213  D(40,42,47,54)        -64.8567         estimate D2E/DX2                !
 ! D214  D(48,42,47,50)        -64.3732         estimate D2E/DX2                !
 ! D215  D(48,42,47,53)         58.3394         estimate D2E/DX2                !
 ! D216  D(48,42,47,54)        174.9767         estimate D2E/DX2                !
 ! D217  D(49,42,47,50)        177.7399         estimate D2E/DX2                !
 ! D218  D(49,42,47,53)        -59.5475         estimate D2E/DX2                !
 ! D219  D(49,42,47,54)         57.0899         estimate D2E/DX2                !
 ! D220  D(41,44,50,47)         55.2856         estimate D2E/DX2                !
 ! D221  D(41,44,50,55)        177.7713         estimate D2E/DX2                !
 ! D222  D(41,44,50,56)        -65.0835         estimate D2E/DX2                !
 ! D223  D(51,44,50,47)        177.3873         estimate D2E/DX2                !
 ! D224  D(51,44,50,55)        -60.127          estimate D2E/DX2                !
 ! D225  D(51,44,50,56)         57.0182         estimate D2E/DX2                !
 ! D226  D(52,44,50,47)        -65.4203         estimate D2E/DX2                !
 ! D227  D(52,44,50,55)         57.0653         estimate D2E/DX2                !
 ! D228  D(52,44,50,56)        174.2106         estimate D2E/DX2                !
 ! D229  D(42,47,50,44)        -55.4873         estimate D2E/DX2                !
 ! D230  D(42,47,50,55)       -177.9568         estimate D2E/DX2                !
 ! D231  D(42,47,50,56)         64.8471         estimate D2E/DX2                !
 ! D232  D(53,47,50,44)       -177.6367         estimate D2E/DX2                !
 ! D233  D(53,47,50,55)         59.8939         estimate D2E/DX2                !
 ! D234  D(53,47,50,56)        -57.3022         estimate D2E/DX2                !
 ! D235  D(54,47,50,44)         65.21           estimate D2E/DX2                !
 ! D236  D(54,47,50,55)        -57.2595         estimate D2E/DX2                !
 ! D237  D(54,47,50,56)       -174.4555         estimate D2E/DX2                !
 --------------------------------------------------------------------------------
 Trust Radius=3.00D-01 FncErr=5.00D-06 GrdErr=5.00D-06 EigMax=2.50D+02 EigMin=1.00D-04
 Number of steps in this run=    492 maximum allowed number of steps=    492.
 GradGradGradGradGradGradGradGradGradGradGradGradGradGradGradGradGradGrad

 Leave Link  103 at Thu Dec 20 18:09:51 2018, MaxMem=  1342177280 cpu:               0.8 elap:               0.1
 (Enter /gpfs/apps/hpc/Apps/Restricted/Gaussian/Rev_A.03/g16/l202.exe)
 Symmetry turned off by external request.
 Stoichiometry    C35H41N5O(1+,2)
 Framework group  C1[X(C35H41N5O)]
 Deg. of freedom   240
 Full point group                 C1      NOp   1
                          Input orientation:                          
 ---------------------------------------------------------------------
 Center     Atomic      Atomic             Coordinates (Angstroms)
 Number     Number       Type             X           Y           Z
 ---------------------------------------------------------------------
      1          6           0        1.536409    1.145462    0.161085
      2          6           0        0.320488    1.844781    0.130934
      3          6           0        0.283535    3.236085    0.035117
      4          6           0        1.512304    3.888310   -0.036256
      5          6           0        2.729640    3.185329   -0.011752
      6          6           0        2.777753    1.791060    0.087594
      7          6           0       -0.113519   -0.348549    0.269085
      8          1           0       -0.653348    3.776632    0.013432
      9          1           0        1.532223    4.968258   -0.112639
     10          1           0        3.661545    3.735670   -0.072654
     11          6           0       -2.292295   -1.492424    0.283844
     12          6           0       -3.064902   -2.680587    0.327548
     13          6           0       -2.482412   -3.941347    0.443335
     14          6           0       -1.089369   -3.992433    0.508908
     15          6           0       -0.300367   -2.834306    0.456267
     16          6           0       -0.881100   -1.565692    0.341582
     17          6           0       -4.354461   -0.883679    0.142842
     18          1           0       -3.081576   -4.842320    0.478894
     19          1           0       -0.600194   -4.953956    0.600572
     20          1           0        0.777146   -2.929390    0.510254
     21          7           0       -0.670631    0.878097    0.203068
     22          6           0       -6.870201   -0.744120   -0.091847
     23          6           0       -5.560418   -0.089510    0.007537
     24          6           0       -5.475723    1.290065   -0.039931
     25          6           0       -6.621967    2.093233   -0.197659
     26          6           0       -7.887983    1.474225   -0.314606
     27          6           0       -8.045126    0.107781   -0.259932
     28          1           0       -4.502290    1.759544    0.043080
     29          1           0       -8.762153    2.103861   -0.439466
     30          6           0       -6.491944    3.584672   -0.249249
     31          6           0       -9.382690   -0.553215   -0.356468
     32          8           0       -7.000571   -1.994770   -0.035179
     33          7           0       -3.108316   -0.393511    0.175106
     34          7           0       -4.365885   -2.247447    0.235036
     35          7           0        1.226758   -0.198319    0.248933
     36          1           0        1.961743   -0.902255    0.267371
     37          6           0        4.031700    1.041124    0.103751
     38          1           0        4.944412    1.639491    0.023633
     39          7           0        4.042504   -0.236775    0.196985
     40          6           0        5.356286   -0.903917    0.175850
     41          6           0        6.071303   -0.690401   -1.169094
     42          6           0        6.255063   -0.468545    1.345554
     43          1           0        5.158478   -1.975551    0.287380
     44          6           0        7.424218   -1.408494   -1.204066
     45          1           0        6.224864    0.386219   -1.310846
     46          1           0        5.426359   -1.034063   -1.983710
     47          6           0        7.606292   -1.190875    1.305959
     48          1           0        6.420386    0.612967    1.280574
     49          1           0        5.740120   -0.660820    2.291719
     50          6           0        8.316628   -0.977686   -0.035225
     51          1           0        7.920686   -1.209963   -2.159169
     52          1           0        7.260381   -2.491864   -1.149979
     53          1           0        8.233088   -0.842259    2.132715
     54          1           0        7.446075   -2.265333    1.461288
     55          1           0        9.260848   -1.530320   -0.056141
     56          1           0        8.566001    0.085189   -0.146139
     57          1           0       -5.239723   -2.766604    0.205631
     58          1           0       -1.690037    0.980082    0.189007
     59          6           0       -9.411456   -1.570094   -1.512638
     60          1           0       -9.191703   -2.546570   -1.134346
     61          1           0      -10.382532   -1.571882   -1.961979
     62          1           0       -8.680120   -1.298365   -2.244901
     63          6           0       -5.747039    4.014312   -1.526796
     64          1           0       -6.125667    4.957925   -1.860165
     65          1           0       -4.701565    4.103430   -1.317175
     66          1           0       -5.896323    3.280096   -2.290695
     67          6           0      -10.494032    0.490952   -0.571490
     68          1           0      -10.500126    1.179204    0.247762
     69          1           0      -10.312787    1.022315   -1.482371
     70          1           0      -11.441347   -0.003169   -0.629258
     71          6           0       -9.691709   -1.344219    0.928219
     72          1           0       -9.318960   -2.342452    0.830799
     73          1           0       -9.220931   -0.867537    1.762510
     74          1           0      -10.749943   -1.372263    1.083953
     75          6           0       -7.870601    4.270796   -0.237467
     76          1           0       -8.408759    4.005200   -1.123325
     77          1           0       -8.420514    3.951589    0.623116
     78          1           0       -7.740427    5.332321   -0.204005
     79          6           0       -5.666487    4.102599    0.943216
     80          1           0       -5.972615    3.597182    1.835259
     81          1           0       -4.627917    3.915865    0.766008
     82          1           0       -5.825398    5.154607    1.056912
 ---------------------------------------------------------------------
 Rotational constants (GHZ):           0.1782636           0.0312150           0.0272017
 Leave Link  202 at Thu Dec 20 18:09:51 2018, MaxMem=  1342177280 cpu:               1.3 elap:               0.1
 (Enter /gpfs/apps/hpc/Apps/Restricted/Gaussian/Rev_A.03/g16/l301.exe)
 Standard basis: 6-31G(d,p) (6D, 7F)
 Ernie: Thresh=  0.10000D-02 Tol=  0.10000D-05 Strict=F.
   820 basis functions,  1435 primitive gaussians,   820 cartesian basis functions
   147 alpha electrons      146 beta electrons
       nuclear repulsion energy      4435.1387117767 Hartrees.
 IExCor=  402 DFT=T Ex+Corr=B3LYP ExCW=0 ScaHFX=  0.200000
 ScaDFX=  0.800000  0.720000  1.000000  0.810000 ScalE2=  1.000000  1.000000
 IRadAn=      5 IRanWt=     -1 IRanGd=            0 ICorTp=0 IEmpDi=141
 NAtoms=   82 NActive=   82 NUniq=   82 SFac= 1.00D+00 NAtFMM=   60 NAOKFM=T Big=T
 Integral buffers will be    131072 words long.
 Raffenetti 2 integral format.
 Two-electron integral symmetry is turned off.
 R6Disp:  Grimme-D3(BJ) Dispersion energy=       -0.1872149347 Hartrees.
 Nuclear repulsion after empirical dispersion term =     4434.9514968420 Hartrees.
 Using the following non-standard input for PCM:
 radii=bondi
 dis
 rep
 cav
 --- end of non-standard input.
 ------------------------------------------------------------------------------
 Polarizable Continuum Model (PCM)
 =================================
 Model                : C-PCM.
 Atomic radii         : Bondi.
 Polarization charges : Total charges.
 Charge compensation  : None.
 Solution method      : On-the-fly selection.
 Cavity type          : Scaled VdW (van der Waals Surface) (Alpha=1.100).
 Cavity algorithm     : GePol (No added spheres)
                        Default sphere list used, NSphG=   82.
                        Lebedev-Laikov grids with approx.  5.0 points / Ang**2.
                        Smoothing algorithm: York/Karplus (Gamma=1.0000).
                        Polarization charges: spherical gaussians, with
                                              point-specific exponents (IZeta= 3).
                        Self-potential: point-specific (ISelfS= 7).
                        Self-field    : sphere-specific E.n sum rule (ISelfD= 2).
 1st derivatives      : Analytical E(r).r(x)/FMM algorithm (CHGder, D1EAlg=3).
                        Cavity 1st derivative terms included.
 Solvent              : Dichloromethane, Eps=   8.930000 Eps(inf)=   2.028346
 ------------------------------------------------------------------------------
 GePol: Number of generator spheres                  =      82
 GePol: Total number of spheres                      =      82
 GePol: Number of exposed spheres                    =      82 (100.00%)
 GePol: Number of points                             =    5186
 GePol: Average weight of points                     =       0.12
 GePol: Minimum weight of points                     =   0.61D-10
 GePol: Maximum weight of points                     =    0.21770
 GePol: Number of points with low weight             =     359
 GePol: Fraction of low-weight points (<1% of avg)   =       6.92%
 GePol: Cavity surface area                          =    617.677 Ang**2
 GePol: Cavity volume                                =    607.404 Ang**3
 PCM non-electrostatic energy =         0.0277314514 Hartrees.
 Nuclear repulsion after PCM non-electrostatic terms =     4434.9792282934 Hartrees.
 Leave Link  301 at Thu Dec 20 18:09:52 2018, MaxMem=  1342177280 cpu:               4.0 elap:               0.3
 (Enter /gpfs/apps/hpc/Apps/Restricted/Gaussian/Rev_A.03/g16/l302.exe)
 NPDir=0 NMtPBC=     1 NCelOv=     1 NCel=       1 NClECP=     1 NCelD=      1
         NCelK=      1 NCelE2=     1 NClLst=     1 CellRange=     0.0.
 One-electron integrals computed using PRISM.
 NBasis=   820 RedAO= T EigKep=  2.92D-04  NBF=   820
 NBsUse=   820 1.00D-06 EigRej= -1.00D+00 NBFU=   820
 Precomputing XC quadrature grid using
 IXCGrd= 4 IRadAn=           5 IRanWt=          -1 IRanGd=           0 AccXCQ= 0.00D+00.
 Generated NRdTot=       0 NPtTot=           0 NUsed=           0 NTot=          32
 NSgBfM=   752   751   751   752   752 MxSgAt=    82 MxSgA2=    82.
 Leave Link  302 at Thu Dec 20 18:09:53 2018, MaxMem=  1342177280 cpu:              25.6 elap:               1.7
 (Enter /gpfs/apps/hpc/Apps/Restricted/Gaussian/Rev_A.03/g16/l303.exe)
 DipDrv:  MaxL=1.
 Leave Link  303 at Thu Dec 20 18:09:54 2018, MaxMem=  1342177280 cpu:               1.2 elap:               0.1
 (Enter /gpfs/apps/hpc/Apps/Restricted/Gaussian/Rev_A.03/g16/l401.exe)
 ExpMin= 1.61D-01 ExpMax= 5.48D+03 ExpMxC= 8.25D+02 IAcc=3 IRadAn=         5 AccDes= 0.00D+00
 Harris functional with IExCor=  402 and IRadAn=       5 diagonalized for initial guess.
 HarFok:  IExCor=  402 AccDes= 0.00D+00 IRadAn=         5 IDoV= 1 UseB2=F ITyADJ=14
 ICtDFT=  3500011 ScaDFX=  1.000000  1.000000  1.000000  1.000000
 FoFCou: FMM=F IPFlag=           0 FMFlag=      100000 FMFlg1=        2001
         NFxFlg=           0 DoJE=T BraDBF=F KetDBF=T FulRan=T
         wScrn=  0.000000 ICntrl=       500 IOpCl=  0 I1Cent=   200000004 NGrid=           0
         NMat0=    1 NMatS0=      1 NMatT0=    0 NMatD0=    1 NMtDS0=    0 NMtDT0=    0
 Symmetry not used in FoFCou.
 Harris En= -1707.49001483493    
 JPrj=0 DoOrth=F DoCkMO=F.
 Initial guess <Sx>= 0.0000 <Sy>= 0.0000 <Sz>= 0.5000 <S**2>= 0.7500 S= 0.5000
 Leave Link  401 at Thu Dec 20 18:09:59 2018, MaxMem=  1342177280 cpu:              78.4 elap:               5.0
 (Enter /gpfs/apps/hpc/Apps/Restricted/Gaussian/Rev_A.03/g16/l502.exe)
 Two-electron integral symmetry not used.
 UHF open shell SCF:
 Using DIIS extrapolation, IDIIS=  1040.
 NGot=  1342177280 LenX=  1340812546 LenY=  1340139326
 Requested convergence on RMS density matrix=1.00D-08 within 128 cycles.
 Requested convergence on MAX density matrix=1.00D-06.
 Requested convergence on             energy=1.00D-06.
 No special actions if energy rises.
 Fock matrices will be formed incrementally for  20 cycles.

 Cycle   1  Pass 1  IDiag  1:
 FoFJK:  IHMeth= 1 ICntrl=       0 DoSepK=F KAlg= 0 I1Cent=           0 FoldK=F
 IRaf= 630000000 NMat=       1 IRICut=       1 DoRegI=T DoRafI=F ISym2E= 0 IDoP0=0 IntGTp=1.
 FoFCou: FMM=T IPFlag=           0 FMFlag=      100000 FMFlg1=        2001
         NFxFlg=           0 DoJE=F BraDBF=F KetDBF=F FulRan=T
         wScrn=  0.000000 ICntrl=         0 IOpCl=  1 I1Cent=           0 NGrid=           0
         NMat0=    1 NMatS0=      1 NMatT0=    0 NMatD0=    1 NMtDS0=    0 NMtDT0=    0
 Symmetry not used in FoFCou.
 FMM levels:  10  Number of levels for PrismC:   9
 Inv3:  Mode=1 IEnd=    80683788.
 Iteration    1 A*A^-1 deviation from unit magnitude is 1.29D-14 for    639.
 Iteration    1 A*A^-1 deviation from orthogonality  is 7.47D-15 for   1255    106.
 Iteration    1 A^-1*A deviation from unit magnitude is 1.24D-14 for    639.
 Iteration    1 A^-1*A deviation from orthogonality  is 5.42D-15 for   1255    106.
 E= -1706.52776301564    
 DIIS: error= 3.23D-02 at cycle   1 NSaved=   1.
 NSaved= 1 IEnMin= 1 EnMin= -1706.52776301564     IErMin= 1 ErrMin= 3.23D-02
 ErrMax= 3.23D-02  0.00D+00 EMaxC= 1.00D-01 BMatC= 3.83D+00 BMatP= 3.83D+00
 IDIUse=3 WtCom= 6.77D-01 WtEn= 3.23D-01
 Coeff-Com:  0.100D+01
 Coeff-En:   0.100D+01
 Coeff:      0.100D+01
 Gap=     0.108 Goal=   None    Shift=    0.000
 Gap=     0.090 Goal=   None    Shift=    0.000
 GapD=    0.090 DampG=0.500 DampE=0.500 DampFc=0.2500 IDamp=-1.
 Damping current iteration by 2.50D-01
 RMSDP=2.94D-03 MaxDP=1.88D-01              OVMax= 3.53D-01

 Cycle   2  Pass 1  IDiag  1:
 RMSU=  7.13D-04    CP:  9.84D-01
 E= -1706.88954509002     Delta-E=       -0.361782074378 Rises=F Damp=T
 DIIS: error= 1.71D-02 at cycle   2 NSaved=   2.
 NSaved= 2 IEnMin= 2 EnMin= -1706.88954509002     IErMin= 2 ErrMin= 1.71D-02
 ErrMax= 1.71D-02  0.00D+00 EMaxC= 1.00D-01 BMatC= 1.02D+00 BMatP= 3.83D+00
 IDIUse=3 WtCom= 8.29D-01 WtEn= 1.71D-01
 Coeff-Com: -0.843D+00 0.184D+01
 Coeff-En:   0.000D+00 0.100D+01
 Coeff:     -0.699D+00 0.170D+01
 Gap=     0.145 Goal=   None    Shift=    0.000
 Gap=     0.130 Goal=   None    Shift=    0.000
 RMSDP=1.13D-03 MaxDP=7.99D-02 DE=-3.62D-01 OVMax= 1.82D-01

 Cycle   3  Pass 1  IDiag  1:
 RMSU=  7.89D-04    CP:  9.50D-01  2.01D+00
 E= -1707.49455915341     Delta-E=       -0.605014063385 Rises=F Damp=F
 DIIS: error= 9.07D-03 at cycle   3 NSaved=   3.
 NSaved= 3 IEnMin= 3 EnMin= -1707.49455915341     IErMin= 3 ErrMin= 9.07D-03
 ErrMax= 9.07D-03  0.00D+00 EMaxC= 1.00D-01 BMatC= 1.65D-01 BMatP= 1.02D+00
 IDIUse=3 WtCom= 9.09D-01 WtEn= 9.07D-02
 Coeff-Com: -0.355D+00 0.776D+00 0.580D+00
 Coeff-En:   0.000D+00 0.000D+00 0.100D+01
 Coeff:     -0.323D+00 0.705D+00 0.618D+00
 Gap=     0.122 Goal=   None    Shift=    0.000
 Gap=     0.082 Goal=   None    Shift=    0.000
 RMSDP=4.27D-04 MaxDP=7.33D-02 DE=-6.05D-01 OVMax= 8.42D-02

 Cycle   4  Pass 1  IDiag  1:
 RMSU=  3.48D-04    CP:  9.54D-01  2.04D+00  6.93D-01
 E= -1707.51822961128     Delta-E=       -0.023670457875 Rises=F Damp=F
 DIIS: error= 8.51D-03 at cycle   4 NSaved=   4.
 NSaved= 4 IEnMin= 4 EnMin= -1707.51822961128     IErMin= 4 ErrMin= 8.51D-03
 ErrMax= 8.51D-03  0.00D+00 EMaxC= 1.00D-01 BMatC= 7.91D-02 BMatP= 1.65D-01
 IDIUse=3 WtCom= 9.15D-01 WtEn= 8.51D-02
 Coeff-Com: -0.526D-01 0.135D+00 0.403D+00 0.515D+00
 Coeff-En:   0.000D+00 0.000D+00 0.312D+00 0.688D+00
 Coeff:     -0.482D-01 0.123D+00 0.395D+00 0.530D+00
 Gap=     0.125 Goal=   None    Shift=    0.000
 Gap=     0.081 Goal=   None    Shift=    0.000
 RMSDP=2.09D-04 MaxDP=3.78D-02 DE=-2.37D-02 OVMax= 3.58D-02

 Cycle   5  Pass 1  IDiag  1:
 RMSU=  1.14D-04    CP:  9.53D-01  2.00D+00  7.97D-01  5.64D-01
 E= -1707.53374401329     Delta-E=       -0.015514402008 Rises=F Damp=F
 DIIS: error= 1.63D-03 at cycle   5 NSaved=   5.
 NSaved= 5 IEnMin= 5 EnMin= -1707.53374401329     IErMin= 5 ErrMin= 1.63D-03
 ErrMax= 1.63D-03  0.00D+00 EMaxC= 1.00D-01 BMatC= 5.85D-03 BMatP= 7.91D-02
 IDIUse=3 WtCom= 9.84D-01 WtEn= 1.63D-02
 Coeff-Com:  0.386D-02 0.249D-02 0.174D+00 0.302D+00 0.517D+00
 Coeff-En:   0.000D+00 0.000D+00 0.000D+00 0.000D+00 0.100D+01
 Coeff:      0.380D-02 0.245D-02 0.171D+00 0.297D+00 0.525D+00
 Gap=     0.124 Goal=   None    Shift=    0.000
 Gap=     0.084 Goal=   None    Shift=    0.000
 RMSDP=6.29D-05 MaxDP=1.31D-02 DE=-1.55D-02 OVMax= 1.70D-02

 Cycle   6  Pass 1  IDiag  1:
 RMSU=  4.04D-05    CP:  9.53D-01  2.00D+00  8.08D-01  6.24D-01  6.28D-01
 E= -1707.53503442206     Delta-E=       -0.001290408772 Rises=F Damp=F
 DIIS: error= 6.35D-04 at cycle   6 NSaved=   6.
 NSaved= 6 IEnMin= 6 EnMin= -1707.53503442206     IErMin= 6 ErrMin= 6.35D-04
 ErrMax= 6.35D-04  0.00D+00 EMaxC= 1.00D-01 BMatC= 6.16D-04 BMatP= 5.85D-03
 IDIUse=3 WtCom= 9.94D-01 WtEn= 6.35D-03
 Coeff-Com:  0.698D-02-0.111D-01 0.521D-01 0.102D+00 0.291D+00 0.560D+00
 Coeff-En:   0.000D+00 0.000D+00 0.000D+00 0.000D+00 0.000D+00 0.100D+01
 Coeff:      0.693D-02-0.110D-01 0.517D-01 0.101D+00 0.289D+00 0.562D+00
 Gap=     0.125 Goal=   None    Shift=    0.000
 Gap=     0.085 Goal=   None    Shift=    0.000
 RMSDP=2.09D-05 MaxDP=3.31D-03 DE=-1.29D-03 OVMax= 8.36D-03

 Cycle   7  Pass 1  IDiag  1:
 RMSU=  1.72D-05    CP:  9.53D-01  2.00D+00  8.10D-01  6.24D-01  7.25D-01
                    CP:  9.04D-01
 E= -1707.53522108380     Delta-E=       -0.000186661739 Rises=F Damp=F
 DIIS: error= 2.63D-04 at cycle   7 NSaved=   7.
 NSaved= 7 IEnMin= 7 EnMin= -1707.53522108380     IErMin= 7 ErrMin= 2.63D-04
 ErrMax= 2.63D-04  0.00D+00 EMaxC= 1.00D-01 BMatC= 7.59D-05 BMatP= 6.16D-04
 IDIUse=3 WtCom= 9.97D-01 WtEn= 2.63D-03
 Coeff-Com:  0.188D-02-0.448D-02-0.142D-01-0.268D-01 0.132D-01 0.215D+00
 Coeff-Com:  0.816D+00
 Coeff-En:   0.000D+00 0.000D+00 0.000D+00 0.000D+00 0.000D+00 0.000D+00
 Coeff-En:   0.100D+01
 Coeff:      0.187D-02-0.446D-02-0.142D-01-0.268D-01 0.132D-01 0.214D+00
 Coeff:      0.816D+00
 Gap=     0.126 Goal=   None    Shift=    0.000
 Gap=     0.086 Goal=   None    Shift=    0.000
 RMSDP=1.29D-05 MaxDP=2.54D-03 DE=-1.87D-04 OVMax= 6.52D-03

 Cycle   8  Pass 1  IDiag  1:
 RMSU=  8.26D-06    CP:  9.53D-01  2.00D+00  8.12D-01  6.29D-01  7.66D-01
                    CP:  1.11D+00  1.08D+00
 E= -1707.53527833961     Delta-E=       -0.000057255812 Rises=F Damp=F
 DIIS: error= 1.38D-04 at cycle   8 NSaved=   8.
 NSaved= 8 IEnMin= 8 EnMin= -1707.53527833961     IErMin= 8 ErrMin= 1.38D-04
 ErrMax= 1.38D-04  0.00D+00 EMaxC= 1.00D-01 BMatC= 2.63D-05 BMatP= 7.59D-05
 IDIUse=3 WtCom= 9.99D-01 WtEn= 1.38D-03
 Coeff-Com: -0.128D-02 0.176D-02-0.206D-01-0.454D-01-0.820D-01-0.117D+00
 Coeff-Com:  0.342D+00 0.922D+00
 Coeff-En:   0.000D+00 0.000D+00 0.000D+00 0.000D+00 0.000D+00 0.000D+00
 Coeff-En:   0.000D+00 0.100D+01
 Coeff:     -0.127D-02 0.175D-02-0.206D-01-0.453D-01-0.819D-01-0.116D+00
 Coeff:      0.342D+00 0.922D+00
 Gap=     0.126 Goal=   None    Shift=    0.000
 Gap=     0.086 Goal=   None    Shift=    0.000
 RMSDP=1.01D-05 MaxDP=1.66D-03 DE=-5.73D-05 OVMax= 5.23D-03

 Cycle   9  Pass 1  IDiag  1:
 RMSU=  4.52D-06    CP:  9.53D-01  2.00D+00  8.14D-01  6.30D-01  8.01D-01
                    CP:  1.23D+00  1.44D+00  1.24D+00
 E= -1707.53529996982     Delta-E=       -0.000021630211 Rises=F Damp=F
 DIIS: error= 6.10D-05 at cycle   9 NSaved=   9.
 NSaved= 9 IEnMin= 9 EnMin= -1707.53529996982     IErMin= 9 ErrMin= 6.10D-05
 ErrMax= 6.10D-05  0.00D+00 EMaxC= 1.00D-01 BMatC= 8.57D-06 BMatP= 2.63D-05
 IDIUse=1 WtCom= 1.00D+00 WtEn= 0.00D+00
 Coeff-Com: -0.870D-03 0.155D-02-0.893D-02-0.216D-01-0.493D-01-0.122D+00
 Coeff-Com:  0.259D-01 0.530D+00 0.645D+00
 Coeff:     -0.870D-03 0.155D-02-0.893D-02-0.216D-01-0.493D-01-0.122D+00
 Coeff:      0.259D-01 0.530D+00 0.645D+00
 Gap=     0.126 Goal=   None    Shift=    0.000
 Gap=     0.086 Goal=   None    Shift=    0.000
 RMSDP=4.14D-06 MaxDP=8.07D-04 DE=-2.16D-05 OVMax= 1.59D-03

 Cycle  10  Pass 1  IDiag  1:
 RMSU=  2.23D-06    CP:  9.53D-01  2.00D+00  8.14D-01  6.29D-01  8.12D-01
[...]
   D158      -1.04910  -0.00001   0.00031  -0.00539  -0.00508  -1.05418
   D159       1.04816  -0.00001   0.00112  -0.00403  -0.00292   1.04524
   D160       3.12620  -0.00001   0.00225  -0.00112   0.00113   3.12733
   D161      -1.04811  -0.00001   0.00230   0.00622   0.00852  -1.03959
   D162       1.07928  -0.00001   0.00202   0.00490   0.00691   1.08619
   D163      -3.12504  -0.00001   0.00208   0.00516   0.00724  -3.11780
   D164       3.12873   0.00001   0.00393   0.01223   0.01616  -3.13830
   D165      -1.02707   0.00001   0.00365   0.01090   0.01455  -1.01252
   D166       1.05181   0.00001   0.00371   0.01117   0.01488   1.06668
   D167       1.05995   0.00000   0.00364   0.00951   0.01315   1.07309
   D168      -3.09585   0.00000   0.00336   0.00818   0.01154  -3.08431
   D169      -1.01698   0.00000   0.00342   0.00845   0.01187  -1.00511
   D170      -1.06179   0.00000   0.00589   0.01057   0.01646  -1.04533
   D171       1.05263   0.00000   0.00610   0.01118   0.01729   1.06991
   D172       3.12263   0.00000   0.00575   0.01037   0.01612   3.13874
   D173       1.04211  -0.00000   0.00422   0.00489   0.00911   1.05122
   D174      -3.12666  -0.00000   0.00443   0.00550   0.00994  -3.11672
   D175      -1.05666  -0.00001   0.00407   0.00469   0.00876  -1.04789
   D176       3.09253   0.00000   0.00509   0.00848   0.01357   3.10610
   D177      -1.07624   0.00000   0.00530   0.00910   0.01440  -1.06185
   D178       0.99376  -0.00000   0.00494   0.00828   0.01323   1.00698
   D179      -3.13800  -0.00012  -0.01265  -0.03383  -0.04647   3.09871
   D180       0.00223  -0.00010  -0.00684  -0.01946  -0.02632  -0.02408
   D181      -1.07206  -0.00010  -0.00636  -0.01836  -0.02461  -1.09667
   D182       1.11484  -0.00009  -0.00759  -0.02253  -0.03023   1.08462
   D183      -3.12181  -0.00006  -0.00436  -0.01262  -0.01698  -3.13879
   D184      -3.11134   0.00003   0.00164   0.00514   0.00680  -3.10454
   D185       1.06993   0.00001   0.00062   0.00206   0.00271   1.07264
   D186      -0.96574   0.00002   0.00075   0.00247   0.00325  -0.96249
   D187       0.97371   0.00001  -0.00028  -0.00045  -0.00074   0.97296
   D188      -1.12821  -0.00001  -0.00130  -0.00352  -0.00483  -1.13304
   D189       3.11931  -0.00000  -0.00117  -0.00311  -0.00430   3.11501
   D190      -1.07805   0.00000  -0.00079  -0.00194  -0.00271  -1.08076
   D191       3.10322  -0.00001  -0.00181  -0.00501  -0.00680   3.09642
   D192       1.06755  -0.00001  -0.00168  -0.00460  -0.00627   1.06129
   D193       3.11009   0.00003   0.00406   0.01047   0.01458   3.12466
   D194      -1.07033   0.00002   0.00437   0.01149   0.01589  -1.05445
   D195       0.96597   0.00002   0.00559   0.01555   0.02119   0.98716
   D196      -0.97250   0.00002   0.00007  -0.00141  -0.00134  -0.97384
   D197       1.13026   0.00000   0.00039  -0.00040  -0.00003   1.13023
   D198      -3.11662   0.00001   0.00160   0.00367   0.00528  -3.11135
   D199       1.07969   0.00000   0.00081   0.00065   0.00145   1.08113
   D200      -3.10073  -0.00001   0.00112   0.00167   0.00276  -3.09798
   D201      -1.06443  -0.00001   0.00234   0.00574   0.00806  -1.05637
   D202      -0.97710  -0.00001   0.00072   0.00309   0.00383  -0.97327
   D203      -3.11977  -0.00002  -0.00070  -0.00072  -0.00140  -3.12117
   D204       1.12615  -0.00001   0.00106   0.00436   0.00543   1.13158
   D205       1.11904   0.00001   0.00073   0.00294   0.00369   1.12272
   D206      -1.02363   0.00000  -0.00069  -0.00087  -0.00155  -1.02517
   D207      -3.06089   0.00001   0.00107   0.00422   0.00529  -3.05561
   D208      -3.10648   0.00000   0.00080   0.00326   0.00408  -3.10240
   D209       1.03404  -0.00000  -0.00062  -0.00055  -0.00115   1.03289
   D210      -1.00322   0.00000   0.00114   0.00454   0.00568  -0.99754
   D211       0.97643  -0.00001   0.00048   0.00290   0.00337   0.97980
   D212       3.11930  -0.00000   0.00013   0.00196   0.00208   3.12138
   D213      -1.12633  -0.00001  -0.00032   0.00022  -0.00011  -1.12644
   D214      -1.11846  -0.00001  -0.00143  -0.00272  -0.00414  -1.12260
   D215       1.02440  -0.00000  -0.00178  -0.00366  -0.00542   1.01898
   D216       3.06196  -0.00000  -0.00223  -0.00540  -0.00761   3.05434
   D217       3.10540  -0.00000   0.00121   0.00537   0.00657   3.11197
   D218      -1.03491   0.00000   0.00086   0.00443   0.00528  -1.02963
   D219       1.00264   0.00000   0.00041   0.00269   0.00309   1.00573
   D220       0.97407   0.00000  -0.00173  -0.00641  -0.00812   0.96594
   D221       3.11242   0.00001  -0.00261  -0.00867  -0.01128   3.10114
   D222      -1.12646  -0.00000  -0.00236  -0.00786  -0.01022  -1.13667
   D223       3.10790  -0.00000  -0.00220  -0.00819  -0.01037   3.09753
   D224      -1.03694   0.00000  -0.00308  -0.01045  -0.01352  -1.05046
   D225       1.00738  -0.00000  -0.00283  -0.00964  -0.01246   0.99492
   D226      -1.13077  -0.00000  -0.00178  -0.00690  -0.00867  -1.13944
   D227       1.00758   0.00000  -0.00266  -0.00917  -0.01182   0.99576
   D228       3.05189  -0.00000  -0.00241  -0.00835  -0.01076   3.04113
   D229      -0.97457  -0.00000   0.00099   0.00321   0.00419  -0.97038
   D230      -3.11335   0.00001   0.00242   0.00728   0.00971  -3.10364
   D231       1.12508  -0.00000   0.00184   0.00580   0.00764   1.13272
   D232      -3.11095  -0.00000   0.00245   0.00810   0.01055  -3.10040
   D233       1.03346   0.00000   0.00388   0.01217   0.01606   1.04952
   D234      -1.01130  -0.00001   0.00330   0.01069   0.01399  -0.99731
   D235       1.12957  -0.00000   0.00110   0.00354   0.00464   1.13421
   D236      -1.00920   0.00001   0.00254   0.00761   0.01015  -0.99905
   D237      -3.05396  -0.00001   0.00195   0.00613   0.00809  -3.04587
         Item               Value     Threshold  Converged?
 Maximum Force            0.000124     0.000015     NO 
 RMS     Force            0.000019     0.000010     NO 
 Maximum Displacement     0.777272     0.000060     NO 
 RMS     Displacement     0.137146     0.000040     NO 
 Predicted change in Energy=-2.032083D-05
 Lowest energy point so far.  Saving SCF results.
 GradGradGradGradGradGradGradGradGradGradGradGradGradGradGradGradGradGrad

 Leave Link  103 at Thu Dec 20 19:15:07 2018, MaxMem=  1342177280 cpu:              11.4 elap:               0.8
 (Enter /gpfs/apps/hpc/Apps/Restricted/Gaussian/Rev_A.03/g16/l202.exe)
 Symmetry turned off by external request.
 Stoichiometry    C35H41N5O(1+,2)
 Framework group  C1[X(C35H41N5O)]
 Deg. of freedom   240
 Full point group                 C1      NOp   1
                          Input orientation:                          
 ---------------------------------------------------------------------
 Center     Atomic      Atomic             Coordinates (Angstroms)
 Number     Number       Type             X           Y           Z
 ---------------------------------------------------------------------
      1          6           0        1.525514    1.142515    0.026724
      2          6           0        0.306767    1.830362   -0.080114
      3          6           0        0.265753    3.209409   -0.287511
      4          6           0        1.493095    3.861199   -0.387839
      5          6           0        2.712924    3.169828   -0.279078
      6          6           0        2.765016    1.788044   -0.071736
      7          6           0       -0.119367   -0.347913    0.221125
      8          1           0       -0.673357    3.740160   -0.373787
      9          1           0        1.509836    4.931936   -0.549933
     10          1           0        3.644288    3.717848   -0.363250
     11          6           0       -2.290090   -1.503931    0.311121
     12          6           0       -3.052511   -2.695820    0.401650
     13          6           0       -2.458786   -3.946301    0.563427
     14          6           0       -1.064974   -3.982659    0.630325
     15          6           0       -0.286331   -2.821127    0.525973
     16          6           0       -0.878655   -1.563498    0.363738
     17          6           0       -4.357375   -0.916511    0.152221
     18          1           0       -3.050100   -4.850463    0.634715
     19          1           0       -0.566960   -4.934925    0.763136
     20          1           0        0.792554   -2.903088    0.573037
     21          7           0       -0.681157    0.867259    0.055667
     22          6           0       -6.872245   -0.779635   -0.125110
     23          6           0       -5.565600   -0.123246    0.011719
     24          6           0       -5.471323    1.254733    0.005638
     25          6           0       -6.612519    2.068619   -0.120525
     26          6           0       -7.874665    1.445481   -0.258601
     27          6           0       -8.053798    0.076999   -0.266705
     28          1           0       -4.491952    1.704370    0.109728
     29          1           0       -8.742533    2.078308   -0.357052
     30          6           0       -6.449568    3.585070   -0.104149
     31          6           0       -9.434081   -0.555524   -0.426766
     32          8           0       -6.958408   -2.036403   -0.123764
     33          7           0       -3.114364   -0.417130    0.161119
     34          7           0       -4.357245   -2.275916    0.294702
     35          7           0        1.220069   -0.192677    0.208780
     36          1           0        1.955701   -0.890981    0.297255
     37          6           0        4.022880    1.050452    0.021621
     38          1           0        4.931809    1.646861   -0.102301
     39          7           0        4.042571   -0.215402    0.216224
     40          6           0        5.360159   -0.872172    0.239361
     41          6           0        6.067542   -0.734356   -1.118972
     42          6           0        6.265828   -0.367893    1.374653
     43          1           0        5.167824   -1.937253    0.412541
     44          6           0        7.415093   -1.458737   -1.120819
     45          1           0        6.223769    0.331792   -1.324888
     46          1           0        5.418635   -1.122706   -1.908074
     47          6           0        7.613735   -1.099521    1.368422
     48          1           0        6.436432    0.707812    1.247932
     49          1           0        5.763967   -0.499542    2.338248
     50          6           0        8.317919   -0.965368    0.014740
     51          1           0        7.898561   -1.322589   -2.092938
     52          1           0        7.245039   -2.536325   -1.002350
     53          1           0        8.244625   -0.708006    2.171141
     54          1           0        7.445811   -2.162038    1.584620
     55          1           0        9.257670   -1.525327    0.018542
     56          1           0        8.574100    0.088260   -0.157150
     57          1           0       -5.223478   -2.805439    0.266159
     58          1           0       -1.701288    0.962540    0.029455
     59          6           0       -9.459035   -1.392097   -1.725263
     60          1           0       -8.713692   -2.186297   -1.692651
     61          1           0      -10.448669   -1.839157   -1.851278
     62          1           0       -9.253856   -0.763330   -2.596637
     63          6           0       -5.566607    4.001674   -1.300873
     64          1           0       -5.416556    5.084679   -1.285332
     65          1           0       -4.585475    3.522113   -1.262264
     66          1           0       -6.043536    3.733540   -2.246948
     67          6           0      -10.541571    0.504924   -0.514555
     68          1           0      -10.570232    1.132743    0.379881
     69          1           0      -10.421334    1.152708   -1.387086
     70          1           0      -11.506695    0.000685   -0.603335
     71          6           0       -9.746646   -1.461418    0.786508
     72          1           0       -9.014010   -2.260621    0.883954
     73          1           0       -9.756259   -0.873483    1.708368
     74          1           0      -10.738340   -1.903628    0.657655
     75          6           0       -7.794760    4.316770   -0.198575
     76          1           0       -8.320348    4.072484   -1.124934
     77          1           0       -8.444157    4.066777    0.644666
     78          1           0       -7.621652    5.395061   -0.181823
     79          6           0       -5.754169    3.999662    1.210072
     80          1           0       -6.341288    3.688459    2.077619
     81          1           0       -4.758129    3.559533    1.293952
     82          1           0       -5.648666    5.087463    1.237437
 ---------------------------------------------------------------------
 Rotational constants (GHZ):           0.1780769           0.0311965           0.0272173
 Leave Link  202 at Thu Dec 20 19:15:07 2018, MaxMem=  1342177280 cpu:               0.5 elap:               0.1
 (Enter /gpfs/apps/hpc/Apps/Restricted/Gaussian/Rev_A.03/g16/l301.exe)
 Standard basis: 6-31G(d,p) (6D, 7F)
 Ernie: Thresh=  0.10000D-02 Tol=  0.10000D-05 Strict=F.
   820 basis functions,  1435 primitive gaussians,   820 cartesian basis functions
   147 alpha electrons      146 beta electrons
       nuclear repulsion energy      4427.6936116649 Hartrees.
 IExCor=  402 DFT=T Ex+Corr=B3LYP ExCW=0 ScaHFX=  0.200000
 ScaDFX=  0.800000  0.720000  1.000000  0.810000 ScalE2=  1.000000  1.000000
 IRadAn=      5 IRanWt=     -1 IRanGd=            0 ICorTp=0 IEmpDi=141
 NAtoms=   82 NActive=   82 NUniq=   82 SFac= 1.00D+00 NAtFMM=   60 NAOKFM=T Big=T
 Integral buffers will be    131072 words long.
 Raffenetti 2 integral format.
 Two-electron integral symmetry is turned off.
 R6Disp:  Grimme-D3(BJ) Dispersion energy=       -0.1861403683 Hartrees.
 Nuclear repulsion after empirical dispersion term =     4427.5074712966 Hartrees.
 ------------------------------------------------------------------------------
 Polarizable Continuum Model (PCM)
 =================================
 Model                : C-PCM.
 Atomic radii         : Bondi.
 Polarization charges : Total charges.
 Charge compensation  : None.
 Solution method      : On-the-fly selection.
 Cavity type          : Scaled VdW (van der Waals Surface) (Alpha=1.100).
 Cavity algorithm     : GePol (No added spheres)
                        Default sphere list used, NSphG=   82.
                        Lebedev-Laikov grids with approx.  5.0 points / Ang**2.
                        Smoothing algorithm: York/Karplus (Gamma=1.0000).
                        Polarization charges: spherical gaussians, with
                                              point-specific exponents (IZeta= 3).
                        Self-potential: point-specific (ISelfS= 7).
                        Self-field    : sphere-specific E.n sum rule (ISelfD= 2).
 1st derivatives      : Analytical E(r).r(x)/FMM algorithm (CHGder, D1EAlg=3).
                        Cavity 1st derivative terms included.
 Solvent              : Dichloromethane, Eps=   8.930000 Eps(inf)=   2.028346
 ------------------------------------------------------------------------------
 GePol: Number of generator spheres                  =      82
 GePol: Total number of spheres                      =      82
 GePol: Number of exposed spheres                    =      82 (100.00%)
 GePol: Number of points                             =    5277
 GePol: Average weight of points                     =       0.12
 GePol: Minimum weight of points                     =   0.59D-10
 GePol: Maximum weight of points                     =    0.21770
 GePol: Number of points with low weight             =     365
 GePol: Fraction of low-weight points (<1% of avg)   =       6.92%
 GePol: Cavity surface area                          =    623.945 Ang**2
 GePol: Cavity volume                                =    610.683 Ang**3
 PCM non-electrostatic energy =         0.0289703560 Hartrees.
 Nuclear repulsion after PCM non-electrostatic terms =     4427.5364416526 Hartrees.
 Leave Link  301 at Thu Dec 20 19:15:07 2018, MaxMem=  1342177280 cpu:               3.9 elap:               0.3
 (Enter /gpfs/apps/hpc/Apps/Restricted/Gaussian/Rev_A.03/g16/l302.exe)
 NPDir=0 NMtPBC=     1 NCelOv=     1 NCel=       1 NClECP=     1 NCelD=      1
         NCelK=      1 NCelE2=     1 NClLst=     1 CellRange=     0.0.
 One-electron integrals computed using PRISM.
 NBasis=   820 RedAO= T EigKep=  2.92D-04  NBF=   820
 NBsUse=   820 1.00D-06 EigRej= -1.00D+00 NBFU=   820
 Precomputing XC quadrature grid using
 IXCGrd= 4 IRadAn=           5 IRanWt=          -1 IRanGd=           0 AccXCQ= 0.00D+00.
 Generated NRdTot=       0 NPtTot=           0 NUsed=           0 NTot=          32
 NSgBfM=   750   750   750   750   750 MxSgAt=    82 MxSgA2=    82.
 Leave Link  302 at Thu Dec 20 19:15:09 2018, MaxMem=  1342177280 cpu:              23.6 elap:               1.5
 (Enter /gpfs/apps/hpc/Apps/Restricted/Gaussian/Rev_A.03/g16/l303.exe)
 DipDrv:  MaxL=1.
 Leave Link  303 at Thu Dec 20 19:15:09 2018, MaxMem=  1342177280 cpu:               1.1 elap:               0.1
 (Enter /gpfs/apps/hpc/Apps/Restricted/Gaussian/Rev_A.03/g16/l401.exe)
 Initial guess from the checkpoint file:  "cyclohexyl-diBIP-E2PT.chk"
 B after Tr=    -0.004534    0.000981    0.072139
         Rot=    1.000000    0.000583    0.000713    0.000081 Ang=   0.11 deg.
 Guess basis will be translated and rotated to current coordinates.
 JPrj=2 DoOrth=T DoCkMO=T.
 Initial guess <Sx>= 0.0000 <Sy>= 0.0000 <Sz>= 0.5000 <S**2>= 0.7738 S= 0.5119
 Generating alternative initial guess.
 ExpMin= 1.61D-01 ExpMax= 5.48D+03 ExpMxC= 8.25D+02 IAcc=2 IRadAn=         4 AccDes= 0.00D+00
 Harris functional with IExCor=  402 and IRadAn=       4 diagonalized for initial guess.
 HarFok:  IExCor=  402 AccDes= 0.00D+00 IRadAn=         4 IDoV= 1 UseB2=F ITyADJ=14
 ICtDFT=  3500011 ScaDFX=  1.000000  1.000000  1.000000  1.000000
 FoFCou: FMM=F IPFlag=           0 FMFlag=      100000 FMFlg1=        2001
         NFxFlg=           0 DoJE=T BraDBF=F KetDBF=T FulRan=T
         wScrn=  0.000000 ICntrl=       500 IOpCl=  0 I1Cent=   200000004 NGrid=           0
         NMat0=    1 NMatS0=      1 NMatT0=    0 NMatD0=    1 NMtDS0=    0 NMtDT0=    0
 Symmetry not used in FoFCou.
 Harris En= -1707.47957549810    
 Leave Link  401 at Thu Dec 20 19:15:14 2018, MaxMem=  1342177280 cpu:              75.6 elap:               4.8
 (Enter /gpfs/apps/hpc/Apps/Restricted/Gaussian/Rev_A.03/g16/l502.exe)
 Two-electron integral symmetry not used.
 UHF open shell SCF:
 Using DIIS extrapolation, IDIIS=  1040.
 NGot=  1342177280 LenX=  1340812546 LenY=  1340139326
 Requested convergence on RMS density matrix=1.00D-08 within 128 cycles.
 Requested convergence on MAX density matrix=1.00D-06.
 Requested convergence on             energy=1.00D-06.
 No special actions if energy rises.
 Fock matrices will be formed incrementally for  20 cycles.

 Cycle   1  Pass 1  IDiag  1:
 FoFJK:  IHMeth= 1 ICntrl=       0 DoSepK=F KAlg= 0 I1Cent=           0 FoldK=F
 IRaf= 630000000 NMat=       1 IRICut=       1 DoRegI=T DoRafI=F ISym2E= 0 IDoP0=0 IntGTp=1.
 FoFCou: FMM=T IPFlag=           0 FMFlag=      100000 FMFlg1=        2001
         NFxFlg=           0 DoJE=F BraDBF=F KetDBF=F FulRan=T
         wScrn=  0.000000 ICntrl=         0 IOpCl=  1 I1Cent=           0 NGrid=           0
         NMat0=    1 NMatS0=      1 NMatT0=    0 NMatD0=    1 NMtDS0=    0 NMtDT0=    0
 Symmetry not used in FoFCou.
 FMM levels:  10  Number of levels for PrismC:   9
 Inv3:  Mode=1 IEnd=    83540187.
 Iteration    1 A*A^-1 deviation from unit magnitude is 1.18D-14 for   5276.
 Iteration    1 A*A^-1 deviation from orthogonality  is 5.72D-15 for   5276   2228.
 Iteration    1 A^-1*A deviation from unit magnitude is 1.10D-14 for    687.
 Iteration    1 A^-1*A deviation from orthogonality  is 3.97D-15 for   5267   3393.
 E= -1707.52617484971    
