 Entering Gaussian System, Link 0=g16
 Input=cyclohexyl-monoBIP-TS2.com
 Output=cyclohexyl-monoBIP-TS2.log
 Initial command:
 /gpfs/apps/hpc/Apps/Restricted/Gaussian/Rev_A.03/g16/l1.exe "/gpfs/scratch60/fas/hammes_schiffer/jg2487/c42n01/Gau-72786.inp" -scrdir="/gpfs/scratch60/fas/hammes_schiffer/jg2487/c42n01/"
 Entering Link 1 = /gpfs/apps/hpc/Apps/Restricted/Gaussian/Rev_A.03/g16/l1.exe PID=     72787.
  
 Copyright (c) 1988,1990,1992,1993,1995,1998,2003,2009,2016,
            Gaussian, Inc.  All Rights Reserved.
  
 This is part of the Gaussian(R) 16 program.  It is based on
 the Gaussian(R) 09 system (copyright 2009, Gaussian, Inc.),
 the Gaussian(R) 03 system (copyright 2003, Gaussian, Inc.),
 the Gaussian(R) 98 system (copyright 1998, Gaussian, Inc.),
 the Gaussian(R) 94 system (copyright 1995, Gaussian, Inc.),
 the Gaussian 92(TM) system (copyright 1992, Gaussian, Inc.),
 the Gaussian 90(TM) system (copyright 1990, Gaussian, Inc.),
 the Gaussian 88(TM) system (copyright 1988, Gaussian, Inc.),
 the Gaussian 86(TM) system (copyright 1986, Carnegie Mellon
 University), and the Gaussian 82(TM) system (copyright 1983,
 Carnegie Mellon University). Gaussian is a federally registered
 trademark of Gaussian, Inc.
  
 This software contains proprietary and confidential information,
 including trade secrets, belonging to Gaussian, Inc.
  
 This software is provided under written license and may be
 used, copied, transmitted, or stored only in accord with that
 written license.
  
 The following legend is applicable only to US Government
 contracts under FAR:
  
                    RESTRICTED RIGHTS LEGEND
  
 Use, reproduction and disclosure by the US Government is
 subject to restrictions as set forth in subparagraphs (a)
 and (c) of the Commercial Computer Software - Restricted
 Rights clause in FAR 52.227-19.
  
 Gaussian, Inc.
 340 Quinnipiac St., Bldg. 40, Wallingford CT 06492
  
  
 ---------------------------------------------------------------
 Warning -- This program may not be used in any manner that
 competes with the business of Gaussian, Inc. or will provide
 assistance to any competitor of Gaussian, Inc.  The licensee
 of this program is prohibited from giving any competitor of
 Gaussian, Inc. access to this program.  By using this program,
 the user acknowledges that Gaussian, Inc. is engaged in the
 business of creating and licensing software in the field of
 computational chemistry and represents and warrants to the
 licensee that it is not a competitor of Gaussian, Inc. and that
 it will not use this program in any manner prohibited above.
 ---------------------------------------------------------------
  

 Cite this work as:
 Gaussian 16, Revision A.03,
 M. J. Frisch, G. W. Trucks, H. B. Schlegel, G. E. Scuseria, 
 M. A. Robb, J. R. Cheeseman, G. Scalmani, V. Barone, 
 G. A. Petersson, H. Nakatsuji, X. Li, M. Caricato, A. V. Marenich, 
 J. Bloino, B. G. Janesko, R. Gomperts, B. Mennucci, H. P. Hratchian, 
 J. V. Ortiz, A. F. Izmaylov, J. L. Sonnenberg, D. Williams-Young, 
 F. Ding, F. Lipparini, F. Egidi, J. Goings, B. Peng, A. Petrone, 
 T. Henderson, D. Ranasinghe, V. G. Zakrzewski, J. Gao, N. Rega, 
 G. Zheng, W. Liang, M. Hada, M. Ehara, K. Toyota, R. Fukuda, 
 J. Hasegawa, M. Ishida, T. Nakajima, Y. Honda, O. Kitao, H. Nakai, 
 T. Vreven, K. Throssell, J. A. Montgomery, Jr., J. E. Peralta, 
 F. Ogliaro, M. J. Bearpark, J. J. Heyd, E. N. Brothers, K. N. Kudin, 
 V. N. Staroverov, T. A. Keith, R. Kobayashi, J. Normand, 
 K. Raghavachari, A. P. Rendell, J. C. Burant, S. S. Iyengar, 
 J. Tomasi, M. Cossi, J. M. Millam, M. Klene, C. Adamo, R. Cammi, 
 J. W. Ochterski, R. L. Martin, K. Morokuma, O. Farkas, 
 J. B. Foresman, and D. J. Fox, Gaussian, Inc., Wallingford CT, 2016.
 
 ******************************************
 Gaussian 16:  ES64L-G16RevA.03 25-Dec-2016
                21-Dec-2018 
 ******************************************
 %chk=cyclohexyl-monoBIP-TS2.chk
 %mem=10GB
 %nprocshared=16
 Will use up to   16 processors via shared memory.
 ----------------------------------------------------------------
 #p freq(ReadFC,InternalModes) Geom(AllCheck) NoSymm scale=0.9631
 ----------------------------------------------------------------
 1/18=20,29=7,38=1,114=963100/1,3;
 2/9=110,12=2,15=1,40=1/2;
 7/8=21,25=11,30=1/16;
 99/5=2/99;
 Leave Link    1 at Fri Dec 21 18:12:08 2018, MaxMem=  1342177280 cpu:               9.8 elap:               0.7
 (Enter /gpfs/apps/hpc/Apps/Restricted/Gaussian/Rev_A.03/g16/l101.exe)
 Structure from the checkpoint file:  "cyclohexyl-monoBIP-TS2.chk"
 --------------------------------------------------------------------
 cyclohexylimine monoBIP oxidized, TS opt to both protons transferred
 --------------------------------------------------------------------
 Charge =  1 Multiplicity = 2
 Redundant internal coordinates found in file.  (old form).
 C,0,-0.580274,3.014188,0.382035
 C,0,-1.970516,3.152743,0.292349
 C,0,-2.540783,4.425858,0.199023
 C,0,-1.659162,5.50993,0.201107
 C,0,-0.259562,5.359421,0.286104
 C,0,0.31573,4.090631,0.377245
 C,0,-1.397498,0.988469,0.394211
 H,0,-3.610356,4.570535,0.123207
 H,0,-2.068396,6.5102,0.13052
 H,0,0.37448,6.237932,0.272629
 N,0,-2.444642,1.853894,0.306244
 C,0,-2.834483,-1.079962,0.291623
 C,0,-1.513056,-0.450932,0.418412
 C,0,-0.369626,-1.22075,0.554325
 C,0,-0.438255,-2.621584,0.561101
 C,0,-1.709214,-3.240017,0.415214
 C,0,-2.890843,-2.548056,0.286216
 H,0,0.586265,-0.726505,0.656937
 H,0,-1.73705,-4.320326,0.406939
 C,0,0.798239,-3.497613,0.706909
 C,0,-4.237188,-3.25338,0.142189
 O,0,-3.868846,-0.372232,0.192569
 N,0,-0.246569,1.688465,0.445025
 C,0,1.734172,3.768781,0.431323
 H,0,2.46373,4.577569,0.421422
 N,0,2.086541,2.527431,0.47948
 C,0,3.500339,2.126837,0.4819
 C,0,4.147493,2.422894,-0.881709
 C,0,4.297808,2.777225,1.622656
 H,0,3.498592,1.043162,0.635197
 C,0,5.609371,1.966953,-0.903802
 H,0,4.092212,3.503704,-1.059146
 H,0,3.572386,1.934939,-1.673395
 C,0,5.756744,2.310042,1.595927
 H,0,4.263782,3.866622,1.507337
 H,0,3.82776,2.536678,2.580029
 C,0,6.411383,2.596885,0.240065
 H,0,6.057669,2.215789,-1.869894
 H,0,5.646883,0.874947,-0.809312
 H,0,6.314647,2.794659,2.402411
 H,0,5.792024,1.231258,1.791783
 H,0,7.439113,2.221948,0.230356
 H,0,6.46672,3.681992,0.088668
 H,0,-3.395166,1.495124,0.246009
 H,0,0.969743,1.701293,0.474495
 C,0,2.080667,-2.676831,0.898068
 H,0,2.284827,-2.035155,0.036753
 H,0,2.029288,-2.050771,1.792246
 H,0,2.925538,-3.358749,1.013762
 C,0,0.6182,-4.422373,1.931002
 H,0,-0.277349,-5.04024,1.844336
 H,0,1.481929,-5.086709,2.011689
 H,0,0.54498,-3.838102,2.851223
 C,0,0.941454,-4.360686,-0.567123
 H,0,1.826635,-4.995762,-0.480583
 H,0,0.073608,-5.007427,-0.712063
 H,0,1.052177,-3.730966,-1.452836
 C,0,-5.166984,-2.83868,1.304821
 H,0,-5.370819,-1.769713,1.284375
 H,0,-6.11216,-3.38148,1.220718
 H,0,-4.712621,-3.091933,2.266549
 C,0,-4.085465,-4.781287,0.182445
 H,0,-3.45746,-5.150582,-0.632502
 H,0,-3.656246,-5.119178,1.129599
 H,0,-5.072431,-5.236834,0.076846
 C,0,-4.879609,-2.869713,-1.209573
 H,0,-5.85625,-3.353578,-1.296748
 H,0,-5.01538,-1.792431,-1.292771
 H,0,-4.257454,-3.210798,-2.041361
 Recover connectivity data from disk.
 ITRead=  0  0  0  0  0  0  0  0  0  0  0  0  0  0  0  0  0  0  0  0
 ITRead=  0  0  0  0  0  0  0  0  0  0  0  0  0  0  0  0  0  0  0  0
 ITRead=  0  0  0  0  0  0  0  0  0  0  0  0  0  0  0  0  0  0  0  0
 ITRead=  0  0  0  0  0  0  0  0  0
 MicOpt= -1 -1 -1 -1 -1 -1 -1 -1 -1 -1 -1 -1 -1 -1 -1 -1 -1 -1 -1 -1
 MicOpt= -1 -1 -1 -1 -1 -1 -1 -1 -1 -1 -1 -1 -1 -1 -1 -1 -1 -1 -1 -1
 MicOpt= -1 -1 -1 -1 -1 -1 -1 -1 -1 -1 -1 -1 -1 -1 -1 -1 -1 -1 -1 -1
 MicOpt= -1 -1 -1 -1 -1 -1 -1 -1 -1
 NAtoms=     69 NQM=       69 NQMF=       0 NMMI=      0 NMMIF=      0
                NMic=       0 NMicF=      0.
                    Isotopes and Nuclear Properties:
 (Nuclear quadrupole moments (NQMom) in fm**2, nuclear magnetic moments (NMagM)
  in nuclear magnetons)

  Atom         1           2           3           4           5           6           7           8           9          10
 IAtWgt=          12          12          12          12          12          12          12           1           1           1
 AtmWgt=  12.0000000  12.0000000  12.0000000  12.0000000  12.0000000  12.0000000  12.0000000   1.0078250   1.0078250   1.0078250
 NucSpn=           0           0           0           0           0           0           0           1           1           1
 AtZEff=   3.6000000   3.6000000   3.6000000   3.6000000   3.6000000   3.6000000   3.6000000   1.0000000   1.0000000   1.0000000
 NQMom=    0.0000000   0.0000000   0.0000000   0.0000000   0.0000000   0.0000000   0.0000000   0.0000000   0.0000000   0.0000000
 NMagM=    0.0000000   0.0000000   0.0000000   0.0000000   0.0000000   0.0000000   0.0000000   2.7928460   2.7928460   2.7928460
 AtZNuc=   6.0000000   6.0000000   6.0000000   6.0000000   6.0000000   6.0000000   6.0000000   1.0000000   1.0000000   1.0000000

  Atom        11          12          13          14          15          16          17          18          19          20
 IAtWgt=          14          12          12          12          12          12          12           1           1          12
 AtmWgt=  14.0030740  12.0000000  12.0000000  12.0000000  12.0000000  12.0000000  12.0000000   1.0078250   1.0078250  12.0000000
 NucSpn=           2           0           0           0           0           0           0           1           1           0
 AtZEff=   4.5500000   3.6000000   3.6000000   3.6000000   3.6000000   3.6000000   3.6000000   1.0000000   1.0000000   3.6000000
 NQMom=    2.0440000   0.0000000   0.0000000   0.0000000   0.0000000   0.0000000   0.0000000   0.0000000   0.0000000   0.0000000
 NMagM=    0.4037610   0.0000000   0.0000000   0.0000000   0.0000000   0.0000000   0.0000000   2.7928460   2.7928460   0.0000000
 AtZNuc=   7.0000000   6.0000000   6.0000000   6.0000000   6.0000000   6.0000000   6.0000000   1.0000000   1.0000000   6.0000000

  Atom        21          22          23          24          25          26          27          28          29          30
 IAtWgt=          12          16          14          12           1          14          12          12          12           1
 AtmWgt=  12.0000000  15.9949146  14.0030740  12.0000000   1.0078250  14.0030740  12.0000000  12.0000000  12.0000000   1.0078250
 NucSpn=           0           0           2           0           1           2           0           0           0           1
 AtZEff=   3.6000000   5.6000000   4.5500000   3.6000000   1.0000000   4.5500000   3.6000000   3.6000000   3.6000000   1.0000000
 NQMom=    0.0000000   0.0000000   2.0440000   0.0000000   0.0000000   2.0440000   0.0000000   0.0000000   0.0000000   0.0000000
 NMagM=    0.0000000   0.0000000   0.4037610   0.0000000   2.7928460   0.4037610   0.0000000   0.0000000   0.0000000   2.7928460
 AtZNuc=   6.0000000   8.0000000   7.0000000   6.0000000   1.0000000   7.0000000   6.0000000   6.0000000   6.0000000   1.0000000

  Atom        31          32          33          34          35          36          37          38          39          40
 IAtWgt=          12           1           1          12           1           1          12           1           1           1
 AtmWgt=  12.0000000   1.0078250   1.0078250  12.0000000   1.0078250   1.0078250  12.0000000   1.0078250   1.0078250   1.0078250
 NucSpn=           0           1           1           0           1           1           0           1           1           1
 AtZEff=   3.6000000   1.0000000   1.0000000   3.6000000   1.0000000   1.0000000   3.6000000   1.0000000   1.0000000   1.0000000
 NQMom=    0.0000000   0.0000000   0.0000000   0.0000000   0.0000000   0.0000000   0.0000000   0.0000000   0.0000000   0.0000000
 NMagM=    0.0000000   2.7928460   2.7928460   0.0000000   2.7928460   2.7928460   0.0000000   2.7928460   2.7928460   2.7928460
 AtZNuc=   6.0000000   1.0000000   1.0000000   6.0000000   1.0000000   1.0000000   6.0000000   1.0000000   1.0000000   1.0000000

  Atom        41          42          43          44          45          46          47          48          49          50
 IAtWgt=           1           1           1           1           1          12           1           1           1          12
 AtmWgt=   1.0078250   1.0078250   1.0078250   1.0078250   1.0078250  12.0000000   1.0078250   1.0078250   1.0078250  12.0000000
 NucSpn=           1           1           1           1           1           0           1           1           1           0
 AtZEff=   1.0000000   1.0000000   1.0000000   1.0000000   1.0000000   3.6000000   1.0000000   1.0000000   1.0000000   3.6000000
 NQMom=    0.0000000   0.0000000   0.0000000   0.0000000   0.0000000   0.0000000   0.0000000   0.0000000   0.0000000   0.0000000
 NMagM=    2.7928460   2.7928460   2.7928460   2.7928460   2.7928460   0.0000000   2.7928460   2.7928460   2.7928460   0.0000000
 AtZNuc=   1.0000000   1.0000000   1.0000000   1.0000000   1.0000000   6.0000000   1.0000000   1.0000000   1.0000000   6.0000000

  Atom        51          52          53          54          55          56          57          58          59          60
 IAtWgt=           1           1           1          12           1           1           1          12           1           1
 AtmWgt=   1.0078250   1.0078250   1.0078250  12.0000000   1.0078250   1.0078250   1.0078250  12.0000000   1.0078250   1.0078250
 NucSpn=           1           1           1           0           1           1           1           0           1           1
 AtZEff=   1.0000000   1.0000000   1.0000000   3.6000000   1.0000000   1.0000000   1.0000000   3.6000000   1.0000000   1.0000000
 NQMom=    0.0000000   0.0000000   0.0000000   0.0000000   0.0000000   0.0000000   0.0000000   0.0000000   0.0000000   0.0000000
 NMagM=    2.7928460   2.7928460   2.7928460   0.0000000   2.7928460   2.7928460   2.7928460   0.0000000   2.7928460   2.7928460
 AtZNuc=   1.0000000   1.0000000   1.0000000   6.0000000   1.0000000   1.0000000   1.0000000   6.0000000   1.0000000   1.0000000

  Atom        61          62          63          64          65          66          67          68          69
 IAtWgt=           1          12           1           1           1          12           1           1           1
 AtmWgt=   1.0078250  12.0000000   1.0078250   1.0078250   1.0078250  12.0000000   1.0078250   1.0078250   1.0078250
 NucSpn=           1           0           1           1           1           0           1           1           1
 AtZEff=   1.0000000   3.6000000   1.0000000   1.0000000   1.0000000   3.6000000   1.0000000   1.0000000   1.0000000
 NQMom=    0.0000000   0.0000000   0.0000000   0.0000000   0.0000000   0.0000000   0.0000000   0.0000000   0.0000000
 NMagM=    2.7928460   0.0000000   2.7928460   2.7928460   2.7928460   0.0000000   2.7928460   2.7928460   2.7928460
 AtZNuc=   1.0000000   6.0000000   1.0000000   1.0000000   1.0000000   6.0000000   1.0000000   1.0000000   1.0000000
 Leave Link  101 at Fri Dec 21 18:12:08 2018, MaxMem=  1342177280 cpu:               6.6 elap:               0.4
 (Enter /gpfs/apps/hpc/Apps/Restricted/Gaussian/Rev_A.03/g16/l103.exe)

 GradGradGradGradGradGradGradGradGradGradGradGradGradGradGradGradGradGrad
 Berny optimization.
 Initialization pass.
                           ----------------------------
                           !    Initial Parameters    !
                           ! (Angstroms and Degrees)  !
 --------------------------                            --------------------------
 ! Name  Definition              Value          Derivative Info.                !
 --------------------------------------------------------------------------------
 ! R1    R(1,2)                  1.4            estimate D2E/DX2                !
 ! R2    R(1,6)                  1.4006         estimate D2E/DX2                !
 ! R3    R(1,23)                 1.3685         estimate D2E/DX2                !
 ! R4    R(2,3)                  1.3981         estimate D2E/DX2                !
 ! R5    R(2,11)                 1.3827         estimate D2E/DX2                !
 ! R6    R(3,4)                  1.3973         estimate D2E/DX2                !
 ! R7    R(3,8)                  1.082          estimate D2E/DX2                !
 ! R8    R(4,5)                  1.4102         estimate D2E/DX2                !
 ! R9    R(4,9)                  1.083          estimate D2E/DX2                !
 ! R10   R(5,6)                  1.3961         estimate D2E/DX2                !
 ! R11   R(5,10)                 1.0835         estimate D2E/DX2                !
 ! R12   R(6,24)                 1.4555         estimate D2E/DX2                !
 ! R13   R(7,11)                 1.3613         estimate D2E/DX2                !
 ! R14   R(7,13)                 1.4442         estimate D2E/DX2                !
 ! R15   R(7,23)                 1.348          estimate D2E/DX2                !
 ! R16   R(11,44)                1.0178         estimate D2E/DX2                !
 ! R17   R(12,13)                1.469          estimate D2E/DX2                !
 ! R18   R(12,17)                1.4692         estimate D2E/DX2                !
 ! R19   R(12,22)                1.2572         estimate D2E/DX2                !
 ! R20   R(13,14)                1.3851         estimate D2E/DX2                !
 ! R21   R(14,15)                1.4025         estimate D2E/DX2                !
 ! R22   R(14,18)                1.081          estimate D2E/DX2                !
 ! R23   R(15,16)                1.4209         estimate D2E/DX2                !
 ! R24   R(15,20)                1.5224         estimate D2E/DX2                !
 ! R25   R(16,17)                1.3754         estimate D2E/DX2                !
 ! R26   R(16,19)                1.0807         estimate D2E/DX2                !
 ! R27   R(17,21)                1.5267         estimate D2E/DX2                !
 ! R28   R(20,46)                1.5346         estimate D2E/DX2                !
 ! R29   R(20,50)                1.5447         estimate D2E/DX2                !
 ! R30   R(20,54)                1.5455         estimate D2E/DX2                !
 ! R31   R(21,58)                1.5454         estimate D2E/DX2                !
 ! R32   R(21,62)                1.5359         estimate D2E/DX2                !
 ! R33   R(21,66)                1.545          estimate D2E/DX2                !
 ! R34   R(23,45)                1.2167         estimate D2E/DX2                !
 ! R35   R(24,25)                1.0893         estimate D2E/DX2                !
 ! R36   R(24,26)                1.2913         estimate D2E/DX2                !
 ! R37   R(26,27)                1.4695         estimate D2E/DX2                !
 ! R38   R(27,28)                1.5381         estimate D2E/DX2                !
 ! R39   R(27,29)                1.5363         estimate D2E/DX2                !
 ! R40   R(27,30)                1.0945         estimate D2E/DX2                !
 ! R41   R(28,31)                1.5315         estimate D2E/DX2                !
 ! R42   R(28,32)                1.0967         estimate D2E/DX2                !
 ! R43   R(28,33)                1.0934         estimate D2E/DX2                !
 ! R44   R(29,34)                1.5321         estimate D2E/DX2                !
 ! R45   R(29,35)                1.096          estimate D2E/DX2                !
 ! R46   R(29,36)                1.0933         estimate D2E/DX2                !
 ! R47   R(31,37)                1.5325         estimate D2E/DX2                !
 ! R48   R(31,38)                1.0937         estimate D2E/DX2                !
 ! R49   R(31,39)                1.0967         estimate D2E/DX2                !
 ! R50   R(34,37)                1.5327         estimate D2E/DX2                !
 ! R51   R(34,40)                1.0939         estimate D2E/DX2                !
 ! R52   R(34,41)                1.097          estimate D2E/DX2                !
 ! R53   R(37,42)                1.094          estimate D2E/DX2                !
 ! R54   R(37,43)                1.097          estimate D2E/DX2                !
 ! R55   R(46,47)                1.0933         estimate D2E/DX2                !
 ! R56   R(46,48)                1.0928         estimate D2E/DX2                !
 ! R57   R(46,49)                1.0919         estimate D2E/DX2                !
 ! R58   R(50,51)                1.0915         estimate D2E/DX2                !
 ! R59   R(50,52)                1.0926         estimate D2E/DX2                !
 ! R60   R(50,53)                1.0925         estimate D2E/DX2                !
 ! R61   R(54,55)                1.0929         estimate D2E/DX2                !
 ! R62   R(54,56)                1.092          estimate D2E/DX2                !
 ! R63   R(54,57)                1.0924         estimate D2E/DX2                !
 ! R64   R(58,59)                1.0884         estimate D2E/DX2                !
 ! R65   R(58,60)                1.0932         estimate D2E/DX2                !
 ! R66   R(58,61)                1.0934         estimate D2E/DX2                !
 ! R67   R(62,63)                1.0931         estimate D2E/DX2                !
 ! R68   R(62,64)                1.0934         estimate D2E/DX2                !
 ! R69   R(62,65)                1.0921         estimate D2E/DX2                !
 ! R70   R(66,67)                1.0934         estimate D2E/DX2                !
 ! R71   R(66,68)                1.089          estimate D2E/DX2                !
 ! R72   R(66,69)                1.0933         estimate D2E/DX2                !
 ! A1    A(2,1,6)              123.9867         estimate D2E/DX2                !
 ! A2    A(2,1,23)             109.9355         estimate D2E/DX2                !
 ! A3    A(6,1,23)             126.0648         estimate D2E/DX2                !
 ! A4    A(1,2,3)              119.9625         estimate D2E/DX2                !
 ! A5    A(1,2,11)             104.2935         estimate D2E/DX2                !
 ! A6    A(3,2,11)             135.7378         estimate D2E/DX2                !
 ! A7    A(2,3,4)              116.6804         estimate D2E/DX2                !
 ! A8    A(2,3,8)              121.9815         estimate D2E/DX2                !
 ! A9    A(4,3,8)              121.3373         estimate D2E/DX2                !
 ! A10   A(3,4,5)              122.9204         estimate D2E/DX2                !
 ! A11   A(3,4,9)              118.5568         estimate D2E/DX2                !
 ! A12   A(5,4,9)              118.5224         estimate D2E/DX2                !
 ! A13   A(4,5,6)              120.6567         estimate D2E/DX2                !
 ! A14   A(4,5,10)             119.5698         estimate D2E/DX2                !
 ! A15   A(6,5,10)             119.7718         estimate D2E/DX2                !
 ! A16   A(1,6,5)              115.7913         estimate D2E/DX2                !
 ! A17   A(1,6,24)             116.9605         estimate D2E/DX2                !
 ! A18   A(5,6,24)             127.2264         estimate D2E/DX2                !
 ! A19   A(11,7,13)            124.9688         estimate D2E/DX2                !
 ! A20   A(11,7,23)            109.2117         estimate D2E/DX2                !
 ! A21   A(13,7,23)            125.818          estimate D2E/DX2                !
 ! A22   A(2,11,7)             109.5146         estimate D2E/DX2                !
 ! A23   A(2,11,44)            130.5988         estimate D2E/DX2                !
 ! A24   A(7,11,44)            119.8756         estimate D2E/DX2                !
 ! A25   A(13,12,17)           117.5624         estimate D2E/DX2                !
 ! A26   A(13,12,22)           120.3873         estimate D2E/DX2                !
 ! A27   A(17,12,22)           122.0503         estimate D2E/DX2                !
 ! A28   A(7,13,12)            119.8217         estimate D2E/DX2                !
 ! A29   A(7,13,14)            119.3086         estimate D2E/DX2                !
 ! A30   A(12,13,14)           120.8687         estimate D2E/DX2                !
 ! A31   A(13,14,15)           121.0101         estimate D2E/DX2                !
 ! A32   A(13,14,18)           119.0247         estimate D2E/DX2                !
 ! A33   A(15,14,18)           119.9652         estimate D2E/DX2                !
 ! A34   A(14,15,16)           118.553          estimate D2E/DX2                !
 ! A35   A(14,15,20)           122.3752         estimate D2E/DX2                !
 ! A36   A(16,15,20)           119.0697         estimate D2E/DX2                !
 ! A37   A(15,16,17)           123.994          estimate D2E/DX2                !
 ! A38   A(15,16,19)           117.3158         estimate D2E/DX2                !
 ! A39   A(17,16,19)           118.6902         estimate D2E/DX2                !
 ! A40   A(12,17,16)           117.997          estimate D2E/DX2                !
 ! A41   A(12,17,21)           119.7238         estimate D2E/DX2                !
 ! A42   A(16,17,21)           122.2791         estimate D2E/DX2                !
 ! A43   A(15,20,46)           112.5147         estimate D2E/DX2                !
 ! A44   A(15,20,50)           109.0101         estimate D2E/DX2                !
 ! A45   A(15,20,54)           108.5215         estimate D2E/DX2                !
 ! A46   A(46,20,50)           108.5966         estimate D2E/DX2                !
 ! A47   A(46,20,54)           108.9015         estimate D2E/DX2                !
 ! A48   A(50,20,54)           109.253          estimate D2E/DX2                !
 ! A49   A(17,21,58)           109.611          estimate D2E/DX2                !
 ! A50   A(17,21,62)           111.7147         estimate D2E/DX2                !
 ! A51   A(17,21,66)           109.5412         estimate D2E/DX2                !
 ! A52   A(58,21,62)           107.8579         estimate D2E/DX2                !
 ! A53   A(58,21,66)           109.9627         estimate D2E/DX2                !
 ! A54   A(62,21,66)           108.1209         estimate D2E/DX2                !
 ! A55   A(1,23,7)             107.0439         estimate D2E/DX2                !
 ! A56   A(1,23,45)            103.5715         estimate D2E/DX2                !
 ! A57   A(7,23,45)            149.3018         estimate D2E/DX2                !
 ! A58   A(6,24,25)            119.2218         estimate D2E/DX2                !
 ! A59   A(6,24,26)            118.6784         estimate D2E/DX2                !
 ! A60   A(25,24,26)           122.0977         estimate D2E/DX2                !
 ! A61   A(24,26,27)           121.6465         estimate D2E/DX2                !
 ! A62   A(26,27,28)           110.5404         estimate D2E/DX2                !
 ! A63   A(26,27,29)           112.658          estimate D2E/DX2                !
 ! A64   A(26,27,30)           105.5822         estimate D2E/DX2                !
 ! A65   A(28,27,29)           111.0014         estimate D2E/DX2                !
 ! A66   A(28,27,30)           108.3863         estimate D2E/DX2                !
 ! A67   A(29,27,30)           108.4208         estimate D2E/DX2                !
 ! A68   A(27,28,31)           110.9222         estimate D2E/DX2                !
 ! A69   A(27,28,32)           108.175          estimate D2E/DX2                !
 ! A70   A(27,28,33)           109.5537         estimate D2E/DX2                !
 ! A71   A(31,28,32)           109.8274         estimate D2E/DX2                !
 ! A72   A(31,28,33)           111.0237         estimate D2E/DX2                !
 ! A73   A(32,28,33)           107.2261         estimate D2E/DX2                !
 ! A74   A(27,29,34)           110.6241         estimate D2E/DX2                !
 ! A75   A(27,29,35)           109.0592         estimate D2E/DX2                !
 ! A76   A(27,29,36)           109.5048         estimate D2E/DX2                !
 ! A77   A(34,29,35)           109.3178         estimate D2E/DX2                !
 ! A78   A(34,29,36)           110.951          estimate D2E/DX2                !
 ! A79   A(35,29,36)           107.3058         estimate D2E/DX2                !
 ! A80   A(28,31,37)           111.4946         estimate D2E/DX2                !
 ! A81   A(28,31,38)           109.6493         estimate D2E/DX2                !
 ! A82   A(28,31,39)           109.1374         estimate D2E/DX2                !
 ! A83   A(37,31,38)           110.5661         estimate D2E/DX2                !
 ! A84   A(37,31,39)           109.0915         estimate D2E/DX2                !
 ! A85   A(38,31,39)           106.7752         estimate D2E/DX2                !
 ! A86   A(29,34,37)           111.412          estimate D2E/DX2                !
 ! A87   A(29,34,40)           109.7374         estimate D2E/DX2                !
 ! A88   A(29,34,41)           109.1093         estimate D2E/DX2                !
 ! A89   A(37,34,40)           110.5767         estimate D2E/DX2                !
 ! A90   A(37,34,41)           109.1624         estimate D2E/DX2                !
 ! A91   A(40,34,41)           106.717          estimate D2E/DX2                !
 ! A92   A(31,37,34)           111.0904         estimate D2E/DX2                !
 ! A93   A(31,37,42)           110.1288         estimate D2E/DX2                !
 ! A94   A(31,37,43)           109.2677         estimate D2E/DX2                !
 ! A95   A(34,37,42)           110.1782         estimate D2E/DX2                !
 ! A96   A(34,37,43)           109.1927         estimate D2E/DX2                !
 ! A97   A(42,37,43)           106.8808         estimate D2E/DX2                !
 ! A98   A(20,46,47)           111.8294         estimate D2E/DX2                !
 ! A99   A(20,46,48)           111.6583         estimate D2E/DX2                !
 ! A100  A(20,46,49)           109.0142         estimate D2E/DX2                !
 ! A101  A(47,46,48)           108.492          estimate D2E/DX2                !
 ! A102  A(47,46,49)           107.7903         estimate D2E/DX2                !
 ! A103  A(48,46,49)           107.9075         estimate D2E/DX2                !
 ! A104  A(20,50,51)           111.8154         estimate D2E/DX2                !
 ! A105  A(20,50,52)           109.2921         estimate D2E/DX2                !
 ! A106  A(20,50,53)           110.8019         estimate D2E/DX2                !
 ! A107  A(51,50,52)           108.0761         estimate D2E/DX2                !
 ! A108  A(51,50,53)           108.3392         estimate D2E/DX2                !
 ! A109  A(52,50,53)           108.4178         estimate D2E/DX2                !
 ! A110  A(20,54,55)           109.5297         estimate D2E/DX2                !
 ! A111  A(20,54,56)           111.5008         estimate D2E/DX2                !
 ! A112  A(20,54,57)           110.8462         estimate D2E/DX2                !
 ! A113  A(55,54,56)           108.0623         estimate D2E/DX2                !
 ! A114  A(55,54,57)           108.4875         estimate D2E/DX2                !
 ! A115  A(56,54,57)           108.3218         estimate D2E/DX2                !
 ! A116  A(21,58,59)           111.229          estimate D2E/DX2                !
 ! A117  A(21,58,60)           109.2127         estimate D2E/DX2                !
 ! A118  A(21,58,61)           110.4601         estimate D2E/DX2                !
 ! A119  A(59,58,60)           108.9226         estimate D2E/DX2                !
 ! A120  A(59,58,61)           108.7735         estimate D2E/DX2                !
 ! A121  A(60,58,61)           108.1769         estimate D2E/DX2                !
 ! A122  A(21,62,63)           111.9179         estimate D2E/DX2                !
 ! A123  A(21,62,64)           111.6474         estimate D2E/DX2                !
 ! A124  A(21,62,65)           108.8521         estimate D2E/DX2                !
 ! A125  A(63,62,64)           108.4143         estimate D2E/DX2                !
 ! A126  A(63,62,65)           107.8292         estimate D2E/DX2                !
 ! A127  A(64,62,65)           108.0358         estimate D2E/DX2                !
 ! A128  A(21,66,67)           109.3449         estimate D2E/DX2                !
 ! A129  A(21,66,68)           111.3666         estimate D2E/DX2                !
 ! A130  A(21,66,69)           110.5821         estimate D2E/DX2                !
 ! A131  A(67,66,68)           108.6822         estimate D2E/DX2                !
 ! A132  A(67,66,69)           108.0336         estimate D2E/DX2                !
 ! A133  A(68,66,69)           108.7506         estimate D2E/DX2                !
 ! D1    D(6,1,2,3)             -0.4135         estimate D2E/DX2                !
 ! D2    D(6,1,2,11)           178.8152         estimate D2E/DX2                !
 ! D3    D(23,1,2,3)          -179.1733         estimate D2E/DX2                !
 ! D4    D(23,1,2,11)            0.0554         estimate D2E/DX2                !
 ! D5    D(2,1,6,5)              0.5006         estimate D2E/DX2                !
 ! D6    D(2,1,6,24)          -177.9252         estimate D2E/DX2                !
 ! D7    D(23,1,6,5)           179.0583         estimate D2E/DX2                !
 ! D8    D(23,1,6,24)            0.6325         estimate D2E/DX2                !
 ! D9    D(2,1,23,7)             0.1198         estimate D2E/DX2                !
 ! D10   D(2,1,23,45)          177.8395         estimate D2E/DX2                !
 ! D11   D(6,1,23,7)          -178.608          estimate D2E/DX2                !
 ! D12   D(6,1,23,45)           -0.8884         estimate D2E/DX2                !
 ! D13   D(1,2,3,4)              0.0144         estimate D2E/DX2                !
 ! D14   D(1,2,3,8)            179.6858         estimate D2E/DX2                !
 ! D15   D(11,2,3,4)          -178.9146         estimate D2E/DX2                !
 ! D16   D(11,2,3,8)             0.7569         estimate D2E/DX2                !
 ! D17   D(1,2,11,7)            -0.2109         estimate D2E/DX2                !
 ! D18   D(1,2,11,44)         -178.9717         estimate D2E/DX2                !
 ! D19   D(3,2,11,7)           178.8316         estimate D2E/DX2                !
 ! D20   D(3,2,11,44)            0.0708         estimate D2E/DX2                !
 ! D21   D(2,3,4,5)              0.2654         estimate D2E/DX2                !
 ! D22   D(2,3,4,9)           -179.9746         estimate D2E/DX2                !
 ! D23   D(8,3,4,5)           -179.4083         estimate D2E/DX2                !
 ! D24   D(8,3,4,9)              0.3516         estimate D2E/DX2                !
 ! D25   D(3,4,5,6)             -0.1677         estimate D2E/DX2                !
 ! D26   D(3,4,5,10)           179.3536         estimate D2E/DX2                !
 ! D27   D(9,4,5,6)           -179.9277         estimate D2E/DX2                !
 ! D28   D(9,4,5,10)            -0.4065         estimate D2E/DX2                !
 ! D29   D(4,5,6,1)             -0.208          estimate D2E/DX2                !
 ! D30   D(4,5,6,24)           178.0299         estimate D2E/DX2                !
 ! D31   D(10,5,6,1)          -179.7283         estimate D2E/DX2                !
 ! D32   D(10,5,6,24)           -1.4904         estimate D2E/DX2                !
 ! D33   D(1,6,24,25)          179.5146         estimate D2E/DX2                !
 ! D34   D(1,6,24,26)            0.0316         estimate D2E/DX2                !
 ! D35   D(5,6,24,25)            1.2947         estimate D2E/DX2                !
 ! D36   D(5,6,24,26)         -178.1883         estimate D2E/DX2                !
 ! D37   D(13,7,11,2)         -179.2819         estimate D2E/DX2                !
 ! D38   D(13,7,11,44)          -0.3669         estimate D2E/DX2                !
 ! D39   D(23,7,11,2)            0.2963         estimate D2E/DX2                !
 ! D40   D(23,7,11,44)         179.2113         estimate D2E/DX2                !
 ! D41   D(11,7,13,12)           2.4137         estimate D2E/DX2                !
 ! D42   D(11,7,13,14)        -177.9302         estimate D2E/DX2                !
 ! D43   D(23,7,13,12)        -177.095          estimate D2E/DX2                !
 ! D44   D(23,7,13,14)           2.561          estimate D2E/DX2                !
 ! D45   D(11,7,23,1)           -0.2529         estimate D2E/DX2                !
 ! D46   D(11,7,23,45)        -175.9079         estimate D2E/DX2                !
 ! D47   D(13,7,23,1)          179.3208         estimate D2E/DX2                !
 ! D48   D(13,7,23,45)           3.6658         estimate D2E/DX2                !
 ! D49   D(17,12,13,7)         178.3935         estimate D2E/DX2                !
 ! D50   D(17,12,13,14)         -1.2571         estimate D2E/DX2                !
 ! D51   D(22,12,13,7)          -1.6166         estimate D2E/DX2                !
 ! D52   D(22,12,13,14)        178.7328         estimate D2E/DX2                !
 ! D53   D(13,12,17,16)          0.7337         estimate D2E/DX2                !
 ! D54   D(13,12,17,21)       -179.3613         estimate D2E/DX2                !
 ! D55   D(22,12,17,16)       -179.256          estimate D2E/DX2                !
 ! D56   D(22,12,17,21)          0.649          estimate D2E/DX2                !
 ! D57   D(7,13,14,15)        -178.9927         estimate D2E/DX2                !
 ! D58   D(7,13,14,18)           1.0515         estimate D2E/DX2                !
 ! D59   D(12,13,14,15)          0.6597         estimate D2E/DX2                !
 ! D60   D(12,13,14,18)       -179.2962         estimate D2E/DX2                !
 ! D61   D(13,14,15,16)          0.4575         estimate D2E/DX2                !
 ! D62   D(13,14,15,20)        179.9284         estimate D2E/DX2                !
 ! D63   D(18,14,15,16)       -179.5871         estimate D2E/DX2                !
 ! D64   D(18,14,15,20)         -0.1161         estimate D2E/DX2                !
 ! D65   D(14,15,16,17)         -1.0083         estimate D2E/DX2                !
 ! D66   D(14,15,16,19)        179.0218         estimate D2E/DX2                !
 ! D67   D(20,15,16,17)        179.5029         estimate D2E/DX2                !
 ! D68   D(20,15,16,19)         -0.467          estimate D2E/DX2                !
 ! D69   D(14,15,20,46)          2.3174         estimate D2E/DX2                !
 ! D70   D(14,15,20,50)        122.844          estimate D2E/DX2                !
 ! D71   D(14,15,20,54)       -118.2593         estimate D2E/DX2                !
 ! D72   D(16,15,20,46)       -178.2143         estimate D2E/DX2                !
 ! D73   D(16,15,20,50)        -57.6877         estimate D2E/DX2                !
 ! D74   D(16,15,20,54)         61.209          estimate D2E/DX2                !
 ! D75   D(15,16,17,12)          0.3778         estimate D2E/DX2                !
 ! D76   D(15,16,17,21)       -179.5246         estimate D2E/DX2                !
 ! D77   D(19,16,17,12)       -179.6527         estimate D2E/DX2                !
 ! D78   D(19,16,17,21)          0.4449         estimate D2E/DX2                !
 ! D79   D(12,17,21,58)        -59.5766         estimate D2E/DX2                !
 ! D80   D(12,17,21,62)       -179.0685         estimate D2E/DX2                !
 ! D81   D(12,17,21,66)         61.1568         estimate D2E/DX2                !
 ! D82   D(16,17,21,58)        120.3242         estimate D2E/DX2                !
 ! D83   D(16,17,21,62)          0.8323         estimate D2E/DX2                !
 ! D84   D(16,17,21,66)       -118.9424         estimate D2E/DX2                !
 ! D85   D(15,20,46,47)        -61.9006         estimate D2E/DX2                !
 ! D86   D(15,20,46,48)         59.8817         estimate D2E/DX2                !
 ! D87   D(15,20,46,49)        179.0105         estimate D2E/DX2                !
 ! D88   D(50,20,46,47)        177.3352         estimate D2E/DX2                !
 ! D89   D(50,20,46,48)        -60.8825         estimate D2E/DX2                !
 ! D90   D(50,20,46,49)         58.2463         estimate D2E/DX2                !
 ! D91   D(54,20,46,47)         58.4574         estimate D2E/DX2                !
 ! D92   D(54,20,46,48)       -179.7604         estimate D2E/DX2                !
 ! D93   D(54,20,46,49)        -60.6315         estimate D2E/DX2                !
 ! D94   D(15,20,50,51)         57.6766         estimate D2E/DX2                !
 ! D95   D(15,20,50,52)        177.2945         estimate D2E/DX2                !
 ! D96   D(15,20,50,53)        -63.2951         estimate D2E/DX2                !
 ! D97   D(46,20,50,51)       -179.4188         estimate D2E/DX2                !
 ! D98   D(46,20,50,52)        -59.8009         estimate D2E/DX2                !
 ! D99   D(46,20,50,53)         59.6095         estimate D2E/DX2                !
 ! D100  D(54,20,50,51)        -60.7624         estimate D2E/DX2                !
 ! D101  D(54,20,50,52)         58.8555         estimate D2E/DX2                !
 ! D102  D(54,20,50,53)        178.2659         estimate D2E/DX2                !
 ! D103  D(15,20,54,55)        179.8973         estimate D2E/DX2                !
 ! D104  D(15,20,54,56)        -60.5443         estimate D2E/DX2                !
 ! D105  D(15,20,54,57)         60.2217         estimate D2E/DX2                !
 ! D106  D(46,20,54,55)         57.1071         estimate D2E/DX2                !
 ! D107  D(46,20,54,56)        176.6655         estimate D2E/DX2                !
 ! D108  D(46,20,54,57)        -62.5685         estimate D2E/DX2                !
 ! D109  D(50,20,54,55)        -61.3592         estimate D2E/DX2                !
 ! D110  D(50,20,54,56)         58.1992         estimate D2E/DX2                !
 ! D111  D(50,20,54,57)        178.9652         estimate D2E/DX2                !
 ! D112  D(17,21,58,59)         62.2872         estimate D2E/DX2                !
 ! D113  D(17,21,58,60)       -177.4618         estimate D2E/DX2                !
 ! D114  D(17,21,58,61)        -58.6057         estimate D2E/DX2                !
 ! D115  D(62,21,58,59)       -175.8801         estimate D2E/DX2                !
 ! D116  D(62,21,58,60)        -55.6291         estimate D2E/DX2                !
 ! D117  D(62,21,58,61)         63.2271         estimate D2E/DX2                !
 ! D118  D(66,21,58,59)        -58.1904         estimate D2E/DX2                !
 ! D119  D(66,21,58,60)         62.0606         estimate D2E/DX2                !
 ! D120  D(66,21,58,61)       -179.0832         estimate D2E/DX2                !
 ! D121  D(17,21,62,63)        -60.9634         estimate D2E/DX2                !
 ! D122  D(17,21,62,64)         60.7739         estimate D2E/DX2                !
 ! D123  D(17,21,62,65)        179.9503         estimate D2E/DX2                !
 ! D124  D(58,21,62,63)        178.5152         estimate D2E/DX2                !
 ! D125  D(58,21,62,64)        -59.7476         estimate D2E/DX2                !
 ! D126  D(58,21,62,65)         59.4288         estimate D2E/DX2                !
 ! D127  D(66,21,62,63)         59.6439         estimate D2E/DX2                !
 ! D128  D(66,21,62,64)       -178.6188         estimate D2E/DX2                !
 ! D129  D(66,21,62,65)        -59.4424         estimate D2E/DX2                !
 ! D130  D(17,21,66,67)       -178.3818         estimate D2E/DX2                !
 ! D131  D(17,21,66,68)        -58.2568         estimate D2E/DX2                !
 ! D132  D(17,21,66,69)         62.7821         estimate D2E/DX2                !
 ! D133  D(58,21,66,67)        -57.8622         estimate D2E/DX2                !
 ! D134  D(58,21,66,68)         62.2628         estimate D2E/DX2                !
 ! D135  D(58,21,66,69)       -176.6982         estimate D2E/DX2                !
 ! D136  D(62,21,66,67)         59.6642         estimate D2E/DX2                !
 ! D137  D(62,21,66,68)        179.7892         estimate D2E/DX2                !
 ! D138  D(62,21,66,69)        -59.1719         estimate D2E/DX2                !
 ! D139  D(6,24,26,27)         177.5344         estimate D2E/DX2                !
 ! D140  D(25,24,26,27)         -1.9331         estimate D2E/DX2                !
 ! D141  D(24,26,27,28)        -68.8697         estimate D2E/DX2                !
 ! D142  D(24,26,27,29)         55.9604         estimate D2E/DX2                !
 ! D143  D(24,26,27,30)        174.1182         estimate D2E/DX2                !
 ! D144  D(26,27,28,31)       -178.1608         estimate D2E/DX2                !
 ! D145  D(26,27,28,32)         61.3278         estimate D2E/DX2                !
 ! D146  D(26,27,28,33)        -55.2476         estimate D2E/DX2                !
 ! D147  D(29,27,28,31)         56.0718         estimate D2E/DX2                !
 ! D148  D(29,27,28,32)        -64.4396         estimate D2E/DX2                !
 ! D149  D(29,27,28,33)        178.9851         estimate D2E/DX2                !
 ! D150  D(30,27,28,31)        -62.8941         estimate D2E/DX2                !
 ! D151  D(30,27,28,32)        176.5945         estimate D2E/DX2                !
 ! D152  D(30,27,28,33)         60.0192         estimate D2E/DX2                !
 ! D153  D(26,27,29,34)        179.0323         estimate D2E/DX2                !
 ! D154  D(26,27,29,35)        -60.7038         estimate D2E/DX2                !
 ! D155  D(26,27,29,36)         56.4422         estimate D2E/DX2                !
 ! D156  D(28,27,29,34)        -56.3901         estimate D2E/DX2                !
 ! D157  D(28,27,29,35)         63.8738         estimate D2E/DX2                !
 ! D158  D(28,27,29,36)       -178.9802         estimate D2E/DX2                !
 ! D159  D(30,27,29,34)         62.5551         estimate D2E/DX2                !
 ! D160  D(30,27,29,35)       -177.181          estimate D2E/DX2                !
 ! D161  D(30,27,29,36)        -60.035          estimate D2E/DX2                !
 ! D162  D(27,28,31,37)        -55.4205         estimate D2E/DX2                !
 ! D163  D(27,28,31,38)       -178.2061         estimate D2E/DX2                !
 ! D164  D(27,28,31,39)         65.1597         estimate D2E/DX2                !
 ! D165  D(32,28,31,37)         64.1061         estimate D2E/DX2                !
 ! D166  D(32,28,31,38)        -58.6795         estimate D2E/DX2                !
 ! D167  D(32,28,31,39)       -175.3137         estimate D2E/DX2                !
 ! D168  D(33,28,31,37)       -177.4802         estimate D2E/DX2                !
 ! D169  D(33,28,31,38)         59.7341         estimate D2E/DX2                !
 ! D170  D(33,28,31,39)        -56.9001         estimate D2E/DX2                !
 ! D171  D(27,29,34,37)         56.2157         estimate D2E/DX2                !
 ! D172  D(27,29,34,40)        179.0202         estimate D2E/DX2                !
 ! D173  D(27,29,34,41)        -64.3818         estimate D2E/DX2                !
 ! D174  D(35,29,34,37)        -63.8935         estimate D2E/DX2                !
 ! D175  D(35,29,34,40)         58.911          estimate D2E/DX2                !
 ! D176  D(35,29,34,41)        175.509          estimate D2E/DX2                !
 ! D177  D(36,29,34,37)        177.9584         estimate D2E/DX2                !
 ! D178  D(36,29,34,40)        -59.2371         estimate D2E/DX2                !
 ! D179  D(36,29,34,41)         57.3609         estimate D2E/DX2                !
 ! D180  D(28,31,37,34)         55.1079         estimate D2E/DX2                !
 ! D181  D(28,31,37,42)        177.4596         estimate D2E/DX2                !
 ! D182  D(28,31,37,43)        -65.4277         estimate D2E/DX2                !
 ! D183  D(38,31,37,34)        177.3672         estimate D2E/DX2                !
 ! D184  D(38,31,37,42)        -60.2811         estimate D2E/DX2                !
 ! D185  D(38,31,37,43)         56.8316         estimate D2E/DX2                !
 ! D186  D(39,31,37,34)        -65.4992         estimate D2E/DX2                !
 ! D187  D(39,31,37,42)         56.8525         estimate D2E/DX2                !
 ! D188  D(39,31,37,43)        173.9652         estimate D2E/DX2                !
 ! D189  D(29,34,37,31)        -55.5516         estimate D2E/DX2                !
 ! D190  D(29,34,37,42)       -177.8746         estimate D2E/DX2                !
 ! D191  D(29,34,37,43)         65.0283         estimate D2E/DX2                !
 ! D192  D(40,34,37,31)       -177.8736         estimate D2E/DX2                !
 ! D193  D(40,34,37,42)         59.8033         estimate D2E/DX2                !
 ! D194  D(40,34,37,43)        -57.2938         estimate D2E/DX2                !
 ! D195  D(41,34,37,31)         65.0148         estimate D2E/DX2                !
 ! D196  D(41,34,37,42)        -57.3083         estimate D2E/DX2                !
 ! D197  D(41,34,37,43)       -174.4054         estimate D2E/DX2                !
 --------------------------------------------------------------------------------
 Trust Radius=3.00D-01 FncErr=1.00D-07 GrdErr=1.00D-07 EigMax=2.50D+02 EigMin=1.00D-04
 Number of steps in this run=    412 maximum allowed number of steps=    414.
 GradGradGradGradGradGradGradGradGradGradGradGradGradGradGradGradGradGrad

 Leave Link  103 at Fri Dec 21 18:12:08 2018, MaxMem=  1342177280 cpu:               0.7 elap:               0.1
 (Enter /gpfs/apps/hpc/Apps/Restricted/Gaussian/Rev_A.03/g16/l202.exe)
 Symmetry turned off by external request.
 Stoichiometry    C28H37N3O(1+,2)
 Framework group  C1[X(C28H37N3O)]
 Deg. of freedom   201
 Full point group                 C1      NOp   1
                          Input orientation:                          
 ---------------------------------------------------------------------
 Center     Atomic      Atomic             Coordinates (Angstroms)
 Number     Number       Type             X           Y           Z
 ---------------------------------------------------------------------
      1          6           0       -0.580274    3.014188    0.382035
      2          6           0       -1.970516    3.152743    0.292349
      3          6           0       -2.540783    4.425858    0.199023
      4          6           0       -1.659162    5.509930    0.201107
      5          6           0       -0.259562    5.359421    0.286104
      6          6           0        0.315730    4.090631    0.377245
      7          6           0       -1.397498    0.988469    0.394211
      8          1           0       -3.610356    4.570535    0.123207
      9          1           0       -2.068396    6.510200    0.130520
     10          1           0        0.374480    6.237932    0.272629
     11          7           0       -2.444642    1.853894    0.306244
     12          6           0       -2.834483   -1.079962    0.291623
     13          6           0       -1.513056   -0.450932    0.418412
     14          6           0       -0.369626   -1.220750    0.554325
     15          6           0       -0.438255   -2.621584    0.561101
     16          6           0       -1.709214   -3.240017    0.415214
     17          6           0       -2.890843   -2.548056    0.286216
     18          1           0        0.586265   -0.726505    0.656937
     19          1           0       -1.737050   -4.320326    0.406939
     20          6           0        0.798239   -3.497613    0.706909
     21          6           0       -4.237188   -3.253380    0.142189
     22          8           0       -3.868846   -0.372232    0.192569
     23          7           0       -0.246569    1.688465    0.445025
     24          6           0        1.734172    3.768781    0.431323
     25          1           0        2.463730    4.577569    0.421422
     26          7           0        2.086541    2.527431    0.479480
     27          6           0        3.500339    2.126837    0.481900
     28          6           0        4.147493    2.422894   -0.881709
     29          6           0        4.297808    2.777225    1.622656
     30          1           0        3.498592    1.043162    0.635197
     31          6           0        5.609371    1.966953   -0.903802
     32          1           0        4.092212    3.503704   -1.059146
     33          1           0        3.572386    1.934939   -1.673395
     34          6           0        5.756744    2.310042    1.595927
     35          1           0        4.263782    3.866622    1.507337
     36          1           0        3.827760    2.536678    2.580029
     37          6           0        6.411383    2.596885    0.240065
     38          1           0        6.057669    2.215789   -1.869894
     39          1           0        5.646883    0.874947   -0.809312
     40          1           0        6.314647    2.794659    2.402411
     41          1           0        5.792024    1.231258    1.791783
     42          1           0        7.439113    2.221948    0.230356
     43          1           0        6.466720    3.681992    0.088668
     44          1           0       -3.395166    1.495124    0.246009
     45          1           0        0.969743    1.701293    0.474495
     46          6           0        2.080667   -2.676831    0.898068
     47          1           0        2.284827   -2.035155    0.036753
     48          1           0        2.029288   -2.050771    1.792246
     49          1           0        2.925538   -3.358749    1.013762
     50          6           0        0.618200   -4.422373    1.931002
     51          1           0       -0.277349   -5.040240    1.844336
     52          1           0        1.481929   -5.086709    2.011689
     53          1           0        0.544980   -3.838102    2.851223
     54          6           0        0.941454   -4.360686   -0.567123
     55          1           0        1.826635   -4.995762   -0.480583
     56          1           0        0.073608   -5.007427   -0.712063
     57          1           0        1.052177   -3.730966   -1.452836
     58          6           0       -5.166984   -2.838680    1.304821
     59          1           0       -5.370819   -1.769713    1.284375
     60          1           0       -6.112160   -3.381480    1.220718
     61          1           0       -4.712621   -3.091933    2.266549
     62          6           0       -4.085465   -4.781287    0.182445
     63          1           0       -3.457460   -5.150582   -0.632502
     64          1           0       -3.656246   -5.119178    1.129599
     65          1           0       -5.072431   -5.236834    0.076846
     66          6           0       -4.879609   -2.869713   -1.209573
     67          1           0       -5.856250   -3.353578   -1.296748
     68          1           0       -5.015380   -1.792431   -1.292771
     69          1           0       -4.257454   -3.210798   -2.041361
 ---------------------------------------------------------------------
 Rotational constants (GHZ):           0.1731216           0.0820167           0.0585027
 Leave Link  202 at Fri Dec 21 18:12:08 2018, MaxMem=  1342177280 cpu:               0.5 elap:               0.1
 (Enter /gpfs/apps/hpc/Apps/Restricted/Gaussian/Rev_A.03/g16/l716.exe)
 Electric field and nuclear coordinate derivatives read from checkpoint file.
 Dipole        = 9.15822403D-01 2.37540652D+00 7.74562495D-01
 Polarizability= 5.63079324D+02 3.31986650D+00 7.13676884D+02
                 1.88596604D+01-1.11438823D+01 2.65210359D+02
 Full mass-weighted force constant matrix:
 Low frequencies ----1387.9990   -9.9749   -0.0028   -0.0008    0.0031    7.6076
 Low frequencies ---   13.1805   27.4743   32.6174
 ******    1 imaginary frequencies (negative Signs) ****** 
 Diagonal vibrational polarizability:
       79.8370853      74.3488567      69.6581476
 Harmonic frequencies (cm**-1), IR intensities (KM/Mole), Raman scattering
 activities (A**4/AMU), depolarization ratios for plane and unpolarized
 incident light, reduced masses (AMU), force constants (mDyne/A),
 and normal coordinates:
                      1                      2                      3
                      A                      A                      A
 Frequencies --  -1387.9990                22.9893                30.4670
 Red. masses --      1.0435                 4.1007                 4.0228
 Frc consts  --      1.1845                 0.0013                 0.0022
 IR Inten    --   4730.0347                 0.3593                 0.6560
  Atom  AN      X      Y      Z        X      Y      Z        X      Y      Z
     1   6    -0.00  -0.02   0.00     0.03  -0.03  -0.03    -0.02   0.02  -0.04
     2   6    -0.01  -0.00  -0.00     0.03  -0.03  -0.02    -0.02   0.02  -0.03
     3   6     0.00  -0.00   0.00     0.02  -0.03  -0.02    -0.01   0.02  -0.05
     4   6     0.00   0.00   0.00     0.02  -0.03  -0.05    -0.00   0.02  -0.08
     5   6    -0.00   0.00  -0.00     0.02  -0.03  -0.06    -0.00   0.01  -0.09
     6   6     0.00  -0.00   0.00     0.02  -0.03  -0.05    -0.01   0.01  -0.07
     7   6     0.00   0.02   0.00     0.02  -0.03   0.00    -0.02   0.02   0.00
     8   1     0.00   0.00  -0.00     0.02  -0.03  -0.01    -0.01   0.03  -0.04
     9   1     0.00   0.00   0.00     0.02  -0.03  -0.05    -0.00   0.02  -0.10
    10   1    -0.00   0.00  -0.00     0.03  -0.03  -0.08    -0.00   0.01  -0.12
    11   7    -0.01   0.01  -0.00     0.02  -0.03   0.00    -0.02   0.02  -0.00
    12   6     0.00  -0.00   0.00    -0.01  -0.01   0.03    -0.01   0.01   0.05
    13   6    -0.00   0.00  -0.00     0.00  -0.03   0.00    -0.01   0.02   0.02
    14   6    -0.00  -0.00   0.00    -0.01  -0.05  -0.03     0.00   0.03  -0.01
    15   6    -0.00   0.00   0.00    -0.03  -0.05  -0.03     0.02   0.03  -0.03
    16   6    -0.00  -0.00  -0.00    -0.04  -0.03  -0.01     0.03   0.02  -0.01
    17   6     0.00   0.00   0.00    -0.03  -0.01   0.02     0.01   0.00   0.04
    18   1    -0.01   0.01  -0.00     0.01  -0.06  -0.05    -0.00   0.05  -0.04
    19   1    -0.00  -0.00  -0.00    -0.06  -0.02  -0.02     0.04   0.02  -0.03
    20   6    -0.00  -0.00  -0.00    -0.04  -0.07  -0.06     0.04   0.05  -0.09
    21   6     0.00   0.00   0.00    -0.05   0.02   0.05     0.02  -0.01   0.07
    22   8    -0.00  -0.00  -0.00    -0.00   0.01   0.05    -0.02  -0.01   0.09
    23   7     0.01  -0.02   0.00     0.03  -0.03  -0.02    -0.02   0.02  -0.02
    24   6    -0.02   0.01  -0.00     0.02  -0.02  -0.05    -0.01   0.00  -0.07
    25   1     0.02  -0.04   0.00     0.01  -0.02  -0.08    -0.00  -0.01  -0.08
    26   7    -0.03  -0.02   0.00     0.03  -0.02  -0.02    -0.02   0.00  -0.04
    27   6     0.00  -0.01  -0.00     0.05   0.01   0.01    -0.03  -0.02  -0.01
    28   6    -0.00  -0.00  -0.00     0.07   0.04   0.03     0.04   0.01   0.03
    29   6    -0.00  -0.00   0.00    -0.01   0.04   0.04    -0.07  -0.08   0.05
    30   1    -0.01  -0.01   0.00     0.07   0.01   0.01    -0.06  -0.03  -0.04
    31   6    -0.00  -0.00   0.00     0.11   0.16   0.07     0.02  -0.05   0.09
    32   1    -0.00  -0.00   0.00    -0.02   0.03   0.00     0.10   0.02   0.08
    33   1     0.00  -0.00  -0.00     0.14  -0.03   0.02     0.06   0.07  -0.01
    34   6    -0.00  -0.00  -0.00     0.02   0.16   0.07    -0.09  -0.14   0.11
    35   1     0.00  -0.00  -0.00    -0.08   0.04   0.05    -0.02  -0.07   0.07
    36   1    -0.00  -0.00   0.00    -0.02   0.01   0.02    -0.12  -0.08   0.02
    37   6    -0.00   0.00  -0.00     0.03   0.23   0.09    -0.01  -0.13   0.15
    38   1    -0.00   0.00   0.00     0.12   0.19   0.08     0.08  -0.04   0.12
    39   1    -0.00   0.00  -0.00     0.20   0.17   0.08    -0.04  -0.06   0.05
    40   1    -0.01   0.00  -0.00    -0.04   0.20   0.09    -0.10  -0.18   0.15
    41   1    -0.00   0.00   0.00     0.11   0.16   0.06    -0.15  -0.14   0.08
    42   1    -0.00  -0.00   0.00     0.06   0.32   0.11    -0.02  -0.18   0.19
    43   1     0.00  -0.00   0.00    -0.07   0.24   0.10     0.06  -0.13   0.18
    44   1    -0.01   0.02  -0.00     0.02  -0.03   0.02    -0.03   0.03   0.02
    45   1     0.86   0.51   0.00     0.04  -0.03  -0.01    -0.03   0.01  -0.02
    46   6     0.00  -0.00  -0.00    -0.02  -0.10  -0.08     0.03   0.07  -0.07
    47   1    -0.00   0.00   0.00    -0.03  -0.10  -0.08    -0.00   0.11  -0.05
    48   1    -0.00  -0.00  -0.00     0.00  -0.10  -0.08     0.03   0.02  -0.04
    49   1     0.00  -0.00  -0.00    -0.04  -0.11  -0.10     0.04   0.08  -0.12
    50   6     0.00  -0.00  -0.00    -0.04  -0.08  -0.07     0.08  -0.01  -0.12
    51   1    -0.00   0.00  -0.00    -0.05  -0.06  -0.05     0.09  -0.02  -0.12
    52   1    -0.00  -0.00   0.00    -0.05  -0.09  -0.09     0.10   0.00  -0.17
    53   1    -0.00   0.00  -0.00    -0.01  -0.08  -0.06     0.10  -0.05  -0.10
    54   6     0.00  -0.00   0.00    -0.08  -0.06  -0.07     0.03   0.11  -0.13
    55   1     0.00  -0.00  -0.00    -0.09  -0.08  -0.09     0.06   0.14  -0.18
    56   1    -0.00   0.00   0.00    -0.10  -0.05  -0.06     0.05   0.09  -0.13
    57   1    -0.00   0.00   0.00    -0.08  -0.06  -0.07    -0.02   0.16  -0.10
    58   6    -0.00  -0.00  -0.00    -0.02   0.03   0.07     0.05  -0.04   0.10
    59   1     0.00   0.00  -0.00    -0.01   0.03   0.07     0.03  -0.05   0.12
    60   1    -0.00   0.00   0.00    -0.03   0.04   0.10     0.06  -0.06   0.14
    61   1     0.00  -0.00  -0.00     0.00   0.03   0.06     0.09  -0.04   0.09
    62   6    -0.00   0.00  -0.00    -0.07   0.01   0.05     0.04  -0.01   0.04
    63   1     0.00   0.00   0.00    -0.10   0.01   0.03     0.02   0.01   0.02
    64   1     0.00   0.00  -0.00    -0.05   0.01   0.04     0.09  -0.02   0.02
    65   1    -0.00  -0.00   0.00    -0.08   0.03   0.07     0.05  -0.03   0.08
    66   6    -0.00  -0.00   0.00    -0.07   0.03   0.06    -0.03  -0.01   0.09
    67   1    -0.00   0.00  -0.00    -0.08   0.04   0.09    -0.03  -0.01   0.12
    68   1     0.00  -0.00   0.00    -0.06   0.03   0.07    -0.04  -0.01   0.11
    69   1     0.00  -0.00   0.00    -0.09   0.02   0.05    -0.06   0.00   0.07
                      4                      5                      6
                      A                      A                      A
 Frequencies --     39.1674                48.7558                60.6569
 Red. masses --      3.4522                 3.6895                 3.4807
 Frc consts  --      0.0031                 0.0052                 0.0075
 IR Inten    --      0.1276                 0.2852                 0.7649
  Atom  AN      X      Y      Z        X      Y      Z        X      Y      Z
     1   6     0.00  -0.01   0.00     0.00   0.00   0.03     0.00   0.00  -0.01
     2   6     0.00  -0.00   0.03     0.01   0.00  -0.06     0.00  -0.01  -0.01
     3   6     0.00  -0.00   0.01     0.02   0.00  -0.14    -0.01  -0.01   0.04
     4   6     0.01  -0.01  -0.04     0.02  -0.00  -0.12    -0.03  -0.00   0.08
     5   6     0.01  -0.01  -0.07     0.02  -0.00  -0.03    -0.03   0.01   0.08
     6   6     0.01  -0.01  -0.05     0.01  -0.00   0.05    -0.01   0.01   0.03
     7   6    -0.00  -0.00   0.07    -0.01   0.00   0.02     0.02  -0.01  -0.07
     8   1     0.00  -0.00   0.03     0.02   0.01  -0.21    -0.02  -0.02   0.04
     9   1     0.01  -0.01  -0.06     0.03  -0.00  -0.18    -0.04  -0.00   0.12
    10   1     0.01  -0.01  -0.12     0.02  -0.01  -0.03    -0.04   0.02   0.12
    11   7    -0.00  -0.00   0.07     0.00   0.01  -0.06     0.01  -0.01  -0.05
    12   6    -0.01   0.00   0.06    -0.00   0.00   0.01     0.02  -0.00  -0.07
    13   6    -0.01  -0.00   0.09    -0.01   0.00   0.02     0.02  -0.01  -0.06
    14   6    -0.01  -0.00   0.11    -0.01   0.01   0.02     0.01  -0.01  -0.02
    15   6    -0.01  -0.01   0.08    -0.00   0.00   0.00    -0.00  -0.01   0.02
    16   6    -0.01  -0.00   0.02    -0.00   0.00   0.00    -0.01  -0.00   0.03
    17   6    -0.00   0.00   0.01    -0.00   0.00   0.01    -0.00   0.00   0.01
    18   1    -0.01  -0.01   0.15    -0.01   0.01   0.02     0.01  -0.02  -0.01
    19   1    -0.01  -0.00  -0.03     0.00   0.00  -0.01    -0.02  -0.00   0.06
    20   6    -0.01  -0.01   0.06     0.01   0.01  -0.04    -0.01  -0.03   0.01
    21   6     0.00   0.00  -0.06    -0.00  -0.00   0.02    -0.01   0.01   0.06
    22   8    -0.01   0.00   0.07    -0.00   0.00  -0.01     0.03   0.00  -0.16
    23   7     0.00  -0.01   0.03    -0.01   0.00   0.08     0.01   0.00  -0.05
    24   6     0.01  -0.01  -0.08     0.00  -0.01   0.11    -0.01   0.03   0.02
    25   1     0.01  -0.02  -0.13     0.00  -0.01   0.11    -0.01   0.03   0.06
    26   7     0.01  -0.01  -0.05    -0.00  -0.01   0.15     0.00   0.03  -0.03
    27   6     0.01  -0.00  -0.05    -0.00  -0.02   0.13     0.00   0.03  -0.03
    28   6     0.02   0.03  -0.04    -0.09  -0.13   0.06     0.02   0.07  -0.02
    29   6    -0.01  -0.02  -0.03     0.06   0.07   0.03    -0.00  -0.00  -0.01
    30   1     0.01  -0.01  -0.08    -0.00  -0.00   0.22     0.00   0.03  -0.07
    31   6     0.02   0.05  -0.04    -0.08  -0.09   0.00     0.01   0.03  -0.01
    32   1     0.01   0.04  -0.02    -0.13  -0.15  -0.03     0.06   0.08   0.03
    33   1     0.03   0.05  -0.06    -0.14  -0.21   0.15     0.02   0.12  -0.04
    34   6    -0.00  -0.00  -0.03     0.07   0.10  -0.04    -0.02  -0.04   0.00
    35   1    -0.02  -0.02  -0.01     0.04   0.06  -0.03     0.02   0.00   0.01
    36   1    -0.02  -0.05  -0.04     0.13   0.12   0.08    -0.02  -0.01  -0.02
    37   6     0.01   0.03  -0.02    -0.03   0.02  -0.10     0.01  -0.03   0.02
    38   1     0.03   0.06  -0.03    -0.16  -0.15  -0.05     0.03   0.04   0.00
    39   1     0.03   0.05  -0.05    -0.04  -0.08   0.08    -0.03   0.02  -0.04
    40   1    -0.02  -0.01  -0.01     0.12   0.17  -0.11    -0.01  -0.07   0.02
    41   1     0.01  -0.01  -0.05     0.12   0.12   0.04    -0.05  -0.04  -0.02
    42   1     0.01   0.04  -0.02    -0.01   0.06  -0.14     0.00  -0.07   0.03
    43   1    -0.01   0.04   0.01    -0.07   0.02  -0.19     0.06  -0.03   0.05
    44   1    -0.00  -0.00   0.09     0.00   0.01  -0.09     0.02  -0.02  -0.07
    45   1     0.00  -0.01   0.00    -0.01  -0.00   0.12     0.01   0.01  -0.06
    46   6    -0.03  -0.02   0.21    -0.00   0.01   0.01    -0.02  -0.04   0.13
    47   1     0.02   0.06   0.28     0.00   0.06   0.05     0.03   0.02   0.18
    48   1    -0.09  -0.10   0.26    -0.02  -0.04   0.05    -0.07  -0.10   0.17
    49   1    -0.03  -0.02   0.20     0.00   0.01  -0.02    -0.03  -0.05   0.13
    50   6    -0.05  -0.15  -0.05     0.02  -0.08  -0.11    -0.04  -0.13  -0.08
    51   1    -0.05  -0.14  -0.14     0.02  -0.08  -0.14    -0.04  -0.13  -0.13
    52   1    -0.05  -0.16  -0.10     0.02  -0.08  -0.16    -0.04  -0.14  -0.12
    53   1    -0.07  -0.25   0.01     0.03  -0.14  -0.07    -0.05  -0.21  -0.03
    54   6     0.06   0.14  -0.04     0.02   0.10  -0.11     0.03   0.10  -0.07
    55   1     0.05   0.14  -0.07     0.03   0.11  -0.16     0.01   0.07  -0.09
    56   1     0.06   0.16  -0.17     0.02   0.10  -0.15     0.02   0.13  -0.18
    57   1     0.10   0.26   0.05     0.00   0.17  -0.06     0.09   0.19   0.00
    58   6    -0.02  -0.06  -0.05     0.00   0.01   0.02    -0.02   0.12   0.01
    59   1    -0.02  -0.05   0.01     0.00   0.01   0.01    -0.01   0.12  -0.10
    60   1    -0.03  -0.05  -0.11     0.00   0.00   0.04    -0.02   0.13   0.05
    61   1    -0.05  -0.12  -0.06     0.01   0.02   0.03    -0.03   0.21   0.04
    62   6     0.00   0.00  -0.13     0.00  -0.00   0.04    -0.02   0.01   0.20
    63   1     0.03   0.05  -0.13    -0.00  -0.01   0.03    -0.03  -0.07   0.23
    64   1    -0.03  -0.05  -0.14     0.02   0.01   0.03    -0.01   0.10   0.23
    65   1     0.01   0.01  -0.19     0.00  -0.01   0.05    -0.02   0.00   0.26
    66   6     0.03   0.07  -0.05    -0.01  -0.02   0.02     0.01  -0.11   0.02
    67   1     0.03   0.08  -0.09    -0.01  -0.02   0.03     0.01  -0.12   0.04
    68   1     0.03   0.08  -0.00    -0.01  -0.02   0.02     0.00  -0.12  -0.07
    69   1     0.04   0.11  -0.05    -0.01  -0.02   0.02     0.03  -0.17   0.05
                      7                      8                      9
                      A                      A                      A
 Frequencies --     73.7522                75.4296                80.2988
 Red. masses --      3.3067                 3.8188                 3.2343
 Frc consts  --      0.0106                 0.0128                 0.0123
 IR Inten    --      0.3453                 0.4682                 0.3700
  Atom  AN      X      Y      Z        X      Y      Z        X      Y      Z
     1   6     0.00   0.00   0.06     0.00  -0.02  -0.00     0.01  -0.01   0.02
     2   6     0.00  -0.00   0.01     0.00   0.03   0.02     0.01   0.01  -0.05
     3   6     0.00  -0.01  -0.08     0.05   0.05   0.06     0.03   0.01  -0.08
     4   6     0.00  -0.01  -0.12     0.09   0.02   0.06     0.04   0.00  -0.04
     5   6     0.00  -0.00  -0.07     0.09  -0.03   0.02     0.04  -0.01   0.03
     6   6     0.00   0.00   0.02     0.04  -0.05  -0.01     0.02  -0.02   0.05
     7   6     0.00  -0.00   0.08    -0.06   0.01  -0.00    -0.01  -0.00  -0.04
     8   1     0.01  -0.02  -0.13     0.06   0.10   0.08     0.04   0.02  -0.14
     9   1     0.00  -0.01  -0.19     0.13   0.04   0.09     0.06   0.01  -0.06
    10   1     0.00  -0.00  -0.12     0.12  -0.05   0.03     0.05  -0.02   0.05
    11   7     0.01  -0.00   0.03    -0.04   0.04   0.02     0.00   0.01  -0.09
    12   6     0.01   0.00   0.02    -0.05  -0.00  -0.02    -0.01  -0.01  -0.03
    13   6     0.01  -0.00   0.07    -0.07   0.02   0.00    -0.02  -0.00  -0.05
    14   6     0.00  -0.01   0.07    -0.05   0.04   0.02    -0.01   0.00  -0.05
    15   6     0.00  -0.01   0.04    -0.02   0.04   0.03    -0.01   0.01  -0.04
    16   6    -0.00  -0.00   0.05    -0.01   0.02   0.04    -0.00  -0.00  -0.06
    17   6     0.00   0.00   0.04    -0.02  -0.01   0.01    -0.01  -0.01  -0.04
    18   1     0.00  -0.01   0.08    -0.07   0.06   0.03    -0.02   0.01  -0.04
    19   1    -0.01  -0.00   0.06     0.01   0.02   0.05     0.01  -0.00  -0.06
    20   6    -0.00  -0.02  -0.02     0.01   0.09   0.00    -0.00   0.02   0.03
    21   6     0.00   0.01  -0.01    -0.00  -0.04  -0.00    -0.01  -0.01   0.01
    22   8     0.02   0.01  -0.04    -0.05  -0.01  -0.07    -0.02  -0.01  -0.00
    23   7     0.00   0.00   0.12    -0.04  -0.03  -0.02    -0.01  -0.01   0.02
    24   6     0.00   0.00   0.01     0.03  -0.11  -0.03     0.01  -0.04   0.07
    25   1     0.01  -0.01  -0.07     0.05  -0.13  -0.05     0.03  -0.05   0.05
    26   7    -0.00   0.00   0.06    -0.00  -0.12  -0.03     0.00  -0.04   0.07
    27   6    -0.00   0.01  -0.01     0.00  -0.12  -0.02     0.00  -0.03   0.00
    28   6    -0.03   0.15   0.01     0.00  -0.11  -0.02    -0.03   0.12   0.02
    29   6     0.02  -0.08   0.04    -0.03  -0.10  -0.00     0.02  -0.12   0.04
    30   1     0.01  -0.00  -0.10     0.01  -0.12  -0.02     0.02  -0.04  -0.10
    31   6    -0.04   0.12  -0.06     0.05   0.05   0.00    -0.03   0.15  -0.07
    32   1    -0.01   0.17   0.13    -0.11  -0.12  -0.05    -0.06   0.14   0.13
    33   1    -0.06   0.25  -0.03     0.06  -0.19  -0.01    -0.05   0.20  -0.02
    34   6     0.01  -0.11  -0.02     0.01   0.03  -0.01     0.03  -0.10  -0.03
    35   1     0.02  -0.07   0.11    -0.10  -0.10   0.02     0.00  -0.11   0.13
    36   1     0.02  -0.14   0.03    -0.02  -0.15  -0.01     0.04  -0.20   0.03
    37   6    -0.01  -0.01  -0.01    -0.02   0.14   0.00    -0.01   0.05  -0.02
    38   1    -0.05   0.19  -0.04     0.03   0.09   0.00    -0.05   0.24  -0.05
    39   1    -0.07   0.11  -0.15     0.17   0.06   0.01    -0.01   0.14  -0.17
    40   1     0.03  -0.19   0.01    -0.04   0.07   0.01     0.04  -0.18   0.00
    41   1    -0.02  -0.13  -0.12     0.12   0.03  -0.04     0.05  -0.12  -0.15
    42   1    -0.02  -0.03  -0.06     0.03   0.27  -0.01    -0.00   0.08  -0.09
    43   1     0.02   0.00   0.08    -0.17   0.15   0.02    -0.04   0.07   0.09
    44   1     0.01  -0.01  -0.01    -0.05   0.08   0.01    -0.00   0.02  -0.10
    45   1    -0.00   0.00   0.11    -0.03  -0.07  -0.02    -0.01  -0.02   0.05
    46   6     0.02  -0.03  -0.11    -0.02   0.14  -0.02    -0.02   0.03   0.09
    47   1    -0.04  -0.03  -0.12    -0.05   0.14  -0.02     0.02   0.02   0.09
    48   1     0.10  -0.04  -0.10    -0.02   0.14  -0.02    -0.08   0.04   0.07
    49   1     0.02  -0.04  -0.18     0.01   0.17  -0.03    -0.02   0.04   0.14
    50   6     0.06  -0.01  -0.00     0.07   0.07   0.00    -0.06   0.03   0.03
    51   1     0.04   0.02   0.06     0.08   0.05   0.02    -0.04   0.01  -0.01
    52   1     0.05  -0.03  -0.05     0.09   0.09  -0.03    -0.05   0.06   0.09
    53   1     0.13   0.00  -0.00     0.08   0.06   0.01    -0.13   0.05   0.02
    54   6    -0.08  -0.04  -0.02     0.01   0.11  -0.01     0.07   0.01   0.04
    55   1    -0.05  -0.00  -0.08     0.06   0.17  -0.06     0.04  -0.03   0.12
    56   1    -0.07  -0.07   0.07     0.05   0.05   0.03     0.06   0.04  -0.02
    57   1    -0.18  -0.05  -0.04    -0.08   0.12  -0.01     0.16  -0.00   0.05
    58   6    -0.08   0.06  -0.09    -0.06  -0.01  -0.06     0.08  -0.05   0.10
    59   1    -0.05   0.07  -0.13    -0.06  -0.02  -0.10     0.05  -0.06   0.13
    60   1    -0.09   0.09  -0.16    -0.05  -0.02  -0.09     0.09  -0.08   0.19
    61   1    -0.16   0.07  -0.05    -0.10   0.01  -0.03     0.18  -0.05   0.06
    62   6    -0.01   0.01   0.07     0.03  -0.04   0.07     0.01  -0.01  -0.04
    63   1     0.02  -0.04   0.11     0.05  -0.06   0.10    -0.03   0.02  -0.09
    64   1    -0.05   0.05   0.10     0.02   0.02   0.10     0.06  -0.05  -0.08
    65   1    -0.01   0.01   0.05     0.04  -0.07   0.07     0.01  -0.02  -0.01
    66   6     0.10  -0.04  -0.07     0.04  -0.11  -0.04    -0.12   0.01   0.07
    67   1     0.11  -0.05  -0.13     0.06  -0.15  -0.07    -0.13   0.03   0.15
    68   1     0.09  -0.04  -0.10     0.01  -0.12  -0.08    -0.11   0.02   0.10
    69   1     0.17  -0.05  -0.01     0.09  -0.12  -0.00    -0.19   0.01   0.02
                     10                     11                     12
                      A                      A                      A
 Frequencies --    105.1604               127.4632               132.6124
 Red. masses --      4.2628                 3.1285                 3.8314
 Frc consts  --      0.0278                 0.0299                 0.0397
 IR Inten    --      0.3537                 1.9888                 1.4254
  Atom  AN      X      Y      Z        X      Y      Z        X      Y      Z
     1   6    -0.01   0.01   0.10     0.00   0.01  -0.02    -0.02  -0.00  -0.03
     2   6    -0.01   0.01   0.13    -0.00   0.01  -0.00    -0.02  -0.02  -0.03
     3   6    -0.01   0.00   0.06     0.00   0.02   0.00    -0.03  -0.02   0.01
     4   6    -0.00  -0.00  -0.08     0.01   0.01  -0.01    -0.03  -0.02   0.03
     5   6     0.00  -0.00  -0.13     0.01   0.01  -0.01    -0.03  -0.00   0.01
     6   6    -0.00  -0.00  -0.03     0.00   0.01  -0.01    -0.02  -0.00  -0.02
     7   6    -0.01   0.01   0.14    -0.00   0.01  -0.01     0.02  -0.01  -0.03
     8   1    -0.01   0.00   0.08     0.00   0.02   0.02    -0.03  -0.03   0.02
     9   1     0.00  -0.01  -0.15     0.01   0.01  -0.01    -0.04  -0.02   0.06
    10   1     0.01  -0.01  -0.25     0.01   0.01  -0.01    -0.04   0.00   0.03
    11   7    -0.01   0.01   0.17    -0.00   0.01   0.01     0.00  -0.02  -0.03
    12   6     0.02   0.01  -0.07    -0.00   0.01   0.09     0.08   0.01  -0.00
    13   6     0.01   0.01   0.05     0.01   0.01  -0.03     0.07  -0.01  -0.02
    14   6     0.01   0.01   0.03     0.02   0.01  -0.14     0.07  -0.01  -0.01
    15   6     0.02   0.01  -0.10     0.02   0.00  -0.12     0.06  -0.01   0.03
    16   6     0.03   0.01  -0.17     0.01   0.01  -0.07     0.04  -0.00   0.05
    17   6     0.03   0.01  -0.12     0.00   0.01   0.04     0.06   0.02   0.02
    18   1     0.00   0.01   0.13     0.03   0.00  -0.22     0.08  -0.01  -0.02
    19   1     0.03   0.01  -0.23     0.01   0.01  -0.09     0.02  -0.00   0.07
    20   6     0.01  -0.00  -0.03     0.00  -0.01  -0.04     0.06  -0.02   0.02
    21   6     0.01   0.01  -0.02     0.01  -0.00   0.02     0.02   0.10   0.01
    22   8     0.03   0.01  -0.14    -0.02   0.00   0.20     0.08   0.02  -0.01
    23   7    -0.01   0.01   0.13    -0.00   0.01  -0.02    -0.01   0.01  -0.04
    24   6    -0.00  -0.01  -0.09     0.00  -0.00   0.00    -0.02  -0.02  -0.01
    25   1     0.01  -0.02  -0.20     0.01  -0.01  -0.00    -0.01  -0.04  -0.01
    26   7    -0.01  -0.01  -0.00    -0.01  -0.00   0.02    -0.05  -0.03  -0.00
    27   6    -0.02  -0.03  -0.00    -0.01  -0.02   0.02    -0.08  -0.10   0.01
    28   6    -0.01  -0.06  -0.01    -0.03  -0.01   0.01    -0.10  -0.12  -0.00
    29   6    -0.03  -0.01  -0.01    -0.00  -0.03   0.02    -0.09  -0.13   0.03
    30   1    -0.03  -0.02   0.02    -0.02  -0.02   0.01    -0.13  -0.10   0.00
    31   6    -0.01  -0.03   0.01    -0.02   0.01  -0.01    -0.06   0.02   0.00
    32   1    -0.03  -0.06  -0.04    -0.05  -0.01   0.01    -0.19  -0.13  -0.05
    33   1    -0.00  -0.09   0.01    -0.03  -0.02   0.02    -0.06  -0.20   0.03
    34   6    -0.02   0.02   0.01    -0.00  -0.02  -0.01    -0.07  -0.05  -0.00
    35   1    -0.05  -0.01  -0.01    -0.01  -0.03   0.03    -0.14  -0.13   0.09
    36   1    -0.03  -0.01  -0.01     0.01  -0.04   0.02    -0.08  -0.20   0.02
    37   6    -0.03   0.01   0.00    -0.02   0.01  -0.01    -0.12   0.09  -0.00
    38   1    -0.01  -0.05   0.01    -0.04   0.02  -0.01    -0.08   0.05  -0.00
    39   1     0.01  -0.03   0.04    -0.01   0.01  -0.01     0.05   0.02   0.01
    40   1    -0.03   0.04   0.00     0.00  -0.02  -0.00    -0.09  -0.06   0.02
    41   1     0.00   0.02   0.02     0.01  -0.02  -0.02     0.01  -0.06  -0.08
    42   1    -0.02   0.04   0.01    -0.02   0.04  -0.03    -0.07   0.24  -0.03
    43   1    -0.05   0.01  -0.02    -0.05   0.02   0.00    -0.29   0.11   0.04
    44   1    -0.01  -0.00   0.12    -0.01   0.02   0.05     0.01  -0.04  -0.02
    45   1    -0.02  -0.00   0.08    -0.01   0.00   0.00    -0.05  -0.02  -0.02
    46   6     0.01  -0.01   0.03    -0.00  -0.03   0.05     0.07  -0.04   0.01
    47   1     0.05  -0.01   0.04     0.07  -0.03   0.06     0.07  -0.04   0.01
    48   1    -0.03  -0.02   0.03    -0.07  -0.02   0.04     0.09  -0.05   0.01
    49   1    -0.00  -0.02   0.07    -0.02  -0.03   0.12     0.06  -0.06  -0.00
    50   6    -0.08   0.04  -0.01    -0.11   0.03  -0.03     0.07  -0.04   0.01
    51   1    -0.07   0.03  -0.06    -0.07  -0.01  -0.10     0.06  -0.02   0.03
    52   1    -0.08   0.05   0.09    -0.09   0.08   0.11     0.06  -0.06  -0.03
    53   1    -0.17   0.08  -0.03    -0.25   0.07  -0.06     0.11  -0.05   0.02
    54   6     0.08  -0.05   0.01     0.10  -0.05  -0.00     0.04  -0.02   0.01
    55   1     0.01  -0.13   0.14    -0.05  -0.23   0.19     0.04  -0.01  -0.01
    56   1     0.04   0.02  -0.08    -0.00   0.13  -0.19     0.03  -0.01   0.02
    57   1     0.25  -0.09   0.01     0.42  -0.08   0.01     0.02  -0.01   0.01
    58   6     0.10   0.09   0.03    -0.10   0.02  -0.07     0.05   0.14   0.02
    59   1     0.06   0.08  -0.06    -0.08   0.02  -0.09     0.08   0.15   0.00
    60   1     0.12   0.05   0.17    -0.09   0.03  -0.17     0.03   0.17   0.04
    61   1     0.20   0.20   0.01    -0.20   0.02  -0.03     0.06   0.14   0.01
    62   6     0.01   0.02   0.07     0.02  -0.00   0.10    -0.06   0.10  -0.02
    63   1    -0.07  -0.04   0.03     0.04  -0.05   0.14    -0.06   0.09  -0.02
    64   1     0.10   0.08   0.05     0.01   0.06   0.13    -0.10   0.05  -0.02
    65   1    -0.00   0.01   0.19     0.03  -0.02   0.12    -0.08   0.15  -0.06
    66   6    -0.08  -0.06   0.01     0.13  -0.04  -0.04     0.05   0.17   0.01
    67   1    -0.10  -0.05   0.11     0.15  -0.08  -0.14     0.02   0.22  -0.00
    68   1    -0.06  -0.06  -0.05     0.10  -0.05  -0.05     0.11   0.17   0.03
    69   1    -0.15  -0.13  -0.02     0.22  -0.02   0.02     0.03   0.15   0.01
[...]
 ! R11   R(5,10)                 0.3272                 16.4                    !
 ! A7    A(2,3,4)               -0.04                    2.0                    !
 ! A9    A(4,3,8)                0.0378                  1.9                    !
 ! A10   A(3,4,5)                0.0515                  2.6                    !
 ! A11   A(3,4,9)               -0.0353                  1.8                    !
 --------------------------------------------------------------------------------
                           ----------------------------
                           ! Normal Mode   198        !
 --------------------------                            --------------------------
 ! Name  Definition              Value          Relative Weight (%)             !
 --------------------------------------------------------------------------------
 ! R20   R(13,14)               -0.0442                  2.5                    !
 ! R21   R(14,15)               -0.0453                  2.6                    !
 ! R22   R(14,18)                1.0648                 61.0                    !
 ! R26   R(16,19)               -0.1941                 11.1                    !
 ! R55   R(46,47)                0.0172                  1.0                    !
 ! A29   A(7,13,14)              0.0294                  1.7                    !
 ! A30   A(12,13,14)            -0.0275                  1.6                    !
 ! A31   A(13,14,15)             0.0562                  3.2                    !
 ! A32   A(13,14,18)            -0.0263                  1.5                    !
 ! A33   A(15,14,18)            -0.0298                  1.7                    !
 ! A34   A(14,15,16)            -0.0219                  1.3                    !
 ! A35   A(14,15,20)             0.0289                  1.7                    !
 ! A37   A(15,16,17)            -0.011                   0.6                    !
 --------------------------------------------------------------------------------
                           ----------------------------
                           ! Normal Mode   199        !
 --------------------------                            --------------------------
 ! Name  Definition              Value          Relative Weight (%)             !
 --------------------------------------------------------------------------------
 ! R7    R(3,8)                  0.0461                  2.4                    !
 ! R9    R(4,9)                  0.0111                  0.6                    !
 ! R20   R(13,14)                0.0079                  0.4                    !
 ! R21   R(14,15)                0.008                   0.4                    !
 ! R22   R(14,18)               -0.194                  10.0                    !
 ! R23   R(15,16)                0.0396                  2.0                    !
 ! R25   R(16,17)                0.0436                  2.2                    !
 ! R26   R(16,19)               -1.0615                 54.7                    !
 ! R58   R(50,51)               -0.0412                  2.1                    !
 ! R60   R(50,53)                0.0091                  0.5                    !
 ! R62   R(54,56)               -0.0431                  2.2                    !
 ! R63   R(54,57)                0.0092                  0.5                    !
 ! R67   R(62,63)               -0.0116                  0.6                    !
 ! R68   R(62,64)               -0.0076                  0.4                    !
 ! R69   R(62,65)                0.0086                  0.4                    !
 ! A31   A(13,14,15)            -0.0096                  0.5                    !
 ! A34   A(14,15,16)             0.0321                  1.7                    !
 ! A36   A(16,15,20)            -0.0282                  1.5                    !
 ! A37   A(15,16,17)            -0.0558                  2.9                    !
 ! A38   A(15,16,19)             0.0267                  1.4                    !
 ! A39   A(17,16,19)             0.0291                  1.5                    !
 ! A40   A(12,17,16)             0.0274                  1.4                    !
 ! A42   A(16,17,21)            -0.029                   1.5                    !
 --------------------------------------------------------------------------------
                           ----------------------------
                           ! Normal Mode   200        !
 --------------------------                            --------------------------
 ! Name  Definition              Value          Relative Weight (%)             !
 --------------------------------------------------------------------------------
 ! R4    R(2,3)                  0.0491                  2.7                    !
 ! R6    R(3,4)                  0.0583                  3.2                    !
 ! R7    R(3,8)                 -1.0487                 57.7                    !
 ! R9    R(4,9)                 -0.2687                 14.8                    !
 ! R11   R(5,10)                -0.0499                  2.7                    !
 ! R26   R(16,19)               -0.0462                  2.5                    !
 ! A4    A(1,2,3)                0.0261                  1.4                    !
 ! A6    A(3,2,11)              -0.0285                  1.6                    !
 ! A7    A(2,3,4)               -0.0478                  2.6                    !
 ! A8    A(2,3,8)                0.0248                  1.4                    !
 ! A9    A(4,3,8)                0.023                   1.3                    !
 ! A11   A(3,4,9)               -0.0239                  1.3                    !
 --------------------------------------------------------------------------------
                           ----------------------------
                           ! Normal Mode   201        !
 --------------------------                            --------------------------
 ! Name  Definition              Value          Relative Weight (%)             !
 --------------------------------------------------------------------------------
 ! R5    R(2,11)                 0.0481                  3.3                    !
 ! R13   R(7,11)                 0.0414                  2.9                    !
 ! R16   R(11,44)               -1.0715                 74.5                    !
 ! A5    A(1,2,11)               0.0236                  1.6                    !
 ! A6    A(3,2,11)              -0.0247                  1.7                    !
 ! A19   A(11,7,13)             -0.025                   1.7                    !
 ! A20   A(11,7,23)              0.025                   1.7                    !
 ! A22   A(2,11,7)              -0.0487                  3.4                    !
 ! A23   A(2,11,44)              0.0567                  3.9                    !
 --------------------------------------------------------------------------------
 -------------------------------------------------------------------
 Center     Atomic                   Forces (Hartrees/Bohr)
 Number     Number              X              Y              Z
 -------------------------------------------------------------------
      1        6           0.000002030    0.000000517   -0.000006547
      2        6           0.000001096    0.000000213   -0.000009875
      3        6           0.000002973    0.000000184   -0.000013029
      4        6           0.000002509    0.000001589   -0.000012912
      5        6           0.000003335   -0.000000082   -0.000009683
      6        6           0.000000828   -0.000000089   -0.000006626
      7        6          -0.000000481    0.000000782   -0.000005272
      8        1           0.000002159    0.000001362   -0.000015466
      9        1           0.000003597    0.000000231   -0.000015310
     10        1           0.000002807   -0.000000363   -0.000009828
     11        7           0.000001015    0.000001388   -0.000008726
     12        6           0.000000674    0.000000897   -0.000004743
     13        6          -0.000000189    0.000000724   -0.000003192
     14        6          -0.000001154   -0.000000272    0.000000572
     15        6          -0.000000978    0.000001408    0.000002406
     16        6          -0.000001795    0.000000573    0.000000823
     17        6          -0.000001390    0.000000814   -0.000002557
     18        1          -0.000000561    0.000000402    0.000001726
     19        1          -0.000001874    0.000001139    0.000002599
     20        6          -0.000001856   -0.000000015    0.000006683
     21        6          -0.000000488    0.000002108   -0.000004759
     22        8          -0.000000371    0.000001883   -0.000008230
     23        7           0.000000967    0.000000670   -0.000003834
     24        6           0.000002036   -0.000000672   -0.000002890
     25        1           0.000002008   -0.000000981   -0.000002854
     26        7           0.000001399   -0.000000802   -0.000000448
     27        6           0.000000537   -0.000001081    0.000003012
     28        6           0.000003882   -0.000004044    0.000004640
     29        6          -0.000001392   -0.000000278    0.000003915
     30        1          -0.000000051   -0.000001192    0.000004961
     31        6           0.000003741   -0.000004319    0.000008182
     32        1           0.000004546   -0.000003669    0.000002161
     33        1           0.000005074   -0.000004778    0.000003509
     34        6          -0.000001122   -0.000000186    0.000007055
     35        1          -0.000000546    0.000000411    0.000002120
     36        1          -0.000003447    0.000001983    0.000003290
     37        6           0.000000900   -0.000002688    0.000008842
     38        1           0.000005762   -0.000006166    0.000008261
     39        1           0.000002850   -0.000004363    0.000009592
     40        1          -0.000002860    0.000000646    0.000008200
     41        1          -0.000002437   -0.000000497    0.000009513
     42        1           0.000001697   -0.000003587    0.000011290
     43        1           0.000002285   -0.000003227    0.000006963
     44        1           0.000001403    0.000001451   -0.000010088
     45        1           0.000000648   -0.000000011   -0.000001358
     46        6          -0.000002635   -0.000000030    0.000008502
     47        1           0.000000032   -0.000001205    0.000007039
     48        1          -0.000003689    0.000001280    0.000006503
     49        1          -0.000002712   -0.000000209    0.000010746
     50        6          -0.000005036    0.000001642    0.000007020
     51        1          -0.000005026    0.000002784    0.000006752
     52        1          -0.000005629    0.000002177    0.000010422
     53        1          -0.000006857    0.000004113    0.000007030
     54        6          -0.000000001   -0.000001587    0.000008543
     55        1          -0.000000168   -0.000002208    0.000011050
     56        1           0.000000055   -0.000001774    0.000007365
     57        1           0.000002247   -0.000003243    0.000007323
     58        6          -0.000003065    0.000003462   -0.000006999
     59        1          -0.000002587    0.000004080   -0.000009106
     60        1          -0.000003112    0.000004103   -0.000007989
     61        1          -0.000005232    0.000005157   -0.000005604
     62        6          -0.000002089    0.000001383   -0.000001298
     63        1          -0.000000023   -0.000000013    0.000000112
     64        1          -0.000003706    0.000002883   -0.000000119
     65        1          -0.000001313    0.000001864   -0.000002986
     66        6           0.000002190   -0.000000201   -0.000006020
     67        1           0.000002127    0.000000019   -0.000007623
     68        1           0.000002805   -0.000000632   -0.000008313
     69        1           0.000003660   -0.000001857   -0.000004434
 -------------------------------------------------------------------
 Cartesian Forces:  Max     0.000015466 RMS     0.000004668
 FormGI is forming the generalized inverse of G from B-inverse, IUseBI=4.
 GSVD:  received Info=                   1 from GESDD.
 Leave Link  716 at Fri Dec 21 18:12:09 2018, MaxMem=  1342177280 cpu:               6.5 elap:               0.4
 (Enter /gpfs/apps/hpc/Apps/Restricted/Gaussian/Rev_A.03/g16/l9999.exe)

 ----------------------------------------------------------------------

 Electric dipole moment (input orientation):
 (Debye = 10**-18 statcoulomb cm , SI units = C m)
                  (au)            (Debye)         (10**-30 SI)
   Tot        0.266106D+01      0.676374D+01      0.225614D+02
   x          0.915822D+00      0.232779D+01      0.776467D+01
   y          0.237541D+01      0.603768D+01      0.201395D+02
   z          0.774562D+00      0.196874D+01      0.656701D+01

 Dipole polarizability, Alpha (input orientation).
 (esu units = cm**3 , SI units = C**2 m**2 J**-1)
 Alpha(0;0):
               (au)            (10**-24 esu)      (10**-40 SI)
   iso        0.513989D+03      0.761653D+02      0.847453D+02
   aniso      0.397161D+03      0.588531D+02      0.654829D+02
   xx         0.563079D+03      0.834397D+02      0.928392D+02
   yx         0.331987D+01      0.491953D+00      0.547372D+00
   yy         0.713677D+03      0.105756D+03      0.117669D+03
   zx         0.188597D+02      0.279471D+01      0.310954D+01
   zy        -0.111439D+02     -0.165135D+01     -0.183738D+01
   zz         0.265210D+03      0.393001D+02      0.437273D+02

 ----------------------------------------------------------------------

 Dipole orientation:
     6         -2.59979348          1.79698807          4.91730095
     6         -4.98992547          2.67365157          4.19753237
     6         -6.48048803          4.00849781          5.92290124
     6         -5.45613183          4.39278120          8.32611260
     6         -3.04151329          3.51117181          9.02922322
     6         -1.54284978          2.18088059          7.31321630
     6         -3.09947040          0.67849276          0.97537596
     1         -8.33200962          4.72199974          5.42964003
     1         -6.56240358          5.41947913          9.70846407
     1         -2.33953962          3.88432309         10.91610496
     7         -5.22868775          1.92380515          1.70582831
     6         -4.56903666          0.00137562         -3.50479397
     6         -2.66630197         -0.35165097         -1.51455338
     6         -0.44599642         -1.65197514         -1.99473544
     6          0.06170950         -2.64592752         -4.39867086
     6         -1.74674836         -2.27571267         -6.34871798
     6         -4.00210493         -1.02619930         -6.02091040
     1          0.90567834         -1.89735504         -0.48288951
     1         -1.30336694         -3.03074698         -8.19371703
     6          2.48307042         -4.08162531         -4.99204929
     6         -5.90209028         -0.68808176         -8.16553675
     8         -6.59819684          1.14556453         -3.03813912
     7         -1.47187139          0.58163093          2.93265170
     6          1.00126291          1.21900467          7.72254364
     1          1.89620407          1.49273838          9.55589746
     7          2.13292648          0.08131294          5.88420041
     6          4.73807319         -0.84829873          6.12926195
     6          6.60253737          1.37510586          6.29950644
     6          5.07245650         -2.66070288          8.37249888
     1          5.12266591         -1.89005076          4.38442462
     6          9.33103663          0.42518588          6.46899074
     1          6.13705206          2.48114987          7.98914383
     1          6.34974511          2.61619129          4.66689467
     6          7.80397642         -3.60961221          8.51855596
     1          4.59919194         -1.66278970         10.12461281
     1          3.75121006         -4.23832055          8.18762640
     6          9.68039241         -1.40930710          8.68238680
     1         10.61689546          2.03328796          6.64890444
     1          9.82500400         -0.54104634          4.70328597
     1          8.01911732         -4.87033872         10.14248773
     1          8.22224275         -4.73626737          6.82945961
     1         11.61925826         -2.12629711          8.71297265
     1          9.38589987         -0.39382170         10.46553776
     1         -6.65962948          2.19329152          0.44931138
     1          0.59082466         -0.00573323          3.76154485
     6          4.19078089         -4.38698348         -2.66830434
     1          4.81282162         -2.56166102         -1.92686536
     1          3.23953913         -5.41934454         -1.15379460
     1          5.87227560         -5.45536144         -3.20550336
     6          1.79378547         -6.73454124         -5.99578213
     1          0.59089707         -6.63262368         -7.66814739
     1          3.52250858         -7.73962755         -6.51031356
     1          0.80691030         -7.83124314         -4.55164478
     6          3.94555506         -2.62125261         -7.05558117
     1          5.69413380         -3.62469131         -7.50358368
     1          2.84109786         -2.45437911         -8.79068971
     1          4.42846790         -0.72140769         -6.40849847
     6         -8.44056421         -1.93119856         -7.43119146
     1         -9.25779754         -1.03174636         -5.77179306
     1         -9.76405228         -1.75698448         -9.00779402
     1         -8.17230652         -3.94102879         -7.03389940
     6         -4.98081475         -1.92952136        -10.62210381
     1         -3.20686151         -1.10435375        -11.28488670
     1         -4.70817617         -3.96468902        -10.39195442
     1         -6.40128390         -1.63713481        -12.09052415
     6         -6.29810232          2.15859242         -8.67968045
     1         -7.70009873          2.39477162        -10.17902057
     1         -6.96144065          3.13930849         -6.99650604
     1         -4.53592207          3.03520668         -9.30794464

 Electric dipole moment (dipole orientation):
 (Debye = 10**-18 statcoulomb cm , SI units = C m)
                  (au)            (Debye)         (10**-30 SI)
   Tot        0.266106D+01      0.676374D+01      0.225614D+02
   x          0.000000D+00      0.000000D+00      0.000000D+00
   y          0.000000D+00      0.000000D+00      0.000000D+00
   z          0.266106D+01      0.676374D+01      0.225614D+02

 Dipole polarizability, Alpha (dipole orientation).
 (esu units = cm**3 , SI units = C**2 m**2 J**-1)
 Alpha(0;0):
               (au)            (10**-24 esu)      (10**-40 SI)
   iso        0.513989D+03      0.761653D+02      0.847453D+02
   aniso      0.397161D+03      0.588531D+02      0.654829D+02
   xx         0.521275D+03      0.772450D+02      0.859466D+02
   yx        -0.118530D+03     -0.175644D+02     -0.195430D+02
   yy         0.362821D+03      0.537645D+02      0.598210D+02
   zx         0.721795D+01      0.106959D+01      0.119008D+01
   zy         0.129127D+03      0.191346D+02      0.212902D+02
   zz         0.657871D+03      0.974865D+02      0.108468D+03

 ----------------------------------------------------------------------

 This type of calculation cannot be archived.


 WHAT, THEN, IS TIME?  IF NO ONE ASKS ME, I KNOW WHAT IT IS.
 IF I WISH TO EXPLAIN WHAT IT IS TO HIM WHO ASKS ME, I DO NOT KNOW.
                                   -- ST. AUGUSTINE (FIFTH CENTURY)
 Job cpu time:       0 days  0 hours  0 minutes 24.9 seconds.
 Elapsed time:       0 days  0 hours  0 minutes  1.7 seconds.
 File lengths (MBytes):  RWF=     72 Int=      0 D2E=      0 Chk=     84 Scr=      8
 Normal termination of Gaussian 16 at Fri Dec 21 18:12:09 2018.
