 Entering Gaussian System, Link 0=g16
 Input=cyclohexyl-monoBIP-TS2.com
 Output=cyclohexyl-monoBIP-TS2.log
 Initial command:
 /gpfs/apps/hpc/Apps/Restricted/Gaussian/Rev_A.03/g16/l1.exe "/gpfs/scratch60/fas/hammes_schiffer/jg2487/c44n02/Gau-139486.inp" -scrdir="/gpfs/scratch60/fas/hammes_schiffer/jg2487/c44n02/"
 Entering Link 1 = /gpfs/apps/hpc/Apps/Restricted/Gaussian/Rev_A.03/g16/l1.exe PID=    139487.
  
 Copyright (c) 1988,1990,1992,1993,1995,1998,2003,2009,2016,
            Gaussian, Inc.  All Rights Reserved.
  
 This is part of the Gaussian(R) 16 program.  It is based on
 the Gaussian(R) 09 system (copyright 2009, Gaussian, Inc.),
 the Gaussian(R) 03 system (copyright 2003, Gaussian, Inc.),
 the Gaussian(R) 98 system (copyright 1998, Gaussian, Inc.),
 the Gaussian(R) 94 system (copyright 1995, Gaussian, Inc.),
 the Gaussian 92(TM) system (copyright 1992, Gaussian, Inc.),
 the Gaussian 90(TM) system (copyright 1990, Gaussian, Inc.),
 the Gaussian 88(TM) system (copyright 1988, Gaussian, Inc.),
 the Gaussian 86(TM) system (copyright 1986, Carnegie Mellon
 University), and the Gaussian 82(TM) system (copyright 1983,
 Carnegie Mellon University). Gaussian is a federally registered
 trademark of Gaussian, Inc.
  
 This software contains proprietary and confidential information,
 including trade secrets, belonging to Gaussian, Inc.
  
 This software is provided under written license and may be
 used, copied, transmitted, or stored only in accord with that
 written license.
  
 The following legend is applicable only to US Government
 contracts under FAR:
  
                    RESTRICTED RIGHTS LEGEND
  
 Use, reproduction and disclosure by the US Government is
 subject to restrictions as set forth in subparagraphs (a)
 and (c) of the Commercial Computer Software - Restricted
 Rights clause in FAR 52.227-19.
  
 Gaussian, Inc.
 340 Quinnipiac St., Bldg. 40, Wallingford CT 06492
  
  
 ---------------------------------------------------------------
 Warning -- This program may not be used in any manner that
 competes with the business of Gaussian, Inc. or will provide
 assistance to any competitor of Gaussian, Inc.  The licensee
 of this program is prohibited from giving any competitor of
 Gaussian, Inc. access to this program.  By using this program,
 the user acknowledges that Gaussian, Inc. is engaged in the
 business of creating and licensing software in the field of
 computational chemistry and represents and warrants to the
 licensee that it is not a competitor of Gaussian, Inc. and that
 it will not use this program in any manner prohibited above.
 ---------------------------------------------------------------
  

 Cite this work as:
 Gaussian 16, Revision A.03,
 M. J. Frisch, G. W. Trucks, H. B. Schlegel, G. E. Scuseria, 
 M. A. Robb, J. R. Cheeseman, G. Scalmani, V. Barone, 
 G. A. Petersson, H. Nakatsuji, X. Li, M. Caricato, A. V. Marenich, 
 J. Bloino, B. G. Janesko, R. Gomperts, B. Mennucci, H. P. Hratchian, 
 J. V. Ortiz, A. F. Izmaylov, J. L. Sonnenberg, D. Williams-Young, 
 F. Ding, F. Lipparini, F. Egidi, J. Goings, B. Peng, A. Petrone, 
 T. Henderson, D. Ranasinghe, V. G. Zakrzewski, J. Gao, N. Rega, 
 G. Zheng, W. Liang, M. Hada, M. Ehara, K. Toyota, R. Fukuda, 
 J. Hasegawa, M. Ishida, T. Nakajima, Y. Honda, O. Kitao, H. Nakai, 
 T. Vreven, K. Throssell, J. A. Montgomery, Jr., J. E. Peralta, 
 F. Ogliaro, M. J. Bearpark, J. J. Heyd, E. N. Brothers, K. N. Kudin, 
 V. N. Staroverov, T. A. Keith, R. Kobayashi, J. Normand, 
 K. Raghavachari, A. P. Rendell, J. C. Burant, S. S. Iyengar, 
 J. Tomasi, M. Cossi, J. M. Millam, M. Klene, C. Adamo, R. Cammi, 
 J. W. Ochterski, R. L. Martin, K. Morokuma, O. Farkas, 
 J. B. Foresman, and D. J. Fox, Gaussian, Inc., Wallingford CT, 2016.
 
 ******************************************
 Gaussian 16:  ES64L-G16RevA.03 25-Dec-2016
                16-Dec-2018 
 ******************************************
 %chk=cyclohexyl-monoBIP-TS2.chk
 %mem=10GB
 %nprocshared=16
 Will use up to   16 processors via shared memory.
 ----------------------------------------------------------------
 #p freq(ReadFC,InternalModes) Geom(AllCheck) NoSymm scale=0.9649
 ----------------------------------------------------------------
 1/18=20,29=7,38=1,114=964900/1,3;
 2/9=110,12=2,15=1,40=1/2;
 7/8=21,25=11,30=1/16;
 99/5=2/99;
 Leave Link    1 at Sun Dec 16 14:46:10 2018, MaxMem=  1342177280 cpu:               9.0 elap:               0.6
 (Enter /gpfs/apps/hpc/Apps/Restricted/Gaussian/Rev_A.03/g16/l101.exe)
 Structure from the checkpoint file:  "cyclohexyl-monoBIP-TS2.chk"
 --------------------------------------------------------------------
 cyclohexylimine monoBIP oxidized, TS opt to both protons transferred
 --------------------------------------------------------------------
 Charge =  1 Multiplicity = 2
 Redundant internal coordinates found in file.  (old form).
 C,0,-0.569144,2.975654,0.35301
 C,0,-1.961174,3.104012,0.277127
 C,0,-2.542752,4.372577,0.191228
 C,0,-1.670159,5.463711,0.186451
 C,0,-0.268765,5.323858,0.257298
 C,0,0.317405,4.059654,0.340882
 C,0,-1.370904,0.945093,0.376304
 H,0,-3.614318,4.508651,0.12738
 H,0,-2.08765,6.460971,0.122328
 H,0,0.3584,6.207112,0.240214
 N,0,-2.425628,1.802082,0.296747
 C,0,-2.82004,-1.111264,0.298281
 C,0,-1.493277,-0.492884,0.407065
 C,0,-0.365852,-1.286077,0.537301
 C,0,-0.458947,-2.689846,0.563986
 C,0,-1.732034,-3.301209,0.446954
 C,0,-2.889211,-2.571944,0.314466
 H,0,0.610208,-0.823224,0.624049
 H,0,-1.790906,-4.383976,0.470959
 C,0,0.76672,-3.536715,0.700294
 H,0,0.988407,-4.037326,-0.249313
 H,0,1.636856,-2.944024,0.983301
 H,0,0.613477,-4.324198,1.442773
 C,0,-4.237021,-3.206535,0.196238
 H,0,-4.905753,-2.835846,0.97793
 H,0,-4.703634,-2.948581,-0.759074
 H,0,-4.161627,-4.291017,0.272711
 O,0,-3.87013,-0.428325,0.200953
 N,0,-0.224181,1.651911,0.414907
 C,0,1.738628,3.750625,0.385152
 H,0,2.461084,4.56566,0.36887
 N,0,2.102971,2.512775,0.434367
 C,0,3.522672,2.132599,0.440536
 C,0,4.184496,2.466069,-0.906784
 C,0,4.294485,2.770595,1.605824
 H,0,3.537245,1.046834,0.572035
 C,0,5.651605,2.025664,-0.91483
 H,0,4.119562,3.549763,-1.062332
 H,0,3.627188,1.989152,-1.717754
 C,0,5.759916,2.324463,1.592759
 H,0,4.246181,3.861404,1.510039
 H,0,3.813096,2.505024,2.550827
 C,0,6.429648,2.643945,0.251686
 H,0,6.113084,2.294375,-1.869374
 H,0,5.698287,0.932533,-0.837469
 H,0,6.298829,2.802859,2.415802
 H,0,5.807756,1.24298,1.770371
 H,0,7.461943,2.281686,0.249637
 H,0,6.472894,3.732021,0.120275
 H,0,-3.37477,1.436206,0.244908
 H,0,0.993467,1.675091,0.438611
 Recover connectivity data from disk.
 ITRead=  0  0  0  0  0  0  0  0  0  0  0  0  0  0  0  0  0  0  0  0
 ITRead=  0  0  0  0  0  0  0  0  0  0  0  0  0  0  0  0  0  0  0  0
 ITRead=  0  0  0  0  0  0  0  0  0  0  0
 MicOpt= -1 -1 -1 -1 -1 -1 -1 -1 -1 -1 -1 -1 -1 -1 -1 -1 -1 -1 -1 -1
 MicOpt= -1 -1 -1 -1 -1 -1 -1 -1 -1 -1 -1 -1 -1 -1 -1 -1 -1 -1 -1 -1
 MicOpt= -1 -1 -1 -1 -1 -1 -1 -1 -1 -1 -1
 NAtoms=     51 NQM=       51 NQMF=       0 NMMI=      0 NMMIF=      0
                NMic=       0 NMicF=      0.
                    Isotopes and Nuclear Properties:
 (Nuclear quadrupole moments (NQMom) in fm**2, nuclear magnetic moments (NMagM)
  in nuclear magnetons)

  Atom         1           2           3           4           5           6           7           8           9          10
 IAtWgt=          12          12          12          12          12          12          12           1           1           1
 AtmWgt=  12.0000000  12.0000000  12.0000000  12.0000000  12.0000000  12.0000000  12.0000000   1.0078250   1.0078250   1.0078250
 NucSpn=           0           0           0           0           0           0           0           1           1           1
 AtZEff=   3.6000000   3.6000000   3.6000000   3.6000000   3.6000000   3.6000000   3.6000000   1.0000000   1.0000000   1.0000000
 NQMom=    0.0000000   0.0000000   0.0000000   0.0000000   0.0000000   0.0000000   0.0000000   0.0000000   0.0000000   0.0000000
 NMagM=    0.0000000   0.0000000   0.0000000   0.0000000   0.0000000   0.0000000   0.0000000   2.7928460   2.7928460   2.7928460
 AtZNuc=   6.0000000   6.0000000   6.0000000   6.0000000   6.0000000   6.0000000   6.0000000   1.0000000   1.0000000   1.0000000

  Atom        11          12          13          14          15          16          17          18          19          20
 IAtWgt=          14          12          12          12          12          12          12           1           1          12
 AtmWgt=  14.0030740  12.0000000  12.0000000  12.0000000  12.0000000  12.0000000  12.0000000   1.0078250   1.0078250  12.0000000
 NucSpn=           2           0           0           0           0           0           0           1           1           0
 AtZEff=   4.5500000   3.6000000   3.6000000   3.6000000   3.6000000   3.6000000   3.6000000   1.0000000   1.0000000   3.6000000
 NQMom=    2.0440000   0.0000000   0.0000000   0.0000000   0.0000000   0.0000000   0.0000000   0.0000000   0.0000000   0.0000000
 NMagM=    0.4037610   0.0000000   0.0000000   0.0000000   0.0000000   0.0000000   0.0000000   2.7928460   2.7928460   0.0000000
 AtZNuc=   7.0000000   6.0000000   6.0000000   6.0000000   6.0000000   6.0000000   6.0000000   1.0000000   1.0000000   6.0000000

  Atom        21          22          23          24          25          26          27          28          29          30
 IAtWgt=           1           1           1          12           1           1           1          16          14          12
 AtmWgt=   1.0078250   1.0078250   1.0078250  12.0000000   1.0078250   1.0078250   1.0078250  15.9949146  14.0030740  12.0000000
 NucSpn=           1           1           1           0           1           1           1           0           2           0
 AtZEff=   1.0000000   1.0000000   1.0000000   3.6000000   1.0000000   1.0000000   1.0000000   5.6000000   4.5500000   3.6000000
 NQMom=    0.0000000   0.0000000   0.0000000   0.0000000   0.0000000   0.0000000   0.0000000   0.0000000   2.0440000   0.0000000
 NMagM=    2.7928460   2.7928460   2.7928460   0.0000000   2.7928460   2.7928460   2.7928460   0.0000000   0.4037610   0.0000000
 AtZNuc=   1.0000000   1.0000000   1.0000000   6.0000000   1.0000000   1.0000000   1.0000000   8.0000000   7.0000000   6.0000000

  Atom        31          32          33          34          35          36          37          38          39          40
 IAtWgt=           1          14          12          12          12           1          12           1           1          12
 AtmWgt=   1.0078250  14.0030740  12.0000000  12.0000000  12.0000000   1.0078250  12.0000000   1.0078250   1.0078250  12.0000000
 NucSpn=           1           2           0           0           0           1           0           1           1           0
 AtZEff=   1.0000000   4.5500000   3.6000000   3.6000000   3.6000000   1.0000000   3.6000000   1.0000000   1.0000000   3.6000000
 NQMom=    0.0000000   2.0440000   0.0000000   0.0000000   0.0000000   0.0000000   0.0000000   0.0000000   0.0000000   0.0000000
 NMagM=    2.7928460   0.4037610   0.0000000   0.0000000   0.0000000   2.7928460   0.0000000   2.7928460   2.7928460   0.0000000
 AtZNuc=   1.0000000   7.0000000   6.0000000   6.0000000   6.0000000   1.0000000   6.0000000   1.0000000   1.0000000   6.0000000

  Atom        41          42          43          44          45          46          47          48          49          50
 IAtWgt=           1           1          12           1           1           1           1           1           1           1
 AtmWgt=   1.0078250   1.0078250  12.0000000   1.0078250   1.0078250   1.0078250   1.0078250   1.0078250   1.0078250   1.0078250
 NucSpn=           1           1           0           1           1           1           1           1           1           1
 AtZEff=   1.0000000   1.0000000   3.6000000   1.0000000   1.0000000   1.0000000   1.0000000   1.0000000   1.0000000   1.0000000
 NQMom=    0.0000000   0.0000000   0.0000000   0.0000000   0.0000000   0.0000000   0.0000000   0.0000000   0.0000000   0.0000000
 NMagM=    2.7928460   2.7928460   0.0000000   2.7928460   2.7928460   2.7928460   2.7928460   2.7928460   2.7928460   2.7928460
 AtZNuc=   1.0000000   1.0000000   6.0000000   1.0000000   1.0000000   1.0000000   1.0000000   1.0000000   1.0000000   1.0000000

  Atom        51
 IAtWgt=           1
 AtmWgt=   1.0078250
 NucSpn=           1
 AtZEff=   1.0000000
 NQMom=    0.0000000
 NMagM=    2.7928460
 AtZNuc=   1.0000000
 Leave Link  101 at Sun Dec 16 14:46:10 2018, MaxMem=  1342177280 cpu:               4.0 elap:               0.3
 (Enter /gpfs/apps/hpc/Apps/Restricted/Gaussian/Rev_A.03/g16/l103.exe)

 GradGradGradGradGradGradGradGradGradGradGradGradGradGradGradGradGradGrad
 Berny optimization.
 Initialization pass.
                           ----------------------------
                           !    Initial Parameters    !
                           ! (Angstroms and Degrees)  !
 --------------------------                            --------------------------
 ! Name  Definition              Value          Derivative Info.                !
 --------------------------------------------------------------------------------
 ! R1    R(1,2)                  1.4            estimate D2E/DX2                !
 ! R2    R(1,6)                  1.4004         estimate D2E/DX2                !
 ! R3    R(1,29)                 1.3694         estimate D2E/DX2                !
 ! R4    R(2,3)                  1.3982         estimate D2E/DX2                !
 ! R5    R(2,11)                 1.3824         estimate D2E/DX2                !
 ! R6    R(3,4)                  1.3971         estimate D2E/DX2                !
 ! R7    R(3,8)                  1.0821         estimate D2E/DX2                !
 ! R8    R(4,5)                  1.4101         estimate D2E/DX2                !
 ! R9    R(4,9)                  1.083          estimate D2E/DX2                !
 ! R10   R(5,6)                  1.396          estimate D2E/DX2                !
 ! R11   R(5,10)                 1.0834         estimate D2E/DX2                !
 ! R12   R(6,30)                 1.4551         estimate D2E/DX2                !
 ! R13   R(7,11)                 1.3613         estimate D2E/DX2                !
 ! R14   R(7,13)                 1.4435         estimate D2E/DX2                !
 ! R15   R(7,29)                 1.3476         estimate D2E/DX2                !
 ! R16   R(11,50)                1.0185         estimate D2E/DX2                !
 ! R17   R(12,13)                1.4678         estimate D2E/DX2                !
 ! R18   R(12,17)                1.4624         estimate D2E/DX2                !
 ! R19   R(12,28)                1.2564         estimate D2E/DX2                !
 ! R20   R(13,14)                1.3846         estimate D2E/DX2                !
 ! R21   R(14,15)                1.4071         estimate D2E/DX2                !
 ! R22   R(14,18)                1.0837         estimate D2E/DX2                !
 ! R23   R(15,16)                1.4171         estimate D2E/DX2                !
 ! R24   R(15,20)                1.496          estimate D2E/DX2                !
 ! R25   R(16,17)                1.3742         estimate D2E/DX2                !
 ! R26   R(16,19)                1.0846         estimate D2E/DX2                !
 ! R27   R(17,24)                1.4944         estimate D2E/DX2                !
 ! R28   R(20,21)                1.0961         estimate D2E/DX2                !
 ! R29   R(20,22)                1.0902         estimate D2E/DX2                !
 ! R30   R(20,23)                1.0931         estimate D2E/DX2                !
 ! R31   R(24,25)                1.0935         estimate D2E/DX2                !
 ! R32   R(24,26)                1.094          estimate D2E/DX2                !
 ! R33   R(24,27)                1.0898         estimate D2E/DX2                !
 ! R34   R(29,51)                1.2181         estimate D2E/DX2                !
 ! R35   R(30,31)                1.0893         estimate D2E/DX2                !
 ! R36   R(30,32)                1.2913         estimate D2E/DX2                !
 ! R37   R(32,33)                1.4697         estimate D2E/DX2                !
 ! R38   R(33,34)                1.5377         estimate D2E/DX2                !
 ! R39   R(33,35)                1.5364         estimate D2E/DX2                !
 ! R40   R(33,36)                1.0938         estimate D2E/DX2                !
 ! R41   R(34,37)                1.5318         estimate D2E/DX2                !
 ! R42   R(34,38)                1.0967         estimate D2E/DX2                !
 ! R43   R(34,39)                1.0935         estimate D2E/DX2                !
 ! R44   R(35,40)                1.5319         estimate D2E/DX2                !
 ! R45   R(35,41)                1.0961         estimate D2E/DX2                !
 ! R46   R(35,42)                1.0933         estimate D2E/DX2                !
 ! R47   R(37,43)                1.5324         estimate D2E/DX2                !
 ! R48   R(37,44)                1.0938         estimate D2E/DX2                !
 ! R49   R(37,45)                1.0969         estimate D2E/DX2                !
 ! R50   R(40,43)                1.5327         estimate D2E/DX2                !
 ! R51   R(40,46)                1.0939         estimate D2E/DX2                !
 ! R52   R(40,47)                1.097          estimate D2E/DX2                !
 ! R53   R(43,48)                1.094          estimate D2E/DX2                !
 ! R54   R(43,49)                1.0968         estimate D2E/DX2                !
 ! A1    A(2,1,6)              123.919          estimate D2E/DX2                !
 ! A2    A(2,1,29)             109.9722         estimate D2E/DX2                !
 ! A3    A(6,1,29)             126.0992         estimate D2E/DX2                !
 ! A4    A(1,2,3)              120.0071         estimate D2E/DX2                !
 ! A5    A(1,2,11)             104.2967         estimate D2E/DX2                !
 ! A6    A(3,2,11)             135.6919         estimate D2E/DX2                !
 ! A7    A(2,3,4)              116.6798         estimate D2E/DX2                !
 ! A8    A(2,3,8)              121.9817         estimate D2E/DX2                !
 ! A9    A(4,3,8)              121.338          estimate D2E/DX2                !
 ! A10   A(3,4,5)              122.8919         estimate D2E/DX2                !
 ! A11   A(3,4,9)              118.5924         estimate D2E/DX2                !
 ! A12   A(5,4,9)              118.5154         estimate D2E/DX2                !
 ! A13   A(4,5,6)              120.6714         estimate D2E/DX2                !
 ! A14   A(4,5,10)             119.5806         estimate D2E/DX2                !
 ! A15   A(6,5,10)             119.7468         estimate D2E/DX2                !
 ! A16   A(1,6,5)              115.8286         estimate D2E/DX2                !
 ! A17   A(1,6,30)             116.9791         estimate D2E/DX2                !
 ! A18   A(5,6,30)             127.176          estimate D2E/DX2                !
 ! A19   A(11,7,13)            124.2413         estimate D2E/DX2                !
 ! A20   A(11,7,29)            109.3156         estimate D2E/DX2                !
 ! A21   A(13,7,29)            126.4426         estimate D2E/DX2                !
 ! A22   A(2,11,7)             109.475          estimate D2E/DX2                !
 ! A23   A(2,11,50)            130.5908         estimate D2E/DX2                !
 ! A24   A(7,11,50)            119.9225         estimate D2E/DX2                !
 ! A25   A(13,12,17)           117.563          estimate D2E/DX2                !
 ! A26   A(13,12,28)           122.1546         estimate D2E/DX2                !
 ! A27   A(17,12,28)           120.2814         estimate D2E/DX2                !
 ! A28   A(7,13,12)            119.6516         estimate D2E/DX2                !
 ! A29   A(7,13,14)            120.2411         estimate D2E/DX2                !
 ! A30   A(12,13,14)           120.1074         estimate D2E/DX2                !
 ! A31   A(13,14,15)           121.2927         estimate D2E/DX2                !
 ! A32   A(13,14,18)           119.75           estimate D2E/DX2                !
 ! A33   A(15,14,18)           118.957          estimate D2E/DX2                !
 ! A34   A(14,15,16)           119.2264         estimate D2E/DX2                !
 ! A35   A(14,15,20)           120.815          estimate D2E/DX2                !
 ! A36   A(16,15,20)           119.9559         estimate D2E/DX2                !
 ! A37   A(15,16,17)           122.3782         estimate D2E/DX2                !
 ! A38   A(15,16,19)           118.5292         estimate D2E/DX2                !
 ! A39   A(17,16,19)           119.0909         estimate D2E/DX2                !
 ! A40   A(12,17,16)           119.4256         estimate D2E/DX2                !
 ! A41   A(12,17,24)           117.7701         estimate D2E/DX2                !
 ! A42   A(16,17,24)           122.8021         estimate D2E/DX2                !
 ! A43   A(15,20,21)           110.2            estimate D2E/DX2                !
 ! A44   A(15,20,22)           111.7042         estimate D2E/DX2                !
 ! A45   A(15,20,23)           110.7839         estimate D2E/DX2                !
 ! A46   A(21,20,22)           108.1655         estimate D2E/DX2                !
 ! A47   A(21,20,23)           106.7249         estimate D2E/DX2                !
 ! A48   A(22,20,23)           109.1003         estimate D2E/DX2                !
 ! A49   A(17,24,25)           110.5525         estimate D2E/DX2                !
 ! A50   A(17,24,26)           110.7094         estimate D2E/DX2                !
 ! A51   A(17,24,27)           110.7706         estimate D2E/DX2                !
 ! A52   A(25,24,26)           106.4671         estimate D2E/DX2                !
 ! A53   A(25,24,27)           109.2385         estimate D2E/DX2                !
 ! A54   A(26,24,27)           108.991          estimate D2E/DX2                !
 ! A55   A(1,29,7)             106.9399         estimate D2E/DX2                !
 ! A56   A(1,29,51)            103.5508         estimate D2E/DX2                !
 ! A57   A(7,29,51)            149.4463         estimate D2E/DX2                !
 ! A58   A(6,30,31)            119.2384         estimate D2E/DX2                !
 ! A59   A(6,30,32)            118.7069         estimate D2E/DX2                !
 ! A60   A(31,30,32)           122.0533         estimate D2E/DX2                !
 ! A61   A(30,32,33)           121.3773         estimate D2E/DX2                !
 ! A62   A(32,33,34)           110.8533         estimate D2E/DX2                !
 ! A63   A(32,33,35)           112.3963         estimate D2E/DX2                !
 ! A64   A(32,33,36)           105.6729         estimate D2E/DX2                !
 ! A65   A(34,33,35)           110.9947         estimate D2E/DX2                !
 ! A66   A(34,33,36)           108.3534         estimate D2E/DX2                !
 ! A67   A(35,33,36)           108.3199         estimate D2E/DX2                !
 ! A68   A(33,34,37)           110.7613         estimate D2E/DX2                !
 ! A69   A(33,34,38)           108.2447         estimate D2E/DX2                !
 ! A70   A(33,34,39)           109.6259         estimate D2E/DX2                !
 ! A71   A(37,34,38)           109.8801         estimate D2E/DX2                !
 ! A72   A(37,34,39)           111.0293         estimate D2E/DX2                !
 ! A73   A(38,34,39)           107.1935         estimate D2E/DX2                !
 ! A74   A(33,35,40)           110.6799         estimate D2E/DX2                !
 ! A75   A(33,35,41)           108.9555         estimate D2E/DX2                !
 ! A76   A(33,35,42)           109.4821         estimate D2E/DX2                !
 ! A77   A(40,35,41)           109.3443         estimate D2E/DX2                !
 ! A78   A(40,35,42)           110.9674         estimate D2E/DX2                !
 ! A79   A(41,35,42)           107.33           estimate D2E/DX2                !
 ! A80   A(34,37,43)           111.486          estimate D2E/DX2                !
 ! A81   A(34,37,44)           109.758          estimate D2E/DX2                !
 ! A82   A(34,37,45)           109.082          estimate D2E/DX2                !
 ! A83   A(43,37,44)           110.5477         estimate D2E/DX2                !
 ! A84   A(43,37,45)           109.0743         estimate D2E/DX2                !
 ! A85   A(44,37,45)           106.7643         estimate D2E/DX2                !
 ! A86   A(35,40,43)           111.3933         estimate D2E/DX2                !
 ! A87   A(35,40,46)           109.7239         estimate D2E/DX2                !
 ! A88   A(35,40,47)           109.1136         estimate D2E/DX2                !
 ! A89   A(43,40,46)           110.603          estimate D2E/DX2                !
 ! A90   A(43,40,47)           109.1538         estimate D2E/DX2                !
 ! A91   A(46,40,47)           106.7281         estimate D2E/DX2                !
 ! A92   A(37,43,40)           111.1062         estimate D2E/DX2                !
 ! A93   A(37,43,48)           110.1237         estimate D2E/DX2                !
 ! A94   A(37,43,49)           109.2115         estimate D2E/DX2                !
 ! A95   A(40,43,48)           110.1778         estimate D2E/DX2                !
 ! A96   A(40,43,49)           109.1986         estimate D2E/DX2                !
 ! A97   A(48,43,49)           106.9212         estimate D2E/DX2                !
 ! D1    D(6,1,2,3)             -0.4159         estimate D2E/DX2                !
 ! D2    D(6,1,2,11)           178.9419         estimate D2E/DX2                !
 ! D3    D(29,1,2,3)          -179.3542         estimate D2E/DX2                !
 ! D4    D(29,1,2,11)            0.0036         estimate D2E/DX2                !
 ! D5    D(2,1,6,5)              0.5061         estimate D2E/DX2                !
 ! D6    D(2,1,6,30)          -178.1296         estimate D2E/DX2                !
 ! D7    D(29,1,6,5)           179.2712         estimate D2E/DX2                !
 ! D8    D(29,1,6,30)            0.6355         estimate D2E/DX2                !
 ! D9    D(2,1,29,7)             0.1417         estimate D2E/DX2                !
 ! D10   D(2,1,29,51)          178.1571         estimate D2E/DX2                !
 ! D11   D(6,1,29,7)          -178.7679         estimate D2E/DX2                !
 ! D12   D(6,1,29,51)           -0.7526         estimate D2E/DX2                !
 ! D13   D(1,2,3,4)              0.0038         estimate D2E/DX2                !
 ! D14   D(1,2,3,8)            179.7651         estimate D2E/DX2                !
 ! D15   D(11,2,3,4)          -179.1054         estimate D2E/DX2                !
 ! D16   D(11,2,3,8)             0.6559         estimate D2E/DX2                !
 ! D17   D(1,2,11,7)            -0.1483         estimate D2E/DX2                !
 ! D18   D(1,2,11,50)         -178.8723         estimate D2E/DX2                !
 ! D19   D(3,2,11,7)           179.0556         estimate D2E/DX2                !
 ! D20   D(3,2,11,50)            0.3315         estimate D2E/DX2                !
 ! D21   D(2,3,4,5)              0.2868         estimate D2E/DX2                !
 ! D22   D(2,3,4,9)           -179.9155         estimate D2E/DX2                !
 ! D23   D(8,3,4,5)           -179.4761         estimate D2E/DX2                !
 ! D24   D(8,3,4,9)              0.3216         estimate D2E/DX2                !
 ! D25   D(3,4,5,6)             -0.1866         estimate D2E/DX2                !
 ! D26   D(3,4,5,10)           179.4209         estimate D2E/DX2                !
 ! D27   D(9,4,5,6)           -179.9845         estimate D2E/DX2                !
 ! D28   D(9,4,5,10)            -0.377          estimate D2E/DX2                !
 ! D29   D(4,5,6,1)             -0.2034         estimate D2E/DX2                !
 ! D30   D(4,5,6,30)           178.2707         estimate D2E/DX2                !
 ! D31   D(10,5,6,1)          -179.8102         estimate D2E/DX2                !
 ! D32   D(10,5,6,30)           -1.3362         estimate D2E/DX2                !
 ! D33   D(1,6,30,31)          179.4865         estimate D2E/DX2                !
 ! D34   D(1,6,30,32)           -0.091          estimate D2E/DX2                !
 ! D35   D(5,6,30,31)            1.0277         estimate D2E/DX2                !
 ! D36   D(5,6,30,32)         -178.5498         estimate D2E/DX2                !
 ! D37   D(13,7,11,2)         -179.5186         estimate D2E/DX2                !
 ! D38   D(13,7,11,50)          -0.6365         estimate D2E/DX2                !
 ! D39   D(29,7,11,2)            0.2444         estimate D2E/DX2                !
 ! D40   D(29,7,11,50)         179.1265         estimate D2E/DX2                !
 ! D41   D(11,7,13,12)           2.3695         estimate D2E/DX2                !
 ! D42   D(11,7,13,14)        -177.6857         estimate D2E/DX2                !
 ! D43   D(29,7,13,12)        -177.3524         estimate D2E/DX2                !
 ! D44   D(29,7,13,14)           2.5924         estimate D2E/DX2                !
 ! D45   D(11,7,29,1)           -0.2348         estimate D2E/DX2                !
 ! D46   D(11,7,29,51)        -176.4373         estimate D2E/DX2                !
 ! D47   D(13,7,29,1)          179.5216         estimate D2E/DX2                !
 ! D48   D(13,7,29,51)           3.3191         estimate D2E/DX2                !
 ! D49   D(17,12,13,7)         179.1055         estimate D2E/DX2                !
 ! D50   D(17,12,13,14)         -0.8394         estimate D2E/DX2                !
 ! D51   D(28,12,13,7)          -1.2545         estimate D2E/DX2                !
 ! D52   D(28,12,13,14)        178.8007         estimate D2E/DX2                !
 ! D53   D(13,12,17,16)          0.8676         estimate D2E/DX2                !
 ! D54   D(13,12,17,24)       -179.6627         estimate D2E/DX2                !
 ! D55   D(28,12,17,16)       -178.7795         estimate D2E/DX2                !
 ! D56   D(28,12,17,24)          0.6902         estimate D2E/DX2                !
 ! D57   D(7,13,14,15)        -179.7229         estimate D2E/DX2                !
 ! D58   D(7,13,14,18)           0.4764         estimate D2E/DX2                !
 ! D59   D(12,13,14,15)          0.2216         estimate D2E/DX2                !
 ! D60   D(12,13,14,18)       -179.5791         estimate D2E/DX2                !
 ! D61   D(13,14,15,16)          0.3859         estimate D2E/DX2                !
 ! D62   D(13,14,15,20)        179.7833         estimate D2E/DX2                !
 ! D63   D(18,14,15,16)       -179.8119         estimate D2E/DX2                !
 ! D64   D(18,14,15,20)         -0.4144         estimate D2E/DX2                !
 ! D65   D(14,15,16,17)         -0.3539         estimate D2E/DX2                !
 ! D66   D(14,15,16,19)       -179.8761         estimate D2E/DX2                !
 ! D67   D(20,15,16,17)       -179.7567         estimate D2E/DX2                !
 ! D68   D(20,15,16,19)          0.7211         estimate D2E/DX2                !
 ! D69   D(14,15,20,21)       -107.9895         estimate D2E/DX2                !
 ! D70   D(14,15,20,22)         12.2749         estimate D2E/DX2                !
 ! D71   D(14,15,20,23)        134.1302         estimate D2E/DX2                !
 ! D72   D(16,15,20,21)         71.4036         estimate D2E/DX2                !
 ! D73   D(16,15,20,22)       -168.332          estimate D2E/DX2                !
 ! D74   D(16,15,20,23)        -46.4767         estimate D2E/DX2                !
 ! D75   D(15,16,17,12)         -0.2892         estimate D2E/DX2                !
 ! D76   D(15,16,17,24)       -179.7309         estimate D2E/DX2                !
 ! D77   D(19,16,17,12)        179.2305         estimate D2E/DX2                !
 ! D78   D(19,16,17,24)         -0.2113         estimate D2E/DX2                !
 ! D79   D(12,17,24,25)        -55.8296         estimate D2E/DX2                !
 ! D80   D(12,17,24,26)         61.9058         estimate D2E/DX2                !
 ! D81   D(12,17,24,27)       -177.0654         estimate D2E/DX2                !
 ! D82   D(16,17,24,25)        123.6209         estimate D2E/DX2                !
 ! D83   D(16,17,24,26)       -118.6437         estimate D2E/DX2                !
 ! D84   D(16,17,24,27)          2.3851         estimate D2E/DX2                !
 ! D85   D(6,30,32,33)         178.157          estimate D2E/DX2                !
 ! D86   D(31,30,32,33)         -1.408          estimate D2E/DX2                !
 ! D87   D(30,32,33,34)        -67.5098         estimate D2E/DX2                !
 ! D88   D(30,32,33,35)         57.3557         estimate D2E/DX2                !
 ! D89   D(30,32,33,36)        175.3068         estimate D2E/DX2                !
 ! D90   D(32,33,34,37)       -178.0758         estimate D2E/DX2                !
 ! D91   D(32,33,34,38)         61.4012         estimate D2E/DX2                !
 ! D92   D(32,33,34,39)        -55.2139         estimate D2E/DX2                !
 ! D93   D(35,33,34,37)         56.2698         estimate D2E/DX2                !
 ! D94   D(35,33,34,38)        -64.2532         estimate D2E/DX2                !
 ! D95   D(35,33,34,39)        179.1318         estimate D2E/DX2                !
 ! D96   D(36,33,34,37)        -62.5481         estimate D2E/DX2                !
 ! D97   D(36,33,34,38)        176.9289         estimate D2E/DX2                !
 ! D98   D(36,33,34,39)         60.3139         estimate D2E/DX2                !
 ! D99   D(32,33,35,40)        178.7496         estimate D2E/DX2                !
 ! D100  D(32,33,35,41)        -60.9853         estimate D2E/DX2                !
 ! D101  D(32,33,35,42)         56.1173         estimate D2E/DX2                !
 ! D102  D(34,33,35,40)        -56.4626         estimate D2E/DX2                !
 ! D103  D(34,33,35,41)         63.8026         estimate D2E/DX2                !
 ! D104  D(34,33,35,42)       -179.0948         estimate D2E/DX2                !
 ! D105  D(36,33,35,40)         62.3755         estimate D2E/DX2                !
 ! D106  D(36,33,35,41)       -177.3593         estimate D2E/DX2                !
 ! D107  D(36,33,35,42)        -60.2567         estimate D2E/DX2                !
 ! D108  D(33,34,37,43)        -55.662          estimate D2E/DX2                !
 ! D109  D(33,34,37,44)       -178.4945         estimate D2E/DX2                !
 ! D110  D(33,34,37,45)         64.8545         estimate D2E/DX2                !
 ! D111  D(38,34,37,43)         63.8835         estimate D2E/DX2                !
 ! D112  D(38,34,37,44)        -58.949          estimate D2E/DX2                !
 ! D113  D(38,34,37,45)       -175.5999         estimate D2E/DX2                !
 ! D114  D(39,34,37,43)       -177.7064         estimate D2E/DX2                !
 ! D115  D(39,34,37,44)         59.4611         estimate D2E/DX2                !
 ! D116  D(39,34,37,45)        -57.1898         estimate D2E/DX2                !
 ! D117  D(33,35,40,43)         56.0587         estimate D2E/DX2                !
 ! D118  D(33,35,40,46)        178.8746         estimate D2E/DX2                !
 ! D119  D(33,35,40,47)        -64.5193         estimate D2E/DX2                !
 ! D120  D(41,35,40,43)        -63.974          estimate D2E/DX2                !
 ! D121  D(41,35,40,46)         58.8419         estimate D2E/DX2                !
 ! D122  D(41,35,40,47)        175.4481         estimate D2E/DX2                !
 ! D123  D(42,35,40,43)        177.8218         estimate D2E/DX2                !
 ! D124  D(42,35,40,46)        -59.3623         estimate D2E/DX2                !
 ! D125  D(42,35,40,47)         57.2439         estimate D2E/DX2                !
 ! D126  D(34,37,43,40)         55.2283         estimate D2E/DX2                !
 ! D127  D(34,37,43,48)        177.5866         estimate D2E/DX2                !
 ! D128  D(34,37,43,49)        -65.2878         estimate D2E/DX2                !
 ! D129  D(44,37,43,40)        177.6078         estimate D2E/DX2                !
 ! D130  D(44,37,43,48)        -60.034          estimate D2E/DX2                !
 ! D131  D(44,37,43,49)         57.0916         estimate D2E/DX2                !
 ! D132  D(45,37,43,40)        -65.2928         estimate D2E/DX2                !
 ! D133  D(45,37,43,48)         57.0655         estimate D2E/DX2                !
 ! D134  D(45,37,43,49)        174.191          estimate D2E/DX2                !
 ! D135  D(35,40,43,37)        -55.4162         estimate D2E/DX2                !
 ! D136  D(35,40,43,48)       -177.7431         estimate D2E/DX2                !
 ! D137  D(35,40,43,49)         65.1077         estimate D2E/DX2                !
 ! D138  D(46,40,43,37)       -177.7266         estimate D2E/DX2                !
 ! D139  D(46,40,43,48)         59.9465         estimate D2E/DX2                !
 ! D140  D(46,40,43,49)        -57.2028         estimate D2E/DX2                !
 ! D141  D(47,40,43,37)         65.1382         estimate D2E/DX2                !
 ! D142  D(47,40,43,48)        -57.1887         estimate D2E/DX2                !
 ! D143  D(47,40,43,49)       -174.338          estimate D2E/DX2                !
 --------------------------------------------------------------------------------
 Trust Radius=3.00D-01 FncErr=1.00D-07 GrdErr=1.00D-07 EigMax=2.50D+02 EigMin=1.00D-04
 Number of steps in this run=    304 maximum allowed number of steps=    306.
 GradGradGradGradGradGradGradGradGradGradGradGradGradGradGradGradGradGrad

 Leave Link  103 at Sun Dec 16 14:46:10 2018, MaxMem=  1342177280 cpu:               0.5 elap:               0.1
 (Enter /gpfs/apps/hpc/Apps/Restricted/Gaussian/Rev_A.03/g16/l202.exe)
 Symmetry turned off by external request.
 Stoichiometry    C22H25N3O(1+,2)
 Framework group  C1[X(C22H25N3O)]
 Deg. of freedom   147
 Full point group                 C1      NOp   1
                          Input orientation:                          
 ---------------------------------------------------------------------
 Center     Atomic      Atomic             Coordinates (Angstroms)
 Number     Number       Type             X           Y           Z
 ---------------------------------------------------------------------
      1          6           0       -0.569144    2.975654    0.353010
      2          6           0       -1.961174    3.104012    0.277127
      3          6           0       -2.542752    4.372577    0.191228
      4          6           0       -1.670159    5.463711    0.186451
      5          6           0       -0.268765    5.323858    0.257298
      6          6           0        0.317405    4.059654    0.340882
      7          6           0       -1.370904    0.945093    0.376304
      8          1           0       -3.614318    4.508651    0.127380
      9          1           0       -2.087650    6.460971    0.122328
     10          1           0        0.358400    6.207112    0.240214
     11          7           0       -2.425628    1.802082    0.296747
     12          6           0       -2.820040   -1.111264    0.298281
     13          6           0       -1.493277   -0.492884    0.407065
     14          6           0       -0.365852   -1.286077    0.537301
     15          6           0       -0.458947   -2.689846    0.563986
     16          6           0       -1.732034   -3.301209    0.446954
     17          6           0       -2.889211   -2.571944    0.314466
     18          1           0        0.610208   -0.823224    0.624049
     19          1           0       -1.790906   -4.383976    0.470959
     20          6           0        0.766720   -3.536715    0.700294
     21          1           0        0.988407   -4.037326   -0.249313
     22          1           0        1.636856   -2.944024    0.983301
     23          1           0        0.613477   -4.324198    1.442773
     24          6           0       -4.237021   -3.206535    0.196238
     25          1           0       -4.905753   -2.835846    0.977930
     26          1           0       -4.703634   -2.948581   -0.759074
     27          1           0       -4.161627   -4.291017    0.272711
     28          8           0       -3.870130   -0.428325    0.200953
     29          7           0       -0.224181    1.651911    0.414907
     30          6           0        1.738628    3.750625    0.385152
     31          1           0        2.461084    4.565660    0.368870
     32          7           0        2.102971    2.512775    0.434367
     33          6           0        3.522672    2.132599    0.440536
     34          6           0        4.184496    2.466069   -0.906784
     35          6           0        4.294485    2.770595    1.605824
     36          1           0        3.537245    1.046834    0.572035
     37          6           0        5.651605    2.025664   -0.914830
     38          1           0        4.119562    3.549763   -1.062332
     39          1           0        3.627188    1.989152   -1.717754
     40          6           0        5.759916    2.324463    1.592759
     41          1           0        4.246181    3.861404    1.510039
     42          1           0        3.813096    2.505024    2.550827
     43          6           0        6.429648    2.643945    0.251686
     44          1           0        6.113084    2.294375   -1.869374
     45          1           0        5.698287    0.932533   -0.837469
     46          1           0        6.298829    2.802859    2.415802
     47          1           0        5.807756    1.242980    1.770371
     48          1           0        7.461943    2.281686    0.249637
     49          1           0        6.472894    3.732021    0.120275
     50          1           0       -3.374770    1.436206    0.244908
     51          1           0        0.993467    1.675091    0.438611
 ---------------------------------------------------------------------
 Rotational constants (GHZ):           0.2590072           0.1218490           0.0858965
 Leave Link  202 at Sun Dec 16 14:46:10 2018, MaxMem=  1342177280 cpu:               0.1 elap:               0.0
 (Enter /gpfs/apps/hpc/Apps/Restricted/Gaussian/Rev_A.03/g16/l716.exe)
 Electric field and nuclear coordinate derivatives read from checkpoint file.
 Dipole        = 8.89686594D-01 2.38058457D+00 7.32936244D-01
 Polarizability= 4.62930131D+02 3.53895030D-01 6.12856426D+02
                 1.51743236D+01-1.26637245D+01 1.77072887D+02
 Full mass-weighted force constant matrix:
 Low frequencies ----1388.6002  -12.0413   -5.9681   -0.0020   -0.0007    0.0024
 Low frequencies ---   17.1437   34.4937   42.3232
 ******    1 imaginary frequencies (negative Signs) ****** 
 Diagonal vibrational polarizability:
       75.7703285      69.7191775      74.5029429
 Harmonic frequencies (cm**-1), IR intensities (KM/Mole), Raman scattering
 activities (A**4/AMU), depolarization ratios for plane and unpolarized
 incident light, reduced masses (AMU), force constants (mDyne/A),
 and normal coordinates:
                      1                      2                      3
                      A                      A                      A
 Frequencies --  -1388.6001                30.4074                42.0067
 Red. masses --      1.0434                 4.2950                 4.2077
 Frc consts  --      1.1854                 0.0023                 0.0044
 IR Inten    --   4678.0327                 0.5771                 0.5987
  Atom  AN      X      Y      Z        X      Y      Z        X      Y      Z
     1   6    -0.00  -0.02   0.00    -0.02   0.03   0.05     0.03  -0.04   0.03
     2   6    -0.01  -0.00  -0.00    -0.02   0.02  -0.02     0.03  -0.03  -0.02
     3   6     0.00  -0.00   0.00    -0.02   0.01  -0.04     0.04  -0.03  -0.03
     4   6     0.00   0.00   0.00    -0.02   0.02  -0.00     0.04  -0.03  -0.00
     5   6    -0.00   0.00  -0.00    -0.02   0.03   0.07     0.04  -0.04   0.04
     6   6     0.00  -0.00   0.00    -0.02   0.03   0.09     0.03  -0.04   0.05
     7   6     0.00   0.02   0.00    -0.01   0.02  -0.00     0.02  -0.04  -0.01
     8   1     0.00   0.00  -0.00    -0.01   0.01  -0.10     0.04  -0.03  -0.06
     9   1     0.00   0.00   0.00    -0.02   0.02  -0.02     0.04  -0.03  -0.01
    10   1    -0.00   0.00  -0.00    -0.03   0.03   0.09     0.04  -0.04   0.06
    11   7    -0.01   0.00  -0.00    -0.01   0.01  -0.05     0.03  -0.03  -0.04
    12   6     0.00  -0.00   0.00     0.03  -0.00  -0.07    -0.03   0.00  -0.04
    13   6    -0.00   0.00  -0.00     0.01   0.02  -0.01    -0.01  -0.03  -0.01
    14   6    -0.00  -0.00   0.00     0.02   0.04   0.07    -0.04  -0.07   0.02
    15   6     0.00   0.00   0.00     0.04   0.04   0.08    -0.09  -0.07   0.03
    16   6    -0.00  -0.00  -0.00     0.06   0.02   0.01    -0.11  -0.03   0.02
    17   6     0.00   0.00   0.00     0.05  -0.00  -0.06    -0.08   0.01  -0.02
    18   1    -0.01   0.01   0.00     0.01   0.05   0.13    -0.03  -0.10   0.03
    19   1    -0.00  -0.00  -0.00     0.07   0.01   0.02    -0.14  -0.03   0.04
    20   6    -0.00  -0.00  -0.00     0.05   0.06   0.16    -0.12  -0.11   0.06
    21   1     0.00  -0.00   0.00     0.11   0.05   0.18    -0.11  -0.11   0.07
    22   1     0.00  -0.00   0.00     0.02   0.08   0.19    -0.11  -0.13   0.09
    23   1     0.00  -0.00   0.00     0.02   0.07   0.17    -0.16  -0.10   0.06
    24   6    -0.00  -0.00  -0.00     0.07  -0.03  -0.12    -0.10   0.05  -0.03
    25   1    -0.00  -0.00  -0.00     0.03  -0.04  -0.15    -0.10   0.08  -0.04
    26   1    -0.00  -0.00   0.00     0.11  -0.04  -0.14    -0.08   0.05  -0.04
    27   1    -0.00  -0.00  -0.00     0.09  -0.03  -0.11    -0.14   0.05  -0.02
    28   8    -0.00  -0.00  -0.00     0.03  -0.02  -0.14    -0.01   0.03  -0.08
    29   7     0.01  -0.02   0.00    -0.01   0.03   0.06     0.03  -0.04   0.03
    30   6    -0.02   0.01  -0.00    -0.02   0.03   0.12     0.03  -0.04   0.07
    31   1     0.02  -0.04   0.00    -0.02   0.03   0.14     0.02  -0.03   0.07
    32   7    -0.03  -0.02   0.00    -0.02   0.03   0.11     0.04  -0.03   0.08
    33   6     0.00  -0.01  -0.00    -0.03   0.01   0.06     0.05   0.01   0.06
    34   6    -0.00  -0.00  -0.00    -0.11  -0.06   0.01    -0.02  -0.02   0.01
    35   6    -0.00  -0.00   0.00     0.07   0.03  -0.01     0.08   0.08   0.00
    36   1    -0.01  -0.01   0.00    -0.05   0.01   0.10     0.10   0.01   0.10
    37   6    -0.00  -0.00   0.00    -0.13  -0.14  -0.08     0.01   0.10  -0.04
    38   1    -0.00  -0.00   0.00    -0.06  -0.06  -0.01    -0.11  -0.03  -0.04
    39   1     0.00  -0.00  -0.00    -0.19  -0.05   0.06    -0.02  -0.10   0.06
    40   6    -0.00  -0.00  -0.00     0.04  -0.04  -0.09     0.11   0.20  -0.06
    41   1     0.00  -0.00  -0.00     0.11   0.03  -0.06     0.00   0.08  -0.02
    42   1     0.00   0.00   0.00     0.12   0.09   0.03     0.14   0.08   0.03
    43   6    -0.00   0.00  -0.00    -0.02  -0.14  -0.15     0.02   0.21  -0.10
    44   1    -0.00   0.00   0.00    -0.18  -0.19  -0.12    -0.06   0.09  -0.07
    45   1    -0.00   0.00  -0.00    -0.18  -0.14  -0.04     0.10   0.11   0.01
    46   1    -0.01   0.00  -0.00     0.13  -0.04  -0.15     0.11   0.27  -0.10
    47   1    -0.00   0.00   0.00    -0.00  -0.04  -0.05     0.21   0.21  -0.03
    48   1    -0.00  -0.00   0.00    -0.04  -0.20  -0.20     0.05   0.31  -0.14
    49   1     0.00  -0.00   0.00     0.03  -0.14  -0.19    -0.09   0.21  -0.14
    50   1    -0.01   0.02  -0.00    -0.00   0.01  -0.10     0.03  -0.03  -0.06
    51   1     0.85   0.51  -0.00    -0.02   0.03   0.08     0.04  -0.04   0.06
                      4                      5                      6
                      A                      A                      A
 Frequencies --     51.7766                66.7237                76.1376
 Red. masses --      4.0257                 4.8360                 3.2343
 Frc consts  --      0.0064                 0.0127                 0.0110
 IR Inten    --      1.6403                 2.1910                 0.2432
  Atom  AN      X      Y      Z        X      Y      Z        X      Y      Z
     1   6     0.00  -0.01  -0.01     0.00   0.00  -0.07     0.00  -0.00   0.03
     2   6     0.00  -0.00   0.06     0.00  -0.01  -0.06     0.01  -0.00  -0.06
     3   6    -0.00  -0.00   0.12    -0.02  -0.01   0.07     0.02  -0.00  -0.12
     4   6    -0.00  -0.00   0.11    -0.04   0.00   0.19     0.02  -0.00  -0.08
     5   6     0.00  -0.00   0.04    -0.04   0.02   0.18     0.02  -0.00   0.00
     6   6     0.00  -0.01  -0.03    -0.02   0.02   0.04     0.01  -0.00   0.06
     7   6     0.00  -0.01   0.00     0.03  -0.01  -0.18    -0.00  -0.00  -0.01
     8   1    -0.01   0.00   0.18    -0.03  -0.02   0.10     0.02   0.00  -0.19
     9   1    -0.00   0.00   0.17    -0.05   0.00   0.29     0.03  -0.00  -0.13
    10   1     0.00  -0.01   0.03    -0.05   0.03   0.28     0.02  -0.01   0.01
    11   7     0.00  -0.00   0.05     0.02  -0.02  -0.14     0.00  -0.00  -0.08
    12   6     0.00  -0.00  -0.06     0.01  -0.00  -0.07    -0.00  -0.00  -0.00
    13   6    -0.00  -0.00   0.02     0.02  -0.01  -0.15    -0.00  -0.00  -0.01
    14   6    -0.02  -0.01   0.11     0.02  -0.01  -0.12     0.00  -0.00  -0.01
    15   6    -0.02  -0.01   0.13    -0.00  -0.01   0.01     0.00  -0.00   0.01
    16   6    -0.02  -0.00   0.03    -0.02  -0.00   0.13    -0.00  -0.00   0.05
    17   6    -0.00  -0.00  -0.06    -0.01  -0.00   0.10    -0.00  -0.00   0.05
    18   1    -0.02  -0.01   0.19     0.03  -0.02  -0.20     0.00  -0.00  -0.03
    19   1    -0.02  -0.00   0.04    -0.03  -0.00   0.27    -0.01  -0.00   0.09
    20   6    -0.04  -0.01   0.25    -0.01  -0.02   0.04     0.00   0.00  -0.01
    21   1     0.03  -0.04   0.28     0.01  -0.01   0.04    -0.01   0.00  -0.02
    22   1    -0.06   0.00   0.29    -0.01  -0.02   0.04     0.01   0.00  -0.03
    23   1    -0.09   0.02   0.27    -0.02  -0.02   0.03     0.02  -0.00  -0.01
    24   6     0.00   0.00  -0.15    -0.03   0.02   0.23    -0.01  -0.00   0.10
    25   1    -0.05   0.01  -0.20     0.03   0.07   0.27     0.01   0.01   0.11
    26   1     0.07  -0.01  -0.18    -0.10  -0.02   0.26    -0.04  -0.01   0.11
    27   1    -0.00   0.00  -0.14    -0.05   0.02   0.29    -0.01  -0.00   0.11
    28   8     0.01   0.00  -0.11     0.02  -0.00  -0.13     0.00  -0.00  -0.04
    29   7     0.01  -0.01  -0.04     0.02   0.00  -0.16    -0.00  -0.00   0.05
    30   6     0.01  -0.01  -0.09    -0.01   0.04   0.05     0.00  -0.01   0.07
    31   1     0.01  -0.01  -0.10    -0.03   0.06   0.16     0.02  -0.03   0.04
    32   7     0.01  -0.01  -0.12     0.01   0.04  -0.05    -0.00  -0.01   0.07
    33   6     0.01  -0.00  -0.12     0.00   0.04  -0.01    -0.00  -0.01  -0.01
    34   6     0.06   0.10  -0.07     0.03  -0.00  -0.01    -0.04   0.19   0.02
    35   6    -0.05  -0.08  -0.04    -0.00   0.05  -0.02     0.02  -0.15   0.05
    36   1     0.01  -0.01  -0.19    -0.00   0.04   0.01     0.01  -0.02  -0.15
    37   6     0.07   0.10  -0.03     0.02  -0.05   0.02    -0.04   0.18  -0.07
    38   1     0.06   0.11  -0.00     0.07  -0.01  -0.03    -0.04   0.21   0.18
    39   1     0.10   0.14  -0.13     0.03  -0.00  -0.01    -0.06   0.31  -0.03
    40   6    -0.04  -0.07  -0.01    -0.02   0.00   0.02     0.01  -0.17  -0.03
    41   1    -0.05  -0.07   0.02     0.04   0.05  -0.04     0.02  -0.14   0.17
    42   1    -0.09  -0.13  -0.08    -0.02   0.09  -0.02     0.03  -0.25   0.03
    43   6     0.01   0.03   0.05     0.02  -0.06   0.03    -0.01   0.01  -0.00
    44   1     0.11   0.17   0.01     0.04  -0.08   0.03    -0.05   0.30  -0.05
    45   1     0.07   0.10  -0.10    -0.02  -0.05   0.04    -0.05   0.17  -0.23
    46   1    -0.08  -0.12   0.05    -0.01   0.00   0.02     0.04  -0.29   0.02
    47   1    -0.05  -0.08  -0.08    -0.06   0.01   0.05     0.00  -0.19  -0.18
    48   1     0.01   0.03   0.06     0.01  -0.10   0.05    -0.01  -0.00  -0.07
    49   1     0.01   0.04   0.12     0.07  -0.06   0.00     0.00   0.03   0.15
    50   1     0.00  -0.00   0.06     0.02  -0.02  -0.13     0.01   0.00  -0.11
    51   1     0.01  -0.01  -0.09     0.02   0.02  -0.13    -0.00  -0.01   0.07
                      7                      8                      9
                      A                      A                      A
 Frequencies --     91.2128               121.6652               156.8157
 Red. masses --      3.7931                 6.9916                 4.0996
 Frc consts  --      0.0186                 0.0610                 0.0594
 IR Inten    --      1.0320                 1.7812                 3.3684
  Atom  AN      X      Y      Z        X      Y      Z        X      Y      Z
     1   6    -0.01  -0.00  -0.02     0.01  -0.01  -0.14     0.02   0.02  -0.08
     2   6    -0.01   0.05  -0.02     0.01  -0.01  -0.15     0.02  -0.01   0.02
     3   6     0.05   0.08   0.02     0.01  -0.00  -0.06    -0.02  -0.02   0.08
     4   6     0.09   0.04   0.05     0.00   0.00   0.06    -0.04  -0.01   0.02
     5   6     0.09  -0.01   0.05     0.00   0.00   0.11    -0.03   0.03  -0.08
     6   6     0.03  -0.04   0.01     0.00  -0.00   0.00     0.00   0.04  -0.10
     7   6    -0.07   0.03  -0.05     0.00  -0.01  -0.13     0.07   0.00  -0.02
     8   1     0.05   0.13   0.02     0.01   0.00  -0.07    -0.03  -0.05   0.18
     9   1     0.13   0.06   0.09     0.00   0.01   0.14    -0.07  -0.01   0.05
    10   1     0.13  -0.04   0.07    -0.00   0.01   0.25    -0.06   0.04  -0.11
    11   7    -0.05   0.06  -0.04     0.01  -0.00  -0.15     0.05  -0.02   0.05
    12   6    -0.03  -0.01  -0.01    -0.03  -0.01   0.13     0.10   0.04  -0.01
    13   6    -0.05   0.03  -0.03    -0.02  -0.01  -0.05     0.11  -0.00  -0.03
    14   6    -0.02   0.08  -0.02    -0.02  -0.01  -0.06     0.09  -0.03  -0.05
    15   6     0.04   0.08   0.01    -0.02  -0.01   0.01     0.03  -0.03  -0.01
    16   6     0.06   0.03   0.02    -0.00  -0.01  -0.08     0.01   0.01  -0.01
    17   6     0.03  -0.02   0.02    -0.01  -0.01  -0.05     0.04   0.05  -0.01
    18   1    -0.04   0.12  -0.04    -0.01  -0.01  -0.10     0.11  -0.07  -0.07
    19   1     0.10   0.03   0.05     0.00  -0.01  -0.14    -0.02   0.01   0.01
    20   6     0.08   0.14   0.02    -0.03   0.01   0.17    -0.02  -0.10   0.06
    21   1     0.11   0.14   0.03     0.05  -0.08   0.23    -0.03  -0.16   0.09
    22   1     0.05   0.20   0.02    -0.05   0.03   0.19     0.01  -0.15   0.05
    23   1     0.12   0.15   0.03    -0.09   0.07   0.23    -0.09  -0.06   0.09
    24   6     0.06  -0.08   0.03     0.01  -0.03  -0.17     0.00   0.13   0.00
    25   1     0.05  -0.11   0.04    -0.06  -0.07  -0.21     0.04   0.19   0.00
    26   1     0.04  -0.11   0.04     0.07  -0.00  -0.19     0.01   0.15   0.00
    27   1     0.11  -0.08   0.04     0.02  -0.03  -0.21    -0.07   0.13   0.02
    28   8    -0.05  -0.04  -0.02    -0.07  -0.02   0.45     0.11   0.07   0.03
    29   7    -0.06  -0.01  -0.04     0.01  -0.01  -0.17     0.04   0.03  -0.09
    30   6     0.02  -0.11   0.01     0.00   0.01   0.09     0.01   0.04  -0.05
    31   1     0.04  -0.13   0.01    -0.01   0.02   0.20     0.02   0.02  -0.09
    32   7    -0.02  -0.12   0.00     0.01   0.01   0.03    -0.03   0.03   0.06
    33   6    -0.02  -0.14   0.01     0.02   0.03   0.03    -0.07  -0.07   0.08
    34   6    -0.04  -0.14  -0.00    -0.00   0.07   0.03    -0.13  -0.09   0.05
    35   6    -0.04  -0.12   0.02     0.05   0.01   0.02    -0.05  -0.13   0.09
    36   1    -0.03  -0.14   0.02     0.03   0.03   0.01    -0.15  -0.07   0.07
    37   6     0.01   0.03   0.01    -0.01   0.04  -0.02    -0.11   0.01  -0.00
    38   1    -0.15  -0.15  -0.05     0.01   0.07   0.07    -0.19  -0.10   0.01
    39   1     0.01  -0.23   0.02    -0.03   0.11   0.02    -0.14  -0.15   0.09
    40   6     0.00   0.05  -0.01     0.04  -0.03  -0.01    -0.03  -0.06  -0.01
    41   1    -0.14  -0.12   0.05     0.07   0.01   0.04    -0.09  -0.12   0.17
    42   1    -0.01  -0.18   0.01     0.06   0.01   0.03    -0.01  -0.21   0.09
    43   6    -0.06   0.16  -0.01     0.03  -0.02  -0.02    -0.13   0.08  -0.03
    44   1    -0.03   0.05  -0.00    -0.03   0.06  -0.02    -0.16   0.03  -0.02
    45   1     0.15   0.04   0.04    -0.03   0.04  -0.06    -0.02   0.01   0.01
    46   1    -0.05   0.10  -0.01     0.07  -0.06  -0.01    -0.01  -0.09  -0.01
    47   1     0.15   0.05  -0.03     0.01  -0.03  -0.04     0.05  -0.07  -0.10
    48   1    -0.00   0.32  -0.03     0.01  -0.05  -0.04    -0.08   0.24  -0.10
    49   1    -0.24   0.17  -0.01     0.06  -0.02   0.01    -0.31   0.10   0.00
    50   1    -0.06   0.09  -0.03    -0.01   0.01  -0.01     0.06  -0.05   0.08
    51   1    -0.06  -0.06  -0.02     0.02  -0.00  -0.09    -0.01   0.02  -0.00
                     10                     11                     12
                      A                      A                      A
 Frequencies --    163.1263               171.0126               176.6187
 Red. masses --      4.3840                 2.6780                 1.0575
 Frc consts  --      0.0687                 0.0461                 0.0194
 IR Inten    --      2.2720                 0.0391                 0.5369
  Atom  AN      X      Y      Z        X      Y      Z        X      Y      Z
     1   6    -0.00   0.02   0.13    -0.01   0.00   0.11     0.00  -0.00   0.02
     2   6     0.01  -0.01  -0.05    -0.01   0.00   0.08     0.00  -0.00   0.01
     3   6    -0.01  -0.02  -0.16     0.00   0.00   0.01    -0.00  -0.00  -0.00
     4   6    -0.03  -0.00  -0.02     0.01  -0.00  -0.06    -0.00  -0.00  -0.01
     5   6    -0.03   0.02   0.15     0.01  -0.01  -0.05    -0.00  -0.00  -0.01
     6   6    -0.02   0.03   0.17    -0.00  -0.00   0.04    -0.00   0.00   0.01
     7   6     0.04   0.00   0.01    -0.00   0.00  -0.00     0.00  -0.00  -0.00
     8   1    -0.00  -0.04  -0.34     0.00   0.00  -0.02    -0.00  -0.01  -0.01
     9   1    -0.04  -0.01  -0.08     0.01  -0.01  -0.13    -0.00  -0.00  -0.03
    10   1    -0.05   0.04   0.20     0.01  -0.01  -0.13    -0.00  -0.00  -0.02
    11   7     0.03  -0.01  -0.11    -0.01   0.00   0.04     0.00  -0.00   0.00
    12   6     0.05   0.02   0.03    -0.00  -0.01  -0.06     0.00   0.00  -0.01
    13   6     0.06   0.00   0.02     0.00  -0.00  -0.11     0.00  -0.00  -0.02
    14   6     0.05  -0.02   0.03     0.01  -0.00  -0.16    -0.00  -0.00  -0.02
    15   6     0.02  -0.02   0.01     0.00   0.00  -0.09    -0.00  -0.01  -0.01
    16   6     0.01   0.01  -0.01     0.01  -0.00  -0.13    -0.00  -0.00  -0.02
    17   6     0.02   0.03   0.00     0.00  -0.01  -0.07    -0.00   0.00  -0.02
    18   1     0.06  -0.04   0.03     0.01   0.00  -0.16     0.00  -0.01  -0.00
    19   1    -0.01   0.01  -0.03     0.01  -0.00  -0.10    -0.01  -0.00  -0.01
    20   6    -0.01  -0.06  -0.01    -0.01   0.02   0.18     0.01   0.01   0.03
    21   1    -0.08  -0.12   0.01     0.02  -0.26   0.34     0.37   0.46  -0.12
    22   1     0.03  -0.10  -0.07    -0.02   0.09   0.05    -0.13  -0.04   0.57
    23   1    -0.02  -0.02   0.04    -0.06   0.24   0.41    -0.18  -0.32  -0.37
    24   6     0.00   0.08  -0.03    -0.01  -0.01   0.10    -0.01   0.01   0.02
    25   1    -0.00   0.12  -0.05     0.17  -0.17   0.34     0.03  -0.02   0.07
    26   1     0.04   0.09  -0.04    -0.25   0.16   0.27    -0.06   0.05   0.06
    27   1    -0.04   0.08  -0.02     0.02  -0.02  -0.11    -0.01   0.01  -0.03
    28   8     0.06   0.04   0.06    -0.01  -0.01   0.03     0.00   0.00   0.02
    29   7     0.01   0.03   0.14    -0.01   0.00   0.07     0.00  -0.00   0.01
    30   6    -0.01   0.03   0.08    -0.00  -0.01  -0.01    -0.00   0.00   0.00
    31   1    -0.02   0.04   0.16     0.00  -0.01  -0.05    -0.00   0.00  -0.00
    32   7    -0.02   0.02  -0.13     0.00  -0.01  -0.00    -0.00   0.00  -0.00
    33   6    -0.04  -0.05  -0.13     0.01   0.00  -0.02    -0.00  -0.00  -0.01
    34   6     0.03  -0.12  -0.11     0.01   0.01  -0.01     0.00  -0.01  -0.00
    35   6    -0.11  -0.06  -0.09    -0.00   0.01  -0.01    -0.00  -0.00  -0.00
    36   1    -0.10  -0.05  -0.11     0.01   0.00  -0.01    -0.00  -0.00  -0.00
    37   6     0.06  -0.04   0.02     0.01  -0.00   0.00     0.00  -0.00  -0.00
    38   1    -0.01  -0.14  -0.21     0.02   0.01  -0.01    -0.00  -0.01  -0.01
    39   1     0.11  -0.22  -0.11     0.02   0.01  -0.02     0.01  -0.01  -0.00
    40   6    -0.10   0.00   0.00    -0.00   0.01   0.01    -0.00  -0.00  -0.00
    41   1    -0.12  -0.06  -0.06    -0.00   0.01  -0.03    -0.00  -0.00  -0.00
    42   1    -0.17  -0.09  -0.12    -0.01   0.02  -0.02    -0.01  -0.00  -0.01
    43   6    -0.06   0.07   0.04     0.01  -0.01   0.01    -0.00   0.00   0.00
    44   1     0.11  -0.05   0.04     0.02  -0.01   0.01     0.01   0.00   0.00
    45   1     0.13  -0.03   0.08     0.00  -0.00   0.01     0.01  -0.00   0.00
    46   1    -0.17   0.02   0.04    -0.01   0.02   0.01    -0.01  -0.00   0.00
    47   1    -0.05   0.00  -0.01    -0.01   0.01   0.02    -0.00  -0.00  -0.00
    48   1    -0.02   0.19   0.10     0.01  -0.03   0.02    -0.00   0.01   0.00
    49   1    -0.19   0.07   0.03     0.03  -0.01   0.00    -0.01   0.00   0.00
    50   1     0.04  -0.03  -0.14    -0.00   0.00   0.02     0.00  -0.00   0.00
    51   1    -0.01   0.02  -0.01    -0.00  -0.00   0.03     0.00   0.00   0.00
                     13                     14                     15
                      A                      A                      A
 Frequencies --    185.4755               212.2312               224.0483
 Red. masses --      1.6702                 3.9042                 1.7887
 Frc consts  --      0.0339                 0.1036                 0.0529
 IR Inten    --      3.8982                 0.7130                 0.4888
  Atom  AN      X      Y      Z        X      Y      Z        X      Y      Z
     1   6     0.00  -0.00  -0.07    -0.05   0.01  -0.02    -0.00  -0.02  -0.03
     2   6     0.00  -0.00  -0.06    -0.06  -0.03   0.02    -0.00  -0.01  -0.03
     3   6    -0.00  -0.00  -0.02    -0.13  -0.07  -0.01     0.00  -0.01  -0.02
     4   6    -0.00   0.00   0.03    -0.15  -0.06  -0.05     0.00  -0.01   0.02
     5   6    -0.00   0.00   0.04    -0.14  -0.01  -0.02     0.00  -0.02   0.03
     6   6     0.00   0.00  -0.02    -0.06   0.02   0.00    -0.00  -0.02  -0.01
     7   6     0.00   0.00   0.01    -0.01   0.00   0.01    -0.01  -0.01   0.02
     8   1    -0.00  -0.00  -0.01    -0.13  -0.12   0.01     0.00  -0.01  -0.01
     9   1    -0.01   0.00   0.08    -0.17  -0.07  -0.08     0.01  -0.01   0.05
    10   1    -0.01   0.01   0.09    -0.20   0.03  -0.02     0.01  -0.02   0.06
    11   7     0.00  -0.00  -0.02    -0.03  -0.03   0.06    -0.01  -0.01  -0.00
    12   6     0.00   0.00   0.01    -0.03   0.02  -0.00     0.01   0.00  -0.01
    13   6    -0.00   0.00   0.08    -0.03   0.02   0.00     0.00   0.00   0.04
    14   6    -0.01   0.00   0.15    -0.02   0.04   0.00    -0.00   0.01   0.08
    15   6     0.00  -0.00   0.01    -0.01   0.04  -0.01     0.01   0.00  -0.05
    16   6     0.01  -0.00  -0.11    -0.01   0.03  -0.01     0.02  -0.00  -0.17
    17   6     0.00   0.00  -0.04    -0.02   0.03  -0.00     0.01   0.01  -0.04
    18   1    -0.02   0.00   0.25    -0.03   0.05   0.01    -0.02   0.01   0.20
    19   1     0.02  -0.00  -0.21    -0.00   0.03  -0.01     0.03  -0.00  -0.25
    20   6    -0.00  -0.01  -0.02     0.03   0.10   0.00     0.02   0.03   0.04
    21   1    -0.04  -0.03  -0.02     0.03   0.07   0.02     0.09  -0.01   0.07
    22   1     0.01  -0.02  -0.05    -0.00   0.16  -0.04    -0.01   0.07   0.06
    23   1     0.01  -0.00  -0.00     0.08   0.12   0.04     0.00   0.06   0.07
    24   6    -0.01   0.00   0.06    -0.02   0.03   0.01    -0.03   0.06   0.10
    25   1     0.21  -0.35   0.42    -0.03   0.08  -0.02    -0.07   0.51  -0.14
    26   1    -0.30   0.37   0.31    -0.00  -0.00  -0.01     0.10  -0.32  -0.06
    27   1     0.06  -0.02  -0.38    -0.04   0.04   0.06    -0.14   0.09   0.59
    28   8     0.01   0.00  -0.03    -0.03   0.02  -0.01     0.01   0.01  -0.01
    29   7     0.00   0.00  -0.04    -0.01   0.02  -0.05    -0.01  -0.01  -0.01
    30   6     0.00   0.01   0.01    -0.02   0.05   0.07    -0.01  -0.03  -0.00
    31   1    -0.00   0.01   0.04    -0.05   0.08   0.20    -0.01  -0.03   0.00
    32   7     0.00   0.00  -0.00     0.03   0.05  -0.01    -0.00  -0.03   0.00
    33   6    -0.00  -0.00   0.01     0.05  -0.03   0.02     0.00  -0.00  -0.00
    34   6    -0.00  -0.00   0.00     0.10  -0.12   0.01    -0.00   0.02   0.00
    35   6     0.00  -0.00   0.01     0.13  -0.10   0.02    -0.01   0.01  -0.00
    36   1    -0.01  -0.00   0.01    -0.05  -0.03   0.04     0.02  -0.00  -0.01
    37   6    -0.00   0.00  -0.00     0.16   0.01   0.01    -0.01   0.00  -0.00
    38   1    -0.01  -0.01  -0.00     0.03  -0.14  -0.09     0.01   0.03   0.03
    39   1    -0.00  -0.01   0.01     0.16  -0.23   0.04    -0.01   0.05  -0.01
    40   6     0.00  -0.00  -0.00     0.15  -0.10  -0.04    -0.00   0.02   0.00
    41   1     0.00  -0.00   0.01     0.14  -0.09   0.08    -0.02   0.01  -0.01
    42   1     0.01  -0.01   0.01     0.17  -0.14   0.03    -0.01   0.01  -0.00
    43   6    -0.00   0.01  -0.00     0.12   0.07  -0.01     0.00  -0.01  -0.00
    44   1    -0.01   0.00  -0.00     0.10   0.04  -0.01    -0.01  -0.00  -0.00
    45   1     0.00   0.00  -0.00     0.27   0.01   0.02    -0.03  -0.00  -0.01
    46   1     0.01  -0.01  -0.00     0.14  -0.20   0.02    -0.01   0.04  -0.01
    47   1     0.00  -0.01  -0.01     0.16  -0.12  -0.18     0.00   0.02   0.03
    48   1     0.00   0.01  -0.01     0.17   0.20  -0.04    -0.01  -0.04   0.00
    49   1    -0.01   0.01  -0.00    -0.02   0.08   0.05     0.03  -0.02  -0.01
    50   1     0.00  -0.00  -0.01    -0.02  -0.07   0.06    -0.01  -0.01   0.00
    51   1     0.00   0.00  -0.02     0.01   0.05  -0.05    -0.01  -0.02  -0.00
                     16                     17                     18
                      A                      A                      A
 Frequencies --    232.7734               238.9395               244.4026
 Red. masses --      2.7211                 3.1064                 2.5869
 Frc consts  --      0.0869                 0.1045                 0.0910
 IR Inten    --      1.6152                 2.0161                 3.3506
  Atom  AN      X      Y      Z        X      Y      Z        X      Y      Z
     1   6    -0.02  -0.04   0.03    -0.01  -0.05  -0.04    -0.00   0.01  -0.04
     2   6    -0.02  -0.05  -0.03    -0.01  -0.04   0.04    -0.01   0.02   0.05
     3   6    -0.04  -0.06   0.01     0.01  -0.04  -0.02     0.01   0.02  -0.03
     4   6    -0.04  -0.06   0.05     0.04  -0.05  -0.08     0.02   0.01  -0.10
     5   6    -0.04  -0.06   0.01     0.03  -0.06   0.00     0.01   0.01   0.01
     6   6    -0.02  -0.05  -0.01     0.00  -0.07   0.04    -0.00   0.01   0.05
     7   6    -0.00  -0.02  -0.01    -0.01  -0.02  -0.00    -0.01   0.01  -0.00
     8   1    -0.04  -0.07   0.01     0.02  -0.02  -0.02     0.01   0.03  -0.05
     9   1    -0.04  -0.06   0.10     0.05  -0.05  -0.15     0.02   0.01  -0.19
    10   1    -0.05  -0.05  -0.01     0.04  -0.07   0.03     0.01   0.01   0.05
    11   7    -0.01  -0.04  -0.08    -0.02  -0.03   0.11    -0.01   0.01   0.14
    12   6     0.02   0.04   0.01     0.03   0.03   0.00     0.01  -0.01  -0.01
    13   6     0.01   0.01  -0.01     0.02   0.00  -0.00     0.01  -0.00  -0.00
    14   6     0.02   0.03  -0.02     0.02   0.02  -0.02     0.01  -0.00   0.00
    15   6     0.02   0.04   0.02     0.02   0.03   0.02     0.00  -0.01   0.00
    16   6     0.00   0.04   0.05     0.01   0.03   0.05     0.00  -0.01   0.01
    17   6     0.01   0.05   0.01     0.01   0.04   0.01     0.00  -0.01   0.00
    18   1     0.02   0.03  -0.07     0.02   0.02  -0.04     0.01  -0.01   0.02
    19   1    -0.01   0.04   0.08    -0.00   0.03   0.07     0.00  -0.00   0.01
    20   6     0.06   0.10  -0.01     0.06   0.08  -0.01    -0.02  -0.04   0.00
    21   1     0.05   0.10  -0.01     0.05   0.07  -0.01    -0.03  -0.03  -0.01
    22   1     0.03   0.16  -0.05     0.04   0.13  -0.06    -0.00  -0.07   0.02
    23   1     0.13   0.10   0.01     0.13   0.08   0.02    -0.05  -0.05  -0.01
    24   6    -0.03   0.14  -0.05    -0.02   0.14  -0.04     0.01  -0.02   0.01
    25   1     0.03   0.04   0.05     0.03   0.08   0.03     0.01  -0.03   0.00
    26   1    -0.05   0.34   0.02    -0.04   0.30   0.01     0.01  -0.04   0.00
    27   1    -0.09   0.12  -0.24    -0.11   0.12  -0.18     0.03  -0.02   0.02
    28   8     0.02   0.05   0.02     0.04   0.05  -0.01     0.01  -0.00  -0.01
    29   7    -0.01  -0.03   0.07    -0.00  -0.05  -0.11    -0.00   0.01  -0.13
    30   6    -0.02  -0.07  -0.09    -0.02  -0.09   0.14    -0.01   0.01   0.15
    31   1    -0.01  -0.08  -0.24    -0.02  -0.08   0.33    -0.02   0.02   0.38
    32   7    -0.01  -0.07   0.02    -0.01  -0.09  -0.02    -0.00   0.00  -0.06
    33   6     0.01  -0.04  -0.02    -0.00   0.00   0.01    -0.01  -0.01  -0.05
    34   6     0.03   0.09   0.02    -0.05  -0.03  -0.02     0.03   0.10  -0.00
    35   6    -0.01  -0.07   0.02    -0.02   0.13  -0.05    -0.04  -0.11   0.02
    36   1     0.04  -0.04  -0.11     0.09   0.01   0.09    -0.02  -0.02  -0.16
    37   6    -0.02  -0.06   0.02    -0.01   0.09  -0.04    -0.03  -0.09   0.03
    38   1     0.14   0.12   0.16    -0.15  -0.04  -0.06     0.19   0.12   0.13
    39   1    -0.01   0.25  -0.04    -0.02  -0.11   0.01    -0.01   0.27  -0.07
    40   6     0.05   0.10   0.01    -0.08  -0.03   0.01     0.03   0.10   0.00
    41   1    -0.14  -0.07   0.09     0.09   0.12  -0.19    -0.16  -0.10   0.17
    42   1     0.03  -0.17   0.01    -0.07   0.29  -0.03    -0.01  -0.27  -0.00
    43   6     0.03  -0.03  -0.03    -0.02  -0.03   0.04    -0.01   0.00  -0.04
    44   1    -0.00  -0.16  -0.00    -0.01   0.22  -0.00     0.01  -0.24  -0.00
    45   1    -0.14  -0.06   0.09     0.05   0.08  -0.17    -0.15  -0.09   0.16
    46   1    -0.00   0.28  -0.06    -0.04  -0.13   0.04    -0.03   0.28  -0.06
    47   1     0.18   0.13   0.17    -0.23  -0.05  -0.04     0.20   0.13   0.14
    48   1     0.01  -0.09  -0.01    -0.05  -0.12   0.05    -0.00   0.02  -0.02
    49   1     0.09  -0.05  -0.12     0.07  -0.03   0.11    -0.03  -0.01  -0.14
    50   1    -0.00  -0.07  -0.08    -0.01  -0.04   0.13    -0.02   0.02   0.15
    51   1    -0.01  -0.05   0.08    -0.01  -0.08  -0.12    -0.00   0.00  -0.16
                     19                     20                     21
                      A                      A                      A
 Frequencies --    267.0812               297.3225               303.8618
 Red. masses --      4.1011                 3.7171                 4.5828
 Frc consts  --      0.1724                 0.1936                 0.2493
 IR Inten    --      0.7636                 5.7998                 0.8349
  Atom  AN      X      Y      Z        X      Y      Z        X      Y      Z
     1   6     0.13  -0.04   0.01     0.04  -0.04  -0.02    -0.01   0.01  -0.15
     2   6     0.13  -0.06   0.01     0.04  -0.06  -0.02    -0.01   0.01  -0.12
     3   6     0.07  -0.10  -0.00    -0.01  -0.10  -0.03     0.01   0.02  -0.20
     4   6     0.00  -0.06  -0.01    -0.04  -0.09   0.01     0.01   0.03   0.06
     5   6     0.00  -0.00   0.01    -0.04  -0.06   0.03    -0.00   0.02   0.20
     6   6     0.06   0.03   0.01     0.01  -0.04  -0.00    -0.00   0.01  -0.07
     7   6     0.09  -0.04   0.01     0.03  -0.01   0.03    -0.02   0.01   0.20
     8   1     0.06  -0.17  -0.00    -0.02  -0.15  -0.04     0.02   0.03  -0.30
     9   1    -0.04  -0.08  -0.02    -0.05  -0.09   0.02     0.00   0.03   0.15
    10   1    -0.03   0.02   0.01    -0.07  -0.03   0.07    -0.00   0.03   0.44
    11   7     0.12  -0.04   0.02     0.04  -0.03   0.03    -0.02   0.01   0.19
    12   6    -0.08  -0.01  -0.00    -0.06   0.11   0.01     0.00  -0.02   0.08
    13   6    -0.06  -0.02   0.00    -0.01   0.04   0.02    -0.01  -0.01   0.12
    14   6    -0.09  -0.02   0.01     0.03   0.09  -0.03     0.01  -0.03  -0.20
    15   6    -0.06  -0.01  -0.01     0.02   0.11  -0.03     0.00  -0.04  -0.11
    16   6    -0.05  -0.03  -0.00     0.00   0.17  -0.03    -0.01  -0.04   0.02
    17   6    -0.06  -0.02   0.00    -0.03   0.12   0.02    -0.01  -0.02   0.06
    18   1    -0.09  -0.02   0.01     0.02   0.13  -0.05     0.04  -0.05  -0.39
    19   1    -0.05  -0.03  -0.02    -0.00   0.17  -0.05    -0.02  -0.04   0.06
    20   6     0.09   0.21  -0.01    -0.10  -0.04   0.01     0.02   0.01   0.07
    21   1     0.16   0.19   0.02    -0.12  -0.05   0.01     0.19  -0.05   0.14
    22   1    -0.03   0.44  -0.09    -0.03  -0.19   0.09    -0.05   0.08   0.15
    23   1     0.31   0.24   0.07    -0.28  -0.04  -0.02    -0.05   0.06   0.11
    24   6    -0.07  -0.03  -0.01     0.12  -0.19   0.03    -0.02   0.02  -0.03
    25   1    -0.08  -0.04  -0.01    -0.01  -0.34  -0.02    -0.05  -0.03  -0.04
    26   1    -0.06  -0.03  -0.01     0.09  -0.39  -0.01     0.04   0.11  -0.03
    27   1    -0.06  -0.03  -0.01     0.43  -0.16   0.10    -0.05   0.01  -0.13
    28   8    -0.08  -0.01  -0.01    -0.02   0.18  -0.02     0.02  -0.02  -0.09
    29   7     0.12  -0.06  -0.00     0.04  -0.03   0.00    -0.01   0.01   0.03
    30   6     0.07   0.12   0.01     0.01  -0.03  -0.01    -0.00   0.01  -0.10
    31   1     0.05   0.13   0.03     0.02  -0.03  -0.02    -0.00   0.01  -0.20
    32   7     0.04   0.11  -0.03     0.01  -0.03   0.00    -0.00   0.01   0.01
    33   6    -0.02   0.05  -0.02     0.00  -0.02  -0.00    -0.00   0.00   0.01
    34   6    -0.03   0.01  -0.03    -0.02   0.00  -0.00     0.00  -0.00   0.01
    35   6    -0.05  -0.01   0.03    -0.02   0.01  -0.00     0.01  -0.00   0.01
    36   1    -0.06   0.05  -0.03     0.03  -0.01   0.00    -0.01   0.00   0.02
    37   6    -0.07  -0.05   0.01    -0.02   0.01  -0.01     0.00   0.00   0.00
    38   1     0.02   0.01  -0.05    -0.03   0.00   0.01    -0.00  -0.01   0.00
    39   1    -0.08   0.01  -0.00    -0.03   0.00  -0.00     0.00  -0.01   0.02
    40   6    -0.06  -0.02   0.01    -0.03   0.01   0.01     0.01  -0.01  -0.00
    41   1    -0.05  -0.01   0.11    -0.02   0.01  -0.02     0.01  -0.00   0.01
    42   1    -0.08  -0.08   0.00    -0.03   0.02  -0.01     0.02  -0.00   0.01
    43   6    -0.12   0.04  -0.01    -0.02  -0.02   0.01     0.01   0.00  -0.00
    44   1    -0.03  -0.13   0.01    -0.01   0.04  -0.00    -0.01   0.00  -0.00
    45   1    -0.10  -0.05   0.10    -0.02   0.01  -0.04     0.01   0.00   0.00
    46   1    -0.04  -0.05   0.01    -0.02   0.03  -0.00     0.02  -0.02  -0.00
    47   1    -0.06  -0.03  -0.04    -0.03   0.02   0.04     0.01  -0.01  -0.02
    48   1    -0.08   0.16  -0.02    -0.03  -0.04   0.01     0.01   0.00  -0.01
    49   1    -0.26   0.04  -0.02     0.01  -0.02   0.01     0.01   0.00  -0.00
    50   1     0.11  -0.02   0.02     0.04  -0.06   0.02    -0.02   0.00   0.13
    51   1     0.08   0.00  -0.02     0.02  -0.05   0.01    -0.01   0.02   0.09
                     22                     23                     24
                      A                      A                      A
 Frequencies --    339.3205               344.7358               378.6213
 Red. masses --      1.9518                 3.5287                 4.4488
 Frc consts  --      0.1324                 0.2471                 0.3758
 IR Inten    --      1.4373                 4.1543                 6.2879
  Atom  AN      X      Y      Z        X      Y      Z        X      Y      Z
     1   6     0.02   0.03   0.01     0.01   0.01  -0.07    -0.04   0.02   0.11
     2   6     0.02   0.01   0.02     0.01   0.00  -0.11    -0.04   0.02   0.13
     3   6    -0.01  -0.01  -0.02    -0.01   0.01   0.14    -0.01   0.04   0.00
     4   6    -0.03   0.01  -0.02    -0.01   0.01   0.04     0.01   0.03  -0.06
     5   6    -0.03   0.04   0.02     0.00   0.01  -0.16     0.00   0.02   0.04
     6   6     0.01   0.05   0.01     0.00   0.01  -0.05    -0.03   0.01   0.09
     7   6     0.03   0.01  -0.01     0.00   0.00   0.06     0.00  -0.01  -0.14
     8   1    -0.01  -0.04  -0.05    -0.02   0.02   0.38    -0.00   0.06  -0.12
     9   1    -0.05  -0.00  -0.04    -0.01   0.01   0.15     0.02   0.03  -0.20
    10   1    -0.05   0.06   0.03     0.00   0.01  -0.25     0.02   0.00  -0.01
    11   7     0.03   0.01   0.02     0.01   0.00  -0.11    -0.01   0.00  -0.05
    12   6    -0.00  -0.01  -0.02    -0.01   0.00   0.14     0.02   0.01   0.18
    13   6     0.00  -0.00  -0.02    -0.00  -0.00   0.13     0.04  -0.03   0.06
    14   6    -0.02  -0.02   0.02     0.00  -0.02  -0.09    -0.00  -0.08   0.02
    15   6    -0.02  -0.02   0.01    -0.00  -0.02  -0.09    -0.04  -0.09  -0.06
    16   6    -0.02  -0.02   0.00    -0.01  -0.02  -0.05    -0.05  -0.06  -0.11
    17   6    -0.01  -0.01  -0.01    -0.02  -0.00   0.12    -0.06  -0.00   0.20
    18   1    -0.01  -0.03   0.04     0.02  -0.04  -0.22     0.03  -0.14  -0.03
    19   1    -0.02  -0.02   0.01    -0.01  -0.02  -0.15    -0.07  -0.06  -0.37
    20   6     0.01   0.02  -0.01     0.01   0.01   0.04     0.06   0.05   0.02
    21   1     0.02   0.03  -0.01     0.15  -0.04   0.10     0.21   0.03   0.07
    22   1    -0.01   0.07  -0.03    -0.05   0.06   0.12    -0.06   0.22   0.05
    23   1     0.07   0.02   0.00    -0.05   0.05   0.07     0.14   0.08   0.07
    24   6    -0.01  -0.03   0.00    -0.00  -0.01  -0.03    -0.02  -0.08  -0.03
    25   1    -0.01  -0.02   0.01    -0.10  -0.09  -0.07    -0.21  -0.24  -0.12
    26   1    -0.03  -0.04   0.00     0.10   0.05  -0.06     0.14  -0.05  -0.10
    27   1     0.00  -0.02   0.02     0.01  -0.01  -0.11     0.08  -0.08  -0.14
    28   8    -0.00  -0.00   0.01     0.02   0.01  -0.08     0.13   0.14  -0.07
    29   7     0.02   0.02  -0.03    -0.00   0.01   0.10    -0.02   0.01  -0.15
    30   6     0.02   0.03  -0.02    -0.00   0.01   0.20    -0.02  -0.03  -0.10
    31   1     0.03   0.02  -0.08    -0.01   0.02   0.51    -0.01  -0.05  -0.35
    32   7    -0.01   0.02   0.02    -0.01  -0.00  -0.04    -0.02  -0.02   0.06
    33   6    -0.03  -0.09   0.00    -0.01  -0.02  -0.02    -0.01  -0.00  -0.00
    34   6    -0.05  -0.07   0.00     0.00  -0.01  -0.02     0.00   0.01   0.01
    35   6    -0.03  -0.07  -0.02    -0.03  -0.03  -0.02     0.02   0.01  -0.02
    36   1    -0.10  -0.09   0.01    -0.02  -0.02  -0.04     0.01  -0.00  -0.00
    37   6     0.01   0.11  -0.06     0.01   0.02  -0.02     0.00  -0.01   0.03
    38   1    -0.21  -0.08  -0.02    -0.02  -0.01  -0.01     0.02   0.01   0.02
    39   1     0.01  -0.15   0.01     0.02  -0.01  -0.04     0.02   0.02  -0.01
    40   6     0.01   0.09   0.04    -0.01   0.03   0.01     0.01  -0.02  -0.01
    41   1    -0.14  -0.07  -0.02    -0.05  -0.03  -0.00     0.04   0.01  -0.07
    42   1    -0.01  -0.09  -0.01    -0.03  -0.05  -0.03     0.02   0.06  -0.01
    43   6     0.07  -0.09   0.02     0.01  -0.02   0.01     0.02   0.02   0.00
    44   1    -0.03   0.33  -0.01     0.02   0.08  -0.01     0.00  -0.07   0.02
    45   1     0.10   0.09  -0.30     0.03   0.02  -0.08    -0.02  -0.01   0.09
    46   1    -0.06   0.33  -0.04    -0.05   0.11  -0.02     0.01  -0.07   0.02
    47   1     0.13   0.14   0.27     0.03   0.05   0.08    -0.01  -0.03  -0.06
    48   1    -0.02  -0.37   0.05    -0.01  -0.09   0.03     0.03   0.05  -0.01
    49   1     0.39  -0.11   0.02     0.10  -0.03  -0.00    -0.02   0.02   0.01
    50   1     0.03   0.01   0.03     0.02   0.00  -0.14    -0.01  -0.01  -0.04
    51   1    -0.01   0.02   0.00    -0.00   0.00  -0.01    -0.01   0.00  -0.02
[...]
 --------------------------------------------------------------------------------
 ! R11   R(5,10)                -0.0586                  3.6                    !
 ! R12   R(6,30)                -0.0446                  2.7                    !
 ! R35   R(30,31)                1.081                  65.7                    !
 ! R36   R(30,32)               -0.0492                  3.0                    !
 ! R40   R(33,36)                0.0133                  0.8                    !
 ! R42   R(34,38)                0.0235                  1.4                    !
 ! R45   R(35,41)                0.0242                  1.5                    !
 ! A17   A(1,6,30)              -0.0266                  1.6                    !
 ! A18   A(5,6,30)               0.0268                  1.6                    !
 ! A58   A(6,30,31)             -0.0242                  1.5                    !
 ! A59   A(6,30,32)              0.0576                  3.5                    !
 ! A60   A(31,30,32)            -0.0334                  2.0                    !
 ! A61   A(30,32,33)             0.0304                  1.8                    !
 --------------------------------------------------------------------------------
                           ----------------------------
                           ! Normal Mode   142        !
 --------------------------                            --------------------------
 ! Name  Definition              Value          Relative Weight (%)             !
 --------------------------------------------------------------------------------
 ! R22   R(14,18)                0.0528                  3.4                    !
 ! R23   R(15,16)                0.0435                  2.8                    !
 ! R25   R(16,17)                0.0467                  3.0                    !
 ! R26   R(16,19)               -1.0815                 69.1                    !
 ! R33   R(24,27)               -0.0281                  1.8                    !
 ! A34   A(14,15,16)             0.0261                  1.7                    !
 ! A36   A(16,15,20)            -0.0294                  1.9                    !
 ! A37   A(15,16,17)            -0.0573                  3.7                    !
 ! A38   A(15,16,19)             0.0295                  1.9                    !
 ! A39   A(17,16,19)             0.0277                  1.8                    !
 ! A40   A(12,17,16)             0.0276                  1.8                    !
 ! A42   A(16,17,24)            -0.0304                  1.9                    !
 --------------------------------------------------------------------------------
                           ----------------------------
                           ! Normal Mode   143        !
 --------------------------                            --------------------------
 ! Name  Definition              Value          Relative Weight (%)             !
 --------------------------------------------------------------------------------
 ! R7    R(3,8)                  0.0267                  1.4                    !
 ! R8    R(4,5)                 -0.0299                  1.6                    !
 ! R9    R(4,9)                 -0.3258                 17.5                    !
 ! R10   R(5,6)                 -0.0453                  2.4                    !
 ! R11   R(5,10)                 1.0308                 55.3                    !
 ! R35   R(30,31)                0.0562                  3.0                    !
 ! A10   A(3,4,5)               -0.0444                  2.4                    !
 ! A12   A(5,4,9)                0.0386                  2.1                    !
 ! A13   A(4,5,6)                0.0628                  3.4                    !
 ! A14   A(4,5,10)              -0.0404                  2.2                    !
 ! A16   A(1,6,5)               -0.0259                  1.4                    !
 ! A18   A(5,6,30)               0.0289                  1.6                    !
 --------------------------------------------------------------------------------
                           ----------------------------
                           ! Normal Mode   144        !
 --------------------------                            --------------------------
 ! Name  Definition              Value          Relative Weight (%)             !
 --------------------------------------------------------------------------------
 ! R20   R(13,14)               -0.0467                  3.0                    !
 ! R21   R(14,15)               -0.0447                  2.9                    !
 ! R22   R(14,18)                1.0816                 69.3                    !
 ! R26   R(16,19)                0.0527                  3.4                    !
 ! R29   R(20,22)                0.0225                  1.4                    !
 ! A29   A(7,13,14)              0.0298                  1.9                    !
 ! A30   A(12,13,14)            -0.0277                  1.8                    !
 ! A31   A(13,14,15)             0.0569                  3.6                    !
 ! A32   A(13,14,18)            -0.0292                  1.9                    !
 ! A33   A(15,14,18)            -0.0277                  1.8                    !
 ! A34   A(14,15,16)            -0.0286                  1.8                    !
 ! A35   A(14,15,20)             0.0297                  1.9                    !
 --------------------------------------------------------------------------------
                           ----------------------------
                           ! Normal Mode   145        !
 --------------------------                            --------------------------
 ! Name  Definition              Value          Relative Weight (%)             !
 --------------------------------------------------------------------------------
 ! R6    R(3,4)                 -0.0315                  1.6                    !
 ! R7    R(3,8)                 -0.2281                 11.6                    !
 ! R8    R(4,5)                 -0.0547                  2.8                    !
 ! R9    R(4,9)                  1.0083                 51.4                    !
 ! R11   R(5,10)                 0.3235                 16.5                    !
 ! A7    A(2,3,4)               -0.038                   1.9                    !
 ! A9    A(4,3,8)                0.0367                  1.9                    !
 ! A10   A(3,4,5)                0.0511                  2.6                    !
 ! A11   A(3,4,9)               -0.0347                  1.8                    !
 --------------------------------------------------------------------------------
                           ----------------------------
                           ! Normal Mode   146        !
 --------------------------                            --------------------------
 ! Name  Definition              Value          Relative Weight (%)             !
 --------------------------------------------------------------------------------
 ! R4    R(2,3)                  0.0496                  2.9                    !
 ! R6    R(3,4)                  0.057                   3.4                    !
 ! R7    R(3,8)                 -1.0599                 62.3                    !
 ! R9    R(4,9)                 -0.2255                 13.3                    !
 ! R11   R(5,10)                -0.0438                  2.6                    !
 ! A4    A(1,2,3)                0.0263                  1.5                    !
 ! A6    A(3,2,11)              -0.0287                  1.7                    !
 ! A7    A(2,3,4)               -0.0494                  2.9                    !
 ! A8    A(2,3,8)                0.025                   1.5                    !
 ! A9    A(4,3,8)                0.0245                  1.4                    !
 ! A11   A(3,4,9)               -0.0257                  1.5                    !
 --------------------------------------------------------------------------------
                           ----------------------------
                           ! Normal Mode   147        !
 --------------------------                            --------------------------
 ! Name  Definition              Value          Relative Weight (%)             !
 --------------------------------------------------------------------------------
 ! R5    R(2,11)                 0.0483                  3.4                    !
 ! R13   R(7,11)                 0.0415                  2.9                    !
 ! R16   R(11,50)               -1.0716                 74.6                    !
 ! A5    A(1,2,11)               0.0236                  1.6                    !
 ! A6    A(3,2,11)              -0.0248                  1.7                    !
 ! A19   A(11,7,13)             -0.0251                  1.7                    !
 ! A20   A(11,7,29)              0.0251                  1.7                    !
 ! A22   A(2,11,7)              -0.0488                  3.4                    !
 ! A23   A(2,11,50)              0.0571                  4.0                    !
 --------------------------------------------------------------------------------
 -------------------------------------------------------------------
 Center     Atomic                   Forces (Hartrees/Bohr)
 Number     Number              X              Y              Z
 -------------------------------------------------------------------
      1        6           0.000000831    0.000000509   -0.000012115
      2        6           0.000000617    0.000000568   -0.000017278
      3        6           0.000000194   -0.000000360   -0.000024447
      4        6           0.000001783   -0.000000268   -0.000025380
      5        6           0.000001116   -0.000000800   -0.000020110
      6        6          -0.000000233    0.000000281   -0.000013353
      7        6           0.000000280    0.000000789   -0.000006870
      8        1           0.000001809   -0.000000262   -0.000028330
      9        1           0.000001574   -0.000000210   -0.000030686
     10        1           0.000001239   -0.000000208   -0.000021367
     11        7          -0.000000819   -0.000000525   -0.000014266
     12        6           0.000000724    0.000000167   -0.000004037
     13        6          -0.000000636    0.000000510   -0.000002169
     14        6          -0.000001001    0.000000863    0.000004791
     15        6          -0.000001007    0.000000618    0.000010009
     16        6          -0.000000799    0.000001006    0.000007833
     17        6          -0.000000556    0.000000330    0.000001135
     18        1          -0.000001140    0.000001076    0.000006389
     19        1          -0.000001219    0.000000720    0.000011860
     20        6          -0.000002205    0.000001522    0.000017174
     21        1           0.000001410   -0.000002375    0.000019855
     22        1          -0.000002744    0.000002263    0.000017903
     23        1          -0.000004608    0.000004208    0.000019901
     24        6          -0.000000114    0.000000169   -0.000001316
     25        1          -0.000002835    0.000003302   -0.000004471
     26        1           0.000003174   -0.000003382   -0.000003569
     27        1          -0.000000498    0.000000431    0.000003297
     28        8          -0.000000409    0.000000590   -0.000010595
     29        7          -0.000000358   -0.000000077   -0.000006099
     30        6           0.000000752    0.000000265   -0.000007516
     31        1           0.000000551   -0.000000133   -0.000007883
     32        7           0.000000140   -0.000000414   -0.000001238
     33        6          -0.000000164    0.000000183    0.000004969
     34        6           0.000004646   -0.000004637    0.000006574
     35        6          -0.000003760    0.000004224    0.000005417
     36        1          -0.000000810    0.000000171    0.000009206
     37        6           0.000004232   -0.000005777    0.000012428
     38        1           0.000005241   -0.000006185    0.000001586
     39        1           0.000006999   -0.000008566    0.000005476
     40        6          -0.000004372    0.000004142    0.000011305
     41        1          -0.000003385    0.000003925    0.000000794
     42        1          -0.000007212    0.000007902    0.000004343
     43        6           0.000000843   -0.000000955    0.000013301
     44        1           0.000007672   -0.000009344    0.000013345
     45        1           0.000004049   -0.000005268    0.000016966
     46        1          -0.000006682    0.000007082    0.000011928
     47        1          -0.000004832    0.000004357    0.000016281
     48        1           0.000000431   -0.000001268    0.000017799
     49        1           0.000001236   -0.000002105    0.000008931
     50        1           0.000001055    0.000000495   -0.000015784
     51        1          -0.000000202    0.000000450   -0.000001919
 -------------------------------------------------------------------
 Cartesian Forces:  Max     0.000030686 RMS     0.000008090
 FormGI is forming the generalized inverse of G from B-inverse, IUseBI=4.
 Leave Link  716 at Sun Dec 16 14:46:11 2018, MaxMem=  1342177280 cpu:               3.4 elap:               0.2
 (Enter /gpfs/apps/hpc/Apps/Restricted/Gaussian/Rev_A.03/g16/l9999.exe)

 ----------------------------------------------------------------------

 Electric dipole moment (input orientation):
 (Debye = 10**-18 statcoulomb cm , SI units = C m)
                  (au)            (Debye)         (10**-30 SI)
   Tot        0.264498D+01      0.672287D+01      0.224251D+02
   x          0.889687D+00      0.226136D+01      0.754308D+01
   y          0.238058D+01      0.605084D+01      0.201834D+02
   z          0.732936D+00      0.186294D+01      0.621409D+01

 Dipole polarizability, Alpha (input orientation).
 (esu units = cm**3 , SI units = C**2 m**2 J**-1)
 Alpha(0;0):
               (au)            (10**-24 esu)      (10**-40 SI)
   iso        0.417620D+03      0.618849D+02      0.688562D+02
   aniso      0.384996D+03      0.570505D+02      0.634773D+02
   xx         0.462930D+03      0.685992D+02      0.763269D+02
   yx         0.353895D+00      0.524418D-01      0.583494D-01
   yy         0.612856D+03      0.908160D+02      0.101046D+03
   zx         0.151743D+02      0.224860D+01      0.250191D+01
   zy        -0.126637D+02     -0.187657D+01     -0.208797D+01
   zz         0.177073D+03      0.262395D+02      0.291954D+02

 ----------------------------------------------------------------------

 Dipole orientation:
     6         -2.53763131          1.71093429          4.88415328
     6         -4.94440209          2.55228902          4.17789716
     6         -6.45973568          3.83558411          5.92084895
     6         -5.44261946          4.20686372          8.32883511
     6         -3.01137048          3.36193571          9.01885528
     6         -1.48861013          2.08353472          7.28502742
     6         -3.02368708          0.62722001          0.93308566
     1         -8.32567514          4.51824369          5.43771936
     1         -6.56765012          5.19212504          9.72604797
     1         -2.31601025          3.72043203         10.91082435
     7         -5.17358183          1.82725563          1.67858694
     6         -4.54876664         -0.01199393         -3.52641154
     6         -2.60983470         -0.36402201         -1.57434142
     6         -0.39551882         -1.63873416         -2.13858671
     6          0.05602606         -2.61251914         -4.57135595
     6         -1.78835988         -2.26565860         -6.48169166
     6         -4.02384863         -1.01796691         -6.04626773
     1          1.02307277         -1.90365865         -0.68550226
     1         -1.41996794         -3.02838148         -8.34814192
     6          2.45973052         -3.97866195         -5.16126833
     1          3.66941354         -2.80881110         -6.36907043
     1          3.51297418         -4.44021118         -3.45191045
     1          2.07661517         -5.71704742         -6.20924777
     6         -5.98576495         -0.65165075         -8.04423371
     1         -7.80046220         -1.42543005         -7.42949656
     1         -6.29773419          1.36046176         -8.40234899
     1         -5.41870823         -1.56494482         -9.80078064
     8         -6.60141516          1.09591052         -3.08329937
     7         -1.38984695          0.53632684          2.88438185
     6          1.06946964          1.15801441          7.68599562
     1          1.95900057          1.42531514          9.52292706
     7          2.22021614          0.05565324          5.83799111
     6          4.83176486         -0.85354960          6.09703149
     6          6.67866049          1.37198232          6.37936355
     6          5.13455474         -2.74035126          8.28295503
     1          5.25966691         -1.83407407          4.32845640
     6          9.40787682          0.42409697          6.55865571
     1          6.18023561          2.41453894          8.09981129
     1          6.44793607          2.67137566          4.78929539
     6          7.86663684         -3.68290622          8.44881174
     1          4.62359659         -1.80197391         10.05736990
     1          3.82373726         -4.31551811          8.02012566
     6          9.72944782         -1.48120859          8.71565055
     1         10.68906119          2.02658044          6.80917385
     1          9.92879266         -0.48382240          4.76961274
     1          8.05734274         -4.99357115         10.03602480
     1          8.32060530         -4.75380433          6.73281269
     1         11.67096141         -2.19050617          8.75460925
     1          9.40003673         -0.52513786         10.52495459
     1         -6.61144471          2.08776539          0.42583396
     1          0.68186713         -0.03343939          3.71020946

 Electric dipole moment (dipole orientation):
 (Debye = 10**-18 statcoulomb cm , SI units = C m)
                  (au)            (Debye)         (10**-30 SI)
   Tot        0.264498D+01      0.672287D+01      0.224251D+02
   x          0.000000D+00      0.000000D+00      0.000000D+00
   y          0.000000D+00      0.000000D+00      0.000000D+00
   z          0.264498D+01      0.672287D+01      0.224251D+02

 Dipole polarizability, Alpha (dipole orientation).
 (esu units = cm**3 , SI units = C**2 m**2 J**-1)
 Alpha(0;0):
               (au)            (10**-24 esu)      (10**-40 SI)
   iso        0.417620D+03      0.618849D+02      0.688562D+02
   aniso      0.384996D+03      0.570505D+02      0.634773D+02
   xx         0.427536D+03      0.633543D+02      0.704912D+02
   yx        -0.111783D+03     -0.165645D+02     -0.184305D+02
   yy         0.266166D+03      0.394418D+02      0.438849D+02
   zx         0.169970D+01      0.251870D+00      0.280243D+00
   zy         0.123994D+03      0.183740D+02      0.204438D+02
   zz         0.559157D+03      0.828585D+02      0.921925D+02

 ----------------------------------------------------------------------

 This type of calculation cannot be archived.


     ON THE SURVIVAL OF THE FITTEST -
 "STRONG REPRESENTATIVES FROM EACH PAST ERA THRIVE TODAY,
 SUCH AS PROGRAMMING IN THE THIRTY YEAR OLD LANGUAGE KNOWN
 AS FORTRAN, AND EVEN IN THE ANCIENT SCRIPT KNOWN AS DIRECT
 MACHINE CODE. SOME PEOPLE MIGHT LOOK ON SUCH RELICS AS LIVING
 FOSSILS; OTHERS WOULD POINT OUT THAT EVEN A VERY OLD SPECIES
 MIGHT STILL BE FILLING A PARTICULAR ECOLOGICAL NICHE."
     -- ALAN KAY, SCI.AM. SEPTEMBER 1984
 Job cpu time:       0 days  0 hours  0 minutes 17.2 seconds.
 Elapsed time:       0 days  0 hours  0 minutes  1.2 seconds.
 File lengths (MBytes):  RWF=     72 Int=      0 D2E=      0 Chk=     56 Scr=      8
 Normal termination of Gaussian 16 at Sun Dec 16 14:46:11 2018.
