 Entering Gaussian System, Link 0=g16
 Initial command:
 /gpfs/apps/hpc/Apps/Restricted/Gaussian/g16/Rev_B.01-AVX/g16/l1.exe "/gpfs/scratch60/fas/hammes_schiffer/jg2487/c42n02/Gau-357580.inp" -scrdir="/gpfs/scratch60/fas/hammes_schiffer/jg2487/c42n02/"
 Entering Link 1 = /gpfs/apps/hpc/Apps/Restricted/Gaussian/g16/Rev_B.01-AVX/g16/l1.exe PID=    357582.
  
 Copyright (c) 1988-2017, Gaussian, Inc.  All Rights Reserved.
  
 This is part of the Gaussian(R) 16 program.  It is based on
 the Gaussian(R) 09 system (copyright 2009, Gaussian, Inc.),
 the Gaussian(R) 03 system (copyright 2003, Gaussian, Inc.),
 the Gaussian(R) 98 system (copyright 1998, Gaussian, Inc.),
 the Gaussian(R) 94 system (copyright 1995, Gaussian, Inc.),
 the Gaussian 92(TM) system (copyright 1992, Gaussian, Inc.),
 the Gaussian 90(TM) system (copyright 1990, Gaussian, Inc.),
 the Gaussian 88(TM) system (copyright 1988, Gaussian, Inc.),
 the Gaussian 86(TM) system (copyright 1986, Carnegie Mellon
 University), and the Gaussian 82(TM) system (copyright 1983,
 Carnegie Mellon University). Gaussian is a federally registered
 trademark of Gaussian, Inc.
  
 This software contains proprietary and confidential information,
 including trade secrets, belonging to Gaussian, Inc.
  
 This software is provided under written license and may be
 used, copied, transmitted, or stored only in accord with that
 written license.
  
 The following legend is applicable only to US Government
 contracts under FAR:
  
                    RESTRICTED RIGHTS LEGEND
  
 Use, reproduction and disclosure by the US Government is
 subject to restrictions as set forth in subparagraphs (a)
 and (c) of the Commercial Computer Software - Restricted
 Rights clause in FAR 52.227-19.
  
 Gaussian, Inc.
 340 Quinnipiac St., Bldg. 40, Wallingford CT 06492
  
  
 ---------------------------------------------------------------
 Warning -- This program may not be used in any manner that
 competes with the business of Gaussian, Inc. or will provide
 assistance to any competitor of Gaussian, Inc.  The licensee
 of this program is prohibited from giving any competitor of
 Gaussian, Inc. access to this program.  By using this program,
 the user acknowledges that Gaussian, Inc. is engaged in the
 business of creating and licensing software in the field of
 computational chemistry and represents and warrants to the
 licensee that it is not a competitor of Gaussian, Inc. and that
 it will not use this program in any manner prohibited above.
 ---------------------------------------------------------------
  

 Cite this work as:
 Gaussian 16, Revision B.01,
 M. J. Frisch, G. W. Trucks, H. B. Schlegel, G. E. Scuseria, 
 M. A. Robb, J. R. Cheeseman, G. Scalmani, V. Barone, 
 G. A. Petersson, H. Nakatsuji, X. Li, M. Caricato, A. V. Marenich, 
 J. Bloino, B. G. Janesko, R. Gomperts, B. Mennucci, H. P. Hratchian, 
 J. V. Ortiz, A. F. Izmaylov, J. L. Sonnenberg, D. Williams-Young, 
 F. Ding, F. Lipparini, F. Egidi, J. Goings, B. Peng, A. Petrone, 
 T. Henderson, D. Ranasinghe, V. G. Zakrzewski, J. Gao, N. Rega, 
 G. Zheng, W. Liang, M. Hada, M. Ehara, K. Toyota, R. Fukuda, 
 J. Hasegawa, M. Ishida, T. Nakajima, Y. Honda, O. Kitao, H. Nakai, 
 T. Vreven, K. Throssell, J. A. Montgomery, Jr., J. E. Peralta, 
 F. Ogliaro, M. J. Bearpark, J. J. Heyd, E. N. Brothers, K. N. Kudin, 
 V. N. Staroverov, T. A. Keith, R. Kobayashi, J. Normand, 
 K. Raghavachari, A. P. Rendell, J. C. Burant, S. S. Iyengar, 
 J. Tomasi, M. Cossi, J. M. Millam, M. Klene, C. Adamo, R. Cammi, 
 J. W. Ochterski, R. L. Martin, K. Morokuma, O. Farkas, 
 J. B. Foresman, and D. J. Fox, Gaussian, Inc., Wallingford CT, 2016.
 
 ******************************************
 Gaussian 16:  ES64L-G16RevB.01 20-Dec-2017
                12-Feb-2019 
 ******************************************
 %chk=amide-monoBIP-neutral.chk
 %mem=10GB
 %nprocshared=16
 Will use up to   16 processors via shared memory.
 ----------------------------------------------------------------------
 #p opt=tight freq=internalmodes b3lyp/6-31g(d,p) scrf=(cpcm,solvent=di
 chloromethane,read) nosymm empiricaldispersion=gd3bj int=grid=ultrafin
 e
 ----------------------------------------------------------------------
 1/7=10,18=20,19=15,26=6,38=1,40=2/1,3;
 2/9=110,12=2,15=1,17=6,18=5,40=1/2;
 3/5=1,6=6,7=101,11=2,25=1,30=1,70=2103,71=1,72=9,74=-5,75=-5,124=41/1,2,3;
 4//1;
 5/5=2,38=5,53=9/2;
 6/7=2,8=2,9=2,10=2,28=1/1;
 7/30=1/1,2,3,16;
 1/7=10,18=20,19=15,26=6/3(2);
 2/9=110,15=1/2;
 99//99;
 2/9=110,15=1/2;
 3/5=1,6=6,7=101,11=2,25=1,30=1,70=2105,71=1,72=9,74=-5,75=-5,124=41/1,2,3;
 4/5=5,16=3,69=1/1;
 5/5=2,38=5,53=9/2;
 7/30=1/1,2,3,16;
 1/7=10,18=20,19=15,26=6/3(-5);
 2/9=110,15=1/2;
 6/7=2,8=2,9=2,10=2,19=2,28=1/1;
 99/9=1/99;
 Leave Link    1 at Tue Feb 12 09:26:30 2019, MaxMem=  1342177280 cpu:               8.7 elap:               0.6
 (Enter /gpfs/apps/hpc/Apps/Restricted/Gaussian/g16/Rev_B.01-AVX/g16/l101.exe)
 -----------------------------------------
 Simple amide-monoBIP neutral optimization
 -----------------------------------------
 Symbolic Z-matrix:
 Charge =  0 Multiplicity = 1
 C                    -0.48305   2.71558   0.41615 
 C                    -1.88105   2.89836   0.3276 
 C                    -2.41289   4.19012   0.24342 
 C                    -1.52046   5.26199   0.25628 
 C                    -0.1336    5.06453   0.35031 
 C                     0.42705   3.78269   0.4298 
 C                    -1.51854   0.75202   0.42465 
 H                    -3.48208   4.34634   0.16902 
 H                    -1.90527   6.27315   0.19413 
 H                     0.52954   5.92276   0.36062 
 N                    -2.49643   1.65628   0.3363 
 C                    -3.06367  -1.18904   0.35231 
 C                    -1.73922  -0.685     0.44727 
 C                    -0.65872  -1.57362   0.5405 
 C                    -0.84876  -2.95029   0.54136 
 C                    -2.16787  -3.41764   0.44645 
 C                    -3.28613  -2.585     0.35333 
 H                     0.34704  -1.17537   0.61268 
 H                    -2.33231  -4.48383   0.44549 
 C                     0.36142  -3.8878    0.61444 
 C                    -4.7052   -3.16741   0.25339 
 O                    -4.11726  -0.34688   0.2575 
 H                    -3.76781   0.59151   0.26864 
 N                    -0.28701   1.3566    0.47644 
 H                     0.63826   0.94763   0.52815 
 C                     1.86964   3.57707   0.51607 
 C                     1.24578  -3.65452  -0.62729 
 H                     1.57556  -2.61431  -0.68351 
 H                     2.13382  -4.29238  -0.58864 
 H                     0.69738  -3.88708  -1.54418 
 C                     1.18279  -3.57555   1.88073 
 H                     0.58865  -3.74389   2.78286 
 H                     2.06432  -4.22163   1.92639 
 H                     1.5249   -2.53763   1.88737 
 C                    -0.04946  -5.36609   0.6521 
 H                    -0.66468  -5.59167   1.5274 
 H                    -0.60816  -5.65207  -0.24333 
 H                     0.84524  -5.99164   0.70128 
 C                    -5.359    -2.73216  -1.07525 
 H                    -6.37293  -3.13823  -1.13996 
 H                    -5.4137   -1.64727  -1.15536 
 H                    -4.78635  -3.11382  -1.92528 
 C                    -5.55747  -2.68255   1.44569 
 H                    -5.65813  -1.59821   1.44663 
 H                    -6.55655  -3.12577   1.39415 
 H                    -5.09796  -2.98688   2.39028 
 C                    -4.69423  -4.70466   0.28382 
 H                    -4.12605  -5.1234   -0.55106 
 H                    -4.26884  -5.08976   1.21438 
 H                    -5.72146  -5.06914   0.20754 
 O                     2.37397   2.42506   0.56182 
 N                     2.67827   4.80444   0.54013 
 H                     3.20712   4.83862   1.38816 
 H                     3.3016    4.80833  -0.24182 
 
 ITRead=  0  0  0  0  0  0  0  0  0  0  0  0  0  0  0  0  0  0  0  0
 ITRead=  0  0  0  0  0  0  0  0  0  0  0  0  0  0  0  0  0  0  0  0
 ITRead=  0  0  0  0  0  0  0  0  0  0  0  0  0  0
 MicOpt= -1 -1 -1 -1 -1 -1 -1 -1 -1 -1 -1 -1 -1 -1 -1 -1 -1 -1 -1 -1
 MicOpt= -1 -1 -1 -1 -1 -1 -1 -1 -1 -1 -1 -1 -1 -1 -1 -1 -1 -1 -1 -1
 MicOpt= -1 -1 -1 -1 -1 -1 -1 -1 -1 -1 -1 -1 -1 -1
 NAtoms=     54 NQM=       54 NQMF=       0 NMMI=      0 NMMIF=      0
                NMic=       0 NMicF=      0.
                    Isotopes and Nuclear Properties:
 (Nuclear quadrupole moments (NQMom) in fm**2, nuclear magnetic moments (NMagM)
  in nuclear magnetons)

  Atom         1           2           3           4           5           6           7           8           9          10
 IAtWgt=          12          12          12          12          12          12          12           1           1           1
 AtmWgt=  12.0000000  12.0000000  12.0000000  12.0000000  12.0000000  12.0000000  12.0000000   1.0078250   1.0078250   1.0078250
 NucSpn=           0           0           0           0           0           0           0           1           1           1
 AtZEff=  -0.0000000  -0.0000000  -0.0000000  -0.0000000  -0.0000000  -0.0000000  -0.0000000  -0.0000000  -0.0000000  -0.0000000
 NQMom=    0.0000000   0.0000000   0.0000000   0.0000000   0.0000000   0.0000000   0.0000000   0.0000000   0.0000000   0.0000000
 NMagM=    0.0000000   0.0000000   0.0000000   0.0000000   0.0000000   0.0000000   0.0000000   2.7928460   2.7928460   2.7928460
 AtZNuc=   6.0000000   6.0000000   6.0000000   6.0000000   6.0000000   6.0000000   6.0000000   1.0000000   1.0000000   1.0000000

  Atom        11          12          13          14          15          16          17          18          19          20
 IAtWgt=          14          12          12          12          12          12          12           1           1          12
 AtmWgt=  14.0030740  12.0000000  12.0000000  12.0000000  12.0000000  12.0000000  12.0000000   1.0078250   1.0078250  12.0000000
 NucSpn=           2           0           0           0           0           0           0           1           1           0
 AtZEff=  -0.0000000  -0.0000000  -0.0000000  -0.0000000  -0.0000000  -0.0000000  -0.0000000  -0.0000000  -0.0000000  -0.0000000
 NQMom=    2.0440000   0.0000000   0.0000000   0.0000000   0.0000000   0.0000000   0.0000000   0.0000000   0.0000000   0.0000000
 NMagM=    0.4037610   0.0000000   0.0000000   0.0000000   0.0000000   0.0000000   0.0000000   2.7928460   2.7928460   0.0000000
 AtZNuc=   7.0000000   6.0000000   6.0000000   6.0000000   6.0000000   6.0000000   6.0000000   1.0000000   1.0000000   6.0000000

  Atom        21          22          23          24          25          26          27          28          29          30
 IAtWgt=          12          16           1          14           1          12          12           1           1           1
 AtmWgt=  12.0000000  15.9949146   1.0078250  14.0030740   1.0078250  12.0000000  12.0000000   1.0078250   1.0078250   1.0078250
 NucSpn=           0           0           1           2           1           0           0           1           1           1
 AtZEff=  -0.0000000  -0.0000000  -0.0000000  -0.0000000  -0.0000000  -0.0000000  -0.0000000  -0.0000000  -0.0000000  -0.0000000
 NQMom=    0.0000000   0.0000000   0.0000000   2.0440000   0.0000000   0.0000000   0.0000000   0.0000000   0.0000000   0.0000000
 NMagM=    0.0000000   0.0000000   2.7928460   0.4037610   2.7928460   0.0000000   0.0000000   2.7928460   2.7928460   2.7928460
 AtZNuc=   6.0000000   8.0000000   1.0000000   7.0000000   1.0000000   6.0000000   6.0000000   1.0000000   1.0000000   1.0000000

  Atom        31          32          33          34          35          36          37          38          39          40
 IAtWgt=          12           1           1           1          12           1           1           1          12           1
 AtmWgt=  12.0000000   1.0078250   1.0078250   1.0078250  12.0000000   1.0078250   1.0078250   1.0078250  12.0000000   1.0078250
 NucSpn=           0           1           1           1           0           1           1           1           0           1
 AtZEff=  -0.0000000  -0.0000000  -0.0000000  -0.0000000  -0.0000000  -0.0000000  -0.0000000  -0.0000000  -0.0000000  -0.0000000
 NQMom=    0.0000000   0.0000000   0.0000000   0.0000000   0.0000000   0.0000000   0.0000000   0.0000000   0.0000000   0.0000000
 NMagM=    0.0000000   2.7928460   2.7928460   2.7928460   0.0000000   2.7928460   2.7928460   2.7928460   0.0000000   2.7928460
 AtZNuc=   6.0000000   1.0000000   1.0000000   1.0000000   6.0000000   1.0000000   1.0000000   1.0000000   6.0000000   1.0000000

  Atom        41          42          43          44          45          46          47          48          49          50
 IAtWgt=           1           1          12           1           1           1          12           1           1           1
 AtmWgt=   1.0078250   1.0078250  12.0000000   1.0078250   1.0078250   1.0078250  12.0000000   1.0078250   1.0078250   1.0078250
 NucSpn=           1           1           0           1           1           1           0           1           1           1
 AtZEff=  -0.0000000  -0.0000000  -0.0000000  -0.0000000  -0.0000000  -0.0000000  -0.0000000  -0.0000000  -0.0000000  -0.0000000
 NQMom=    0.0000000   0.0000000   0.0000000   0.0000000   0.0000000   0.0000000   0.0000000   0.0000000   0.0000000   0.0000000
 NMagM=    2.7928460   2.7928460   0.0000000   2.7928460   2.7928460   2.7928460   0.0000000   2.7928460   2.7928460   2.7928460
 AtZNuc=   1.0000000   1.0000000   6.0000000   1.0000000   1.0000000   1.0000000   6.0000000   1.0000000   1.0000000   1.0000000

  Atom        51          52          53          54
 IAtWgt=          16          14           1           1
 AtmWgt=  15.9949146  14.0030740   1.0078250   1.0078250
 NucSpn=           0           2           1           1
 AtZEff=  -0.0000000  -0.0000000  -0.0000000  -0.0000000
 NQMom=    0.0000000   2.0440000   0.0000000   0.0000000
 NMagM=    0.0000000   0.4037610   2.7928460   2.7928460
 AtZNuc=   8.0000000   7.0000000   1.0000000   1.0000000
 Leave Link  101 at Tue Feb 12 09:26:30 2019, MaxMem=  1342177280 cpu:               4.7 elap:               0.4
 (Enter /gpfs/apps/hpc/Apps/Restricted/Gaussian/g16/Rev_B.01-AVX/g16/l103.exe)

 GradGradGradGradGradGradGradGradGradGradGradGradGradGradGradGradGradGrad
 Berny optimization.
 Initialization pass.
                           ----------------------------
                           !    Initial Parameters    !
                           ! (Angstroms and Degrees)  !
 --------------------------                            --------------------------
 ! Name  Definition              Value          Derivative Info.                !
 --------------------------------------------------------------------------------
 ! R1    R(1,2)                  1.4127         estimate D2E/DX2                !
 ! R2    R(1,6)                  1.4026         estimate D2E/DX2                !
 ! R3    R(1,24)                 1.3744         estimate D2E/DX2                !
 ! R4    R(2,3)                  1.3995         estimate D2E/DX2                !
 ! R5    R(2,11)                 1.3862         estimate D2E/DX2                !
 ! R6    R(3,4)                  1.3948         estimate D2E/DX2                !
 ! R7    R(3,8)                  1.0831         estimate D2E/DX2                !
 ! R8    R(4,5)                  1.404          estimate D2E/DX2                !
 ! R9    R(4,9)                  1.0837         estimate D2E/DX2                !
 ! R10   R(5,6)                  1.4013         estimate D2E/DX2                !
 ! R11   R(5,10)                 1.0846         estimate D2E/DX2                !
 ! R12   R(6,26)                 1.4597         estimate D2E/DX2                !
 ! R13   R(7,11)                 1.3348         estimate D2E/DX2                !
 ! R14   R(7,13)                 1.454          estimate D2E/DX2                !
 ! R15   R(7,24)                 1.3729         estimate D2E/DX2                !
 ! R16   R(12,13)                1.4203         estimate D2E/DX2                !
 ! R17   R(12,17)                1.4136         estimate D2E/DX2                !
 ! R18   R(12,22)                1.3521         estimate D2E/DX2                !
 ! R19   R(13,14)                1.4021         estimate D2E/DX2                !
 ! R20   R(14,15)                1.3897         estimate D2E/DX2                !
 ! R21   R(14,18)                1.0842         estimate D2E/DX2                !
 ! R22   R(15,16)                1.4027         estimate D2E/DX2                !
 ! R23   R(15,20)                1.5326         estimate D2E/DX2                !
 ! R24   R(16,17)                1.3973         estimate D2E/DX2                !
 ! R25   R(16,19)                1.0788         estimate D2E/DX2                !
 ! R26   R(17,21)                1.5372         estimate D2E/DX2                !
 ! R27   R(20,27)                1.5422         estimate D2E/DX2                !
 ! R28   R(20,31)                1.5413         estimate D2E/DX2                !
 ! R29   R(20,35)                1.5348         estimate D2E/DX2                !
 ! R30   R(21,39)                1.5434         estimate D2E/DX2                !
 ! R31   R(21,43)                1.5437         estimate D2E/DX2                !
 ! R32   R(21,47)                1.5376         estimate D2E/DX2                !
 ! R33   R(22,23)                1.0014         estimate D2E/DX2                !
 ! R34   R(24,25)                1.0129         estimate D2E/DX2                !
 ! R35   R(26,51)                1.2584         estimate D2E/DX2                !
 ! R36   R(26,52)                1.47           estimate D2E/DX2                !
 ! R37   R(27,28)                1.0927         estimate D2E/DX2                !
 ! R38   R(27,29)                1.0941         estimate D2E/DX2                !
 ! R39   R(27,30)                1.0934         estimate D2E/DX2                !
 ! R40   R(31,32)                1.0932         estimate D2E/DX2                !
 ! R41   R(31,33)                1.0939         estimate D2E/DX2                !
 ! R42   R(31,34)                1.0929         estimate D2E/DX2                !
 ! R43   R(35,36)                1.0934         estimate D2E/DX2                !
 ! R44   R(35,37)                1.0935         estimate D2E/DX2                !
 ! R45   R(35,38)                1.0928         estimate D2E/DX2                !
 ! R46   R(39,40)                1.0941         estimate D2E/DX2                !
 ! R47   R(39,41)                1.0892         estimate D2E/DX2                !
 ! R48   R(39,42)                1.0937         estimate D2E/DX2                !
 ! R49   R(43,44)                1.089          estimate D2E/DX2                !
 ! R50   R(43,45)                1.0942         estimate D2E/DX2                !
 ! R51   R(43,46)                1.0936         estimate D2E/DX2                !
 ! R52   R(47,48)                1.0932         estimate D2E/DX2                !
 ! R53   R(47,49)                1.0933         estimate D2E/DX2                !
 ! R54   R(47,50)                1.0926         estimate D2E/DX2                !
 ! R55   R(52,53)                1.0            estimate D2E/DX2                !
 ! R56   R(52,54)                1.0            estimate D2E/DX2                !
 ! A1    A(2,1,6)              122.9781         estimate D2E/DX2                !
 ! A2    A(2,1,24)             105.7738         estimate D2E/DX2                !
 ! A3    A(6,1,24)             131.2481         estimate D2E/DX2                !
 ! A4    A(1,2,3)              119.9516         estimate D2E/DX2                !
 ! A5    A(1,2,11)             108.8443         estimate D2E/DX2                !
 ! A6    A(3,2,11)             131.2033         estimate D2E/DX2                !
 ! A7    A(2,3,4)              117.7494         estimate D2E/DX2                !
 ! A8    A(2,3,8)              120.8241         estimate D2E/DX2                !
 ! A9    A(4,3,8)              121.4265         estimate D2E/DX2                !
 ! A10   A(3,4,5)              121.6384         estimate D2E/DX2                !
 ! A11   A(3,4,9)              119.2951         estimate D2E/DX2                !
 ! A12   A(5,4,9)              119.0664         estimate D2E/DX2                !
 ! A13   A(4,5,6)              121.8461         estimate D2E/DX2                !
 ! A14   A(4,5,10)             119.5567         estimate D2E/DX2                !
 ! A15   A(6,5,10)             118.5972         estimate D2E/DX2                !
 ! A16   A(1,6,5)              115.8354         estimate D2E/DX2                !
 ! A17   A(1,6,26)             122.3219         estimate D2E/DX2                !
 ! A18   A(5,6,26)             121.8423         estimate D2E/DX2                !
 ! A19   A(11,7,13)            124.0113         estimate D2E/DX2                !
 ! A20   A(11,7,24)            111.1816         estimate D2E/DX2                !
 ! A21   A(13,7,24)            124.8037         estimate D2E/DX2                !
 ! A22   A(2,11,7)             106.3919         estimate D2E/DX2                !
 ! A23   A(13,12,17)           119.8125         estimate D2E/DX2                !
 ! A24   A(13,12,22)           120.6822         estimate D2E/DX2                !
 ! A25   A(17,12,22)           119.5052         estimate D2E/DX2                !
 ! A26   A(7,13,12)            119.4203         estimate D2E/DX2                !
 ! A27   A(7,13,14)            120.6936         estimate D2E/DX2                !
 ! A28   A(12,13,14)           119.8785         estimate D2E/DX2                !
 ! A29   A(13,14,15)           121.5            estimate D2E/DX2                !
 ! A30   A(13,14,18)           119.1133         estimate D2E/DX2                !
 ! A31   A(15,14,18)           119.3867         estimate D2E/DX2                !
 ! A32   A(14,15,16)           117.2975         estimate D2E/DX2                !
 ! A33   A(14,15,20)           119.8696         estimate D2E/DX2                !
 ! A34   A(16,15,20)           122.8203         estimate D2E/DX2                !
 ! A35   A(15,16,17)           123.9582         estimate D2E/DX2                !
 ! A36   A(15,16,19)           118.2098         estimate D2E/DX2                !
 ! A37   A(17,16,19)           117.8321         estimate D2E/DX2                !
 ! A38   A(12,17,16)           117.5531         estimate D2E/DX2                !
 ! A39   A(12,17,21)           121.2915         estimate D2E/DX2                !
 ! A40   A(16,17,21)           121.1554         estimate D2E/DX2                !
 ! A41   A(15,20,27)           108.7766         estimate D2E/DX2                !
 ! A42   A(15,20,31)           109.6365         estimate D2E/DX2                !
 ! A43   A(15,20,35)           112.2704         estimate D2E/DX2                !
 ! A44   A(27,20,31)           108.9818         estimate D2E/DX2                !
 ! A45   A(27,20,35)           108.6003         estimate D2E/DX2                !
 ! A46   A(31,20,35)           108.5199         estimate D2E/DX2                !
 ! A47   A(17,21,39)           109.8876         estimate D2E/DX2                !
 ! A48   A(17,21,43)           109.9045         estimate D2E/DX2                !
 ! A49   A(17,21,47)           111.7726         estimate D2E/DX2                !
 ! A50   A(39,21,43)           110.025          estimate D2E/DX2                !
 ! A51   A(39,21,47)           107.5778         estimate D2E/DX2                !
 ! A52   A(43,21,47)           107.6182         estimate D2E/DX2                !
 ! A53   A(12,22,23)           108.1169         estimate D2E/DX2                !
 ! A54   A(1,24,7)             107.8083         estimate D2E/DX2                !
 ! A55   A(1,24,25)            122.1239         estimate D2E/DX2                !
 ! A56   A(7,24,25)            130.0545         estimate D2E/DX2                !
 ! A57   A(6,26,51)            121.8142         estimate D2E/DX2                !
 ! A58   A(6,26,52)            115.2765         estimate D2E/DX2                !
 ! A59   A(51,26,52)           122.9089         estimate D2E/DX2                !
 ! A60   A(20,27,28)           111.0079         estimate D2E/DX2                !
 ! A61   A(20,27,29)           110.4156         estimate D2E/DX2                !
 ! A62   A(20,27,30)           110.8186         estimate D2E/DX2                !
 ! A63   A(28,27,29)           108.1713         estimate D2E/DX2                !
 ! A64   A(28,27,30)           108.1019         estimate D2E/DX2                !
 ! A65   A(29,27,30)           108.2231         estimate D2E/DX2                !
 ! A66   A(20,31,32)           110.9249         estimate D2E/DX2                !
 ! A67   A(20,31,33)           110.1259         estimate D2E/DX2                !
 ! A68   A(20,31,34)           111.3593         estimate D2E/DX2                !
 ! A69   A(32,31,33)           108.2142         estimate D2E/DX2                !
 ! A70   A(32,31,34)           108.1405         estimate D2E/DX2                !
 ! A71   A(33,31,34)           107.9633         estimate D2E/DX2                !
 ! A72   A(20,35,36)           111.6532         estimate D2E/DX2                !
 ! A73   A(20,35,37)           111.6288         estimate D2E/DX2                !
 ! A74   A(20,35,38)           109.4679         estimate D2E/DX2                !
 ! A75   A(36,35,37)           108.3057         estimate D2E/DX2                !
 ! A76   A(36,35,38)           107.851          estimate D2E/DX2                !
 ! A77   A(37,35,38)           107.7857         estimate D2E/DX2                !
 ! A78   A(21,39,40)           109.8038         estimate D2E/DX2                !
 ! A79   A(21,39,41)           111.436          estimate D2E/DX2                !
 ! A80   A(21,39,42)           110.4168         estimate D2E/DX2                !
 ! A81   A(40,39,41)           108.5887         estimate D2E/DX2                !
 ! A82   A(40,39,42)           108.0436         estimate D2E/DX2                !
 ! A83   A(41,39,42)           108.4643         estimate D2E/DX2                !
 ! A84   A(21,43,44)           111.3732         estimate D2E/DX2                !
 ! A85   A(21,43,45)           109.9071         estimate D2E/DX2                !
 ! A86   A(21,43,46)           110.3481         estimate D2E/DX2                !
 ! A87   A(44,43,45)           108.601          estimate D2E/DX2                !
 ! A88   A(44,43,46)           108.3715         estimate D2E/DX2                !
 ! A89   A(45,43,46)           108.1565         estimate D2E/DX2                !
 ! A90   A(21,47,48)           111.8103         estimate D2E/DX2                !
 ! A91   A(21,47,49)           111.8262         estimate D2E/DX2                !
 ! A92   A(21,47,50)           108.9907         estimate D2E/DX2                !
 ! A93   A(48,47,49)           108.2325         estimate D2E/DX2                !
 ! A94   A(48,47,50)           107.9102         estimate D2E/DX2                !
 ! A95   A(49,47,50)           107.9226         estimate D2E/DX2                !
 ! A96   A(26,52,53)           109.4712         estimate D2E/DX2                !
 ! A97   A(26,52,54)           109.4712         estimate D2E/DX2                !
 ! A98   A(53,52,54)           109.4713         estimate D2E/DX2                !
 ! D1    D(6,1,2,3)              0.2438         estimate D2E/DX2                !
 ! D2    D(6,1,2,11)           179.9405         estimate D2E/DX2                !
 ! D3    D(24,1,2,3)          -179.6885         estimate D2E/DX2                !
 ! D4    D(24,1,2,11)            0.0082         estimate D2E/DX2                !
 ! D5    D(2,1,6,5)              0.0379         estimate D2E/DX2                !
 ! D6    D(2,1,6,26)          -179.7344         estimate D2E/DX2                !
 ! D7    D(24,1,6,5)           179.9512         estimate D2E/DX2                !
 ! D8    D(24,1,6,26)            0.1789         estimate D2E/DX2                !
 ! D9    D(2,1,24,7)             0.0559         estimate D2E/DX2                !
 ! D10   D(2,1,24,25)          178.8517         estimate D2E/DX2                !
 ! D11   D(6,1,24,7)          -179.8685         estimate D2E/DX2                !
 ! D12   D(6,1,24,25)           -1.0727         estimate D2E/DX2                !
 ! D13   D(1,2,3,4)             -0.2517         estimate D2E/DX2                !
 ! D14   D(1,2,3,8)            179.6311         estimate D2E/DX2                !
 ! D15   D(11,2,3,4)          -179.8701         estimate D2E/DX2                !
 ! D16   D(11,2,3,8)             0.0127         estimate D2E/DX2                !
 ! D17   D(1,2,11,7)            -0.0703         estimate D2E/DX2                !
 ! D18   D(3,2,11,7)           179.5804         estimate D2E/DX2                !
 ! D19   D(2,3,4,5)             -0.0101         estimate D2E/DX2                !
 ! D20   D(2,3,4,9)           -179.8914         estimate D2E/DX2                !
 ! D21   D(8,3,4,5)           -179.8921         estimate D2E/DX2                !
 ! D22   D(8,3,4,9)              0.2265         estimate D2E/DX2                !
 ! D23   D(3,4,5,6)              0.3026         estimate D2E/DX2                !
 ! D24   D(3,4,5,10)          -179.8059         estimate D2E/DX2                !
 ! D25   D(9,4,5,6)           -179.8158         estimate D2E/DX2                !
 ! D26   D(9,4,5,10)             0.0758         estimate D2E/DX2                !
 ! D27   D(4,5,6,1)             -0.306          estimate D2E/DX2                !
 ! D28   D(4,5,6,26)           179.4674         estimate D2E/DX2                !
 ! D29   D(10,5,6,1)           179.8014         estimate D2E/DX2                !
 ! D30   D(10,5,6,26)           -0.4251         estimate D2E/DX2                !
 ! D31   D(1,6,26,51)            1.1339         estimate D2E/DX2                !
 ! D32   D(1,6,26,52)         -179.078          estimate D2E/DX2                !
 ! D33   D(5,6,26,51)         -178.6248         estimate D2E/DX2                !
 ! D34   D(5,6,26,52)            1.1633         estimate D2E/DX2                !
 ! D35   D(13,7,11,2)         -179.2549         estimate D2E/DX2                !
 ! D36   D(24,7,11,2)            0.1079         estimate D2E/DX2                !
 ! D37   D(11,7,13,12)           0.9293         estimate D2E/DX2                !
 ! D38   D(11,7,13,14)         179.9279         estimate D2E/DX2                !
 ! D39   D(24,7,13,12)        -178.3471         estimate D2E/DX2                !
 ! D40   D(24,7,13,14)           0.6515         estimate D2E/DX2                !
 ! D41   D(11,7,24,1)           -0.105          estimate D2E/DX2                !
 ! D42   D(11,7,24,25)        -178.7727         estimate D2E/DX2                !
 ! D43   D(13,7,24,1)          179.2517         estimate D2E/DX2                !
 ! D44   D(13,7,24,25)           0.584          estimate D2E/DX2                !
 ! D45   D(17,12,13,7)         179.0558         estimate D2E/DX2                !
 ! D46   D(17,12,13,14)          0.0489         estimate D2E/DX2                !
 ! D47   D(22,12,13,7)          -0.7867         estimate D2E/DX2                !
 ! D48   D(22,12,13,14)       -179.7936         estimate D2E/DX2                !
 ! D49   D(13,12,17,16)         -0.1531         estimate D2E/DX2                !
 ! D50   D(13,12,17,21)        179.9458         estimate D2E/DX2                !
 ! D51   D(22,12,17,16)        179.6912         estimate D2E/DX2                !
 ! D52   D(22,12,17,21)         -0.2098         estimate D2E/DX2                !
 ! D53   D(13,12,22,23)          0.0849         estimate D2E/DX2                !
 ! D54   D(17,12,22,23)       -179.7581         estimate D2E/DX2                !
 ! D55   D(7,13,14,15)        -178.9292         estimate D2E/DX2                !
 ! D56   D(7,13,14,18)           1.0221         estimate D2E/DX2                !
 ! D57   D(12,13,14,15)          0.0648         estimate D2E/DX2                !
 ! D58   D(12,13,14,18)       -179.9839         estimate D2E/DX2                !
 ! D59   D(13,14,15,16)         -0.0661         estimate D2E/DX2                !
 ! D60   D(13,14,15,20)        178.681          estimate D2E/DX2                !
 ! D61   D(18,14,15,16)        179.9828         estimate D2E/DX2                !
 ! D62   D(18,14,15,20)         -1.2702         estimate D2E/DX2                !
 ! D63   D(14,15,16,17)         -0.0479         estimate D2E/DX2                !
 ! D64   D(14,15,16,19)        179.9813         estimate D2E/DX2                !
 ! D65   D(20,15,16,17)       -178.755          estimate D2E/DX2                !
 ! D66   D(20,15,16,19)          1.2742         estimate D2E/DX2                !
 ! D67   D(14,15,20,27)        -61.714          estimate D2E/DX2                !
 ! D68   D(14,15,20,31)         57.3684         estimate D2E/DX2                !
 ! D69   D(14,15,20,35)        178.069          estimate D2E/DX2                !
 ! D70   D(16,15,20,27)        116.9611         estimate D2E/DX2                !
 ! D71   D(16,15,20,31)       -123.9565         estimate D2E/DX2                !
 ! D72   D(16,15,20,35)         -3.2559         estimate D2E/DX2                !
 ! D73   D(15,16,17,12)          0.1569         estimate D2E/DX2                !
 ! D74   D(15,16,17,21)       -179.9419         estimate D2E/DX2                !
 ! D75   D(19,16,17,12)       -179.8722         estimate D2E/DX2                !
 ! D76   D(19,16,17,21)          0.0289         estimate D2E/DX2                !
 ! D77   D(12,17,21,39)         61.037          estimate D2E/DX2                !
 ! D78   D(12,17,21,43)        -60.1791         estimate D2E/DX2                !
 ! D79   D(12,17,21,47)       -179.602          estimate D2E/DX2                !
 ! D80   D(16,17,21,39)       -118.8605         estimate D2E/DX2                !
 ! D81   D(16,17,21,43)        119.9235         estimate D2E/DX2                !
 ! D82   D(16,17,21,47)          0.5005         estimate D2E/DX2                !
 ! D83   D(15,20,27,28)         58.4954         estimate D2E/DX2                !
 ! D84   D(15,20,27,29)        178.4551         estimate D2E/DX2                !
 ! D85   D(15,20,27,30)        -61.6435         estimate D2E/DX2                !
 ! D86   D(31,20,27,28)        -60.996          estimate D2E/DX2                !
 ! D87   D(31,20,27,29)         58.9637         estimate D2E/DX2                !
 ! D88   D(31,20,27,30)        178.8652         estimate D2E/DX2                !
 ! D89   D(35,20,27,28)       -179.0416         estimate D2E/DX2                !
 ! D90   D(35,20,27,29)        -59.0819         estimate D2E/DX2                !
 ! D91   D(35,20,27,30)         60.8196         estimate D2E/DX2                !
 ! D92   D(15,20,31,32)         61.8079         estimate D2E/DX2                !
 ! D93   D(15,20,31,33)       -178.4219         estimate D2E/DX2                !
 ! D94   D(15,20,31,34)        -58.686          estimate D2E/DX2                !
 ! D95   D(27,20,31,32)       -179.2362         estimate D2E/DX2                !
 ! D96   D(27,20,31,33)        -59.466          estimate D2E/DX2                !
 ! D97   D(27,20,31,34)         60.2699         estimate D2E/DX2                !
 ! D98   D(35,20,31,32)        -61.14           estimate D2E/DX2                !
 ! D99   D(35,20,31,33)         58.6302         estimate D2E/DX2                !
 ! D100  D(35,20,31,34)        178.3661         estimate D2E/DX2                !
 ! D101  D(15,20,35,36)        -60.7885         estimate D2E/DX2                !
 ! D102  D(15,20,35,37)         60.6072         estimate D2E/DX2                !
 ! D103  D(15,20,35,38)        179.861          estimate D2E/DX2                !
 ! D104  D(27,20,35,36)        178.8923         estimate D2E/DX2                !
 ! D105  D(27,20,35,37)        -59.712          estimate D2E/DX2                !
 ! D106  D(27,20,35,38)         59.5418         estimate D2E/DX2                !
 ! D107  D(31,20,35,36)         60.5543         estimate D2E/DX2                !
 ! D108  D(31,20,35,37)       -178.0501         estimate D2E/DX2                !
 ! D109  D(31,20,35,38)        -58.7962         estimate D2E/DX2                !
 ! D110  D(17,21,39,40)       -179.376          estimate D2E/DX2                !
 ! D111  D(17,21,39,41)        -59.02           estimate D2E/DX2                !
 ! D112  D(17,21,39,42)         61.5907         estimate D2E/DX2                !
 ! D113  D(43,21,39,40)        -58.2323         estimate D2E/DX2                !
 ! D114  D(43,21,39,41)         62.1237         estimate D2E/DX2                !
 ! D115  D(43,21,39,42)       -177.2656         estimate D2E/DX2                !
 ! D116  D(47,21,39,40)         58.7289         estimate D2E/DX2                !
 ! D117  D(47,21,39,41)        179.0848         estimate D2E/DX2                !
 ! D118  D(47,21,39,42)        -60.3044         estimate D2E/DX2                !
 ! D119  D(17,21,43,44)         61.6293         estimate D2E/DX2                !
 ! D120  D(17,21,43,45)       -177.9712         estimate D2E/DX2                !
 ! D121  D(17,21,43,46)        -58.7765         estimate D2E/DX2                !
 ! D122  D(39,21,43,44)        -59.5042         estimate D2E/DX2                !
 ! D123  D(39,21,43,45)         60.8953         estimate D2E/DX2                !
 ! D124  D(39,21,43,46)       -179.91           estimate D2E/DX2                !
 ! D125  D(47,21,43,44)       -176.4401         estimate D2E/DX2                !
 ! D126  D(47,21,43,45)        -56.0406         estimate D2E/DX2                !
 ! D127  D(47,21,43,46)         63.1541         estimate D2E/DX2                !
 ! D128  D(17,21,47,48)        -60.6327         estimate D2E/DX2                !
 ! D129  D(17,21,47,49)         60.9206         estimate D2E/DX2                !
 ! D130  D(17,21,47,50)       -179.8434         estimate D2E/DX2                !
 ! D131  D(39,21,47,48)         60.0831         estimate D2E/DX2                !
 ! D132  D(39,21,47,49)       -178.3636         estimate D2E/DX2                !
 ! D133  D(39,21,47,50)        -59.1276         estimate D2E/DX2                !
 ! D134  D(43,21,47,48)        178.6042         estimate D2E/DX2                !
 ! D135  D(43,21,47,49)        -59.8425         estimate D2E/DX2                !
 ! D136  D(43,21,47,50)         59.3935         estimate D2E/DX2                !
 ! D137  D(6,26,52,53)         119.9494         estimate D2E/DX2                !
 ! D138  D(6,26,52,54)        -120.0506         estimate D2E/DX2                !
 ! D139  D(51,26,52,53)        -60.265          estimate D2E/DX2                !
 ! D140  D(51,26,52,54)         59.735          estimate D2E/DX2                !
 --------------------------------------------------------------------------------
 Trust Radius=3.00D-01 FncErr=5.00D-06 GrdErr=5.00D-06 EigMax=2.50D+02 EigMin=1.00D-04
 Number of steps in this run=    304 maximum allowed number of steps=    324.
 GradGradGradGradGradGradGradGradGradGradGradGradGradGradGradGradGradGrad

 Leave Link  103 at Tue Feb 12 09:26:31 2019, MaxMem=  1342177280 cpu:               1.6 elap:               0.3
 (Enter /gpfs/apps/hpc/Apps/Restricted/Gaussian/g16/Rev_B.01-AVX/g16/l202.exe)
 Symmetry turned off by external request.
 Stoichiometry    C22H27N3O2
 Framework group  C1[X(C22H27N3O2)]
 Deg. of freedom   156
 Full point group                 C1      NOp   1
                          Input orientation:                          
 ---------------------------------------------------------------------
 Center     Atomic      Atomic             Coordinates (Angstroms)
 Number     Number       Type             X           Y           Z
 ---------------------------------------------------------------------
      1          6           0       -0.483053    2.715584    0.416145
      2          6           0       -1.881052    2.898359    0.327601
      3          6           0       -2.412894    4.190122    0.243421
      4          6           0       -1.520456    5.261988    0.256277
      5          6           0       -0.133595    5.064531    0.350314
      6          6           0        0.427051    3.782688    0.429804
      7          6           0       -1.518543    0.752015    0.424651
      8          1           0       -3.482079    4.346339    0.169021
      9          1           0       -1.905266    6.273153    0.194132
     10          1           0        0.529539    5.922761    0.360617
     11          7           0       -2.496427    1.656282    0.336302
     12          6           0       -3.063668   -1.189037    0.352314
     13          6           0       -1.739219   -0.685003    0.447265
     14          6           0       -0.658724   -1.573623    0.540497
     15          6           0       -0.848757   -2.950289    0.541355
     16          6           0       -2.167874   -3.417641    0.446447
     17          6           0       -3.286126   -2.585001    0.353326
     18          1           0        0.347044   -1.175374    0.612680
     19          1           0       -2.332312   -4.483825    0.445491
     20          6           0        0.361420   -3.887798    0.614442
     21          6           0       -4.705200   -3.167413    0.253385
     22          8           0       -4.117255   -0.346876    0.257497
     23          1           0       -3.767809    0.591511    0.268641
     24          7           0       -0.287014    1.356600    0.476439
     25          1           0        0.638260    0.947632    0.528152
     26          6           0        1.869640    3.577070    0.516071
     27          6           0        1.245777   -3.654521   -0.627285
     28          1           0        1.575562   -2.614306   -0.683508
     29          1           0        2.133816   -4.292376   -0.588643
     30          1           0        0.697384   -3.887082   -1.544179
     31          6           0        1.182786   -3.575549    1.880731
     32          1           0        0.588653   -3.743887    2.782861
     33          1           0        2.064321   -4.221634    1.926387
     34          1           0        1.524899   -2.537627    1.887374
     35          6           0       -0.049460   -5.366088    0.652100
     36          1           0       -0.664682   -5.591665    1.527396
     37          1           0       -0.608161   -5.652070   -0.243331
     38          1           0        0.845240   -5.991639    0.701283
     39          6           0       -5.359002   -2.732161   -1.075251
     40          1           0       -6.372934   -3.138229   -1.139958
     41          1           0       -5.413698   -1.647265   -1.155355
     42          1           0       -4.786354   -3.113816   -1.925275
     43          6           0       -5.557474   -2.682549    1.445687
     44          1           0       -5.658132   -1.598206    1.446625
     45          1           0       -6.556546   -3.125767    1.394151
     46          1           0       -5.097957   -2.986879    2.390277
     47          6           0       -4.694231   -4.704659    0.283816
     48          1           0       -4.126052   -5.123400   -0.551056
     49          1           0       -4.268835   -5.089758    1.214382
     50          1           0       -5.721459   -5.069139    0.207540
     51          8           0        2.373968    2.425058    0.561816
     52          7           0        2.678268    4.804442    0.540131
     53          1           0        3.207120    4.838622    1.388156
     54          1           0        3.301595    4.808331   -0.241821
 ---------------------------------------------------------------------
 Rotational constants (GHZ):           0.2882229           0.1090491           0.0820167
 Leave Link  202 at Tue Feb 12 09:26:32 2019, MaxMem=  1342177280 cpu:               0.8 elap:               0.1
 (Enter /gpfs/apps/hpc/Apps/Restricted/Gaussian/g16/Rev_B.01-AVX/g16/l301.exe)
 Standard basis: 6-31G(d,p) (6D, 7F)
 Ernie: Thresh=  0.10000D-02 Tol=  0.10000D-05 Strict=F.
   540 basis functions,   945 primitive gaussians,   540 cartesian basis functions
    98 alpha electrons       98 beta electrons
       nuclear repulsion energy      2446.9754044854 Hartrees.
 IExCor=  402 DFT=T Ex+Corr=B3LYP ExCW=0 ScaHFX=  0.200000
 ScaDFX=  0.800000  0.720000  1.000000  0.810000 ScalE2=  1.000000  1.000000
 IRadAn=      5 IRanWt=     -1 IRanGd=            0 ICorTp=0 IEmpDi=141
 NAtoms=   54 NActive=   54 NUniq=   54 SFac= 1.00D+00 NAtFMM=   60 NAOKFM=F Big=F
 Integral buffers will be    131072 words long.
 Raffenetti 2 integral format.
 Two-electron integral symmetry is turned off.
 R6Disp:  Grimme-D3(BJ) Dispersion energy=       -0.1192195479 Hartrees.
 Nuclear repulsion after empirical dispersion term =     2446.8561849375 Hartrees.
 Using the following non-standard input for PCM:
 radii=bondi
 dis
 rep
 cav
 --- end of non-standard input.
 ------------------------------------------------------------------------------
 Polarizable Continuum Model (PCM)
 =================================
 Model                : C-PCM.
 Atomic radii         : Bondi.
 Polarization charges : Total charges.
 Charge compensation  : None.
 Solution method      : On-the-fly selection.
 Cavity type          : Scaled VdW (van der Waals Surface) (Alpha=1.100).
 Cavity algorithm     : GePol (No added spheres)
                        Default sphere list used, NSphG=   54.
                        Lebedev-Laikov grids with approx.  5.0 points / Ang**2.
                        Smoothing algorithm: York/Karplus (Gamma=1.0000).
                        Polarization charges: spherical gaussians, with
                                              point-specific exponents (IZeta= 3).
                        Self-potential: point-specific (ISelfS= 7).
                        Self-field    : sphere-specific E.n sum rule (ISelfD= 2).
 1st derivatives      : Analytical E(r).r(x)/FMM algorithm (CHGder, D1EAlg=3).
                        Cavity 1st derivative terms included.
 Solvent              : Dichloromethane, Eps=   8.930000 Eps(inf)=   2.028346
 ------------------------------------------------------------------------------
 GePol: Number of generator spheres                  =      54
 GePol: Total number of spheres                      =      54
 GePol: Number of exposed spheres                    =      54 (100.00%)
 GePol: Number of points                             =    3503
 GePol: Average weight of points                     =       0.12
 GePol: Minimum weight of points                     =   0.13D-10
 GePol: Maximum weight of points                     =    0.21770
 GePol: Number of points with low weight             =     253
 GePol: Fraction of low-weight points (<1% of avg)   =       7.22%
 GePol: Cavity surface area                          =    421.448 Ang**2
 GePol: Cavity volume                                =    405.630 Ang**3
 PCM non-electrostatic energy =         0.0181496453 Hartrees.
 Nuclear repulsion after PCM non-electrostatic terms =     2446.8743345828 Hartrees.
 Leave Link  301 at Tue Feb 12 09:26:32 2019, MaxMem=  1342177280 cpu:               4.1 elap:               0.3
 (Enter /gpfs/apps/hpc/Apps/Restricted/Gaussian/g16/Rev_B.01-AVX/g16/l302.exe)
 NPDir=0 NMtPBC=     1 NCelOv=     1 NCel=       1 NClECP=     1 NCelD=      1
         NCelK=      1 NCelE2=     1 NClLst=     1 CellRange=     0.0.
 One-electron integrals computed using PRISM.
 NBasis=   540 RedAO= T EigKep=  2.86D-04  NBF=   540
 NBsUse=   540 1.00D-06 EigRej= -1.00D+00 NBFU=   540
 Precomputing XC quadrature grid using
 IXCGrd= 4 IRadAn=           5 IRanWt=          -1 IRanGd=           0 AccXCQ= 0.00D+00.
 Generated NRdTot=       0 NPtTot=           0 NUsed=           0 NTot=          32
 NSgBfM=   533   533   533   533   533 MxSgAt=    54 MxSgA2=    54.
 Leave Link  302 at Tue Feb 12 09:26:34 2019, MaxMem=  1342177280 cpu:              12.3 elap:               0.9
 (Enter /gpfs/apps/hpc/Apps/Restricted/Gaussian/g16/Rev_B.01-AVX/g16/l303.exe)
 DipDrv:  MaxL=1.
 Leave Link  303 at Tue Feb 12 09:26:34 2019, MaxMem=  1342177280 cpu:               2.4 elap:               0.2
 (Enter /gpfs/apps/hpc/Apps/Restricted/Gaussian/g16/Rev_B.01-AVX/g16/l401.exe)
 ExpMin= 1.61D-01 ExpMax= 5.48D+03 ExpMxC= 8.25D+02 IAcc=3 IRadAn=         5 AccDes= 0.00D+00
 Harris functional with IExCor=  402 and IRadAn=       5 diagonalized for initial guess.
 HarFok:  IExCor=  402 AccDes= 0.00D+00 IRadAn=         5 IDoV= 1 UseB2=F ITyADJ=14
 ICtDFT=  3500011 ScaDFX=  1.000000  1.000000  1.000000  1.000000
 FoFCou: FMM=F IPFlag=           0 FMFlag=      100000 FMFlg1=           0
         NFxFlg=           0 DoJE=T BraDBF=F KetDBF=T FulRan=T
         wScrn=  0.000000 ICntrl=       500 IOpCl=  0 I1Cent=   200000004 NGrid=           0
         NMat0=    1 NMatS0=      1 NMatT0=    0 NMatD0=    1 NMtDS0=    0 NMtDT0=    0
 Symmetry not used in FoFCou.
 Harris En= -1169.55717092502    
 JPrj=0 DoOrth=F DoCkMO=F.
 Leave Link  401 at Tue Feb 12 09:26:37 2019, MaxMem=  1342177280 cpu:              36.4 elap:               2.4
 (Enter /gpfs/apps/hpc/Apps/Restricted/Gaussian/g16/Rev_B.01-AVX/g16/l502.exe)
 Two-electron integral symmetry not used.
 Closed shell SCF:
 Using DIIS extrapolation, IDIIS=  1040.
 NGot=  1342177280 LenX=  1341580900 LenY=  1341288760
 Requested convergence on RMS density matrix=1.00D-08 within 128 cycles.
 Requested convergence on MAX density matrix=1.00D-06.
 Requested convergence on             energy=1.00D-06.
 No special actions if energy rises.
 Fock matrices will be formed incrementally for  20 cycles.

 Cycle   1  Pass 1  IDiag  1:
 FoFJK:  IHMeth= 1 ICntrl=       0 DoSepK=F KAlg= 0 I1Cent=           0 FoldK=F
 IRaf= 630000000 NMat=       1 IRICut=       1 DoRegI=T DoRafI=F ISym2E= 0 IDoP0=0 IntGTp=1.
 FoFCou: FMM=F IPFlag=           0 FMFlag=      100000 FMFlg1=           0
         NFxFlg=           0 DoJE=F BraDBF=F KetDBF=F FulRan=T
         wScrn=  0.000000 ICntrl=         0 IOpCl=  0 I1Cent=           0 NGrid=           0
         NMat0=    1 NMatS0=      1 NMatT0=    0 NMatD0=    1 NMtDS0=    0 NMtDT0=    0
 Symmetry not used in FoFCou.
 Inv3:  Mode=1 IEnd=    36813027.
 Iteration    1 A*A^-1 deviation from unit magnitude is 6.00D-15 for   3498.
 Iteration    1 A*A^-1 deviation from orthogonality  is 3.45D-15 for   3489   3397.
 Iteration    1 A^-1*A deviation from unit magnitude is 6.22D-15 for   3498.
 Iteration    1 A^-1*A deviation from orthogonality  is 2.33D-15 for   3488   2422.
 E= -1168.79271126646    
 DIIS: error= 2.88D-02 at cycle   1 NSaved=   1.
 NSaved= 1 IEnMin= 1 EnMin= -1168.79271126646     IErMin= 1 ErrMin= 2.88D-02
 ErrMax= 2.88D-02  0.00D+00 EMaxC= 1.00D-01 BMatC= 7.36D-01 BMatP= 7.36D-01
 IDIUse=3 WtCom= 7.12D-01 WtEn= 2.88D-01
 Coeff-Com:  0.100D+01
 Coeff-En:   0.100D+01
 Coeff:      0.100D+01
 Gap=     0.132 Goal=   None    Shift=    0.000
 GapD=    0.132 DampG=1.000 DampE=0.500 DampFc=0.5000 IDamp=-1.
 Damping current iteration by 5.00D-01
 RMSDP=3.74D-03 MaxDP=1.79D-01              OVMax= 1.93D-01

 Cycle   2  Pass 1  IDiag  1:
 RMSU=  1.83D-03    CP:  9.71D-01
 E= -1169.10387297267     Delta-E=       -0.311161706219 Rises=F Damp=T
 DIIS: error= 1.15D-02 at cycle   2 NSaved=   2.
 NSaved= 2 IEnMin= 2 EnMin= -1169.10387297267     IErMin= 2 ErrMin= 1.15D-02
 ErrMax= 1.15D-02  0.00D+00 EMaxC= 1.00D-01 BMatC= 5.40D-02 BMatP= 7.36D-01
 IDIUse=3 WtCom= 8.85D-01 WtEn= 1.15D-01
 Coeff-Com:  0.926D-01 0.907D+00
 Coeff-En:   0.147D+00 0.853D+00
 Coeff:      0.989D-01 0.901D+00
 Gap=     0.130 Goal=   None    Shift=    0.000
 RMSDP=1.06D-03 MaxDP=5.92D-02 DE=-3.11D-01 OVMax= 2.20D-01

 Cycle   3  Pass 1  IDiag  1:
 RMSU=  1.03D-03    CP:  9.55D-01  9.01D-01
 E= -1169.47777423326     Delta-E=       -0.373901260590 Rises=F Damp=F
 DIIS: error= 2.01D-02 at cycle   3 NSaved=   3.
 NSaved= 3 IEnMin= 3 EnMin= -1169.47777423326     IErMin= 2 ErrMin= 1.15D-02
 ErrMax= 2.01D-02  0.00D+00 EMaxC= 1.00D-01 BMatC= 5.01D-02 BMatP= 5.40D-02
 IDIUse=3 WtCom= 7.99D-01 WtEn= 2.01D-01
 Coeff-Com:  0.473D-02 0.488D+00 0.507D+00
 Coeff-En:   0.000D+00 0.000D+00 0.100D+01
 Coeff:      0.378D-02 0.390D+00 0.606D+00
 Gap=     0.134 Goal=   None    Shift=    0.000
 RMSDP=6.82D-04 MaxDP=7.76D-02 DE=-3.74D-01 OVMax= 6.78D-02

 Cycle   4  Pass 1  IDiag  1:
 RMSU=  4.85D-04    CP:  9.58D-01  9.98D-01  5.68D-01
 E= -1169.50092927472     Delta-E=       -0.023155041460 Rises=F Damp=F
 DIIS: error= 1.57D-02 at cycle   4 NSaved=   4.
 NSaved= 4 IEnMin= 4 EnMin= -1169.50092927472     IErMin= 2 ErrMin= 1.15D-02
 ErrMax= 1.57D-02  0.00D+00 EMaxC= 1.00D-01 BMatC= 2.61D-02 BMatP= 5.01D-02
 IDIUse=3 WtCom= 8.43D-01 WtEn= 1.57D-01
 Coeff-Com: -0.719D-03 0.940D-01 0.415D+00 0.492D+00
 Coeff-En:   0.000D+00 0.000D+00 0.356D+00 0.644D+00
 Coeff:     -0.606D-03 0.792D-01 0.406D+00 0.516D+00
 Gap=     0.132 Goal=   None    Shift=    0.000
 RMSDP=3.29D-04 MaxDP=4.09D-02 DE=-2.32D-02 OVMax= 4.55D-02

 Cycle   5  Pass 1  IDiag  1:
 RMSU=  1.37D-04    CP:  9.58D-01  9.52D-01  7.25D-01  5.09D-01
 E= -1169.52099075444     Delta-E=       -0.020061479716 Rises=F Damp=F
 DIIS: error= 2.48D-03 at cycle   5 NSaved=   5.
 NSaved= 5 IEnMin= 5 EnMin= -1169.52099075444     IErMin= 5 ErrMin= 2.48D-03
 ErrMax= 2.48D-03  0.00D+00 EMaxC= 1.00D-01 BMatC= 1.26D-03 BMatP= 2.61D-02
 IDIUse=3 WtCom= 9.75D-01 WtEn= 2.48D-02
 Coeff-Com: -0.972D-04 0.113D-01 0.197D+00 0.308D+00 0.484D+00
 Coeff-En:   0.000D+00 0.000D+00 0.000D+00 0.000D+00 0.100D+01
 Coeff:     -0.947D-04 0.110D-01 0.192D+00 0.300D+00 0.497D+00
 Gap=     0.132 Goal=   None    Shift=    0.000
 RMSDP=8.48D-05 MaxDP=7.88D-03 DE=-2.01D-02 OVMax= 8.47D-03

 Cycle   6  Pass 1  IDiag  1:
 RMSU=  3.68D-05    CP:  9.58D-01  9.53D-01  7.30D-01  5.65D-01  4.82D-01
 E= -1169.52203463946     Delta-E=       -0.001043885016 Rises=F Damp=F
 DIIS: error= 5.33D-04 at cycle   6 NSaved=   6.
 NSaved= 6 IEnMin= 6 EnMin= -1169.52203463946     IErMin= 6 ErrMin= 5.33D-04
 ErrMax= 5.33D-04  0.00D+00 EMaxC= 1.00D-01 BMatC= 8.43D-05 BMatP= 1.26D-03
 IDIUse=3 WtCom= 9.95D-01 WtEn= 5.33D-03
 Coeff-Com:  0.400D-04-0.126D-02 0.705D-01 0.121D+00 0.278D+00 0.531D+00
 Coeff-En:   0.000D+00 0.000D+00 0.000D+00 0.000D+00 0.000D+00 0.100D+01
 Coeff:      0.398D-04-0.125D-02 0.702D-01 0.121D+00 0.276D+00 0.534D+00
 Gap=     0.132 Goal=   None    Shift=    0.000
 RMSDP=2.04D-05 MaxDP=1.33D-03 DE=-1.04D-03 OVMax= 2.70D-03

 Cycle   7  Pass 1  IDiag  1:
 RMSU=  1.19D-05    CP:  9.58D-01  9.55D-01  7.30D-01  5.64D-01  5.44D-01
                    CP:  6.18D-01
 E= -1169.52211116529     Delta-E=       -0.000076525837 Rises=F Damp=F
 DIIS: error= 1.03D-04 at cycle   7 NSaved=   7.
 NSaved= 7 IEnMin= 7 EnMin= -1169.52211116529     IErMin= 7 ErrMin= 1.03D-04
 ErrMax= 1.03D-04  0.00D+00 EMaxC= 1.00D-01 BMatC= 5.92D-06 BMatP= 8.43D-05
 IDIUse=3 WtCom= 9.99D-01 WtEn= 1.03D-03
 Coeff-Com: -0.539D-06-0.136D-02 0.170D-01 0.319D-01 0.945D-01 0.280D+00
 Coeff-Com:  0.578D+00
 Coeff-En:   0.000D+00 0.000D+00 0.000D+00 0.000D+00 0.000D+00 0.000D+00
 Coeff-En:   0.100D+01
 Coeff:     -0.538D-06-0.136D-02 0.170D-01 0.319D-01 0.944D-01 0.280D+00
 Coeff:      0.579D+00
 Gap=     0.132 Goal=   None    Shift=    0.000
 RMSDP=5.69D-06 MaxDP=3.19D-04 DE=-7.65D-05 OVMax= 5.54D-04

 Cycle   8  Pass 1  IDiag  1:
 RMSU=  2.82D-06    CP:  9.58D-01  9.54D-01  7.31D-01  5.65D-01  5.46D-01
                    CP:  6.67D-01  6.19D-01
 E= -1169.52211648136     Delta-E=       -0.000005316069 Rises=F Damp=F
 DIIS: error= 3.67D-05 at cycle   8 NSaved=   8.
 NSaved= 8 IEnMin= 8 EnMin= -1169.52211648136     IErMin= 8 ErrMin= 3.67D-05
 ErrMax= 3.67D-05  0.00D+00 EMaxC= 1.00D-01 BMatC= 4.29D-07 BMatP= 5.92D-06
 IDIUse=1 WtCom= 1.00D+00 WtEn= 0.00D+00
 Coeff-Com: -0.107D-04-0.512D-03 0.396D-02 0.795D-02 0.292D-01 0.107D+00
 Coeff-Com:  0.292D+00 0.561D+00
 Coeff:     -0.107D-04-0.512D-03 0.396D-02 0.795D-02 0.292D-01 0.107D+00
 Coeff:      0.292D+00 0.561D+00
 Gap=     0.132 Goal=   None    Shift=    0.000
 RMSDP=1.57D-06 MaxDP=1.36D-04 DE=-5.32D-06 OVMax= 1.75D-04

 Cycle   9  Pass 1  IDiag  1:
 RMSU=  1.04D-06    CP:  9.58D-01  9.54D-01  7.31D-01  5.65D-01  5.46D-01
                    CP:  6.68D-01  6.61D-01  6.25D-01
 E= -1169.52211683176     Delta-E=       -0.000000350401 Rises=F Damp=F
 DIIS: error= 1.74D-05 at cycle   9 NSaved=   9.
 NSaved= 9 IEnMin= 9 EnMin= -1169.52211683176     IErMin= 9 ErrMin= 1.74D-05
 ErrMax= 1.74D-05  0.00D+00 EMaxC= 1.00D-01 BMatC= 5.92D-08 BMatP= 4.29D-07
 IDIUse=1 WtCom= 1.00D+00 WtEn= 0.00D+00
 Coeff-Com: -0.774D-05-0.918D-04-0.955D-05 0.121D-03 0.369D-02 0.221D-01
 Coeff-Com:  0.823D-01 0.306D+00 0.586D+00
 Coeff:     -0.774D-05-0.918D-04-0.955D-05 0.121D-03 0.369D-02 0.221D-01
 Coeff:      0.823D-01 0.306D+00 0.586D+00
 Gap=     0.132 Goal=   None    Shift=    0.000
 RMSDP=5.69D-07 MaxDP=5.94D-05 DE=-3.50D-07 OVMax= 6.30D-05

 Cycle  10  Pass 1  IDiag  1:
 RMSU=  3.45D-07    CP:  9.58D-01  9.54D-01  7.31D-01  5.65D-01  5.46D-01
                    CP:  6.70D-01  6.64D-01  7.04D-01  6.35D-01
 E= -1169.52211688073     Delta-E=       -0.000000048966 Rises=F Damp=F
 DIIS: error= 4.85D-06 at cycle  10 NSaved=  10.
 NSaved=10 IEnMin=10 EnMin= -1169.52211688073     IErMin=10 ErrMin= 4.85D-06
 ErrMax= 4.85D-06  0.00D+00 EMaxC= 1.00D-01 BMatC= 7.07D-09 BMatP= 5.92D-08
 IDIUse=1 WtCom= 1.00D+00 WtEn= 0.00D+00
 Coeff-Com: -0.347D-05-0.181D-04-0.326D-03-0.602D-03-0.163D-03 0.455D-02
 Coeff-Com:  0.247D-01 0.134D+00 0.343D+00 0.495D+00
 Coeff:     -0.347D-05-0.181D-04-0.326D-03-0.602D-03-0.163D-03 0.455D-02
 Coeff:      0.247D-01 0.134D+00 0.343D+00 0.495D+00
 Gap=     0.132 Goal=   None    Shift=    0.000
 RMSDP=1.83D-07 MaxDP=1.78D-05 DE=-4.90D-08 OVMax= 1.81D-05

 Cycle  11  Pass 1  IDiag  1:
 RMSU=  9.64D-08    CP:  9.58D-01  9.54D-01  7.31D-01  5.65D-01  5.46D-01
                    CP:  6.71D-01  6.65D-01  7.13D-01  7.07D-01  6.31D-01
 E= -1169.52211688700     Delta-E=       -0.000000006270 Rises=F Damp=F
 DIIS: error= 7.32D-07 at cycle  11 NSaved=  11.
 NSaved=11 IEnMin=11 EnMin= -1169.52211688700     IErMin=11 ErrMin= 7.32D-07
 ErrMax= 7.32D-07  0.00D+00 EMaxC= 1.00D-01 BMatC= 2.36D-10 BMatP= 7.07D-09
 IDIUse=1 WtCom= 1.00D+00 WtEn= 0.00D+00
 Coeff-Com: -0.104D-05 0.250D-05-0.130D-03-0.273D-03-0.446D-03-0.164D-03
 Coeff-Com:  0.211D-02 0.251D-01 0.843D-01 0.194D+00 0.695D+00
 Coeff:     -0.104D-05 0.250D-05-0.130D-03-0.273D-03-0.446D-03-0.164D-03
 Coeff:      0.211D-02 0.251D-01 0.843D-01 0.194D+00 0.695D+00
 Gap=     0.132 Goal=   None    Shift=    0.000
 RMSDP=4.44D-08 MaxDP=2.88D-06 DE=-6.27D-09 OVMax= 6.55D-06

 Cycle  12  Pass 1  IDiag  1:
 RMSU=  3.41D-08    CP:  9.58D-01  9.54D-01  7.31D-01  5.65D-01  5.46D-01
                    CP:  6.71D-01  6.66D-01  7.17D-01  7.17D-01  6.77D-01
                    CP:  8.17D-01
 E= -1169.52211688719     Delta-E=       -0.000000000194 Rises=F Damp=F
 DIIS: error= 2.27D-07 at cycle  12 NSaved=  12.
 NSaved=12 IEnMin=12 EnMin= -1169.52211688719     IErMin=12 ErrMin= 2.27D-07
 ErrMax= 2.27D-07  0.00D+00 EMaxC= 1.00D-01 BMatC= 5.63D-11 BMatP= 2.36D-10
 IDIUse=1 WtCom= 1.00D+00 WtEn= 0.00D+00
 Coeff-Com: -0.217D-06 0.296D-05-0.296D-04-0.744D-04-0.210D-03-0.482D-03
 Coeff-Com: -0.157D-02-0.124D-02 0.749D-02 0.479D-01 0.378D+00 0.570D+00
 Coeff:     -0.217D-06 0.296D-05-0.296D-04-0.744D-04-0.210D-03-0.482D-03
 Coeff:     -0.157D-02-0.124D-02 0.749D-02 0.479D-01 0.378D+00 0.570D+00
 Gap=     0.132 Goal=   None    Shift=    0.000
 RMSDP=1.94D-08 MaxDP=1.12D-06 DE=-1.94D-10 OVMax= 3.10D-06

 Cycle  13  Pass 1  IDiag  1:
 RMSU=  1.14D-08    CP:  9.58D-01  9.54D-01  7.31D-01  5.65D-01  5.46D-01
                    CP:  6.71D-01  6.66D-01  7.17D-01  7.18D-01  6.86D-01
                    CP:  9.03D-01  6.46D-01
 E= -1169.52211688725     Delta-E=       -0.000000000053 Rises=F Damp=F
 DIIS: error= 6.74D-08 at cycle  13 NSaved=  13.
 NSaved=13 IEnMin=13 EnMin= -1169.52211688725     IErMin=13 ErrMin= 6.74D-08
 ErrMax= 6.74D-08  0.00D+00 EMaxC= 1.00D-01 BMatC= 4.19D-12 BMatP= 5.63D-11
 IDIUse=1 WtCom= 1.00D+00 WtEn= 0.00D+00
 Coeff-Com:  0.275D-07 0.832D-06 0.226D-05-0.744D-07-0.495D-04-0.209D-03
 Coeff-Com: -0.114D-02-0.414D-02-0.806D-02-0.460D-02 0.815D-01 0.258D+00
 Coeff-Com:  0.679D+00
 Coeff:      0.275D-07 0.832D-06 0.226D-05-0.744D-07-0.495D-04-0.209D-03
 Coeff:     -0.114D-02-0.414D-02-0.806D-02-0.460D-02 0.815D-01 0.258D+00
 Coeff:      0.679D+00
 Gap=     0.132 Goal=   None    Shift=    0.000
 RMSDP=5.69D-09 MaxDP=3.43D-07 DE=-5.32D-11 OVMax= 9.46D-07

 Error on total polarization charges =  0.03945
 SCF Done:  E(RB3LYP) =  -1169.52211689     A.U. after   13 cycles
            NFock= 13  Conv=0.57D-08     -V/T= 2.0096
 KE= 1.158435511843D+03 PE=-7.610052211508D+03 EE= 2.835220248195D+03
 Leave Link  502 at Tue Feb 12 09:27:52 2019, MaxMem=  1342177280 cpu:            1155.9 elap:              74.1
 (Enter /gpfs/apps/hpc/Apps/Restricted/Gaussian/g16/Rev_B.01-AVX/g16/l601.exe)
 Copying SCF densities to generalized density rwf, IOpCl= 0 IROHF=0.

 **********************************************************************

            Population analysis using the SCF Density.

 **********************************************************************

 Alpha  occ. eigenvalues --  -19.15891 -19.15178 -14.39383 -14.33771 -14.32646
 Alpha  occ. eigenvalues --  -10.31338 -10.27507 -10.25140 -10.23960 -10.22516
 Alpha  occ. eigenvalues --  -10.20942 -10.20564 -10.20396 -10.20088 -10.19640
 Alpha  occ. eigenvalues --  -10.19555 -10.19487 -10.19025 -10.18865 -10.18520
 Alpha  occ. eigenvalues --  -10.18254 -10.16683 -10.16680 -10.16618 -10.16447
 Alpha  occ. eigenvalues --  -10.16051 -10.16041  -1.04949  -1.03985  -1.02628
 Alpha  occ. eigenvalues --   -0.89075  -0.88324  -0.86500  -0.85489  -0.81914
 Alpha  occ. eigenvalues --   -0.80628  -0.76704  -0.76530  -0.72856  -0.72196
 Alpha  occ. eigenvalues --   -0.68368  -0.67802  -0.67623  -0.67369  -0.65880
 Alpha  occ. eigenvalues --   -0.63986  -0.62254  -0.61180  -0.60344  -0.58909
 Alpha  occ. eigenvalues --   -0.55425  -0.53980  -0.52394  -0.51778  -0.50778
 Alpha  occ. eigenvalues --   -0.50312  -0.48195  -0.47862  -0.46526  -0.46335
 Alpha  occ. eigenvalues --   -0.46086  -0.45731  -0.44830  -0.43549  -0.43317
 Alpha  occ. eigenvalues --   -0.42783  -0.42581  -0.42504  -0.41333  -0.41248
 Alpha  occ. eigenvalues --   -0.41059  -0.38649  -0.38514  -0.38293  -0.37640
 Alpha  occ. eigenvalues --   -0.37323  -0.37174  -0.36932  -0.36820  -0.36078
 Alpha  occ. eigenvalues --   -0.35812  -0.35527  -0.34829  -0.33402  -0.33341
 Alpha  occ. eigenvalues --   -0.32339  -0.31971  -0.31695  -0.31495  -0.31248
 Alpha  occ. eigenvalues --   -0.30417  -0.29562  -0.28522  -0.26953  -0.25495
 Alpha  occ. eigenvalues --   -0.24506  -0.22628  -0.20698
 Alpha virt. eigenvalues --   -0.07470  -0.03244   0.00845   0.01305   0.03881
 Alpha virt. eigenvalues --    0.07131   0.08020   0.09726   0.09980   0.10547
 Alpha virt. eigenvalues --    0.11867   0.12997   0.13802   0.14281   0.14745
 Alpha virt. eigenvalues --    0.15583   0.15946   0.16216   0.16489   0.16854
 Alpha virt. eigenvalues --    0.17032   0.17298   0.17626   0.18354   0.18526
 Alpha virt. eigenvalues --    0.18676   0.19105   0.19346   0.19848   0.20511
 Alpha virt. eigenvalues --    0.21093   0.21219   0.21588   0.21954   0.22384
 Alpha virt. eigenvalues --    0.22749   0.22903   0.23170   0.24125   0.24391
 Alpha virt. eigenvalues --    0.24814   0.25481   0.25637   0.26428   0.26802
 Alpha virt. eigenvalues --    0.27099   0.27747   0.28666   0.28977   0.30037
 Alpha virt. eigenvalues --    0.33269   0.35054   0.35669   0.36886   0.38070
 Alpha virt. eigenvalues --    0.39347   0.40413   0.41379   0.42542   0.46011
 Alpha virt. eigenvalues --    0.46993   0.47993   0.49606   0.49714   0.50179
 Alpha virt. eigenvalues --    0.50453   0.50925   0.50968   0.51271   0.52269
 Alpha virt. eigenvalues --    0.53213   0.53735   0.54414   0.54489   0.54728
 Alpha virt. eigenvalues --    0.55399   0.55515   0.56258   0.57405   0.58703
 Alpha virt. eigenvalues --    0.58888   0.59529   0.60176   0.60441   0.60958
 Alpha virt. eigenvalues --    0.61532   0.61587   0.62036   0.62209   0.62458
 Alpha virt. eigenvalues --    0.63166   0.63340   0.64000   0.64159   0.65003
 Alpha virt. eigenvalues --    0.65466   0.67590   0.68218   0.69213   0.69585
 Alpha virt. eigenvalues --    0.70554   0.70751   0.71251   0.72059   0.72428
 Alpha virt. eigenvalues --    0.73336   0.74274   0.76625   0.77088   0.78369
 Alpha virt. eigenvalues --    0.78909   0.79321   0.79455   0.80539   0.80916
 Alpha virt. eigenvalues --    0.82413   0.82967   0.83041   0.83128   0.83762
 Alpha virt. eigenvalues --    0.84619   0.85018   0.85106   0.85480   0.85772
 Alpha virt. eigenvalues --    0.86526   0.86921   0.87349   0.87643   0.88039
 Alpha virt. eigenvalues --    0.88436   0.88863   0.88925   0.89283   0.89767
 Alpha virt. eigenvalues --    0.89906   0.90218   0.91289   0.91524   0.92047
 Alpha virt. eigenvalues --    0.92371   0.92870   0.93404   0.94117   0.94442
 Alpha virt. eigenvalues --    0.94692   0.95445   0.95773   0.97258   0.97398
 Alpha virt. eigenvalues --    0.97730   0.98373   0.98478   0.99329   0.99804
 Alpha virt. eigenvalues --    1.01558   1.01764   1.03699   1.04533   1.07125
 Alpha virt. eigenvalues --    1.07702   1.08524   1.09059   1.10805   1.12809
 Alpha virt. eigenvalues --    1.15492   1.16440   1.17460   1.19159   1.20054
 Alpha virt. eigenvalues --    1.20626   1.22003   1.22275   1.23437   1.24511
 Alpha virt. eigenvalues --    1.25267   1.25713   1.26840   1.27201   1.27543
 Alpha virt. eigenvalues --    1.28351   1.29959   1.30792   1.32802   1.33555
 Alpha virt. eigenvalues --    1.34232   1.34580   1.37263   1.39309   1.39675
 Alpha virt. eigenvalues --    1.40142   1.40473   1.40628   1.41302   1.42761
 Alpha virt. eigenvalues --    1.44248   1.45331   1.47088   1.48335   1.48544
 Alpha virt. eigenvalues --    1.49343   1.50761   1.51097   1.51739   1.52315
 Alpha virt. eigenvalues --    1.54104   1.55681   1.55790   1.56363   1.59914
 Alpha virt. eigenvalues --    1.60668   1.63220   1.65362   1.66422   1.69366
 Alpha virt. eigenvalues --    1.70638   1.71114   1.71432   1.72732   1.73083
 Alpha virt. eigenvalues --    1.73542   1.74808   1.76441   1.77893   1.79672
 Alpha virt. eigenvalues --    1.79762   1.80166   1.81338   1.82050   1.82581
 Alpha virt. eigenvalues --    1.82884   1.83882   1.84185   1.84930   1.85541
 Alpha virt. eigenvalues --    1.86042   1.86427   1.86685   1.87290   1.87364
 Alpha virt. eigenvalues --    1.88831   1.88993   1.89540   1.90183   1.90648
 Alpha virt. eigenvalues --    1.91368   1.92616   1.93855   1.95302   1.96314
 Alpha virt. eigenvalues --    1.97247   1.97787   1.98925   2.00161   2.00219
 Alpha virt. eigenvalues --    2.02187   2.03443   2.04605   2.04903   2.04982
 Alpha virt. eigenvalues --    2.05377   2.05779   2.06314   2.06395   2.06484
 Alpha virt. eigenvalues --    2.07757   2.09084   2.09752   2.10433   2.10799
 Alpha virt. eigenvalues --    2.10996   2.11180   2.11642   2.12197   2.12403
 Alpha virt. eigenvalues --    2.12496   2.13409   2.13757   2.14360   2.15048
 Alpha virt. eigenvalues --    2.15784   2.16009   2.17521   2.17976   2.19549
 Alpha virt. eigenvalues --    2.20134   2.20322   2.22281   2.22527   2.22595
 Alpha virt. eigenvalues --    2.23177   2.24754   2.25150   2.25852   2.27200
 Alpha virt. eigenvalues --    2.27802   2.29234   2.29436   2.31393   2.31579
 Alpha virt. eigenvalues --    2.32875   2.33154   2.34088   2.34376   2.36304
 Alpha virt. eigenvalues --    2.37202   2.38066   2.38732   2.41168   2.42011
 Alpha virt. eigenvalues --    2.42190   2.42534   2.43183   2.43811   2.45241
 Alpha virt. eigenvalues --    2.47225   2.48183   2.50050   2.50938   2.52416
 Alpha virt. eigenvalues --    2.53561   2.54013   2.54707   2.55124   2.55569
 Alpha virt. eigenvalues --    2.56569   2.58199   2.58240   2.59644   2.60920
 Alpha virt. eigenvalues --    2.61944   2.62076   2.62335   2.62717   2.64246
 Alpha virt. eigenvalues --    2.64993   2.65044   2.65937   2.68827   2.68996
 Alpha virt. eigenvalues --    2.70556   2.71753   2.71834   2.72379   2.73438
 Alpha virt. eigenvalues --    2.74142   2.74396   2.74586   2.75804   2.75961
 Alpha virt. eigenvalues --    2.76194   2.76759   2.77064   2.77922   2.79719
 Alpha virt. eigenvalues --    2.81271   2.81441   2.82362   2.84470   2.86124
 Alpha virt. eigenvalues --    2.87934   2.88339   2.88899   2.88916   2.89561
 Alpha virt. eigenvalues --    2.89942   2.90491   2.92153   2.93132   2.94125
 Alpha virt. eigenvalues --    2.94908   2.95195   2.95298   2.96954   2.99272
 Alpha virt. eigenvalues --    2.99943   3.01444   3.04728   3.05852   3.08765
 Alpha virt. eigenvalues --    3.11764   3.14345   3.15038   3.16980   3.18932
 Alpha virt. eigenvalues --    3.19837   3.23814   3.24233   3.24721   3.25952
 Alpha virt. eigenvalues --    3.26135   3.28192   3.29755   3.33470   3.37139
 Alpha virt. eigenvalues --    3.41197   3.42844   3.43026   3.43433   3.43991
 Alpha virt. eigenvalues --    3.44617   3.44663   3.44703   3.45426   3.45714
 Alpha virt. eigenvalues --    3.47059   3.47281   3.52472   3.53416   3.54143
 Alpha virt. eigenvalues --    3.54832   3.57512   3.63870   3.73075   3.80280
 Alpha virt. eigenvalues --    4.04001   4.08144   4.11371   4.13406   4.15172
 Alpha virt. eigenvalues --    4.17836   4.18495   4.22041   4.29374   4.31088
 Alpha virt. eigenvalues --    4.37617   4.39235   4.43017   4.47381   4.47963
 Alpha virt. eigenvalues --    4.52502   4.55151   4.56161   4.56580   4.60853
 Alpha virt. eigenvalues --    4.63172   4.63745   4.68666   4.75234   4.81278
 Alpha virt. eigenvalues --    4.89124   4.93147
          Condensed to atoms (all electrons):
 Mulliken charges:
               1
     1  C    0.267698
     2  C    0.264482
     3  C   -0.113964
     4  C   -0.120032
     5  C   -0.143185
     6  C    0.101967
     7  C    0.556055
     8  H    0.126900
     9  H    0.115329
    10  H    0.121632
    11  N   -0.724783
    12  C    0.233585
    13  C    0.081511
    14  C   -0.206283
    15  C    0.131225
    16  C   -0.203534
    17  C    0.105666
    18  H    0.109158
    19  H    0.096354
    20  C   -0.021034
    21  C   -0.005353
    22  O   -0.609142
    23  H    0.354677
    24  N   -0.671369
    25  H    0.308628
    26  C    0.451487
    27  C   -0.306529
    28  H    0.104718
    29  H    0.102856
    30  H    0.104654
    31  C   -0.309081
    32  H    0.105031
    33  H    0.103151
    34  H    0.105308
    35  C   -0.320873
    36  H    0.108196
    37  H    0.108975
    38  H    0.101608
    39  C   -0.315753
    40  H    0.098267
    41  H    0.116298
    42  H    0.098515
    43  C   -0.315472
    44  H    0.116444
    45  H    0.098047
    46  H    0.098533
    47  C   -0.320565
    48  H    0.107396
    49  H    0.107031
    50  H    0.101013
    51  O   -0.526683
    52  N   -0.666089
    53  H    0.293724
    54  H    0.293603
 Sum of Mulliken charges =  -0.00000
 Mulliken charges with hydrogens summed into heavy atoms:
               1
     1  C    0.267698
     2  C    0.264482
     3  C    0.012937
     4  C   -0.004704
     5  C   -0.021552
     6  C    0.101967
     7  C    0.556055
    11  N   -0.724783
    12  C    0.233585
    13  C    0.081511
    14  C   -0.097125
    15  C    0.131225
    16  C   -0.107180
    17  C    0.105666
    20  C   -0.021034
    21  C   -0.005353
    22  O   -0.254466
    24  N   -0.362742
    26  C    0.451487
    27  C    0.005700
    31  C    0.004409
    35  C   -0.002095
    39  C   -0.002673
    43  C   -0.002447
    47  C   -0.005125
    51  O   -0.526683
    52  N   -0.078762
 Electronic spatial extent (au):  <R**2>=          14359.9713
 Charge=             -0.0000 electrons
 Dipole moment (field-independent basis, Debye):
    X=              3.8344    Y=              1.7112    Z=              0.1689  Tot=              4.2023
 Quadrupole moment (field-independent basis, Debye-Ang):
   XX=           -165.6291   YY=           -133.6241   ZZ=           -161.7431
   XY=              3.8381   XZ=              1.8433   YZ=              0.3554
 Traceless Quadrupole moment (field-independent basis, Debye-Ang):
   XX=            -11.9636   YY=             20.0413   ZZ=             -8.0777
   XY=              3.8381   XZ=              1.8433   YZ=              0.3554
 Octapole moment (field-independent basis, Debye-Ang**2):
  XXX=            736.5126  YYY=            235.2926  ZZZ=           -200.2556  XYY=            230.9297
  XXY=            103.3932  XXZ=            -68.9731  XZZ=            239.5620  YZZ=             60.3625
  YYZ=            -56.5132  XYZ=              4.6836
 Hexadecapole moment (field-independent basis, Debye-Ang**3):
 XXXX=          -7622.9363 YYYY=         -10625.8017 ZZZZ=           -710.3517 XXXY=          -1394.1622
 XXXZ=            176.2877 YYYX=          -1462.7587 YYYZ=            127.5232 ZZZX=            160.5996
 ZZZY=            125.7341 XXYY=          -2744.5547 XXZZ=          -1397.3227 YYZZ=          -2006.7919
 XXYZ=             55.6605 YYXZ=             79.2909 ZZXY=           -468.9517
 N-N= 2.446874334583D+03 E-N=-7.610052192192D+03  KE= 1.158435511843D+03
 No NMR shielding tensors so no spin-rotation constants.
 Leave Link  601 at Tue Feb 12 09:27:52 2019, MaxMem=  1342177280 cpu:               3.6 elap:               0.3
 (Enter /gpfs/apps/hpc/Apps/Restricted/Gaussian/g16/Rev_B.01-AVX/g16/l701.exe)
 ... and contract with generalized density number  0.
 Compute integral first derivatives.
 R6Disp: Adding Grimme-D3(BJ) dispersion energy 1st derivatives to the gradient.
 D1PCM: C-PCM CHGder 1st derivatives, ID1Alg=3 FixD1E=F DoIter=F DoCFld=F I1PDM=0.
 GePol: Maximum number of non-zero 1st derivatives   =     208
 Leave Link  701 at Tue Feb 12 09:27:54 2019, MaxMem=  1342177280 cpu:              24.3 elap:               1.6
 (Enter /gpfs/apps/hpc/Apps/Restricted/Gaussian/g16/Rev_B.01-AVX/g16/l702.exe)
 L702 exits ... SP integral derivatives will be done elsewhere.
 Leave Link  702 at Tue Feb 12 09:27:55 2019, MaxMem=  1342177280 cpu:               0.9 elap:               0.1
 (Enter /gpfs/apps/hpc/Apps/Restricted/Gaussian/g16/Rev_B.01-AVX/g16/l703.exe)
 Integral derivatives from FoFJK, PRISM(SPDF).
 Compute integral first derivatives, UseDBF=F ICtDFT=           0.
 Calling FoFJK, ICntrl=      2127 FMM=F ISym2X=0 I1Cent= 0 IOpClX= 0 NMat=1 NMatS=1 NMatT=0.
 FoFJK:  IHMeth= 1 ICntrl=    2127 DoSepK=F KAlg= 0 I1Cent=           0 FoldK=F
 IRaf=         0 NMat=       1 IRICut=       1 DoRegI=T DoRafI=F ISym2E= 0 IDoP0=0 IntGTp=1.
 FoFCou: FMM=F IPFlag=           0 FMFlag=      100000 FMFlg1=         800
         NFxFlg=           0 DoJE=F BraDBF=F KetDBF=F FulRan=T
         wScrn=  0.000000 ICntrl=      2127 IOpCl=  0 I1Cent=           0 NGrid=           0
         NMat0=    1 NMatS0=      1 NMatT0=    0 NMatD0=    1 NMtDS0=    0 NMtDT0=    0
 Symmetry not used in FoFCou.
 Leave Link  703 at Tue Feb 12 09:28:09 2019, MaxMem=  1342177280 cpu:             217.8 elap:              13.8
 (Enter /gpfs/apps/hpc/Apps/Restricted/Gaussian/g16/Rev_B.01-AVX/g16/l716.exe)
 Dipole        = 1.50857073D+00 6.73232704D-01 6.64653663D-02
 -------------------------------------------------------------------
 Center     Atomic                   Forces (Hartrees/Bohr)
 Number     Number              X              Y              Z
 -------------------------------------------------------------------
      1        6           0.002713286   -0.005464936    0.000313285
      2        6          -0.000866702   -0.000060894   -0.000013149
      3        6           0.000515427   -0.002288022    0.000106743
      4        6           0.002576015    0.000057982    0.000140963
      5        6          -0.005496500    0.007172693   -0.000741857
      6        6           0.001097189    0.005074860    0.000293464
      7        6          -0.002398045   -0.001410106   -0.000157021
      8        1          -0.000015489   -0.000196184    0.000011287
      9        1           0.000196490   -0.000172855    0.000016210
     10        1          -0.000576760   -0.003099921   -0.000041485
     11        7           0.001310143   -0.000194918    0.000102233
     12        6          -0.000408814    0.000231441   -0.000028847
     13        6           0.000173857    0.000481887    0.000002480
     14        6           0.000275790   -0.000232333    0.000019055
     15        6           0.000235879    0.000231123    0.000003842
     16        6          -0.000193289    0.000191494   -0.000016714
     17        6          -0.000005362   -0.000099374   -0.000002846
     18        1          -0.000003545   -0.000093230    0.000000770
     19        1          -0.000001801    0.000016989   -0.000003109
     20        6           0.000096571   -0.000043324    0.000005676
     21        6          -0.000079368   -0.000020792   -0.000006247
     22        8           0.000442418    0.000213633    0.000027186
     23        1          -0.000455874   -0.000480324   -0.000019315
     24        7           0.003172404    0.004658755   -0.000041104
     25        1          -0.002159915   -0.001159225    0.000114720
     26        6           0.027025873   -0.021656776    0.001666433
     27        6           0.000007621    0.000048896   -0.000044987
     28        1           0.000042895   -0.000119121   -0.000024046
     29        1           0.000001315    0.000033184    0.000010622
     30        1           0.000005510    0.000005111   -0.000012965
     31        6          -0.000001588    0.000043315    0.000026498
     32        1           0.000003089   -0.000000726    0.000004091
     33        1          -0.000005524    0.000026289   -0.000018955
     34        1          -0.000023769   -0.000150795    0.000031881
     35        6          -0.000048293    0.000005906   -0.000005002
     36        1           0.000001538   -0.000007593    0.000005129
     37        1           0.000001977   -0.000007016   -0.000011075
     38        1          -0.000012510    0.000025660   -0.000005878
     39        6           0.000025248    0.000015313   -0.000024652
     40        1           0.000020435    0.000010606    0.000015866
     41        1          -0.000022716    0.000002407   -0.000018441
     42        1          -0.000005992    0.000008146    0.000002237
     43        6           0.000022293    0.000015879    0.000026492
     44        1          -0.000024979    0.000002587    0.000012781
     45        1           0.000023547    0.000009212   -0.000013968
     46        1          -0.000005099    0.000003777   -0.000003954
     47        6           0.000042162   -0.000005795    0.000001815
     48        1          -0.000006495    0.000001305   -0.000006255
     49        1          -0.000005990    0.000001001    0.000000414
     50        1           0.000013802    0.000019673   -0.000001282
     51        8          -0.016838566    0.037872081   -0.001495492
     52        7          -0.033817005   -0.012941152   -0.002140808
     53        1           0.011069668   -0.002997507    0.010887523
     54        1           0.012367552   -0.003578286   -0.008950241
 -------------------------------------------------------------------
 Cartesian Forces:  Max     0.037872081 RMS     0.005528986
 Leave Link  716 at Tue Feb 12 09:28:09 2019, MaxMem=  1342177280 cpu:               1.0 elap:               0.2
 (Enter /gpfs/apps/hpc/Apps/Restricted/Gaussian/g16/Rev_B.01-AVX/g16/l103.exe)

 GradGradGradGradGradGradGradGradGradGradGradGradGradGradGradGradGradGrad
 Berny optimization.
[...]
 0174,-0.00000470,-0.00000089,0.00000091,0.00000148,0.00000534,-0.00000
 099,-0.00001376,0.00000181,-0.00000238,-0.00000173,0.00000587,0.000003
 19,0.00000165,0.00000256,0.00000423,-0.00025493,0.00001324,0.00000461,
 -0.00000017,0.00000713,-0.00000318,-0.00000255,0.00000137,0.00000221,0
 .00000387,0.00000261,0.00000128,-0.00000249,-0.00000093,-0.00000212,-0
 .00000109,0.00000129,-0.00000267,-0.00000115,-0.00000107,0.00000286,-0
 .00000066,0.00000091,-0.00000006,0.00000116,0.00000162,-0.00000276,-0.
 00000148,-0.00000405,0.00000206,0.00000067,-0.00000232,-0.00000227,-0.
 00000041,0.00000197,0.00000088,-0.00000184,0.00000264,-0.00000424,0.00
 000068,-0.00000127,-0.00000010,0.00000110,0.00000134,0.00000089,-0.000
 00097,0.00000070,-0.00000167,-0.00000175,-0.00000013,0.00212238,0.0152
 6967,0.03841960,-0.00402595,0.00998237,-0.00072335,0.00001125,-0.00074
 354,0.00006283,-0.00069947,0.00122536,-0.00004589,-0.00216420,-0.00141
 453,0.00022850,-0.00020763,-0.00446978,-0.00042438,-0.03984313,-0.0286
 7844,-0.00571820,0.00206918,0.00098082,0.00009336,-0.00017590,0.000016
 11,-0.00008957,-0.00030644,0.00029920,-0.00003671,-0.00170275,0.000008
 46,-0.00021776,-0.00184034,-0.00090080,-0.00006102,0.00043005,-0.00029
 479,0.00002725,-0.00018411,-0.00049526,-0.00000235,-0.00031059,0.00024
 415,-0.00002410,-0.00027327,-0.00029283,-0.00000072,0.00024679,-0.0002
 3216,0.00001354,0.00000908,0.00014988,-0.00000113,-0.00002092,0.000079
 85,-0.00000945,0.00000420,-0.00001988,0.00000096,-0.00009719,0.0000530
 3,-0.00000829,0.00010123,0.00003362,0.00000477,-0.00057425,-0.00034295
 ,-0.00002007,0.00066222,0.00065906,0.00002210,-0.00071729,-0.00394697,
 0.00015566,-0.00015079,0.00050208,-0.00002221,-0.24756101,-0.10385836,
 -0.01932467,0.00002639,-0.00001869,0.00003614,-0.00001563,-0.00000176,
 0.00000581,0.00003149,-0.00001563,-0.00001867,-0.00000689,-0.00000059,
 -0.00000137,0.00002646,-0.00001992,-0.00003318,-0.00000682,-0.00000054
 ,0.00000259,0.00002953,-0.00001566,0.00001926,-0.00001709,-0.00000293,
 -0.00000537,0.00005406,-0.00000046,-0.00000052,-0.00000672,0.00000506,
 -0.00000540,-0.00000661,0.00000635,0.00000568,0.00001559,-0.00002830,0
 .00000133,-0.00003291,-0.00001677,0.00003157,-0.00003054,-0.00001019,-
 0.00002129,0.00002906,0.00000193,0.00002305,0.00000678,-0.00000570,-0.
 00000474,-0.00003046,-0.00001967,-0.00003488,0.00003103,0.00000027,-0.
 00001659,-0.00003238,-0.00000986,0.00001811,0.00000667,-0.00000451,0.0
 0000504,-0.00005402,0.00000967,-0.00000361,0.00000632,0.00000138,0.000
 00563,0.00000630,0.00000059,-0.00000458,-0.00002151,-0.00002237,-0.000
 00068,0.03148499,-0.01085696,-0.00068515,0.80870725,0.00469950,0.00099
 664,0.00038731,0.00027545,0.00049906,-0.00015688,0.00025063,0.00138144
 ,-0.00007341,-0.00269809,-0.00029635,-0.00040608,0.00112853,-0.0042465
 1,0.00011703,-0.00817151,0.01339135,-0.00070353,0.00211169,0.00138677,
 0.00003602,-0.00004310,0.00005702,0.00005335,-0.00016444,0.00010819,-0
 .00000523,0.00115986,0.00072887,0.00062639,-0.00092489,0.00053598,-0.0
 0007087,0.00033283,-0.00019198,0.00002637,-0.00018352,-0.00033501,-0.0
 0000452,-0.00008011,0.00017275,-0.00000941,-0.00016336,-0.00013793,-0.
 00000404,0.00013318,-0.00010556,0.00000757,-0.00001055,0.00007507,-0.0
 0000131,-0.00004419,0.00012340,-0.00000402,-0.00000063,-0.00001289,0.0
 0000024,-0.00004283,0.00002298,-0.00000288,0.00005893,0.00002093,0.000
 00270,-0.00030163,-0.00001537,-0.00001627,0.00022403,0.00022046,0.0000
 0662,-0.00348463,-0.00339280,0.00010354,0.00346429,0.00276028,-0.00001
 499,-0.10763124,-0.24435636,-0.02111409,0.00001703,0.00001670,0.000017
 00,-0.00001234,-0.00000840,0.00001004,0.00001645,-0.00001020,-0.000006
 38,-0.00000792,-0.00000455,-0.00000385,0.00001834,0.00001760,-0.000016
 88,-0.00000782,-0.00000408,0.00000426,0.00001555,-0.00001079,0.0000069
 2,-0.00001394,-0.00000900,-0.00000963,0.00002298,0.00000478,-0.0000008
 2,-0.00000621,-0.00000035,0.00000092,-0.00000621,-0.00000023,-0.000000
 79,0.00000948,-0.00001386,0.00000070,-0.00001914,-0.00001349,0.0000193
 3,-0.00002027,-0.00000569,-0.00001299,0.00001615,0.00000241,0.00001133
 ,0.00000427,-0.00000170,-0.00000114,-0.00001737,-0.00001527,-0.0000209
 4,0.00001698,0.00000177,-0.00000802,-0.00002135,-0.00000540,0.00001085
 ,0.00000436,-0.00000128,0.00000130,-0.00003068,0.00000525,-0.00000210,
 0.00000395,0.00000198,0.00000446,0.00000413,0.00000142,-0.00000381,-0.
 00001459,-0.00001326,-0.00000050,-0.02919181,-0.10557573,-0.00953845,-
 0.06703899,0.83479581,-0.00080828,0.00041537,0.00143097,-0.00001772,-0
 .00014629,-0.00031356,-0.00008725,-0.00015130,-0.00003537,0.00014815,-
 0.00021850,-0.00048887,-0.00012069,0.00059894,0.00058409,-0.00434985,-
 0.00444279,0.00938919,-0.00016608,0.00001311,-0.00018564,-0.00003106,-
 0.00000582,0.00014321,0.00001919,0.00000660,-0.00004296,-0.00051944,-0
 .00033631,0.00047139,-0.00012060,-0.00017176,-0.00005081,-0.00001003,-
 0.00001107,0.00000619,0.00000276,0.00002498,-0.00001877,-0.00000304,-0
 .00000209,0.00000605,-0.00000168,-0.00000366,-0.00000176,0.00000417,-0
 .00000745,0.00000234,-0.00000221,0.00000497,0.00000117,-0.00000132,0.0
 0000552,0.00000305,0.00000014,-0.00000050,-0.00000086,-0.00000343,0.00
 000112,-0.00000524,0.00000228,0.00000002,-0.00000178,-0.00001189,-0.00
 003007,0.00001398,0.00003619,0.00003396,-0.00002629,-0.00001417,-0.000
 00800,0.00004443,0.00006753,0.00011576,0.00031958,-0.03193075,-0.03777
 379,-0.05196370,0.00000111,0.00000039,0.00000136,-0.00000111,-0.000000
 99,-0.00000162,0.00000034,-0.00000043,-0.00000081,0.00000130,0.0000014
 3,0.00000237,0.00000047,-0.00000404,-0.00000045,-0.00000152,-0.0000015
 3,0.00000237,0.00000079,0.00000020,0.00000066,0.00000089,0.00000250,-0
 .00000266,0.00000198,-0.00000034,0.00000161,-0.00000125,-0.00000090,0.
 00000064,0.00000121,0.00000151,0.00000136,0.00000014,-0.00000079,-0.00
 000057,-0.00000036,-0.00000002,0.,-0.00000043,-0.00000032,-0.00000019,
 0.00000078,-0.00000061,-0.00000016,-0.00000043,0.00000078,0.00000109,-
 0.00000109,-0.00000034,-0.00000151,0.00000041,0.00000031,-0.00000128,-
 0.00000027,0.00000001,0.00000068,0.00000046,-0.00000129,0.00000174,-0.
 00000135,0.00000027,-0.00000055,-0.00000038,0.00000061,0.00000063,0.00
 000048,-0.00000081,0.00000072,-0.00000015,-0.00000049,-0.00000014,-0.0
 0222829,-0.00368208,0.01782344,0.09866284,0.12039496,0.06001432,0.0003
 9827,0.00018752,-0.00005360,-0.00016409,-0.00010235,-0.00002204,0.0002
 8018,-0.00001952,-0.00008000,-0.00008076,0.00089710,0.00007733,-0.0026
 6399,-0.00246719,-0.00024217,-0.00096305,0.00022480,0.00031491,0.00024
 618,0.00003295,-0.00000580,0.00008786,0.00008807,0.00000895,0.00003385
 ,-0.00004875,0.00003873,-0.00397036,0.00263835,-0.00255382,-0.00003611
 ,0.00038711,-0.00000784,-0.00005419,0.00005856,-0.00000197,-0.00000197
 ,0.00005332,-0.00000768,0.00005161,-0.00003255,0.00000508,0.00004074,0
 .00004702,-0.00000043,-0.00004094,0.00003827,-0.00000222,-0.00000345,-
 0.00003295,0.00000100,-0.00000402,0.00000183,0.00000146,-0.00000111,0.
 00000197,-0.00000027,0.00001385,-0.00000779,0.00000111,-0.00001257,-0.
 00000418,-0.00000074,0.00006031,0.00001257,0.00000186,-0.00006730,-0.0
 0005958,-0.00000282,-0.00017334,-0.00005709,0.00004532,0.00035256,0.00
 018498,-0.00000738,0.01789855,-0.01751022,-0.00283130,-0.00000311,0.00
 000515,-0.00000500,0.00000156,-0.00000025,-0.00000002,-0.00000422,0.00
 000177,0.00000278,0.00000058,-0.00000035,-0.00000006,-0.00000300,0.000
 00528,0.00000449,0.00000050,-0.00000041,0.00000003,-0.00000396,0.00000
 177,-0.00000280,0.00000172,0.00000004,-0.00000028,-0.00000759,0.000000
 61,0.00000005,0.00000060,-0.00000110,0.00000118,0.00000067,-0.00000127
 ,-0.00000115,-0.00000211,0.00000382,-0.00000018,0.00000385,0.00000186,
 -0.00000419,0.00000366,0.00000112,0.00000261,-0.00000337,-0.00000025,-
 0.00000277,-0.00000089,0.00000077,0.00000078,0.00000352,0.00000220,0.0
 0000454,-0.00000365,0.00000001,0.00000189,0.00000391,0.00000111,-0.000
 00219,-0.00000082,0.00000047,-0.00000068,0.00000680,-0.00000102,0.0000
 0042,-0.00000079,-0.00000010,-0.00000063,-0.00000074,-0.00000008,0.000
 00057,0.00000265,0.00000271,0.00000007,-0.00274647,-0.00681147,-0.0007
 7153,-0.11487000,0.12168894,0.01528909,0.10729551,0.00005727,-0.000883
 05,0.00016536,0.00007584,-0.00011027,-0.00000991,0.00015391,0.00002009
 ,0.00002365,0.00004668,0.00008071,0.00020712,0.00102554,0.00082815,0.0
 0014668,0.00058479,-0.00012176,0.00079869,-0.00018226,-0.00002897,0.00
 001226,0.00001781,-0.00000353,-0.00003392,0.00004804,-0.00003297,-0.00
 001274,0.00170973,-0.00032041,-0.00025528,0.00008685,0.00010125,-0.000
 01989,-0.00003986,0.00002587,-0.00000322,0.00001442,0.00004825,-0.0000
 0195,0.00002861,-0.00002192,0.00000202,0.00002429,0.00002687,0.0000004
 4,-0.00002212,0.00001963,-0.00000125,-0.00000173,-0.00001474,0.0000005
 8,0.00000103,-0.00000188,0.00000073,-0.00000066,0.00000177,-0.00000016
 ,0.00000722,-0.00000412,0.00000025,-0.00000931,-0.00000374,-0.00000052
 ,0.00005199,0.00002355,0.00000370,-0.00005478,-0.00005217,-0.00000524,
 -0.00002350,0.00039026,0.00000707,0.00019997,0.00013723,-0.00004910,0.
 01043834,-0.01888232,-0.00204474,-0.00000223,0.00000048,-0.00000295,0.
 00000108,0.00000122,-0.00000042,-0.00000264,0.00000102,0.00000129,0.00
 000096,0.00000021,0.00000057,-0.00000232,0.00000015,0.00000285,0.00000
 076,-0.00000006,-0.00000033,-0.00000246,0.00000113,-0.00000132,0.00000
 134,0.00000140,-0.00000007,-0.00000409,-0.00000024,0.00000022,0.000000
 73,-0.00000030,0.00000014,0.00000089,-0.00000020,-0.00000004,-0.000001
 46,0.00000219,-0.00000015,0.00000302,0.00000178,-0.00000289,0.00000319
 ,0.00000108,0.00000200,-0.00000282,-0.00000028,-0.00000210,-0.00000069
 ,0.00000039,0.00000033,0.00000274,0.00000205,0.00000308,-0.00000302,-0
 .00000012,0.00000142,0.00000337,0.00000106,-0.00000163,-0.00000066,0.0
 0000018,-0.00000019,0.00000473,-0.00000080,0.00000027,-0.00000064,-0.0
 0000022,-0.00000062,-0.00000062,-0.00000021,0.00000060,0.00000230,0.00
 000208,0.00000007,-0.00417336,-0.00010737,-0.00155203,0.12102843,-0.40
 948694,-0.08086643,-0.12743474,0.42627108,0.00031040,0.00034729,-0.000
 09039,-0.00007543,0.00008150,0.00002137,0.00008038,-0.00005615,0.00004
 824,0.00013318,0.00039275,-0.00044288,-0.00065241,-0.00137878,-0.00026
 817,-0.00091354,0.00021431,-0.00114558,0.00019863,0.00009902,-0.000060
 17,0.00002970,0.00004677,0.00005664,-0.00000979,-0.00000790,-0.0000101
 4,-0.00218581,0.00091583,-0.00051380,-0.00006778,0.00009839,0.00001593
 ,0.00000853,0.00000471,0.00000308,-0.00001061,-0.00001484,0.00000471,0
 .00000355,0.00000389,-0.00000117,-0.00000193,0.00000059,-0.00000186,-0
 .00000077,0.00000206,-0.00000019,-0.00000030,-0.00000352,-0.00000412,-
 0.00000282,0.00000513,0.00000198,-0.00000032,-0.00000039,0.00000088,0.
 00000027,0.00000016,0.00000261,0.00000097,0.00000066,0.00000110,-0.000
 00604,-0.00000271,-0.00000364,0.00000156,0.00000485,0.00000878,-0.0001
 5406,-0.00026037,-0.00008498,0.00018249,0.00016082,0.00025754,0.006000
 92,0.00532101,-0.00911616,-0.00000001,0.00000040,0.,-0.00000004,0.0000
 0006,0.00000144,0.00000040,-0.00000011,0.00000012,-0.00000087,-0.00000
 087,-0.00000130,0.00000060,0.00000298,-0.00000023,0.00000039,0.0000005
 7,-0.00000096,0.00000021,-0.00000067,-0.00000014,-0.00000108,-0.000000
 99,0.00000082,-0.00000014,0.00000038,-0.00000075,0.00000039,0.00000037
 ,-0.00000023,-0.00000084,-0.00000080,-0.00000075,0.00000024,-0.0000001
 3,0.00000026,-0.00000051,-0.00000047,0.00000062,-0.00000052,-0.0000000
 8,-0.00000037,0.00000026,0.00000038,0.00000065,0.00000038,-0.00000053,
 -0.00000063,-0.00000022,-0.00000032,0.00000005,0.00000052,-0.00000019,
 0.00000036,-0.00000064,-0.00000027,0.00000005,-0.00000009,0.00000063,-
 0.00000085,-0.00000045,0.00000015,0.00000023,0.00000037,-0.00000028,-0
 .00000023,-0.00000009,0.00000044,-0.00000047,-0.00000043,-0.00000026,0
 .00000009,-0.00050094,-0.00184708,0.00739720,0.01638103,-0.09588611,-0
 .01788985,-0.01776263,0.08336163,0.02471906,-0.00078726,0.00034442,-0.
 00025003,0.00001756,-0.00027171,0.00007093,0.00008427,-0.00013996,0.00
 000582,0.00019491,0.00023059,-0.00007038,0.00052470,-0.00019392,0.0002
 3249,0.00067695,-0.00336943,-0.00062101,-0.00023946,-0.00014406,-0.000
 01532,0.00000885,0.00001511,0.00000860,-0.00000216,-0.00001256,-0.0000
 0543,0.00001808,0.00021736,0.00008174,0.00000303,-0.00005901,0.0000232
 5,-0.00003620,0.00001680,-0.00000291,0.00001346,0.00004157,0.00000037,
 0.00001219,-0.00001859,0.00000198,0.00001922,0.00001459,0.00000041,-0.
 00001465,0.00001170,-0.00000073,-0.00000014,-0.00000765,-0.00000035,0.
 00000478,-0.00001143,0.00000013,0.00000037,0.00000134,0.00000002,0.000
 00545,-0.00000328,0.00000016,-0.00000587,-0.00000246,-0.00000038,0.000
 02367,-0.00000552,0.00000114,-0.00001090,-0.00001577,0.00000179,0.0003
 8524,0.00031674,-0.00001888,-0.00029617,-0.00023482,0.00002326,-0.0228
 1147,0.00419082,-0.00498001,-0.00000154,-0.00000100,-0.00000178,0.0000
 0218,0.00000053,-0.00000074,-0.00000247,0.00000219,0.00000087,0.000000
 61,0.00000012,0.00000020,-0.00000166,-0.00000129,0.00000173,0.00000046
 ,-0.00000011,0.00000006,-0.00000231,0.00000238,-0.00000090,0.00000259,
 0.00000072,0.00000049,-0.00000254,-0.00000039,0.00000017,0.00000052,-0
 .00000027,0.00000026,0.00000066,-0.00000018,-0.00000015,-0.00000142,0.
 00000205,-0.00000012,0.00000188,0.00000108,-0.00000203,0.00000224,0.00
 000057,0.00000121,-0.00000176,-0.00000012,-0.00000118,-0.00000059,0.00
 000007,0.00000027,0.00000167,0.00000126,0.00000206,-0.00000195,0.00000
 002,0.00000076,0.00000236,0.00000060,-0.00000093,-0.00000053,-0.000000
 12,-0.00000008,0.00000305,-0.00000058,0.00000019,-0.00000053,-0.000000
 08,-0.00000021,-0.00000046,-0.00000013,0.00000022,0.00000161,0.0000013
 1,0.00000005,0.00345952,0.00419533,0.00171297,-0.42800911,0.08467586,-
 0.07380657,-0.00090153,-0.00365991,-0.00098426,0.44766061,-0.00125283,
 0.00105635,-0.00014017,0.00000689,-0.00031788,0.00006536,0.00005227,0.
 00002531,-0.00001589,-0.00005942,0.00025444,-0.00001998,0.00040314,-0.
 00074761,0.00011665,-0.00227078,-0.00470461,-0.00064752,0.00008171,0.0
 0000907,0.00000392,0.00000006,0.00002999,-0.00000040,-0.00002700,0.000
 01159,0.00000617,0.00002292,0.00055063,-0.00007813,-0.00020846,-0.0000
 9015,-0.00001321,0.00000417,-0.00000269,-0.00000014,-0.00000704,-0.000
 01612,-0.00000176,-0.00002131,0.00000563,-0.00000056,-0.00000784,-0.00
 001162,0.00000058,0.00000762,-0.00001053,0.00000052,0.00000159,0.00000
 207,-0.00000037,0.00000185,-0.00000052,-0.00000101,0.00000023,-0.00000
 058,0.00000005,-0.00000601,0.00000322,-0.00000110,0.00000316,0.0000003
 6,0.00000010,-0.00002602,-0.00004624,0.00000076,0.00004995,0.00005365,
 0.00000089,0.00014755,-0.00002362,-0.00000236,-0.00014200,-0.00010104,
 0.00001449,-0.03128600,0.01330512,-0.00591051,0.00000074,-0.00000500,0
 .00000193,-0.00000120,0.00000172,-0.00000051,0.00000131,-0.00000098,-0
 .00000151,0.00000075,0.00000079,0.00000084,0.00000046,-0.00000580,-0.0
 0000137,0.00000058,0.00000052,-0.00000047,0.00000124,-0.00000086,0.000
 00146,-0.00000108,0.00000143,0.00000009,0.00000343,-0.00000090,0.00000
 028,0.00000021,0.00000070,-0.00000096,0.00000039,0.00000104,0.00000109
 ,0.00000034,-0.00000157,0.00000001,-0.00000108,0.00000004,0.00000073,-
 0.00000035,-0.00000031,-0.00000056,0.00000099,-0.00000018,0.00000104,0
 .00000008,-0.00000046,-0.00000038,-0.00000111,-0.00000003,-0.00000097,
 0.00000105,-0.00000026,-0.00000081,-0.00000040,-0.00000029,0.00000055,
 0.00000007,-0.00000046,0.00000051,-0.00000195,0.00000043,-0.00000015,0
 .00000009,-0.00000015,-0.00000004,0.00000008,-0.00000022,0.00000012,-0
 .00000013,-0.00000067,0.,0.00414466,0.00187639,0.00146381,0.08849209,-
 0.08905793,0.00624750,0.02802111,0.00208749,0.00839610,-0.08613078,0.0
 7587133,-0.00033238,0.00029221,0.00068287,0.00010365,-0.00013741,-0.00
 036634,0.00001596,0.00011237,0.00004582,-0.00016476,-0.00000524,0.0001
 4186,0.00028297,-0.00018874,-0.00042423,-0.00038916,-0.00049561,0.0051
 3716,0.00005974,0.00002473,0.00000718,-0.00000491,0.00000440,-0.000007
 13,-0.00001096,0.00000730,-0.00001018,0.00008659,-0.00003877,-0.000244
 03,-0.00005698,-0.00001428,-0.00006010,0.00001545,-0.00001011,0.000002
 76,-0.00000647,-0.00001854,-0.00000355,-0.00000902,0.00000899,-0.00000
 507,-0.00000941,-0.00000964,-0.00000211,0.00000848,-0.00000740,-0.0000
 0049,0.00000021,0.00000523,0.00000326,-0.00000106,0.00000317,0.0000038
 5,0.00000014,-0.00000066,0.00000013,-0.00000290,0.00000185,0.00000351,
 0.00000339,0.00000129,0.00000104,-0.00001976,-0.00000853,-0.00000196,0
 .00002077,0.00001773,-0.00000595,-0.00002459,-0.00007071,0.00007594,0.
 00001194,0.00002625,-0.00000653,0.00040201,0.00498477,-0.00044671,0.00
 000041,-0.00000186,0.00000080,-0.00000050,0.00000086,0.00000179,0.0000
 0124,-0.00000048,-0.00000040,-0.00000094,-0.00000076,-0.00000136,0.000
 00119,0.00000137,-0.00000149,0.00000070,0.00000089,-0.00000126,0.00000
 088,-0.00000074,0.00000074,-0.00000090,-0.00000077,0.00000161,0.000001
 61,0.00000004,-0.00000126,0.00000053,0.00000086,-0.00000070,-0.0000009
 8,-0.00000057,-0.00000044,0.00000056,-0.00000090,0.00000044,-0.0000012
 5,-0.00000068,0.00000152,-0.00000104,-0.00000023,-0.00000086,0.0000007
 5,0.00000042,0.00000100,0.00000046,-0.00000064,-0.00000078,-0.00000089
 ,-0.00000072,-0.00000068,0.00000129,-0.00000026,-0.00000024,-0.0000012
 2,-0.00000050,0.00000049,0.00000007,0.00000033,-0.00000059,-0.00000180
 ,0.00000031,0.00000012,0.00000046,-0.00000028,-0.00000011,0.00000004,0
 .00000041,-0.00000056,-0.00000080,-0.00000077,0.00000004,0.00110158,-0
 .00137211,-0.00457087,-0.08824110,0.00625074,-0.01923325,0.00856995,0.
 00012609,-0.00290380,0.07859076,-0.00948471,0.02218912\\-0.00000732,0.
 00000220,-0.00000261,-0.00000786,-0.00000065,0.00000125,-0.00001074,-0
 .00000176,0.00000347,-0.00001267,0.00000006,0.00000080,-0.00001202,0.0
 0000249,-0.00000298,-0.00000890,0.00000350,-0.00000505,-0.00000341,-0.
 00000002,-0.00000045,-0.00001130,-0.00000381,0.00000645,-0.00001501,-0
 .00000071,0.00000217,-0.00001401,0.00000409,-0.00000500,-0.00000537,-0
 .00000203,0.00000378,0.00000032,-0.00000342,0.00000455,-0.00000031,-0.
 00000074,0.00000102,0.00000116,0.00000260,-0.00000296,0.00000380,0.000
 00063,-0.00000200,0.00000551,-0.00000145,0.00000147,0.00000284,-0.0000
 0315,0.00000505,0.00000077,0.00000333,-0.00000517,0.00000685,-0.000001
 67,0.00000198,0.00000593,0.00000320,-0.00000539,0.00000386,-0.00000610
 ,0.00000883,-0.00000168,-0.00000495,0.00000745,-0.00000329,-0.00000445
 ,0.00000701,-0.00000453,0.00000218,-0.00000255,-0.00000321,0.00000428,
 -0.00000589,-0.00000950,0.00000582,-0.00000932,0.00000248,0.00000544,-
 0.00000845,-0.00000023,0.00000625,-0.00000906,0.00000318,0.00000711,-0
 .00001080,-0.00000017,0.00000458,-0.00000678,0.00000891,0.00000499,-0.
 00000827,0.00001226,0.00000381,-0.00000646,0.00001054,0.00000688,-0.00
 001072,0.00000724,0.00000563,-0.00000896,0.00000863,0.00000314,-0.0000
 0497,0.00001226,0.00000140,-0.00000297,0.00000725,0.00000211,-0.000003
 13,0.00001040,0.00000444,-0.00000741,-0.00000066,-0.00000769,0.0000112
 6,-0.00000007,-0.00000933,0.00001381,-0.00000309,-0.00000746,0.0000112
 6,-0.00000239,-0.00000606,0.00000936,0.00000650,-0.00000799,0.00001162
 ,0.00000441,-0.00000831,0.00001185,0.00000728,-0.00000998,0.00001429,0
 .00000974,-0.00000735,0.00001001,0.00000686,-0.00000647,0.00000868,0.0
 0000547,-0.00000499,0.00000711,0.00001051,-0.00000545,0.00000745,0.000
 00762,-0.00000818,0.00001167,-0.00000593,0.00000651,-0.00001036,-0.000
 00910,0.00000973,-0.00001135,-0.00001104,0.00000784,-0.00001027,-0.000
 00880,0.00000994,-0.00001433\\\@


 I KNOW YOU BELIEVE YOU UNDERSTAND WHAT YOU THINK I SAID,
 BUT I AM NOT SURE YOU REALIZE THAT WHAT YOU HEARD IS NOT WHAT I MEANT.
 Job cpu time:       0 days  4 hours 20 minutes 17.2 seconds.
 Elapsed time:       0 days  0 hours 16 minutes 32.3 seconds.
 File lengths (MBytes):  RWF=   1904 Int=      0 D2E=      0 Chk=     44 Scr=      8
 Normal termination of Gaussian 16 at Tue Feb 12 10:28:15 2019.
