 Entering Gaussian System, Link 0=g16
 Initial command:
 /gpfs/apps/hpc/Apps/Restricted/Gaussian/Rev_A.03/g16/l1.exe "/gpfs/scratch60/fas/hammes_schiffer/jg2487/c44n01/Gau-179363.inp" -scrdir="/gpfs/scratch60/fas/hammes_schiffer/jg2487/c44n01/"
 Entering Link 1 = /gpfs/apps/hpc/Apps/Restricted/Gaussian/Rev_A.03/g16/l1.exe PID=    179364.
  
 Copyright (c) 1988,1990,1992,1993,1995,1998,2003,2009,2016,
            Gaussian, Inc.  All Rights Reserved.
  
 This is part of the Gaussian(R) 16 program.  It is based on
 the Gaussian(R) 09 system (copyright 2009, Gaussian, Inc.),
 the Gaussian(R) 03 system (copyright 2003, Gaussian, Inc.),
 the Gaussian(R) 98 system (copyright 1998, Gaussian, Inc.),
 the Gaussian(R) 94 system (copyright 1995, Gaussian, Inc.),
 the Gaussian 92(TM) system (copyright 1992, Gaussian, Inc.),
 the Gaussian 90(TM) system (copyright 1990, Gaussian, Inc.),
 the Gaussian 88(TM) system (copyright 1988, Gaussian, Inc.),
 the Gaussian 86(TM) system (copyright 1986, Carnegie Mellon
 University), and the Gaussian 82(TM) system (copyright 1983,
 Carnegie Mellon University). Gaussian is a federally registered
 trademark of Gaussian, Inc.
  
 This software contains proprietary and confidential information,
 including trade secrets, belonging to Gaussian, Inc.
  
 This software is provided under written license and may be
 used, copied, transmitted, or stored only in accord with that
 written license.
  
 The following legend is applicable only to US Government
 contracts under FAR:
  
                    RESTRICTED RIGHTS LEGEND
  
 Use, reproduction and disclosure by the US Government is
 subject to restrictions as set forth in subparagraphs (a)
 and (c) of the Commercial Computer Software - Restricted
 Rights clause in FAR 52.227-19.
  
 Gaussian, Inc.
 340 Quinnipiac St., Bldg. 40, Wallingford CT 06492
  
  
 ---------------------------------------------------------------
 Warning -- This program may not be used in any manner that
 competes with the business of Gaussian, Inc. or will provide
 assistance to any competitor of Gaussian, Inc.  The licensee
 of this program is prohibited from giving any competitor of
 Gaussian, Inc. access to this program.  By using this program,
 the user acknowledges that Gaussian, Inc. is engaged in the
 business of creating and licensing software in the field of
 computational chemistry and represents and warrants to the
 licensee that it is not a competitor of Gaussian, Inc. and that
 it will not use this program in any manner prohibited above.
 ---------------------------------------------------------------
  

 Cite this work as:
 Gaussian 16, Revision A.03,
 M. J. Frisch, G. W. Trucks, H. B. Schlegel, G. E. Scuseria, 
 M. A. Robb, J. R. Cheeseman, G. Scalmani, V. Barone, 
 G. A. Petersson, H. Nakatsuji, X. Li, M. Caricato, A. V. Marenich, 
 J. Bloino, B. G. Janesko, R. Gomperts, B. Mennucci, H. P. Hratchian, 
 J. V. Ortiz, A. F. Izmaylov, J. L. Sonnenberg, D. Williams-Young, 
 F. Ding, F. Lipparini, F. Egidi, J. Goings, B. Peng, A. Petrone, 
 T. Henderson, D. Ranasinghe, V. G. Zakrzewski, J. Gao, N. Rega, 
 G. Zheng, W. Liang, M. Hada, M. Ehara, K. Toyota, R. Fukuda, 
 J. Hasegawa, M. Ishida, T. Nakajima, Y. Honda, O. Kitao, H. Nakai, 
 T. Vreven, K. Throssell, J. A. Montgomery, Jr., J. E. Peralta, 
 F. Ogliaro, M. J. Bearpark, J. J. Heyd, E. N. Brothers, K. N. Kudin, 
 V. N. Staroverov, T. A. Keith, R. Kobayashi, J. Normand, 
 K. Raghavachari, A. P. Rendell, J. C. Burant, S. S. Iyengar, 
 J. Tomasi, M. Cossi, J. M. Millam, M. Klene, C. Adamo, R. Cammi, 
 J. W. Ochterski, R. L. Martin, K. Morokuma, O. Farkas, 
 J. B. Foresman, and D. J. Fox, Gaussian, Inc., Wallingford CT, 2016.
 
 ******************************************
 Gaussian 16:  ES64L-G16RevA.03 25-Dec-2016
                20-Dec-2018 
 ******************************************
 %chk=cyclohexyl-monoBIP-TS1_rev.chk
 %mem=10GB
 %nprocshared=16
 Will use up to   16 processors via shared memory.
 ----------------------------------------------------------------------
 #p opt=(calcall,tight,ts,noeigentest) freq=internalmodes b3lyp/6-31g(d
 ,p) scrf=(cpcm,solvent=dichloromethane,read) nosymm empiricaldispersio
 n=gd3bj int=grid=ultrafine
 ----------------------------------------------------------------------
 1/5=1,7=10,10=4,11=1,18=20,26=6,38=1,40=2/1,3;
 2/9=110,12=2,15=1,17=6,18=5,40=1/2;
 3/5=1,6=6,7=101,11=2,25=1,30=1,70=2103,71=2,72=9,74=-5,75=-5,124=41,140=1/1,2,3;
 4//1;
 5/5=2,38=5,53=9/2;
 8/6=4,10=90,11=11/1;
 11/6=1,8=1,9=11,15=111,16=1,31=1/1,2,10;
 10/6=1,31=1/2;
 6/7=2,8=2,9=2,10=2,18=1,28=1/1;
 7/10=1,25=1,30=1/1,2,3,16;
 1/5=1,7=10,10=4,11=1,18=20,26=6/3(3);
 2/9=110,15=1/2;
 7/8=21,9=1,25=1,30=1,44=-1/16;
 99//99;
 2/9=110,15=1/2;
 3/5=1,6=6,7=101,11=2,25=1,30=1,70=2105,71=2,72=9,74=-5,75=-5,124=41,140=1/1,2,3;
 4/5=5,16=3,69=1/1;
 5/5=2,38=5,53=9/2;
 8/6=4,10=90,11=11/1;
 11/6=1,8=1,9=11,15=111,16=1,31=1/1,2,10;
 10/6=1,31=1/2;
 7/10=1,25=1,30=1/1,2,3,16;
 1/5=1,7=10,10=4,11=1,18=20,26=6/3(-8);
 2/9=110,15=1/2;
 6/7=2,8=2,9=2,10=2,18=1,19=2,28=1/1;
 7/8=21,9=1,25=1,30=1,44=-1/16;
 99//99;
 Leave Link    1 at Thu Dec 20 17:54:03 2018, MaxMem=  1342177280 cpu:               7.6 elap:               0.5
 (Enter /gpfs/apps/hpc/Apps/Restricted/Gaussian/Rev_A.03/g16/l101.exe)
 ----------------------------------------------------------------------
 cyclohexylimine monoBIP oxidized, TS proton to imine, proton still on 
 phenol
 ----------------------------------------------------------------------
 Symbolic Z-matrix:
 Charge =  1 Multiplicity = 2
 C                    -0.56914   2.97565   0.35301 
 C                    -1.96117   3.10401   0.27713 
 C                    -2.54275   4.37258   0.19123 
 C                    -1.67016   5.46371   0.18645 
 C                    -0.26877   5.32386   0.2573 
 C                     0.31741   4.05965   0.34088 
 C                    -1.3709    0.94509   0.3763 
 H                    -3.61432   4.50865   0.12738 
 H                    -2.08765   6.46097   0.12233 
 H                     0.3584    6.20711   0.24021 
 N                    -2.42563   1.80208   0.29675 
 C                    -2.82004  -1.11126   0.29828 
 C                    -1.49328  -0.49288   0.40707 
 C                    -0.36585  -1.28608   0.5373 
 C                    -0.45895  -2.68985   0.56399 
 C                    -1.73203  -3.30121   0.44695 
 C                    -2.88921  -2.57194   0.31447 
 H                     0.61021  -0.82322   0.62405 
 H                    -1.79091  -4.38398   0.47096 
 C                     0.76672  -3.53672   0.70029 
 C                    -4.23702  -3.20654   0.19624 
 O                    -3.87013  -0.42833   0.20095 
 N                    -0.22418   1.65191   0.41491 
 C                     1.73863   3.75063   0.38515 
 H                     2.46108   4.56566   0.36887 
 N                     2.10297   2.51278   0.43437 
 C                     3.52267   2.1326    0.44054 
 C                     4.1845    2.46607  -0.90678 
 C                     4.29448   2.7706    1.60582 
 H                     3.53725   1.04683   0.57204 
 C                     5.6516    2.02566  -0.91483 
 H                     4.11956   3.54976  -1.06233 
 H                     3.62719   1.98915  -1.71775 
 C                     5.75992   2.32446   1.59276 
 H                     4.24618   3.8614    1.51004 
 H                     3.8131    2.50502   2.55083 
 C                     6.42965   2.64395   0.25169 
 H                     6.11308   2.29438  -1.86937 
 H                     5.69829   0.93253  -0.83747 
 H                     6.29883   2.80286   2.4158 
 H                     5.80776   1.24298   1.77037 
 H                     7.46194   2.28169   0.24964 
 H                     6.47289   3.73202   0.12028 
 H                     0.99347   1.67509   0.43861 
 H                    -3.81483   0.52049   0.06573 
 C                     1.99587  -2.69948   1.10007 
 H                     2.26965  -2.05793   0.28868 
 H                     1.75974  -2.107     1.9592 
 H                     2.81225  -3.3518    1.3301 
 C                     1.07818  -4.24004  -0.63384 
 H                     2.0669   -4.64767  -0.59983 
 H                     0.37273  -5.02832  -0.79467 
 H                     1.01129  -3.53281  -1.434 
 C                     0.55083  -4.64614   1.74632 
 H                    -0.13827  -5.36909   1.36242 
 H                     1.48515  -5.12204   1.95951 
 H                     0.1556   -4.21812   2.64381 
 C                    -4.89385  -2.84343  -1.1485 
 H                    -5.43198  -3.68926  -1.52251 
 H                    -5.56898  -2.02557  -1.00636 
 H                    -4.13696  -2.56316  -1.85098 
 C                    -5.17885  -2.68447   1.29715 
 H                    -5.7275   -1.84334   0.92783 
 H                    -5.86088  -3.45894   1.57986 
 H                    -4.60254  -2.38838   2.14869 
 C                    -4.13048  -4.73904   0.3043 
 H                    -3.51347  -5.11036  -0.4871 
 H                    -3.69737  -5.00086   1.24705 
 H                    -5.10658  -5.17069   0.22805 
 
 Add virtual bond connecting atoms H44        and N23        Dist= 2.30D+00.
 ITRead=  0  0  0  0  0  0  0  0  0  0  0  0  0  0  0  0  0  0  0  0
 ITRead=  0  0  0  0  0  0  0  0  0  0  0  0  0  0  0  0  0  0  0  0
 ITRead=  0  0  0  0  0  0  0  0  0  0  0  0  0  0  0  0  0  0  0  0
 ITRead=  0  0  0  0  0  0  0  0  0
 MicOpt= -1 -1 -1 -1 -1 -1 -1 -1 -1 -1 -1 -1 -1 -1 -1 -1 -1 -1 -1 -1
 MicOpt= -1 -1 -1 -1 -1 -1 -1 -1 -1 -1 -1 -1 -1 -1 -1 -1 -1 -1 -1 -1
 MicOpt= -1 -1 -1 -1 -1 -1 -1 -1 -1 -1 -1 -1 -1 -1 -1 -1 -1 -1 -1 -1
 MicOpt= -1 -1 -1 -1 -1 -1 -1 -1 -1
 NAtoms=     69 NQM=       69 NQMF=       0 NMMI=      0 NMMIF=      0
                NMic=       0 NMicF=      0.
                    Isotopes and Nuclear Properties:
 (Nuclear quadrupole moments (NQMom) in fm**2, nuclear magnetic moments (NMagM)
  in nuclear magnetons)

  Atom         1           2           3           4           5           6           7           8           9          10
 IAtWgt=          12          12          12          12          12          12          12           1           1           1
 AtmWgt=  12.0000000  12.0000000  12.0000000  12.0000000  12.0000000  12.0000000  12.0000000   1.0078250   1.0078250   1.0078250
 NucSpn=           0           0           0           0           0           0           0           1           1           1
 AtZEff=  -0.0000000  -0.0000000  -0.0000000  -0.0000000  -0.0000000  -0.0000000  -0.0000000  -0.0000000  -0.0000000  -0.0000000
 NQMom=    0.0000000   0.0000000   0.0000000   0.0000000   0.0000000   0.0000000   0.0000000   0.0000000   0.0000000   0.0000000
 NMagM=    0.0000000   0.0000000   0.0000000   0.0000000   0.0000000   0.0000000   0.0000000   2.7928460   2.7928460   2.7928460
 AtZNuc=   6.0000000   6.0000000   6.0000000   6.0000000   6.0000000   6.0000000   6.0000000   1.0000000   1.0000000   1.0000000

  Atom        11          12          13          14          15          16          17          18          19          20
 IAtWgt=          14          12          12          12          12          12          12           1           1          12
 AtmWgt=  14.0030740  12.0000000  12.0000000  12.0000000  12.0000000  12.0000000  12.0000000   1.0078250   1.0078250  12.0000000
 NucSpn=           2           0           0           0           0           0           0           1           1           0
 AtZEff=  -0.0000000  -0.0000000  -0.0000000  -0.0000000  -0.0000000  -0.0000000  -0.0000000  -0.0000000  -0.0000000  -0.0000000
 NQMom=    2.0440000   0.0000000   0.0000000   0.0000000   0.0000000   0.0000000   0.0000000   0.0000000   0.0000000   0.0000000
 NMagM=    0.4037610   0.0000000   0.0000000   0.0000000   0.0000000   0.0000000   0.0000000   2.7928460   2.7928460   0.0000000
 AtZNuc=   7.0000000   6.0000000   6.0000000   6.0000000   6.0000000   6.0000000   6.0000000   1.0000000   1.0000000   6.0000000

  Atom        21          22          23          24          25          26          27          28          29          30
 IAtWgt=          12          16          14          12           1          14          12          12          12           1
 AtmWgt=  12.0000000  15.9949146  14.0030740  12.0000000   1.0078250  14.0030740  12.0000000  12.0000000  12.0000000   1.0078250
 NucSpn=           0           0           2           0           1           2           0           0           0           1
 AtZEff=  -0.0000000  -0.0000000  -0.0000000  -0.0000000  -0.0000000  -0.0000000  -0.0000000  -0.0000000  -0.0000000  -0.0000000
 NQMom=    0.0000000   0.0000000   2.0440000   0.0000000   0.0000000   2.0440000   0.0000000   0.0000000   0.0000000   0.0000000
 NMagM=    0.0000000   0.0000000   0.4037610   0.0000000   2.7928460   0.4037610   0.0000000   0.0000000   0.0000000   2.7928460
 AtZNuc=   6.0000000   8.0000000   7.0000000   6.0000000   1.0000000   7.0000000   6.0000000   6.0000000   6.0000000   1.0000000

  Atom        31          32          33          34          35          36          37          38          39          40
 IAtWgt=          12           1           1          12           1           1          12           1           1           1
 AtmWgt=  12.0000000   1.0078250   1.0078250  12.0000000   1.0078250   1.0078250  12.0000000   1.0078250   1.0078250   1.0078250
 NucSpn=           0           1           1           0           1           1           0           1           1           1
 AtZEff=  -0.0000000  -0.0000000  -0.0000000  -0.0000000  -0.0000000  -0.0000000  -0.0000000  -0.0000000  -0.0000000  -0.0000000
 NQMom=    0.0000000   0.0000000   0.0000000   0.0000000   0.0000000   0.0000000   0.0000000   0.0000000   0.0000000   0.0000000
 NMagM=    0.0000000   2.7928460   2.7928460   0.0000000   2.7928460   2.7928460   0.0000000   2.7928460   2.7928460   2.7928460
 AtZNuc=   6.0000000   1.0000000   1.0000000   6.0000000   1.0000000   1.0000000   6.0000000   1.0000000   1.0000000   1.0000000

  Atom        41          42          43          44          45          46          47          48          49          50
 IAtWgt=           1           1           1           1           1          12           1           1           1          12
 AtmWgt=   1.0078250   1.0078250   1.0078250   1.0078250   1.0078250  12.0000000   1.0078250   1.0078250   1.0078250  12.0000000
 NucSpn=           1           1           1           1           1           0           1           1           1           0
 AtZEff=  -0.0000000  -0.0000000  -0.0000000  -0.0000000  -0.0000000  -0.0000000  -0.0000000  -0.0000000  -0.0000000  -0.0000000
 NQMom=    0.0000000   0.0000000   0.0000000   0.0000000   0.0000000   0.0000000   0.0000000   0.0000000   0.0000000   0.0000000
 NMagM=    2.7928460   2.7928460   2.7928460   2.7928460   2.7928460   0.0000000   2.7928460   2.7928460   2.7928460   0.0000000
 AtZNuc=   1.0000000   1.0000000   1.0000000   1.0000000   1.0000000   6.0000000   1.0000000   1.0000000   1.0000000   6.0000000

  Atom        51          52          53          54          55          56          57          58          59          60
 IAtWgt=           1           1           1          12           1           1           1          12           1           1
 AtmWgt=   1.0078250   1.0078250   1.0078250  12.0000000   1.0078250   1.0078250   1.0078250  12.0000000   1.0078250   1.0078250
 NucSpn=           1           1           1           0           1           1           1           0           1           1
 AtZEff=  -0.0000000  -0.0000000  -0.0000000  -0.0000000  -0.0000000  -0.0000000  -0.0000000  -0.0000000  -0.0000000  -0.0000000
 NQMom=    0.0000000   0.0000000   0.0000000   0.0000000   0.0000000   0.0000000   0.0000000   0.0000000   0.0000000   0.0000000
 NMagM=    2.7928460   2.7928460   2.7928460   0.0000000   2.7928460   2.7928460   2.7928460   0.0000000   2.7928460   2.7928460
 AtZNuc=   1.0000000   1.0000000   1.0000000   6.0000000   1.0000000   1.0000000   1.0000000   6.0000000   1.0000000   1.0000000

  Atom        61          62          63          64          65          66          67          68          69
 IAtWgt=           1          12           1           1           1          12           1           1           1
 AtmWgt=   1.0078250  12.0000000   1.0078250   1.0078250   1.0078250  12.0000000   1.0078250   1.0078250   1.0078250
 NucSpn=           1           0           1           1           1           0           1           1           1
 AtZEff=  -0.0000000  -0.0000000  -0.0000000  -0.0000000  -0.0000000  -0.0000000  -0.0000000  -0.0000000  -0.0000000
 NQMom=    0.0000000   0.0000000   0.0000000   0.0000000   0.0000000   0.0000000   0.0000000   0.0000000   0.0000000
 NMagM=    2.7928460   0.0000000   2.7928460   2.7928460   2.7928460   0.0000000   2.7928460   2.7928460   2.7928460
 AtZNuc=   1.0000000   6.0000000   1.0000000   1.0000000   1.0000000   6.0000000   1.0000000   1.0000000   1.0000000
 Leave Link  101 at Thu Dec 20 17:54:03 2018, MaxMem=  1342177280 cpu:               4.2 elap:               0.3
 (Enter /gpfs/apps/hpc/Apps/Restricted/Gaussian/Rev_A.03/g16/l103.exe)

 GradGradGradGradGradGradGradGradGradGradGradGradGradGradGradGradGradGrad
 Berny optimization.
 Initialization pass.
                           ----------------------------
                           !    Initial Parameters    !
                           ! (Angstroms and Degrees)  !
 --------------------------                            --------------------------
 ! Name  Definition              Value          Derivative Info.                !
 --------------------------------------------------------------------------------
 ! R1    R(1,2)                  1.4            calculate D2E/DX2 analytically  !
 ! R2    R(1,6)                  1.4004         calculate D2E/DX2 analytically  !
 ! R3    R(1,23)                 1.3694         calculate D2E/DX2 analytically  !
 ! R4    R(2,3)                  1.3982         calculate D2E/DX2 analytically  !
 ! R5    R(2,11)                 1.3824         calculate D2E/DX2 analytically  !
 ! R6    R(3,4)                  1.3971         calculate D2E/DX2 analytically  !
 ! R7    R(3,8)                  1.0821         calculate D2E/DX2 analytically  !
 ! R8    R(4,5)                  1.4101         calculate D2E/DX2 analytically  !
 ! R9    R(4,9)                  1.083          calculate D2E/DX2 analytically  !
 ! R10   R(5,6)                  1.396          calculate D2E/DX2 analytically  !
 ! R11   R(5,10)                 1.0834         calculate D2E/DX2 analytically  !
 ! R12   R(6,24)                 1.4551         calculate D2E/DX2 analytically  !
 ! R13   R(7,11)                 1.3613         calculate D2E/DX2 analytically  !
 ! R14   R(7,13)                 1.4435         calculate D2E/DX2 analytically  !
 ! R15   R(7,23)                 1.3476         calculate D2E/DX2 analytically  !
 ! R16   R(12,13)                1.4678         calculate D2E/DX2 analytically  !
 ! R17   R(12,17)                1.4624         calculate D2E/DX2 analytically  !
 ! R18   R(12,22)                1.2564         calculate D2E/DX2 analytically  !
 ! R19   R(13,14)                1.3846         calculate D2E/DX2 analytically  !
 ! R20   R(14,15)                1.4071         calculate D2E/DX2 analytically  !
 ! R21   R(14,18)                1.0837         calculate D2E/DX2 analytically  !
 ! R22   R(15,16)                1.4171         calculate D2E/DX2 analytically  !
 ! R23   R(15,20)                1.496          calculate D2E/DX2 analytically  !
 ! R24   R(16,17)                1.3742         calculate D2E/DX2 analytically  !
 ! R25   R(16,19)                1.0846         calculate D2E/DX2 analytically  !
 ! R26   R(17,21)                1.4944         calculate D2E/DX2 analytically  !
 ! R27   R(20,46)                1.54           calculate D2E/DX2 analytically  !
 ! R28   R(20,50)                1.54           calculate D2E/DX2 analytically  !
 ! R29   R(20,54)                1.54           calculate D2E/DX2 analytically  !
 ! R30   R(21,58)                1.54           calculate D2E/DX2 analytically  !
 ! R31   R(21,62)                1.54           calculate D2E/DX2 analytically  !
 ! R32   R(21,66)                1.54           calculate D2E/DX2 analytically  !
 ! R33   R(22,45)                0.96           calculate D2E/DX2 analytically  !
 ! R34   R(23,44)                1.2181         calculate D2E/DX2 analytically  !
 ! R35   R(24,25)                1.0893         calculate D2E/DX2 analytically  !
 ! R36   R(24,26)                1.2913         calculate D2E/DX2 analytically  !
 ! R37   R(26,27)                1.4697         calculate D2E/DX2 analytically  !
 ! R38   R(27,28)                1.5377         calculate D2E/DX2 analytically  !
 ! R39   R(27,29)                1.5364         calculate D2E/DX2 analytically  !
 ! R40   R(27,30)                1.0938         calculate D2E/DX2 analytically  !
 ! R41   R(28,31)                1.5318         calculate D2E/DX2 analytically  !
 ! R42   R(28,32)                1.0967         calculate D2E/DX2 analytically  !
 ! R43   R(28,33)                1.0935         calculate D2E/DX2 analytically  !
 ! R44   R(29,34)                1.5319         calculate D2E/DX2 analytically  !
 ! R45   R(29,35)                1.0961         calculate D2E/DX2 analytically  !
 ! R46   R(29,36)                1.0933         calculate D2E/DX2 analytically  !
 ! R47   R(31,37)                1.5324         calculate D2E/DX2 analytically  !
 ! R48   R(31,38)                1.0938         calculate D2E/DX2 analytically  !
 ! R49   R(31,39)                1.0969         calculate D2E/DX2 analytically  !
 ! R50   R(34,37)                1.5327         calculate D2E/DX2 analytically  !
 ! R51   R(34,40)                1.0939         calculate D2E/DX2 analytically  !
 ! R52   R(34,41)                1.097          calculate D2E/DX2 analytically  !
 ! R53   R(37,42)                1.094          calculate D2E/DX2 analytically  !
 ! R54   R(37,43)                1.0968         calculate D2E/DX2 analytically  !
 ! R55   R(46,47)                1.07           calculate D2E/DX2 analytically  !
 ! R56   R(46,48)                1.07           calculate D2E/DX2 analytically  !
 ! R57   R(46,49)                1.07           calculate D2E/DX2 analytically  !
 ! R58   R(50,51)                1.07           calculate D2E/DX2 analytically  !
 ! R59   R(50,52)                1.07           calculate D2E/DX2 analytically  !
 ! R60   R(50,53)                1.07           calculate D2E/DX2 analytically  !
 ! R61   R(54,55)                1.07           calculate D2E/DX2 analytically  !
 ! R62   R(54,56)                1.07           calculate D2E/DX2 analytically  !
 ! R63   R(54,57)                1.07           calculate D2E/DX2 analytically  !
 ! R64   R(58,59)                1.07           calculate D2E/DX2 analytically  !
 ! R65   R(58,60)                1.07           calculate D2E/DX2 analytically  !
 ! R66   R(58,61)                1.07           calculate D2E/DX2 analytically  !
 ! R67   R(62,63)                1.07           calculate D2E/DX2 analytically  !
 ! R68   R(62,64)                1.07           calculate D2E/DX2 analytically  !
 ! R69   R(62,65)                1.07           calculate D2E/DX2 analytically  !
 ! R70   R(66,67)                1.07           calculate D2E/DX2 analytically  !
 ! R71   R(66,68)                1.07           calculate D2E/DX2 analytically  !
 ! R72   R(66,69)                1.07           calculate D2E/DX2 analytically  !
 ! A1    A(2,1,6)              123.919          calculate D2E/DX2 analytically  !
 ! A2    A(2,1,23)             109.9722         calculate D2E/DX2 analytically  !
 ! A3    A(6,1,23)             126.0992         calculate D2E/DX2 analytically  !
 ! A4    A(1,2,3)              120.0071         calculate D2E/DX2 analytically  !
 ! A5    A(1,2,11)             104.2967         calculate D2E/DX2 analytically  !
 ! A6    A(3,2,11)             135.6919         calculate D2E/DX2 analytically  !
 ! A7    A(2,3,4)              116.6798         calculate D2E/DX2 analytically  !
 ! A8    A(2,3,8)              121.9817         calculate D2E/DX2 analytically  !
 ! A9    A(4,3,8)              121.338          calculate D2E/DX2 analytically  !
 ! A10   A(3,4,5)              122.8919         calculate D2E/DX2 analytically  !
 ! A11   A(3,4,9)              118.5924         calculate D2E/DX2 analytically  !
 ! A12   A(5,4,9)              118.5154         calculate D2E/DX2 analytically  !
 ! A13   A(4,5,6)              120.6714         calculate D2E/DX2 analytically  !
 ! A14   A(4,5,10)             119.5806         calculate D2E/DX2 analytically  !
 ! A15   A(6,5,10)             119.7468         calculate D2E/DX2 analytically  !
 ! A16   A(1,6,5)              115.8286         calculate D2E/DX2 analytically  !
 ! A17   A(1,6,24)             116.9791         calculate D2E/DX2 analytically  !
 ! A18   A(5,6,24)             127.176          calculate D2E/DX2 analytically  !
 ! A19   A(11,7,13)            124.2413         calculate D2E/DX2 analytically  !
 ! A20   A(11,7,23)            109.3156         calculate D2E/DX2 analytically  !
 ! A21   A(13,7,23)            126.4426         calculate D2E/DX2 analytically  !
 ! A22   A(2,11,7)             109.475          calculate D2E/DX2 analytically  !
 ! A23   A(13,12,17)           117.563          calculate D2E/DX2 analytically  !
 ! A24   A(13,12,22)           122.1546         calculate D2E/DX2 analytically  !
 ! A25   A(17,12,22)           120.2814         calculate D2E/DX2 analytically  !
 ! A26   A(7,13,12)            119.6516         calculate D2E/DX2 analytically  !
 ! A27   A(7,13,14)            120.2411         calculate D2E/DX2 analytically  !
 ! A28   A(12,13,14)           120.1074         calculate D2E/DX2 analytically  !
 ! A29   A(13,14,15)           121.2927         calculate D2E/DX2 analytically  !
 ! A30   A(13,14,18)           119.75           calculate D2E/DX2 analytically  !
 ! A31   A(15,14,18)           118.957          calculate D2E/DX2 analytically  !
 ! A32   A(14,15,16)           119.2264         calculate D2E/DX2 analytically  !
 ! A33   A(14,15,20)           120.815          calculate D2E/DX2 analytically  !
 ! A34   A(16,15,20)           119.9559         calculate D2E/DX2 analytically  !
 ! A35   A(15,16,17)           122.3782         calculate D2E/DX2 analytically  !
 ! A36   A(15,16,19)           118.5292         calculate D2E/DX2 analytically  !
 ! A37   A(17,16,19)           119.0909         calculate D2E/DX2 analytically  !
 ! A38   A(12,17,16)           119.4256         calculate D2E/DX2 analytically  !
 ! A39   A(12,17,21)           117.7701         calculate D2E/DX2 analytically  !
 ! A40   A(16,17,21)           122.8021         calculate D2E/DX2 analytically  !
 ! A41   A(15,20,46)           111.7042         calculate D2E/DX2 analytically  !
 ! A42   A(15,20,50)           110.2            calculate D2E/DX2 analytically  !
 ! A43   A(15,20,54)           110.7839         calculate D2E/DX2 analytically  !
 ! A44   A(46,20,50)           108.1655         calculate D2E/DX2 analytically  !
 ! A45   A(46,20,54)           109.1003         calculate D2E/DX2 analytically  !
 ! A46   A(50,20,54)           106.7249         calculate D2E/DX2 analytically  !
 ! A47   A(17,21,58)           110.7094         calculate D2E/DX2 analytically  !
 ! A48   A(17,21,62)           110.5525         calculate D2E/DX2 analytically  !
 ! A49   A(17,21,66)           110.7706         calculate D2E/DX2 analytically  !
 ! A50   A(58,21,62)           106.4671         calculate D2E/DX2 analytically  !
 ! A51   A(58,21,66)           108.991          calculate D2E/DX2 analytically  !
 ! A52   A(62,21,66)           109.2385         calculate D2E/DX2 analytically  !
 ! A53   A(12,22,45)           120.0            calculate D2E/DX2 analytically  !
 ! A54   A(1,23,7)             106.9399         calculate D2E/DX2 analytically  !
 ! A55   A(1,23,44)            103.5508         calculate D2E/DX2 analytically  !
 ! A56   A(7,23,44)            149.4463         calculate D2E/DX2 analytically  !
 ! A57   A(6,24,25)            119.2384         calculate D2E/DX2 analytically  !
 ! A58   A(6,24,26)            118.7069         calculate D2E/DX2 analytically  !
 ! A59   A(25,24,26)           122.0533         calculate D2E/DX2 analytically  !
 ! A60   A(24,26,27)           121.3773         calculate D2E/DX2 analytically  !
 ! A61   A(26,27,28)           110.8533         calculate D2E/DX2 analytically  !
 ! A62   A(26,27,29)           112.3963         calculate D2E/DX2 analytically  !
 ! A63   A(26,27,30)           105.6729         calculate D2E/DX2 analytically  !
 ! A64   A(28,27,29)           110.9947         calculate D2E/DX2 analytically  !
 ! A65   A(28,27,30)           108.3534         calculate D2E/DX2 analytically  !
 ! A66   A(29,27,30)           108.3199         calculate D2E/DX2 analytically  !
 ! A67   A(27,28,31)           110.7613         calculate D2E/DX2 analytically  !
 ! A68   A(27,28,32)           108.2447         calculate D2E/DX2 analytically  !
 ! A69   A(27,28,33)           109.6259         calculate D2E/DX2 analytically  !
 ! A70   A(31,28,32)           109.8801         calculate D2E/DX2 analytically  !
 ! A71   A(31,28,33)           111.0293         calculate D2E/DX2 analytically  !
 ! A72   A(32,28,33)           107.1935         calculate D2E/DX2 analytically  !
 ! A73   A(27,29,34)           110.6799         calculate D2E/DX2 analytically  !
 ! A74   A(27,29,35)           108.9555         calculate D2E/DX2 analytically  !
 ! A75   A(27,29,36)           109.4821         calculate D2E/DX2 analytically  !
 ! A76   A(34,29,35)           109.3443         calculate D2E/DX2 analytically  !
 ! A77   A(34,29,36)           110.9674         calculate D2E/DX2 analytically  !
 ! A78   A(35,29,36)           107.33           calculate D2E/DX2 analytically  !
 ! A79   A(28,31,37)           111.486          calculate D2E/DX2 analytically  !
 ! A80   A(28,31,38)           109.758          calculate D2E/DX2 analytically  !
 ! A81   A(28,31,39)           109.082          calculate D2E/DX2 analytically  !
 ! A82   A(37,31,38)           110.5477         calculate D2E/DX2 analytically  !
 ! A83   A(37,31,39)           109.0743         calculate D2E/DX2 analytically  !
 ! A84   A(38,31,39)           106.7643         calculate D2E/DX2 analytically  !
 ! A85   A(29,34,37)           111.3933         calculate D2E/DX2 analytically  !
 ! A86   A(29,34,40)           109.7239         calculate D2E/DX2 analytically  !
 ! A87   A(29,34,41)           109.1136         calculate D2E/DX2 analytically  !
 ! A88   A(37,34,40)           110.603          calculate D2E/DX2 analytically  !
 ! A89   A(37,34,41)           109.1538         calculate D2E/DX2 analytically  !
 ! A90   A(40,34,41)           106.7281         calculate D2E/DX2 analytically  !
 ! A91   A(31,37,34)           111.1062         calculate D2E/DX2 analytically  !
 ! A92   A(31,37,42)           110.1237         calculate D2E/DX2 analytically  !
 ! A93   A(31,37,43)           109.2115         calculate D2E/DX2 analytically  !
 ! A94   A(34,37,42)           110.1778         calculate D2E/DX2 analytically  !
 ! A95   A(34,37,43)           109.1986         calculate D2E/DX2 analytically  !
 ! A96   A(42,37,43)           106.9212         calculate D2E/DX2 analytically  !
 ! A97   A(20,46,47)           109.4712         calculate D2E/DX2 analytically  !
 ! A98   A(20,46,48)           109.4712         calculate D2E/DX2 analytically  !
 ! A99   A(20,46,49)           109.4712         calculate D2E/DX2 analytically  !
 ! A100  A(47,46,48)           109.4713         calculate D2E/DX2 analytically  !
 ! A101  A(47,46,49)           109.4712         calculate D2E/DX2 analytically  !
 ! A102  A(48,46,49)           109.4712         calculate D2E/DX2 analytically  !
 ! A103  A(20,50,51)           109.4712         calculate D2E/DX2 analytically  !
 ! A104  A(20,50,52)           109.4712         calculate D2E/DX2 analytically  !
 ! A105  A(20,50,53)           109.4712         calculate D2E/DX2 analytically  !
 ! A106  A(51,50,52)           109.4713         calculate D2E/DX2 analytically  !
 ! A107  A(51,50,53)           109.4712         calculate D2E/DX2 analytically  !
 ! A108  A(52,50,53)           109.4712         calculate D2E/DX2 analytically  !
 ! A109  A(20,54,55)           109.4712         calculate D2E/DX2 analytically  !
 ! A110  A(20,54,56)           109.4712         calculate D2E/DX2 analytically  !
 ! A111  A(20,54,57)           109.4712         calculate D2E/DX2 analytically  !
 ! A112  A(55,54,56)           109.4713         calculate D2E/DX2 analytically  !
 ! A113  A(55,54,57)           109.4712         calculate D2E/DX2 analytically  !
 ! A114  A(56,54,57)           109.4712         calculate D2E/DX2 analytically  !
 ! A115  A(21,58,59)           109.4712         calculate D2E/DX2 analytically  !
 ! A116  A(21,58,60)           109.4712         calculate D2E/DX2 analytically  !
 ! A117  A(21,58,61)           109.4712         calculate D2E/DX2 analytically  !
 ! A118  A(59,58,60)           109.4713         calculate D2E/DX2 analytically  !
 ! A119  A(59,58,61)           109.4712         calculate D2E/DX2 analytically  !
 ! A120  A(60,58,61)           109.4712         calculate D2E/DX2 analytically  !
 ! A121  A(21,62,63)           109.4712         calculate D2E/DX2 analytically  !
 ! A122  A(21,62,64)           109.4712         calculate D2E/DX2 analytically  !
 ! A123  A(21,62,65)           109.4712         calculate D2E/DX2 analytically  !
 ! A124  A(63,62,64)           109.4713         calculate D2E/DX2 analytically  !
 ! A125  A(63,62,65)           109.4712         calculate D2E/DX2 analytically  !
 ! A126  A(64,62,65)           109.4712         calculate D2E/DX2 analytically  !
 ! A127  A(21,66,67)           109.4712         calculate D2E/DX2 analytically  !
 ! A128  A(21,66,68)           109.4712         calculate D2E/DX2 analytically  !
 ! A129  A(21,66,69)           109.4712         calculate D2E/DX2 analytically  !
 ! A130  A(67,66,68)           109.4713         calculate D2E/DX2 analytically  !
 ! A131  A(67,66,69)           109.4712         calculate D2E/DX2 analytically  !
 ! A132  A(68,66,69)           109.4712         calculate D2E/DX2 analytically  !
 ! D1    D(6,1,2,3)             -0.4159         calculate D2E/DX2 analytically  !
 ! D2    D(6,1,2,11)           178.9419         calculate D2E/DX2 analytically  !
 ! D3    D(23,1,2,3)          -179.3542         calculate D2E/DX2 analytically  !
 ! D4    D(23,1,2,11)            0.0036         calculate D2E/DX2 analytically  !
 ! D5    D(2,1,6,5)              0.5061         calculate D2E/DX2 analytically  !
 ! D6    D(2,1,6,24)          -178.1296         calculate D2E/DX2 analytically  !
 ! D7    D(23,1,6,5)           179.2712         calculate D2E/DX2 analytically  !
 ! D8    D(23,1,6,24)            0.6355         calculate D2E/DX2 analytically  !
 ! D9    D(2,1,23,7)             0.1417         calculate D2E/DX2 analytically  !
 ! D10   D(2,1,23,44)          178.1571         calculate D2E/DX2 analytically  !
 ! D11   D(6,1,23,7)          -178.7679         calculate D2E/DX2 analytically  !
 ! D12   D(6,1,23,44)           -0.7526         calculate D2E/DX2 analytically  !
 ! D13   D(1,2,3,4)              0.0038         calculate D2E/DX2 analytically  !
 ! D14   D(1,2,3,8)            179.7651         calculate D2E/DX2 analytically  !
 ! D15   D(11,2,3,4)          -179.1054         calculate D2E/DX2 analytically  !
 ! D16   D(11,2,3,8)             0.6559         calculate D2E/DX2 analytically  !
 ! D17   D(1,2,11,7)            -0.1483         calculate D2E/DX2 analytically  !
 ! D18   D(3,2,11,7)           179.0556         calculate D2E/DX2 analytically  !
 ! D19   D(2,3,4,5)              0.2868         calculate D2E/DX2 analytically  !
 ! D20   D(2,3,4,9)           -179.9155         calculate D2E/DX2 analytically  !
 ! D21   D(8,3,4,5)           -179.4761         calculate D2E/DX2 analytically  !
 ! D22   D(8,3,4,9)              0.3216         calculate D2E/DX2 analytically  !
 ! D23   D(3,4,5,6)             -0.1866         calculate D2E/DX2 analytically  !
 ! D24   D(3,4,5,10)           179.4209         calculate D2E/DX2 analytically  !
 ! D25   D(9,4,5,6)           -179.9845         calculate D2E/DX2 analytically  !
 ! D26   D(9,4,5,10)            -0.377          calculate D2E/DX2 analytically  !
 ! D27   D(4,5,6,1)             -0.2034         calculate D2E/DX2 analytically  !
 ! D28   D(4,5,6,24)           178.2707         calculate D2E/DX2 analytically  !
 ! D29   D(10,5,6,1)          -179.8102         calculate D2E/DX2 analytically  !
 ! D30   D(10,5,6,24)           -1.3362         calculate D2E/DX2 analytically  !
 ! D31   D(1,6,24,25)          179.4865         calculate D2E/DX2 analytically  !
 ! D32   D(1,6,24,26)           -0.091          calculate D2E/DX2 analytically  !
 ! D33   D(5,6,24,25)            1.0277         calculate D2E/DX2 analytically  !
 ! D34   D(5,6,24,26)         -178.5498         calculate D2E/DX2 analytically  !
 ! D35   D(13,7,11,2)         -179.5186         calculate D2E/DX2 analytically  !
 ! D36   D(23,7,11,2)            0.2444         calculate D2E/DX2 analytically  !
 ! D37   D(11,7,13,12)           2.3695         calculate D2E/DX2 analytically  !
 ! D38   D(11,7,13,14)        -177.6857         calculate D2E/DX2 analytically  !
 ! D39   D(23,7,13,12)        -177.3524         calculate D2E/DX2 analytically  !
 ! D40   D(23,7,13,14)           2.5924         calculate D2E/DX2 analytically  !
 ! D41   D(11,7,23,1)           -0.2348         calculate D2E/DX2 analytically  !
 ! D42   D(11,7,23,44)        -176.4373         calculate D2E/DX2 analytically  !
 ! D43   D(13,7,23,1)          179.5216         calculate D2E/DX2 analytically  !
 ! D44   D(13,7,23,44)           3.3191         calculate D2E/DX2 analytically  !
 ! D45   D(17,12,13,7)         179.1055         calculate D2E/DX2 analytically  !
 ! D46   D(17,12,13,14)         -0.8394         calculate D2E/DX2 analytically  !
 ! D47   D(22,12,13,7)          -1.2545         calculate D2E/DX2 analytically  !
 ! D48   D(22,12,13,14)        178.8007         calculate D2E/DX2 analytically  !
 ! D49   D(13,12,17,16)          0.8676         calculate D2E/DX2 analytically  !
 ! D50   D(13,12,17,21)       -179.6627         calculate D2E/DX2 analytically  !
 ! D51   D(22,12,17,16)       -178.7795         calculate D2E/DX2 analytically  !
 ! D52   D(22,12,17,21)          0.6902         calculate D2E/DX2 analytically  !
 ! D53   D(13,12,22,45)          9.0253         calculate D2E/DX2 analytically  !
 ! D54   D(17,12,22,45)       -171.3442         calculate D2E/DX2 analytically  !
 ! D55   D(7,13,14,15)        -179.7229         calculate D2E/DX2 analytically  !
 ! D56   D(7,13,14,18)           0.4764         calculate D2E/DX2 analytically  !
 ! D57   D(12,13,14,15)          0.2216         calculate D2E/DX2 analytically  !
 ! D58   D(12,13,14,18)       -179.5791         calculate D2E/DX2 analytically  !
 ! D59   D(13,14,15,16)          0.3859         calculate D2E/DX2 analytically  !
 ! D60   D(13,14,15,20)        179.7833         calculate D2E/DX2 analytically  !
 ! D61   D(18,14,15,16)       -179.8119         calculate D2E/DX2 analytically  !
 ! D62   D(18,14,15,20)         -0.4144         calculate D2E/DX2 analytically  !
 ! D63   D(14,15,16,17)         -0.3539         calculate D2E/DX2 analytically  !
 ! D64   D(14,15,16,19)       -179.8761         calculate D2E/DX2 analytically  !
 ! D65   D(20,15,16,17)       -179.7567         calculate D2E/DX2 analytically  !
 ! D66   D(20,15,16,19)          0.7211         calculate D2E/DX2 analytically  !
 ! D67   D(14,15,20,46)         12.2749         calculate D2E/DX2 analytically  !
 ! D68   D(14,15,20,50)       -107.9895         calculate D2E/DX2 analytically  !
 ! D69   D(14,15,20,54)        134.1302         calculate D2E/DX2 analytically  !
 ! D70   D(16,15,20,46)       -168.332          calculate D2E/DX2 analytically  !
 ! D71   D(16,15,20,50)         71.4036         calculate D2E/DX2 analytically  !
 ! D72   D(16,15,20,54)        -46.4767         calculate D2E/DX2 analytically  !
 ! D73   D(15,16,17,12)         -0.2892         calculate D2E/DX2 analytically  !
 ! D74   D(15,16,17,21)       -179.7309         calculate D2E/DX2 analytically  !
 ! D75   D(19,16,17,12)        179.2305         calculate D2E/DX2 analytically  !
 ! D76   D(19,16,17,21)         -0.2113         calculate D2E/DX2 analytically  !
 ! D77   D(12,17,21,58)         61.9058         calculate D2E/DX2 analytically  !
 ! D78   D(12,17,21,62)        -55.8296         calculate D2E/DX2 analytically  !
 ! D79   D(12,17,21,66)       -177.0654         calculate D2E/DX2 analytically  !
 ! D80   D(16,17,21,58)       -118.6437         calculate D2E/DX2 analytically  !
 ! D81   D(16,17,21,62)        123.6209         calculate D2E/DX2 analytically  !
 ! D82   D(16,17,21,66)          2.3851         calculate D2E/DX2 analytically  !
 ! D83   D(15,20,46,47)        -68.4222         calculate D2E/DX2 analytically  !
 ! D84   D(15,20,46,48)         51.5778         calculate D2E/DX2 analytically  !
 ! D85   D(15,20,46,49)        171.5778         calculate D2E/DX2 analytically  !
 ! D86   D(50,20,46,47)         53.0269         calculate D2E/DX2 analytically  !
 ! D87   D(50,20,46,48)        173.027          calculate D2E/DX2 analytically  !
 ! D88   D(50,20,46,49)        -66.973          calculate D2E/DX2 analytically  !
 ! D89   D(54,20,46,47)        168.7575         calculate D2E/DX2 analytically  !
 ! D90   D(54,20,46,48)        -71.2425         calculate D2E/DX2 analytically  !
 ! D91   D(54,20,46,49)         48.7575         calculate D2E/DX2 analytically  !
 ! D92   D(15,20,50,51)        166.5408         calculate D2E/DX2 analytically  !
 ! D93   D(15,20,50,52)        -73.4592         calculate D2E/DX2 analytically  !
 ! D94   D(15,20,50,53)         46.5408         calculate D2E/DX2 analytically  !
 ! D95   D(46,20,50,51)         44.1666         calculate D2E/DX2 analytically  !
 ! D96   D(46,20,50,52)        164.1667         calculate D2E/DX2 analytically  !
 ! D97   D(46,20,50,53)        -75.8334         calculate D2E/DX2 analytically  !
 ! D98   D(54,20,50,51)        -73.104          calculate D2E/DX2 analytically  !
 ! D99   D(54,20,50,52)         46.896          calculate D2E/DX2 analytically  !
 ! D100  D(54,20,50,53)        166.896          calculate D2E/DX2 analytically  !
 ! D101  D(15,20,54,55)         70.3691         calculate D2E/DX2 analytically  !
 ! D102  D(15,20,54,56)       -169.6309         calculate D2E/DX2 analytically  !
 ! D103  D(15,20,54,57)        -49.6309         calculate D2E/DX2 analytically  !
 ! D104  D(46,20,54,55)       -166.2618         calculate D2E/DX2 analytically  !
 ! D105  D(46,20,54,56)        -46.2617         calculate D2E/DX2 analytically  !
 ! D106  D(46,20,54,57)         73.7383         calculate D2E/DX2 analytically  !
 ! D107  D(50,20,54,55)        -49.6107         calculate D2E/DX2 analytically  !
 ! D108  D(50,20,54,56)         70.3893         calculate D2E/DX2 analytically  !
 ! D109  D(50,20,54,57)       -169.6107         calculate D2E/DX2 analytically  !
 ! D110  D(17,21,58,59)        142.4352         calculate D2E/DX2 analytically  !
 ! D111  D(17,21,58,60)        -97.5648         calculate D2E/DX2 analytically  !
 ! D112  D(17,21,58,61)         22.4352         calculate D2E/DX2 analytically  !
 ! D113  D(62,21,58,59)        -97.3584         calculate D2E/DX2 analytically  !
 ! D114  D(62,21,58,60)         22.6416         calculate D2E/DX2 analytically  !
 ! D115  D(62,21,58,61)        142.6416         calculate D2E/DX2 analytically  !
 ! D116  D(66,21,58,59)         20.3583         calculate D2E/DX2 analytically  !
 ! D117  D(66,21,58,60)        140.3583         calculate D2E/DX2 analytically  !
 ! D118  D(66,21,58,61)        -99.6417         calculate D2E/DX2 analytically  !
 ! D119  D(17,21,62,63)         92.5275         calculate D2E/DX2 analytically  !
 ! D120  D(17,21,62,64)       -147.4725         calculate D2E/DX2 analytically  !
 ! D121  D(17,21,62,65)        -27.4725         calculate D2E/DX2 analytically  !
 ! D122  D(58,21,62,63)        -27.7802         calculate D2E/DX2 analytically  !
 ! D123  D(58,21,62,64)         92.2198         calculate D2E/DX2 analytically  !
 ! D124  D(58,21,62,65)       -147.7802         calculate D2E/DX2 analytically  !
 ! D125  D(66,21,62,63)       -145.333          calculate D2E/DX2 analytically  !
 ! D126  D(66,21,62,64)        -25.333          calculate D2E/DX2 analytically  !
 ! D127  D(66,21,62,65)         94.667          calculate D2E/DX2 analytically  !
 ! D128  D(17,21,66,67)        -60.6253         calculate D2E/DX2 analytically  !
 ! D129  D(17,21,66,68)         59.3747         calculate D2E/DX2 analytically  !
 ! D130  D(17,21,66,69)        179.3747         calculate D2E/DX2 analytically  !
 ! D131  D(58,21,66,67)         61.4145         calculate D2E/DX2 analytically  !
 ! D132  D(58,21,66,68)       -178.5854         calculate D2E/DX2 analytically  !
 ! D133  D(58,21,66,69)        -58.5855         calculate D2E/DX2 analytically  !
 ! D134  D(62,21,66,67)        177.3665         calculate D2E/DX2 analytically  !
 ! D135  D(62,21,66,68)        -62.6335         calculate D2E/DX2 analytically  !
 ! D136  D(62,21,66,69)         57.3665         calculate D2E/DX2 analytically  !
 ! D137  D(6,24,26,27)         178.157          calculate D2E/DX2 analytically  !
 ! D138  D(25,24,26,27)         -1.408          calculate D2E/DX2 analytically  !
 ! D139  D(24,26,27,28)        -67.5098         calculate D2E/DX2 analytically  !
 ! D140  D(24,26,27,29)         57.3557         calculate D2E/DX2 analytically  !
 ! D141  D(24,26,27,30)        175.3068         calculate D2E/DX2 analytically  !
 ! D142  D(26,27,28,31)       -178.0758         calculate D2E/DX2 analytically  !
 ! D143  D(26,27,28,32)         61.4012         calculate D2E/DX2 analytically  !
 ! D144  D(26,27,28,33)        -55.2139         calculate D2E/DX2 analytically  !
 ! D145  D(29,27,28,31)         56.2698         calculate D2E/DX2 analytically  !
 ! D146  D(29,27,28,32)        -64.2532         calculate D2E/DX2 analytically  !
 ! D147  D(29,27,28,33)        179.1318         calculate D2E/DX2 analytically  !
 ! D148  D(30,27,28,31)        -62.5481         calculate D2E/DX2 analytically  !
 ! D149  D(30,27,28,32)        176.9289         calculate D2E/DX2 analytically  !
 ! D150  D(30,27,28,33)         60.3139         calculate D2E/DX2 analytically  !
 ! D151  D(26,27,29,34)        178.7496         calculate D2E/DX2 analytically  !
 ! D152  D(26,27,29,35)        -60.9853         calculate D2E/DX2 analytically  !
 ! D153  D(26,27,29,36)         56.1173         calculate D2E/DX2 analytically  !
 ! D154  D(28,27,29,34)        -56.4626         calculate D2E/DX2 analytically  !
 ! D155  D(28,27,29,35)         63.8026         calculate D2E/DX2 analytically  !
 ! D156  D(28,27,29,36)       -179.0948         calculate D2E/DX2 analytically  !
 ! D157  D(30,27,29,34)         62.3755         calculate D2E/DX2 analytically  !
 ! D158  D(30,27,29,35)       -177.3593         calculate D2E/DX2 analytically  !
 ! D159  D(30,27,29,36)        -60.2567         calculate D2E/DX2 analytically  !
 ! D160  D(27,28,31,37)        -55.662          calculate D2E/DX2 analytically  !
 ! D161  D(27,28,31,38)       -178.4945         calculate D2E/DX2 analytically  !
 ! D162  D(27,28,31,39)         64.8545         calculate D2E/DX2 analytically  !
 ! D163  D(32,28,31,37)         63.8835         calculate D2E/DX2 analytically  !
 ! D164  D(32,28,31,38)        -58.949          calculate D2E/DX2 analytically  !
 ! D165  D(32,28,31,39)       -175.5999         calculate D2E/DX2 analytically  !
 ! D166  D(33,28,31,37)       -177.7064         calculate D2E/DX2 analytically  !
 ! D167  D(33,28,31,38)         59.4611         calculate D2E/DX2 analytically  !
 ! D168  D(33,28,31,39)        -57.1898         calculate D2E/DX2 analytically  !
 ! D169  D(27,29,34,37)         56.0587         calculate D2E/DX2 analytically  !
 ! D170  D(27,29,34,40)        178.8746         calculate D2E/DX2 analytically  !
 ! D171  D(27,29,34,41)        -64.5193         calculate D2E/DX2 analytically  !
 ! D172  D(35,29,34,37)        -63.974          calculate D2E/DX2 analytically  !
 ! D173  D(35,29,34,40)         58.8419         calculate D2E/DX2 analytically  !
 ! D174  D(35,29,34,41)        175.4481         calculate D2E/DX2 analytically  !
 ! D175  D(36,29,34,37)        177.8218         calculate D2E/DX2 analytically  !
 ! D176  D(36,29,34,40)        -59.3623         calculate D2E/DX2 analytically  !
 ! D177  D(36,29,34,41)         57.2439         calculate D2E/DX2 analytically  !
 ! D178  D(28,31,37,34)         55.2283         calculate D2E/DX2 analytically  !
 ! D179  D(28,31,37,42)        177.5866         calculate D2E/DX2 analytically  !
 ! D180  D(28,31,37,43)        -65.2878         calculate D2E/DX2 analytically  !
 ! D181  D(38,31,37,34)        177.6078         calculate D2E/DX2 analytically  !
 ! D182  D(38,31,37,42)        -60.034          calculate D2E/DX2 analytically  !
 ! D183  D(38,31,37,43)         57.0916         calculate D2E/DX2 analytically  !
 ! D184  D(39,31,37,34)        -65.2928         calculate D2E/DX2 analytically  !
 ! D185  D(39,31,37,42)         57.0655         calculate D2E/DX2 analytically  !
 ! D186  D(39,31,37,43)        174.191          calculate D2E/DX2 analytically  !
 ! D187  D(29,34,37,31)        -55.4162         calculate D2E/DX2 analytically  !
 ! D188  D(29,34,37,42)       -177.7431         calculate D2E/DX2 analytically  !
 ! D189  D(29,34,37,43)         65.1077         calculate D2E/DX2 analytically  !
 ! D190  D(40,34,37,31)       -177.7266         calculate D2E/DX2 analytically  !
 ! D191  D(40,34,37,42)         59.9465         calculate D2E/DX2 analytically  !
 ! D192  D(40,34,37,43)        -57.2028         calculate D2E/DX2 analytically  !
 ! D193  D(41,34,37,31)         65.1382         calculate D2E/DX2 analytically  !
 ! D194  D(41,34,37,42)        -57.1887         calculate D2E/DX2 analytically  !
 ! D195  D(41,34,37,43)       -174.338          calculate D2E/DX2 analytically  !
 --------------------------------------------------------------------------------
 Trust Radius=3.00D-01 FncErr=5.00D-06 GrdErr=5.00D-06 EigMax=2.50D+02 EigMin=1.00D-04
 Number of steps in this run=    409 maximum allowed number of steps=    414.
 Search for a saddle point of order  1.
 GradGradGradGradGradGradGradGradGradGradGradGradGradGradGradGradGradGrad

 Leave Link  103 at Thu Dec 20 17:54:03 2018, MaxMem=  1342177280 cpu:               0.5 elap:               0.1
 (Enter /gpfs/apps/hpc/Apps/Restricted/Gaussian/Rev_A.03/g16/l202.exe)
 Symmetry turned off by external request.
 Stoichiometry    C28H37N3O(1+,2)
 Framework group  C1[X(C28H37N3O)]
 Deg. of freedom   201
 Full point group                 C1      NOp   1
                          Input orientation:                          
 ---------------------------------------------------------------------
 Center     Atomic      Atomic             Coordinates (Angstroms)
 Number     Number       Type             X           Y           Z
 ---------------------------------------------------------------------
      1          6           0       -0.569144    2.975654    0.353010
      2          6           0       -1.961174    3.104012    0.277127
      3          6           0       -2.542752    4.372577    0.191228
      4          6           0       -1.670159    5.463711    0.186451
      5          6           0       -0.268765    5.323858    0.257298
      6          6           0        0.317405    4.059654    0.340882
      7          6           0       -1.370904    0.945093    0.376304
      8          1           0       -3.614318    4.508651    0.127380
      9          1           0       -2.087650    6.460971    0.122328
     10          1           0        0.358400    6.207112    0.240214
     11          7           0       -2.425628    1.802082    0.296747
     12          6           0       -2.820040   -1.111264    0.298281
     13          6           0       -1.493277   -0.492884    0.407065
     14          6           0       -0.365852   -1.286077    0.537301
     15          6           0       -0.458947   -2.689846    0.563986
     16          6           0       -1.732034   -3.301209    0.446954
     17          6           0       -2.889211   -2.571944    0.314466
     18          1           0        0.610208   -0.823224    0.624049
     19          1           0       -1.790906   -4.383976    0.470959
     20          6           0        0.766720   -3.536715    0.700294
     21          6           0       -4.237021   -3.206535    0.196238
     22          8           0       -3.870130   -0.428325    0.200953
     23          7           0       -0.224181    1.651911    0.414907
     24          6           0        1.738628    3.750625    0.385152
     25          1           0        2.461084    4.565660    0.368870
     26          7           0        2.102971    2.512775    0.434367
     27          6           0        3.522672    2.132599    0.440536
     28          6           0        4.184496    2.466069   -0.906784
     29          6           0        4.294485    2.770595    1.605824
     30          1           0        3.537245    1.046834    0.572035
     31          6           0        5.651605    2.025664   -0.914830
     32          1           0        4.119562    3.549763   -1.062332
     33          1           0        3.627188    1.989152   -1.717754
     34          6           0        5.759916    2.324463    1.592759
     35          1           0        4.246181    3.861404    1.510039
     36          1           0        3.813096    2.505024    2.550827
     37          6           0        6.429648    2.643945    0.251686
     38          1           0        6.113084    2.294375   -1.869374
     39          1           0        5.698287    0.932533   -0.837469
     40          1           0        6.298829    2.802859    2.415802
     41          1           0        5.807756    1.242980    1.770371
     42          1           0        7.461943    2.281686    0.249637
     43          1           0        6.472894    3.732021    0.120275
     44          1           0        0.993467    1.675091    0.438611
     45          1           0       -3.814831    0.520494    0.065734
     46          6           0        1.995873   -2.699480    1.100069
     47          1           0        2.269650   -2.057931    0.288675
     48          1           0        1.759743   -2.106998    1.959201
     49          1           0        2.812248   -3.351798    1.330098
     50          6           0        1.078176   -4.240042   -0.633845
     51          1           0        2.066903   -4.647672   -0.599833
     52          1           0        0.372733   -5.028322   -0.794669
     53          1           0        1.011294   -3.532807   -1.433998
     54          6           0        0.550827   -4.646141    1.746317
     55          1           0       -0.138275   -5.369093    1.362418
     56          1           0        1.485154   -5.122045    1.959506
     57          1           0        0.155600   -4.218120    2.643810
     58          6           0       -4.893847   -2.843427   -1.148504
     59          1           0       -5.431976   -3.689263   -1.522508
     60          1           0       -5.568975   -2.025565   -1.006360
     61          1           0       -4.136957   -2.563163   -1.850978
     62          6           0       -5.178845   -2.684467    1.297152
     63          1           0       -5.727495   -1.843344    0.927833
     64          1           0       -5.860881   -3.458937    1.579858
     65          1           0       -4.602543   -2.388383    2.148686
     66          6           0       -4.130480   -4.739040    0.304304
     67          1           0       -3.513467   -5.110361   -0.487097
     68          1           0       -3.697371   -5.000862    1.247047
     69          1           0       -5.106577   -5.170687    0.228045
 ---------------------------------------------------------------------
 Rotational constants (GHZ):           0.1744737           0.0817953           0.0584476
 Leave Link  202 at Thu Dec 20 17:54:03 2018, MaxMem=  1342177280 cpu:               0.8 elap:               0.1
 (Enter /gpfs/apps/hpc/Apps/Restricted/Gaussian/Rev_A.03/g16/l301.exe)
 Standard basis: 6-31G(d,p) (6D, 7F)
 Ernie: Thresh=  0.10000D-02 Tol=  0.10000D-05 Strict=F.
   665 basis functions,  1155 primitive gaussians,   665 cartesian basis functions
   117 alpha electrons      116 beta electrons
       nuclear repulsion energy      3222.5594107545 Hartrees.
 IExCor=  402 DFT=T Ex+Corr=B3LYP ExCW=0 ScaHFX=  0.200000
 ScaDFX=  0.800000  0.720000  1.000000  0.810000 ScalE2=  1.000000  1.000000
 IRadAn=      5 IRanWt=     -1 IRanGd=            0 ICorTp=0 IEmpDi=141
 NAtoms=   69 NActive=   69 NUniq=   69 SFac= 1.00D+00 NAtFMM=   60 NAOKFM=T Big=T
 Integral buffers will be    131072 words long.
 Raffenetti 2 integral format.
 Two-electron integral symmetry is turned off.
 R6Disp:  Grimme-D3(BJ) Dispersion energy=       -0.1522873214 Hartrees.
 Nuclear repulsion after empirical dispersion term =     3222.4071234331 Hartrees.
 Force inversion solution in PCM.
 Using the following non-standard input for PCM:
 radii=bondi
 dis
 rep
 cav
 --- end of non-standard input.
 Force inversion solution in PCM.
 ------------------------------------------------------------------------------
 Polarizable Continuum Model (PCM)
 =================================
 Model                : C-PCM.
 Atomic radii         : Bondi.
 Polarization charges : Total charges.
 Charge compensation  : None.
 Solution method      : Matrix inversion.
 Cavity type          : Scaled VdW (van der Waals Surface) (Alpha=1.100).
 Cavity algorithm     : GePol (No added spheres)
                        Default sphere list used, NSphG=   69.
                        Lebedev-Laikov grids with approx.  5.0 points / Ang**2.
                        Smoothing algorithm: York/Karplus (Gamma=1.0000).
                        Polarization charges: spherical gaussians, with
                                              point-specific exponents (IZeta= 3).
                        Self-potential: point-specific (ISelfS= 7).
                        Self-field    : sphere-specific E.n sum rule (ISelfD= 2).
 1st derivatives      : Analytical E(r).r(x)/FMM algorithm (CHGder, D1EAlg=3).
                        Cavity 1st derivative terms included.
 2nd derivatives      : Analytical E(r).r(xy)/FMM algorithm (CHGder, D2EAlg=3).
                        Cavity 2nd derivative terms included.
 Solvent              : Dichloromethane, Eps=   8.930000 Eps(inf)=   2.028346
 ------------------------------------------------------------------------------
 GePol: Number of generator spheres                  =      69
 GePol: Total number of spheres                      =      69
 GePol: Number of exposed spheres                    =      69 (100.00%)
 GePol: Number of points                             =    4306
 GePol: Average weight of points                     =       0.12
 GePol: Minimum weight of points                     =   0.14D-11
 GePol: Maximum weight of points                     =    0.21770
 GePol: Number of points with low weight             =     320
 GePol: Fraction of low-weight points (<1% of avg)   =       7.43%
 GePol: Cavity surface area                          =    510.774 Ang**2
 GePol: Cavity volume                                =    495.702 Ang**3
 PCM non-electrostatic energy =         0.0250985143 Hartrees.
 Nuclear repulsion after PCM non-electrostatic terms =     3222.4322219473 Hartrees.
 Leave Link  301 at Thu Dec 20 17:54:03 2018, MaxMem=  1342177280 cpu:               3.3 elap:               0.2
 (Enter /gpfs/apps/hpc/Apps/Restricted/Gaussian/Rev_A.03/g16/l302.exe)
 NPDir=0 NMtPBC=     1 NCelOv=     1 NCel=       1 NClECP=     1 NCelD=      1
         NCelK=      1 NCelE2=     1 NClLst=     1 CellRange=     0.0.
 One-electron integrals computed using PRISM.
 NBasis=   665 RedAO= T EigKep=  3.06D-04  NBF=   665
 NBsUse=   665 1.00D-06 EigRej= -1.00D+00 NBFU=   665
 Precomputing XC quadrature grid using
 IXCGrd= 4 IRadAn=           5 IRanWt=          -1 IRanGd=           0 AccXCQ= 0.00D+00.
 Generated NRdTot=       0 NPtTot=           0 NUsed=           0 NTot=          32
 NSgBfM=   653   653   653   653   653 MxSgAt=    69 MxSgA2=    69.
 Leave Link  302 at Thu Dec 20 17:54:04 2018, MaxMem=  1342177280 cpu:              17.1 elap:               1.1
 (Enter /gpfs/apps/hpc/Apps/Restricted/Gaussian/Rev_A.03/g16/l303.exe)
 DipDrv:  MaxL=1.
 Leave Link  303 at Thu Dec 20 17:54:05 2018, MaxMem=  1342177280 cpu:               1.2 elap:               0.1
 (Enter /gpfs/apps/hpc/Apps/Restricted/Gaussian/Rev_A.03/g16/l401.exe)
 ExpMin= 1.61D-01 ExpMax= 5.48D+03 ExpMxC= 8.25D+02 IAcc=3 IRadAn=         5 AccDes= 0.00D+00
 Harris functional with IExCor=  402 and IRadAn=       5 diagonalized for initial guess.
 HarFok:  IExCor=  402 AccDes= 0.00D+00 IRadAn=         5 IDoV= 1 UseB2=F ITyADJ=14
 ICtDFT=  3500011 ScaDFX=  1.000000  1.000000  1.000000  1.000000
 FoFCou: FMM=F IPFlag=           0 FMFlag=      100000 FMFlg1=        2001
         NFxFlg=           0 DoJE=T BraDBF=F KetDBF=T FulRan=T
         wScrn=  0.000000 ICntrl=       500 IOpCl=  0 I1Cent=   200000004 NGrid=           0
         NMat0=    1 NMatS0=      1 NMatT0=    0 NMatD0=    1 NMtDS0=    0 NMtDT0=    0
 Symmetry not used in FoFCou.
 Harris En= -1328.75082363126    
 JPrj=0 DoOrth=F DoCkMO=F.
 Initial guess <Sx>= 0.0000 <Sy>= 0.0000 <Sz>= 0.5000 <S**2>= 0.7500 S= 0.5000
 Leave Link  401 at Thu Dec 20 17:54:09 2018, MaxMem=  1342177280 cpu:              67.7 elap:               4.4
 (Enter /gpfs/apps/hpc/Apps/Restricted/Gaussian/Rev_A.03/g16/l502.exe)
 Two-electron integral symmetry not used.
 UHF open shell SCF:
 Using DIIS extrapolation, IDIIS=  1040.
 NGot=  1342177280 LenX=  1341276554 LenY=  1340833664
 Requested convergence on RMS density matrix=1.00D-08 within 128 cycles.
 Requested convergence on MAX density matrix=1.00D-06.
 Requested convergence on             energy=1.00D-06.
 No special actions if energy rises.
 Fock matrices will be formed incrementally for  20 cycles.

 Cycle   1  Pass 1  IDiag  1:
 FoFJK:  IHMeth= 1 ICntrl=       0 DoSepK=F KAlg= 0 I1Cent=           0 FoldK=F
 IRaf= 800000000 NMat=       1 IRICut=       1 DoRegI=T DoRafI=F ISym2E= 0 IDoP0=0 IntGTp=1.
 FoFCou: FMM=T IPFlag=           0 FMFlag=      100000 FMFlg1=        2001
         NFxFlg=           0 DoJE=F BraDBF=F KetDBF=F FulRan=T
         wScrn=  0.000000 ICntrl=         0 IOpCl=  1 I1Cent=           0 NGrid=           0
         NMat0=    1 NMatS0=      1 NMatT0=    0 NMatD0=    1 NMtDS0=    0 NMtDT0=    0
 Symmetry not used in FoFCou.
 FMM levels:  10  Number of levels for PrismC:   9
 Inv3:  Mode=1 IEnd=    55624908.
 Iteration    1 A*A^-1 deviation from unit magnitude is 6.88D-15 for   3261.
 Iteration    1 A*A^-1 deviation from orthogonality  is 3.69D-15 for    854    738.
 Iteration    1 A^-1*A deviation from unit magnitude is 6.88D-15 for   3261.
 Iteration    1 A^-1*A deviation from orthogonality  is 1.98D-15 for   1848   1405.
 E= -1327.91970760756    
 DIIS: error= 2.91D-02 at cycle   1 NSaved=   1.
 NSaved= 1 IEnMin= 1 EnMin= -1327.91970760756     IErMin= 1 ErrMin= 2.91D-02
 ErrMax= 2.91D-02  0.00D+00 EMaxC= 1.00D-01 BMatC= 3.16D+00 BMatP= 3.16D+00
 IDIUse=3 WtCom= 7.09D-01 WtEn= 2.91D-01
 Coeff-Com:  0.100D+01
 Coeff-En:   0.100D+01
 Coeff:      0.100D+01
 Gap=     0.152 Goal=   None    Shift=    0.000
 Gap=     0.049 Goal=   None    Shift=    0.000
 GapD=    0.049 DampG=0.250 DampE=0.500 DampFc=0.2500 IDamp=-1.
 Damping current iteration by 2.50D-01
 RMSDP=3.13D-03 MaxDP=1.36D-01              OVMax= 2.71D-01

 Cycle   2  Pass 1  IDiag  1:
 RMSU=  7.59D-04    CP:  9.84D-01
 E= -1328.21989902985     Delta-E=       -0.300191422293 Rises=F Damp=T
 DIIS: error= 1.59D-02 at cycle   2 NSaved=   2.
 NSaved= 2 IEnMin= 2 EnMin= -1328.21989902985     IErMin= 2 ErrMin= 1.59D-02
 ErrMax= 1.59D-02  0.00D+00 EMaxC= 1.00D-01 BMatC= 8.43D-01 BMatP= 3.16D+00
 IDIUse=3 WtCom= 8.41D-01 WtEn= 1.59D-01
 Coeff-Com: -0.879D+00 0.188D+01
 Coeff-En:   0.000D+00 0.100D+01
 Coeff:     -0.739D+00 0.174D+01
 Gap=     0.204 Goal=   None    Shift=    0.000
 Gap=     0.088 Goal=   None    Shift=    0.000
 RMSDP=1.17D-03 MaxDP=7.64D-02 DE=-3.00D-01 OVMax= 2.43D-01

 Cycle   3  Pass 1  IDiag  1:
 RMSU=  8.03D-04    CP:  9.54D-01  2.02D+00
 E= -1328.72926049609     Delta-E=       -0.509361466236 Rises=F Damp=F
 DIIS: error= 5.15D-03 at cycle   3 NSaved=   3.
 NSaved= 3 IEnMin= 3 EnMin= -1328.72926049609     IErMin= 3 ErrMin= 5.15D-03
 ErrMax= 5.15D-03  0.00D+00 EMaxC= 1.00D-01 BMatC= 8.22D-02 BMatP= 8.43D-01
 IDIUse=3 WtCom= 9.49D-01 WtEn= 5.15D-02
 Coeff-Com: -0.302D+00 0.664D+00 0.638D+00
 Coeff-En:   0.000D+00 0.000D+00 0.100D+01
 Coeff:     -0.286D+00 0.630D+00 0.656D+00
 Gap=     0.149 Goal=   None    Shift=    0.000
 Gap=     0.055 Goal=   None    Shift=    0.000
 RMSDP=3.99D-04 MaxDP=3.71D-02 DE=-5.09D-01 OVMax= 7.26D-02

 Cycle   4  Pass 1  IDiag  1:
 RMSU=  3.19D-04    CP:  9.56D-01  2.04D+00  7.04D-01
 E= -1328.74226123543     Delta-E=       -0.013000739336 Rises=F Damp=F
 DIIS: error= 4.40D-03 at cycle   4 NSaved=   4.
 NSaved= 4 IEnMin= 4 EnMin= -1328.74226123543     IErMin= 4 ErrMin= 4.40D-03
 ErrMax= 4.40D-03  0.00D+00 EMaxC= 1.00D-01 BMatC= 3.52D-02 BMatP= 8.22D-02
 IDIUse=3 WtCom= 9.56D-01 WtEn= 4.40D-02
 Coeff-Com: -0.418D-01 0.107D+00 0.393D+00 0.542D+00
 Coeff-En:   0.000D+00 0.000D+00 0.310D+00 0.690D+00
 Coeff:     -0.399D-01 0.102D+00 0.389D+00 0.548D+00
 Gap=     0.149 Goal=   None    Shift=    0.000
 Gap=     0.058 Goal=   None    Shift=    0.000
 RMSDP=1.81D-04 MaxDP=1.78D-02 DE=-1.30D-02 OVMax= 3.01D-02

 Cycle   5  Pass 1  IDiag  1:
 RMSU=  9.58D-05    CP:  9.56D-01  2.00D+00  8.04D-01  5.96D-01
 E= -1328.75106674234     Delta-E=       -0.008805506915 Rises=F Damp=F
 DIIS: error= 1.18D-03 at cycle   5 NSaved=   5.
 NSaved= 5 IEnMin= 5 EnMin= -1328.75106674234     IErMin= 5 ErrMin= 1.18D-03
 ErrMax= 1.18D-03  0.00D+00 EMaxC= 1.00D-01 BMatC= 2.80D-03 BMatP= 3.52D-02
 IDIUse=3 WtCom= 9.88D-01 WtEn= 1.18D-02
 Coeff-Com:  0.337D-02 0.901D-03 0.156D+00 0.300D+00 0.539D+00
 Coeff-En:   0.000D+00 0.000D+00 0.000D+00 0.000D+00 0.100D+01
 Coeff:      0.333D-02 0.890D-03 0.155D+00 0.297D+00 0.545D+00
 Gap=     0.148 Goal=   None    Shift=    0.000
 Gap=     0.059 Goal=   None    Shift=    0.000
 RMSDP=5.27D-05 MaxDP=6.06D-03 DE=-8.81D-03 OVMax= 1.20D-02

 Cycle   6  Pass 1  IDiag  1:
 RMSU=  3.24D-05    CP:  9.56D-01  2.01D+00  8.05D-01  6.48D-01  6.03D-01
 E= -1328.75177928603     Delta-E=       -0.000712543693 Rises=F Damp=F
 DIIS: error= 2.37D-04 at cycle   6 NSaved=   6.
 NSaved= 6 IEnMin= 6 EnMin= -1328.75177928603     IErMin= 6 ErrMin= 2.37D-04
 ErrMax= 2.37D-04  0.00D+00 EMaxC= 1.00D-01 BMatC= 2.10D-04 BMatP= 2.80D-03
 IDIUse=3 WtCom= 9.98D-01 WtEn= 2.37D-03
 Coeff-Com:  0.459D-02-0.710D-02 0.502D-01 0.109D+00 0.282D+00 0.562D+00
 Coeff-En:   0.000D+00 0.000D+00 0.000D+00 0.000D+00 0.000D+00 0.100D+01
 Coeff:      0.458D-02-0.708D-02 0.501D-01 0.108D+00 0.281D+00 0.563D+00
 Gap=     0.149 Goal=   None    Shift=    0.000
 Gap=     0.059 Goal=   None    Shift=    0.000
 RMSDP=1.54D-05 MaxDP=1.71D-03 DE=-7.13D-04 OVMax= 5.87D-03

 Cycle   7  Pass 1  IDiag  1:
 RMSU=  1.32D-05    CP:  9.56D-01  2.01D+00  8.07D-01  6.49D-01  6.82D-01
                    CP:  9.39D-01
 E= -1328.75184052764     Delta-E=       -0.000061241607 Rises=F Damp=F
 DIIS: error= 1.25D-04 at cycle   7 NSaved=   7.
 NSaved= 7 IEnMin= 7 EnMin= -1328.75184052764     IErMin= 7 ErrMin= 1.25D-04
 ErrMax= 1.25D-04  0.00D+00 EMaxC= 1.00D-01 BMatC= 3.59D-05 BMatP= 2.10D-04
 IDIUse=3 WtCom= 9.99D-01 WtEn= 1.25D-03
 Coeff-Com:  0.184D-02-0.370D-02 0.249D-02 0.974D-02 0.681D-01 0.296D+00
 Coeff-Com:  0.626D+00
 Coeff-En:   0.000D+00 0.000D+00 0.000D+00 0.000D+00 0.000D+00 0.000D+00
 Coeff-En:   0.100D+01
 Coeff:      0.183D-02-0.369D-02 0.249D-02 0.973D-02 0.681D-01 0.295D+00
 Coeff:      0.626D+00
 Gap=     0.149 Goal=   None    Shift=    0.000
 Gap=     0.059 Goal=   None    Shift=    0.000
 RMSDP=9.35D-06 MaxDP=8.88D-04 DE=-6.12D-05 OVMax= 5.20D-03

 Cycle   8  Pass 1  IDiag  1:
 RMSU=  6.90D-06    CP:  9.56D-01  2.01D+00  8.08D-01  6.54D-01  7.07D-01
                    CP:  1.11D+00  1.07D+00
 E= -1328.75185945650     Delta-E=       -0.000018928861 Rises=F Damp=F
 DIIS: error= 9.98D-05 at cycle   8 NSaved=   8.
 NSaved= 8 IEnMin= 8 EnMin= -1328.75185945650     IErMin= 8 ErrMin= 9.98D-05
 ErrMax= 9.98D-05  0.00D+00 EMaxC= 1.00D-01 BMatC= 8.32D-06 BMatP= 3.59D-05
 IDIUse=1 WtCom= 1.00D+00 WtEn= 0.00D+00
 Coeff-Com: -0.785D-03 0.951D-03-0.147D-01-0.321D-01-0.632D-01-0.649D-01
 Coeff-Com:  0.259D+00 0.916D+00
 Coeff:     -0.785D-03 0.951D-03-0.147D-01-0.321D-01-0.632D-01-0.649D-01
 Coeff:      0.259D+00 0.916D+00
 Gap=     0.149 Goal=   None    Shift=    0.000
 Gap=     0.060 Goal=   None    Shift=    0.000
 RMSDP=9.69D-06 MaxDP=1.09D-03 DE=-1.89D-05 OVMax= 7.13D-03

 Cycle   9  Pass 1  IDiag  1:
 RMSU=  3.90D-06    CP:  9.56D-01  2.01D+00  8.08D-01  6.59D-01  7.36D-01
                    CP:  1.28D+00  1.51D+00  1.33D+00
 E= -1328.75187018644     Delta-E=       -0.000010729932 Rises=F Damp=F
 DIIS: error= 4.71D-05 at cycle   9 NSaved=   9.
 NSaved= 9 IEnMin= 9 EnMin= -1328.75187018644     IErMin= 9 ErrMin= 4.71D-05
 ErrMax= 4.71D-05  0.00D+00 EMaxC= 1.00D-01 BMatC= 4.65D-06 BMatP= 8.32D-06
 IDIUse=1 WtCom= 1.00D+00 WtEn= 0.00D+00
 Coeff-Com: -0.873D-03 0.142D-02-0.993D-02-0.234D-01-0.608D-01-0.132D+00
 Coeff-Com: -0.498D-01 0.600D+00 0.676D+00
 Coeff:     -0.873D-03 0.142D-02-0.993D-02-0.234D-01-0.608D-01-0.132D+00
 Coeff:     -0.498D-01 0.600D+00 0.676D+00
 Gap=     0.149 Goal=   None    Shift=    0.000
 Gap=     0.060 Goal=   None    Shift=    0.000
 RMSDP=5.76D-06 MaxDP=6.25D-04 DE=-1.07D-05 OVMax= 3.67D-03

 Cycle  10  Pass 1  IDiag  1:
 RMSU=  1.96D-06    CP:  9.56D-01  2.01D+00  8.08D-01  6.60D-01  7.50D-01
                    CP:  1.38D+00  1.73D+00  1.73D+00  1.03D+00
 E= -1328.75187418904     Delta-E=       -0.000004002608 Rises=F Damp=F
 DIIS: error= 2.44D-05 at cycle  10 NSaved=  10.
 NSaved=10 IEnMin=10 EnMin= -1328.75187418904     IErMin=10 ErrMin= 2.44D-05
 ErrMax= 2.44D-05  0.00D+00 EMaxC= 1.00D-01 BMatC= 9.55D-07 BMatP= 4.65D-06
 IDIUse=1 WtCom= 1.00D+00 WtEn= 0.00D+00
 Coeff-Com: -0.143D-03 0.350D-03-0.677D-03-0.248D-02-0.127D-01-0.475D-01
 Coeff-Com: -0.112D+00 0.670D-01 0.326D+00 0.782D+00
 Coeff:     -0.143D-03 0.350D-03-0.677D-03-0.248D-02-0.127D-01-0.475D-01
 Coeff:     -0.112D+00 0.670D-01 0.326D+00 0.782D+00
 Gap=     0.149 Goal=   None    Shift=    0.000
 Gap=     0.060 Goal=   None    Shift=    0.000
 RMSDP=3.26D-06 MaxDP=3.60D-04 DE=-4.00D-06 OVMax= 2.23D-03

 Cycle  11  Pass 1  IDiag  1:
 RMSU=  1.18D-06    CP:  9.56D-01  2.01D+00  8.08D-01  6.61D-01  7.56D-01
                    CP:  1.44D+00  1.85D+00  1.93D+00  1.33D+00  1.14D+00
 E= -1328.75187530604     Delta-E=       -0.000001117000 Rises=F Damp=F
 DIIS: error= 1.23D-05 at cycle  11 NSaved=  11.
 NSaved=11 IEnMin=11 EnMin= -1328.75187530604     IErMin=11 ErrMin= 1.23D-05
 ErrMax= 1.23D-05  0.00D+00 EMaxC= 1.00D-01 BMatC= 3.94D-07 BMatP= 9.55D-07
 IDIUse=1 WtCom= 1.00D+00 WtEn= 0.00D+00
 Coeff-Com:  0.206D-03-0.255D-03 0.335D-02 0.718D-02 0.149D-01 0.224D-01
 Coeff-Com: -0.525D-01-0.166D+00-0.653D-01 0.478D+00 0.758D+00
 Coeff:      0.206D-03-0.255D-03 0.335D-02 0.718D-02 0.149D-01 0.224D-01
 Coeff:     -0.525D-01-0.166D+00-0.653D-01 0.478D+00 0.758D+00
 Gap=     0.149 Goal=   None    Shift=    0.000
 Gap=     0.060 Goal=   None    Shift=    0.000
 RMSDP=1.94D-06 MaxDP=3.03D-04 DE=-1.12D-06 OVMax= 1.23D-03

 Cycle  12  Pass 1  IDiag  1:
 RMSU=  5.76D-07    CP:  9.56D-01  2.01D+00  8.08D-01  6.62D-01  7.60D-01
                    CP:  1.46D+00  1.91D+00  2.05D+00  1.51D+00  1.56D+00
                    CP:  1.04D+00
 E= -1328.75187570474     Delta-E=       -0.000000398700 Rises=F Damp=F
 DIIS: error= 5.53D-06 at cycle  12 NSaved=  12.
 NSaved=12 IEnMin=12 EnMin= -1328.75187570474     IErMin=12 ErrMin= 5.53D-06
 ErrMax= 5.53D-06  0.00D+00 EMaxC= 1.00D-01 BMatC= 8.47D-08 BMatP= 3.94D-07
 IDIUse=1 WtCom= 1.00D+00 WtEn= 0.00D+00
 Coeff-Com:  0.117D-03-0.203D-03 0.137D-02 0.327D-02 0.916D-02 0.228D-01
 Coeff-Com:  0.731D-02-0.748D-01-0.124D+00-0.727D-01 0.315D+00 0.913D+00
 Coeff:      0.117D-03-0.203D-03 0.137D-02 0.327D-02 0.916D-02 0.228D-01
 Coeff:      0.731D-02-0.748D-01-0.124D+00-0.727D-01 0.315D+00 0.913D+00
 Gap=     0.149 Goal=   None    Shift=    0.000
 Gap=     0.060 Goal=   None    Shift=    0.000
 RMSDP=1.07D-06 MaxDP=1.55D-04 DE=-3.99D-07 OVMax= 5.93D-04

 Cycle  13  Pass 1  IDiag  1:
 RMSU=  3.06D-07    CP:  9.56D-01  2.01D+00  8.08D-01  6.62D-01  7.62D-01
                    CP:  1.47D+00  1.94D+00  2.12D+00  1.60D+00  1.78D+00
                    CP:  1.37D+00  1.12D+00
 E= -1328.75187579686     Delta-E=       -0.000000092121 Rises=F Damp=F
 DIIS: error= 3.16D-06 at cycle  13 NSaved=  13.
 NSaved=13 IEnMin=13 EnMin= -1328.75187579686     IErMin=13 ErrMin= 3.16D-06
 ErrMax= 3.16D-06  0.00D+00 EMaxC= 1.00D-01 BMatC= 2.84D-08 BMatP= 8.47D-08
 IDIUse=1 WtCom= 1.00D+00 WtEn= 0.00D+00
 Coeff-Com:  0.191D-04-0.577D-04 0.922D-04 0.370D-03 0.229D-02 0.920D-02
 Coeff-Com:  0.155D-01-0.390D-02-0.581D-01-0.153D+00 0.358D-01 0.536D+00
 Coeff-Com:  0.616D+00
 Coeff:      0.191D-04-0.577D-04 0.922D-04 0.370D-03 0.229D-02 0.920D-02
 Coeff:      0.155D-01-0.390D-02-0.581D-01-0.153D+00 0.358D-01 0.536D+00
 Coeff:      0.616D+00
 Gap=     0.149 Goal=   None    Shift=    0.000
 Gap=     0.060 Goal=   None    Shift=    0.000
 RMSDP=3.09D-07 MaxDP=5.27D-05 DE=-9.21D-08 OVMax= 1.40D-04

 Cycle  14  Pass 1  IDiag  1:
 RMSU=  1.40D-07    CP:  9.56D-01  2.01D+00  8.08D-01  6.62D-01  7.62D-01
                    CP:  1.48D+00  1.95D+00  2.13D+00  1.63D+00  1.84D+00
                    CP:  1.46D+00  1.36D+00  8.45D-01
 E= -1328.75187581171     Delta-E=       -0.000000014851 Rises=F Damp=F
 DIIS: error= 1.04D-06 at cycle  14 NSaved=  14.
 NSaved=14 IEnMin=14 EnMin= -1328.75187581171     IErMin=14 ErrMin= 1.04D-06
 ErrMax= 1.04D-06  0.00D+00 EMaxC= 1.00D-01 BMatC= 3.83D-09 BMatP= 2.84D-08
 IDIUse=1 WtCom= 1.00D+00 WtEn= 0.00D+00
 Coeff-Com: -0.269D-04 0.357D-04-0.296D-03-0.661D-03-0.129D-02-0.152D-02
 Coeff-Com:  0.374D-02 0.165D-01 0.475D-02-0.523D-01-0.516D-01-0.468D-02
 Coeff-Com:  0.255D+00 0.833D+00
 Coeff:     -0.269D-04 0.357D-04-0.296D-03-0.661D-03-0.129D-02-0.152D-02
 Coeff:      0.374D-02 0.165D-01 0.475D-02-0.523D-01-0.516D-01-0.468D-02
 Coeff:      0.255D+00 0.833D+00
 Gap=     0.149 Goal=   None    Shift=    0.000
 Gap=     0.060 Goal=   None    Shift=    0.000
 RMSDP=1.63D-07 MaxDP=2.32D-05 DE=-1.49D-08 OVMax= 6.37D-05

 Cycle  15  Pass 1  IDiag  1:
 RMSU=  5.62D-08    CP:  9.56D-01  2.01D+00  8.08D-01  6.62D-01  7.62D-01
                    CP:  1.48D+00  1.95D+00  2.14D+00  1.64D+00  1.87D+00
                    CP:  1.50D+00  1.44D+00  1.08D+00  1.11D+00
 E= -1328.75187581474     Delta-E=       -0.000000003026 Rises=F Damp=F
 DIIS: error= 5.01D-07 at cycle  15 NSaved=  15.
 NSaved=15 IEnMin=15 EnMin= -1328.75187581474     IErMin=15 ErrMin= 5.01D-07
 ErrMax= 5.01D-07  0.00D+00 EMaxC= 1.00D-01 BMatC= 6.51D-10 BMatP= 3.83D-09
 IDIUse=1 WtCom= 1.00D+00 WtEn= 0.00D+00
 Coeff-Com: -0.993D-05 0.173D-04-0.113D-03-0.284D-03-0.766D-03-0.165D-02
 Coeff-Com: -0.998D-03 0.679D-02 0.104D-01 0.676D-03-0.186D-01-0.758D-01
 Coeff-Com:  0.809D-02 0.305D+00 0.768D+00
 Coeff:     -0.993D-05 0.173D-04-0.113D-03-0.284D-03-0.766D-03-0.165D-02
 Coeff:     -0.998D-03 0.679D-02 0.104D-01 0.676D-03-0.186D-01-0.758D-01
 Coeff:      0.809D-02 0.305D+00 0.768D+00
 Gap=     0.149 Goal=   None    Shift=    0.000
 Gap=     0.060 Goal=   None    Shift=    0.000
 RMSDP=4.99D-08 MaxDP=6.04D-06 DE=-3.03D-09 OVMax= 2.22D-05

 Cycle  16  Pass 1  IDiag  1:
 RMSU=  3.05D-08    CP:  9.56D-01  2.01D+00  8.08D-01  6.62D-01  7.62D-01
                    CP:  1.48D+00  1.95D+00  2.14D+00  1.64D+00  1.87D+00
                    CP:  1.52D+00  1.47D+00  1.14D+00  1.29D+00  1.12D+00
 E= -1328.75187581528     Delta-E=       -0.000000000539 Rises=F Damp=F
 DIIS: error= 3.49D-07 at cycle  16 NSaved=  16.
 NSaved=16 IEnMin=16 EnMin= -1328.75187581528     IErMin=16 ErrMin= 3.49D-07
 ErrMax= 3.49D-07  0.00D+00 EMaxC= 1.00D-01 BMatC= 3.02D-10 BMatP= 6.51D-10
 IDIUse=1 WtCom= 1.00D+00 WtEn= 0.00D+00
 Coeff-Com:  0.644D-05-0.640D-05 0.542D-04 0.980D-04 0.623D-04-0.268D-03
 Coeff-Com: -0.218D-02-0.294D-02 0.414D-02 0.198D-01 0.108D-01-0.425D-01
 Coeff-Com: -0.102D+00-0.169D+00 0.453D+00 0.832D+00
 Coeff:      0.644D-05-0.640D-05 0.542D-04 0.980D-04 0.623D-04-0.268D-03
 Coeff:     -0.218D-02-0.294D-02 0.414D-02 0.198D-01 0.108D-01-0.425D-01
 Coeff:     -0.102D+00-0.169D+00 0.453D+00 0.832D+00
 Gap=     0.149 Goal=   None    Shift=    0.000
 Gap=     0.060 Goal=   None    Shift=    0.000
 RMSDP=4.43D-08 MaxDP=4.75D-06 DE=-5.39D-10 OVMax= 1.72D-05

 Cycle  17  Pass 1  IDiag  1:
 RMSU=  1.30D-08    CP:  9.56D-01  2.01D+00  8.08D-01  6.62D-01  7.62D-01
                    CP:  1.48D+00  1.95D+00  2.14D+00  1.64D+00  1.87D+00
                    CP:  1.52D+00  1.49D+00  1.20D+00  1.44D+00  1.51D+00
                    CP:  1.09D+00
 E= -1328.75187581547     Delta-E=       -0.000000000190 Rises=F Damp=F
 DIIS: error= 1.20D-07 at cycle  17 NSaved=  17.
 NSaved=17 IEnMin=17 EnMin= -1328.75187581547     IErMin=17 ErrMin= 1.20D-07
 ErrMax= 1.20D-07  0.00D+00 EMaxC= 1.00D-01 BMatC= 2.65D-11 BMatP= 3.02D-10
 IDIUse=1 WtCom= 1.00D+00 WtEn= 0.00D+00
 Coeff-Com:  0.402D-05-0.524D-05 0.345D-04 0.720D-04 0.133D-03 0.196D-03
 Coeff-Com: -0.498D-03-0.187D-02-0.249D-03 0.532D-02 0.583D-02-0.223D-03
 Coeff-Com: -0.313D-01-0.937D-01 0.455D-01 0.223D+00 0.847D+00
 Coeff:      0.402D-05-0.524D-05 0.345D-04 0.720D-04 0.133D-03 0.196D-03
 Coeff:     -0.498D-03-0.187D-02-0.249D-03 0.532D-02 0.583D-02-0.223D-03
 Coeff:     -0.313D-01-0.937D-01 0.455D-01 0.223D+00 0.847D+00
 Gap=     0.149 Goal=   None    Shift=    0.000
 Gap=     0.060 Goal=   None    Shift=    0.000
 RMSDP=1.33D-08 MaxDP=2.12D-06 DE=-1.90D-10 OVMax= 4.65D-06

 Cycle  18  Pass 1  IDiag  1:
 RMSU=  6.93D-09    CP:  9.56D-01  2.01D+00  8.08D-01  6.62D-01  7.62D-01
                    CP:  1.48D+00  1.95D+00  2.14D+00  1.64D+00  1.87D+00
                    CP:  1.52D+00  1.49D+00  1.21D+00  1.47D+00  1.61D+00
                    CP:  1.26D+00  1.19D+00
 E= -1328.75187581556     Delta-E=       -0.000000000086 Rises=F Damp=F
 DIIS: error= 9.33D-08 at cycle  18 NSaved=  18.
 NSaved=18 IEnMin=18 EnMin= -1328.75187581556     IErMin=18 ErrMin= 9.33D-08
 ErrMax= 9.33D-08  0.00D+00 EMaxC= 1.00D-01 BMatC= 1.77D-11 BMatP= 2.65D-11
 IDIUse=1 WtCom= 1.00D+00 WtEn= 0.00D+00
 Coeff-Com:  0.966D-06-0.183D-05 0.704D-05 0.177D-04 0.659D-04 0.195D-03
 Coeff-Com:  0.308D-03-0.341D-03-0.129D-02-0.214D-02 0.304D-03 0.118D-01
 Coeff-Com:  0.892D-02-0.111D-01-0.986D-01-0.109D+00 0.539D+00 0.662D+00
 Coeff:      0.966D-06-0.183D-05 0.704D-05 0.177D-04 0.659D-04 0.195D-03
 Coeff:      0.308D-03-0.341D-03-0.129D-02-0.214D-02 0.304D-03 0.118D-01
 Coeff:      0.892D-02-0.111D-01-0.986D-01-0.109D+00 0.539D+00 0.662D+00
 Gap=     0.149 Goal=   None    Shift=    0.000
 Gap=     0.060 Goal=   None    Shift=    0.000
 RMSDP=7.76D-09 MaxDP=1.48D-06 DE=-8.64D-11 OVMax= 2.64D-06

[...]
 Coeff-En:   0.100D+01
 Coeff:      0.100D+01
 Recover alternate guess density for next cycle.
 RMSDP=1.88D-03 MaxDP=1.10D-01              OVMax= 0.00D+00

 Cycle   2  Pass 1  IDiag  1:
 RMSU=  1.86D-03    CP:  1.02D+00
 E= -1327.96954526973     Delta-E=        0.678561064393 Rises=F Damp=F
 Switch densities from cycles 1 and 2 for lowest energy.
 DIIS: error= 3.09D-02 at cycle   2 NSaved=   2.
 NSaved= 2 IEnMin= 1 EnMin= -1328.64810633412     IErMin= 1 ErrMin= 1.75D-02
 ErrMax= 3.09D-02  0.00D+00 EMaxC= 1.00D+00 BMatC= 3.07D+00 BMatP= 2.85D-01
 IDIUse=1 WtCom= 1.00D+00 WtEn= 0.00D+00
 Coeff-Com:  0.926D+00 0.737D-01
 Coeff:      0.926D+00 0.737D-01
 Gap=     0.148 Goal=   None    Shift=    0.000
 Gap=     0.062 Goal=   None    Shift=    0.000
 RMSDP=6.61D-04 MaxDP=3.40D-02 DE= 6.79D-01 OVMax= 2.61D-01

 Cycle   3  Pass 1  IDiag  1:
 RMSU=  6.39D-04    CP:  9.97D-01  8.83D-02
 E= -1328.76619881518     Delta-E=       -0.796653545450 Rises=F Damp=F
 DIIS: error= 4.10D-03 at cycle   3 NSaved=   3.
 NSaved= 3 IEnMin= 3 EnMin= -1328.76619881518     IErMin= 3 ErrMin= 4.10D-03
 ErrMax= 4.10D-03  0.00D+00 EMaxC= 1.00D+00 BMatC= 4.63D-02 BMatP= 2.85D-01
 IDIUse=1 WtCom= 1.00D+00 WtEn= 0.00D+00
 Coeff-Com:  0.210D-01 0.863D-01 0.893D+00
 Coeff:      0.210D-01 0.863D-01 0.893D+00
 Gap=     0.147 Goal=   None    Shift=    0.000
 Gap=     0.060 Goal=   None    Shift=    0.000
 RMSDP=2.71D-04 MaxDP=3.22D-02 DE=-7.97D-01 OVMax= 4.75D-02

 Cycle   4  Pass 1  IDiag  1:
 RMSU=  2.45D-04    CP:  9.97D-01  1.41D-01  9.01D-01
 E= -1328.76962279885     Delta-E=       -0.003423983667 Rises=F Damp=F
 DIIS: error= 3.97D-03 at cycle   4 NSaved=   4.
 NSaved= 4 IEnMin= 4 EnMin= -1328.76962279885     IErMin= 4 ErrMin= 3.97D-03
 ErrMax= 3.97D-03  0.00D+00 EMaxC= 1.00D+00 BMatC= 3.82D-02 BMatP= 4.63D-02
 IDIUse=1 WtCom= 1.00D+00 WtEn= 0.00D+00
 Coeff-Com: -0.386D-01 0.470D-01 0.575D+00 0.417D+00
 Coeff:     -0.386D-01 0.470D-01 0.575D+00 0.417D+00
 Gap=     0.146 Goal=   None    Shift=    0.000
 Gap=     0.061 Goal=   None    Shift=    0.000
 RMSDP=1.58D-04 MaxDP=2.12D-02 DE=-3.42D-03 OVMax= 3.28D-02

 Cycle   5  Pass 1  IDiag  1:
 RMSU=  6.70D-05    CP:  9.97D-01  1.48D-01  9.71D-01  4.49D-01
 E= -1328.77731635948     Delta-E=       -0.007693560634 Rises=F Damp=F
 DIIS: error= 8.92D-04 at cycle   5 NSaved=   5.
 NSaved= 5 IEnMin= 5 EnMin= -1328.77731635948     IErMin= 5 ErrMin= 8.92D-04
 ErrMax= 8.92D-04  0.00D+00 EMaxC= 1.00D+00 BMatC= 1.14D-03 BMatP= 3.82D-02
 IDIUse=1 WtCom= 1.00D+00 WtEn= 0.00D+00
 Coeff-Com: -0.136D-01 0.881D-02 0.167D+00 0.192D+00 0.646D+00
 Coeff:     -0.136D-01 0.881D-02 0.167D+00 0.192D+00 0.646D+00
 Gap=     0.146 Goal=   None    Shift=    0.000
 Gap=     0.061 Goal=   None    Shift=    0.000
 RMSDP=3.13D-05 MaxDP=3.73D-03 DE=-7.69D-03 OVMax= 6.57D-03

 Cycle   6  Pass 1  IDiag  1:
 RMSU=  2.25D-05    CP:  9.97D-01  1.45D-01  9.74D-01  4.91D-01  7.27D-01
 E= -1328.77752881140     Delta-E=       -0.000212451916 Rises=F Damp=F
 DIIS: error= 3.79D-04 at cycle   6 NSaved=   6.
 NSaved= 6 IEnMin= 6 EnMin= -1328.77752881140     IErMin= 6 ErrMin= 3.79D-04
 ErrMax= 3.79D-04  0.00D+00 EMaxC= 1.00D+00 BMatC= 1.75D-04 BMatP= 1.14D-03
 IDIUse=1 WtCom= 1.00D+00 WtEn= 0.00D+00
 Coeff-Com: -0.476D-02 0.154D-02 0.519D-01 0.818D-01 0.372D+00 0.497D+00
 Coeff:     -0.476D-02 0.154D-02 0.519D-01 0.818D-01 0.372D+00 0.497D+00
 Gap=     0.146 Goal=   None    Shift=    0.000
 Gap=     0.061 Goal=   None    Shift=    0.000
 RMSDP=1.36D-05 MaxDP=1.94D-03 DE=-2.12D-04 OVMax= 4.45D-03

 Cycle   7  Pass 1  IDiag  1:
 RMSU=  8.94D-06    CP:  9.97D-01  1.45D-01  9.74D-01  4.94D-01  7.86D-01
                    CP:  5.83D-01
 E= -1328.77756931110     Delta-E=       -0.000040499704 Rises=F Damp=F
 DIIS: error= 1.34D-04 at cycle   7 NSaved=   7.
 NSaved= 7 IEnMin= 7 EnMin= -1328.77756931110     IErMin= 7 ErrMin= 1.34D-04
 ErrMax= 1.34D-04  0.00D+00 EMaxC= 1.00D+00 BMatC= 2.15D-05 BMatP= 1.75D-04
 IDIUse=1 WtCom= 1.00D+00 WtEn= 0.00D+00
 Coeff-Com: -0.109D-02-0.176D-03 0.883D-02 0.238D-01 0.126D+00 0.294D+00
 Coeff-Com:  0.548D+00
 Coeff:     -0.109D-02-0.176D-03 0.883D-02 0.238D-01 0.126D+00 0.294D+00
 Coeff:      0.548D+00
 Gap=     0.146 Goal=   None    Shift=    0.000
 Gap=     0.061 Goal=   None    Shift=    0.000
 RMSDP=4.24D-06 MaxDP=5.15D-04 DE=-4.05D-05 OVMax= 9.61D-04

 Cycle   8  Pass 1  IDiag  1:
 RMSU=  3.38D-06    CP:  9.97D-01  1.45D-01  9.74D-01  4.98D-01  7.90D-01
                    CP:  6.63D-01  8.34D-01
 E= -1328.77757515305     Delta-E=       -0.000005841949 Rises=F Damp=F
 DIIS: error= 3.04D-05 at cycle   8 NSaved=   8.
 NSaved= 8 IEnMin= 8 EnMin= -1328.77757515305     IErMin= 8 ErrMin= 3.04D-05
 ErrMax= 3.04D-05  0.00D+00 EMaxC= 1.00D+00 BMatC= 1.57D-06 BMatP= 2.15D-05
 IDIUse=1 WtCom= 1.00D+00 WtEn= 0.00D+00
 Coeff-Com:  0.213D-03-0.264D-03-0.369D-02-0.120D-02-0.399D-02 0.544D-01
 Coeff-Com:  0.194D+00 0.760D+00
 Coeff:      0.213D-03-0.264D-03-0.369D-02-0.120D-02-0.399D-02 0.544D-01
 Coeff:      0.194D+00 0.760D+00
 Gap=     0.146 Goal=   None    Shift=    0.000
 Gap=     0.061 Goal=   None    Shift=    0.000
 RMSDP=2.30D-06 MaxDP=2.70D-04 DE=-5.84D-06 OVMax= 9.44D-04

 Cycle   9  Pass 1  IDiag  1:
 RMSU=  1.66D-06    CP:  9.97D-01  1.45D-01  9.74D-01  4.99D-01  7.95D-01
                    CP:  6.99D-01  9.63D-01  1.16D+00
 E= -1328.77757629632     Delta-E=       -0.000001143267 Rises=F Damp=F
 DIIS: error= 2.25D-05 at cycle   9 NSaved=   9.
 NSaved= 9 IEnMin= 9 EnMin= -1328.77757629632     IErMin= 9 ErrMin= 2.25D-05
 ErrMax= 2.25D-05  0.00D+00 EMaxC= 1.00D+00 BMatC= 5.83D-07 BMatP= 1.57D-06
 IDIUse=1 WtCom= 1.00D+00 WtEn= 0.00D+00
 Coeff-Com:  0.367D-03-0.571D-04-0.377D-02-0.636D-02-0.368D-01-0.561D-01
 Coeff-Com: -0.892D-01 0.320D+00 0.872D+00
 Coeff:      0.367D-03-0.571D-04-0.377D-02-0.636D-02-0.368D-01-0.561D-01
 Coeff:     -0.892D-01 0.320D+00 0.872D+00
 Gap=     0.146 Goal=   None    Shift=    0.000
 Gap=     0.062 Goal=   None    Shift=    0.000
 RMSDP=1.87D-06 MaxDP=2.07D-04 DE=-1.14D-06 OVMax= 8.81D-04

 Cycle  10  Pass 1  IDiag  1:
 RMSU=  9.32D-07    CP:  9.97D-01  1.45D-01  9.74D-01  4.99D-01  8.00D-01
                    CP:  7.19D-01  1.06D+00  1.50D+00  1.31D+00
 E= -1328.77757684917     Delta-E=       -0.000000552849 Rises=F Damp=F
 DIIS: error= 1.19D-05 at cycle  10 NSaved=  10.
 NSaved=10 IEnMin=10 EnMin= -1328.77757684917     IErMin=10 ErrMin= 1.19D-05
 ErrMax= 1.19D-05  0.00D+00 EMaxC= 1.00D+00 BMatC= 2.20D-07 BMatP= 5.83D-07
 IDIUse=1 WtCom= 1.00D+00 WtEn= 0.00D+00
 Coeff-Com:  0.165D-03 0.526D-04-0.120D-02-0.341D-02-0.218D-01-0.511D-01
 Coeff-Com: -0.122D+00-0.430D-01 0.518D+00 0.724D+00
 Coeff:      0.165D-03 0.526D-04-0.120D-02-0.341D-02-0.218D-01-0.511D-01
 Coeff:     -0.122D+00-0.430D-01 0.518D+00 0.724D+00
 Gap=     0.146 Goal=   None    Shift=    0.000
 Gap=     0.062 Goal=   None    Shift=    0.000
 RMSDP=1.24D-06 MaxDP=1.26D-04 DE=-5.53D-07 OVMax= 6.71D-04

 Cycle  11  Pass 1  IDiag  1:
 RMSU=  4.88D-07    CP:  9.97D-01  1.45D-01  9.74D-01  4.99D-01  8.01D-01
                    CP:  7.32D-01  1.12D+00  1.71D+00  1.71D+00  9.28D-01
 E= -1328.77757704156     Delta-E=       -0.000000192390 Rises=F Damp=F
 DIIS: error= 5.08D-06 at cycle  11 NSaved=  11.
 NSaved=11 IEnMin=11 EnMin= -1328.77757704156     IErMin=11 ErrMin= 5.08D-06
 ErrMax= 5.08D-06  0.00D+00 EMaxC= 1.00D+00 BMatC= 5.96D-08 BMatP= 2.20D-07
 IDIUse=1 WtCom= 1.00D+00 WtEn= 0.00D+00
 Coeff-Com: -0.350D-05 0.387D-04 0.321D-03-0.141D-03-0.213D-02-0.117D-01
 Coeff-Com: -0.418D-01-0.824D-01 0.455D-01 0.399D+00 0.694D+00
 Coeff:     -0.350D-05 0.387D-04 0.321D-03-0.141D-03-0.213D-02-0.117D-01
 Coeff:     -0.418D-01-0.824D-01 0.455D-01 0.399D+00 0.694D+00
 Gap=     0.146 Goal=   None    Shift=    0.000
 Gap=     0.062 Goal=   None    Shift=    0.000
 RMSDP=5.13D-07 MaxDP=6.04D-05 DE=-1.92D-07 OVMax= 2.58D-04

 Cycle  12  Pass 1  IDiag  1:
 RMSU=  2.58D-07    CP:  9.97D-01  1.45D-01  9.74D-01  5.00D-01  8.02D-01
                    CP:  7.35D-01  1.14D+00  1.78D+00  1.84D+00  1.16D+00
                    CP:  1.08D+00
 E= -1328.77757708421     Delta-E=       -0.000000042654 Rises=F Damp=F
 DIIS: error= 3.45D-06 at cycle  12 NSaved=  12.
 NSaved=12 IEnMin=12 EnMin= -1328.77757708421     IErMin=12 ErrMin= 3.45D-06
 ErrMax= 3.45D-06  0.00D+00 EMaxC= 1.00D+00 BMatC= 2.04D-08 BMatP= 5.96D-08
 IDIUse=1 WtCom= 1.00D+00 WtEn= 0.00D+00
 Coeff-Com: -0.517D-04 0.584D-05 0.596D-03 0.955D-03 0.543D-02 0.881D-02
 Coeff-Com:  0.109D-01-0.360D-01-0.149D+00 0.469D-01 0.427D+00 0.684D+00
 Coeff:     -0.517D-04 0.584D-05 0.596D-03 0.955D-03 0.543D-02 0.881D-02
 Coeff:      0.109D-01-0.360D-01-0.149D+00 0.469D-01 0.427D+00 0.684D+00
 Gap=     0.146 Goal=   None    Shift=    0.000
 Gap=     0.062 Goal=   None    Shift=    0.000
 RMSDP=3.13D-07 MaxDP=3.68D-05 DE=-4.27D-08 OVMax= 1.35D-04

 Cycle  13  Pass 1  IDiag  1:
 RMSU=  1.29D-07    CP:  9.97D-01  1.45D-01  9.74D-01  5.00D-01  8.02D-01
                    CP:  7.37D-01  1.15D+00  1.82D+00  1.93D+00  1.27D+00
                    CP:  1.39D+00  1.11D+00
 E= -1328.77757710104     Delta-E=       -0.000000016831 Rises=F Damp=F
 DIIS: error= 1.89D-06 at cycle  13 NSaved=  13.
 NSaved=13 IEnMin=13 EnMin= -1328.77757710104     IErMin=13 ErrMin= 1.89D-06
 ErrMax= 1.89D-06  0.00D+00 EMaxC= 1.00D+00 BMatC= 4.28D-09 BMatP= 2.04D-08
 IDIUse=1 WtCom= 1.00D+00 WtEn= 0.00D+00
 Coeff-Com: -0.209D-04-0.911D-05 0.147D-03 0.416D-03 0.286D-02 0.737D-02
 Coeff-Com:  0.162D-01 0.116D-01-0.790D-01-0.767D-01-0.382D-01 0.260D+00
 Coeff-Com:  0.895D+00
 Coeff:     -0.209D-04-0.911D-05 0.147D-03 0.416D-03 0.286D-02 0.737D-02
 Coeff:      0.162D-01 0.116D-01-0.790D-01-0.767D-01-0.382D-01 0.260D+00
 Coeff:      0.895D+00
 Gap=     0.146 Goal=   None    Shift=    0.000
 Gap=     0.062 Goal=   None    Shift=    0.000
 RMSDP=2.04D-07 MaxDP=2.63D-05 DE=-1.68D-08 OVMax= 1.00D-04

 Cycle  14  Pass 1  IDiag  1:
 RMSU=  7.61D-08    CP:  9.97D-01  1.45D-01  9.74D-01  5.00D-01  8.03D-01
                    CP:  7.38D-01  1.15D+00  1.84D+00  1.98D+00  1.34D+00
                    CP:  1.60D+00  1.46D+00  1.32D+00
 E= -1328.77757710705     Delta-E=       -0.000000006007 Rises=F Damp=F
 DIIS: error= 1.17D-06 at cycle  14 NSaved=  14.
 NSaved=14 IEnMin=14 EnMin= -1328.77757710705     IErMin=14 ErrMin= 1.17D-06
 ErrMax= 1.17D-06  0.00D+00 EMaxC= 1.00D+00 BMatC= 2.46D-09 BMatP= 4.28D-09
 IDIUse=1 WtCom= 1.00D+00 WtEn= 0.00D+00
 Coeff-Com:  0.720D-05-0.746D-05-0.157D-03-0.140D-03-0.481D-03 0.111D-02
 Coeff-Com:  0.546D-02 0.239D-01 0.110D-01-0.634D-01-0.223D+00-0.140D+00
 Coeff-Com:  0.590D+00 0.796D+00
 Coeff:      0.720D-05-0.746D-05-0.157D-03-0.140D-03-0.481D-03 0.111D-02
 Coeff:      0.546D-02 0.239D-01 0.110D-01-0.634D-01-0.223D+00-0.140D+00
 Coeff:      0.590D+00 0.796D+00
 Gap=     0.146 Goal=   None    Shift=    0.000
 Gap=     0.062 Goal=   None    Shift=    0.000
 RMSDP=1.53D-07 MaxDP=2.25D-05 DE=-6.01D-09 OVMax= 8.01D-05

 Cycle  15  Pass 1  IDiag  1:
 RMSU=  4.48D-08    CP:  9.97D-01  1.45D-01  9.74D-01  5.00D-01  8.03D-01
                    CP:  7.38D-01  1.15D+00  1.85D+00  2.00D+00  1.39D+00
                    CP:  1.74D+00  1.73D+00  1.84D+00  1.13D+00
 E= -1328.77757710994     Delta-E=       -0.000000002894 Rises=F Damp=F
 DIIS: error= 4.60D-07 at cycle  15 NSaved=  15.
 NSaved=15 IEnMin=15 EnMin= -1328.77757710994     IErMin=15 ErrMin= 4.60D-07
 ErrMax= 4.60D-07  0.00D+00 EMaxC= 1.00D+00 BMatC= 3.43D-10 BMatP= 2.46D-09
 IDIUse=1 WtCom= 1.00D+00 WtEn= 0.00D+00
 Coeff-Com:  0.922D-05 0.576D-07-0.101D-03-0.170D-03-0.105D-02-0.183D-02
 Coeff-Com: -0.355D-02 0.440D-02 0.266D-01 0.312D-02-0.622D-01-0.115D+00
 Coeff-Com: -0.674D-01 0.257D+00 0.961D+00
 Coeff:      0.922D-05 0.576D-07-0.101D-03-0.170D-03-0.105D-02-0.183D-02
 Coeff:     -0.355D-02 0.440D-02 0.266D-01 0.312D-02-0.622D-01-0.115D+00
 Coeff:     -0.674D-01 0.257D+00 0.961D+00
 Gap=     0.146 Goal=   None    Shift=    0.000
 Gap=     0.062 Goal=   None    Shift=    0.000
 RMSDP=7.72D-08 MaxDP=1.06D-05 DE=-2.89D-09 OVMax= 4.12D-05

 Cycle  16  Pass 1  IDiag  1:
 RMSU=  2.23D-08    CP:  9.97D-01  1.45D-01  9.74D-01  5.00D-01  8.03D-01
                    CP:  7.39D-01  1.15D+00  1.85D+00  2.02D+00  1.41D+00
                    CP:  1.80D+00  1.85D+00  2.10D+00  1.51D+00  1.31D+00
 E= -1328.77757711049     Delta-E=       -0.000000000546 Rises=F Damp=F
 DIIS: error= 2.23D-07 at cycle  16 NSaved=  16.
 NSaved=16 IEnMin=16 EnMin= -1328.77757711049     IErMin=16 ErrMin= 2.23D-07
 ErrMax= 2.23D-07  0.00D+00 EMaxC= 1.00D+00 BMatC= 1.41D-10 BMatP= 3.43D-10
 IDIUse=1 WtCom= 1.00D+00 WtEn= 0.00D+00
 Coeff-Com:  0.331D-05 0.173D-05-0.222D-04-0.564D-04-0.475D-03-0.117D-02
 Coeff-Com: -0.307D-02-0.224D-02 0.129D-01 0.120D-01 0.128D-01-0.338D-01
 Coeff-Com: -0.163D+00-0.199D-01 0.499D+00 0.687D+00
 Coeff:      0.331D-05 0.173D-05-0.222D-04-0.564D-04-0.475D-03-0.117D-02
 Coeff:     -0.307D-02-0.224D-02 0.129D-01 0.120D-01 0.128D-01-0.338D-01
 Coeff:     -0.163D+00-0.199D-01 0.499D+00 0.687D+00
 Gap=     0.146 Goal=   None    Shift=    0.000
 Gap=     0.062 Goal=   None    Shift=    0.000
 RMSDP=2.97D-08 MaxDP=4.23D-06 DE=-5.46D-10 OVMax= 1.60D-05

 Cycle  17  Pass 1  IDiag  1:
 RMSU=  1.21D-08    CP:  9.97D-01  1.46D-01  9.74D-01  5.00D-01  8.03D-01
                    CP:  7.39D-01  1.15D+00  1.86D+00  2.02D+00  1.42D+00
                    CP:  1.82D+00  1.89D+00  2.20D+00  1.64D+00  1.62D+00
                    CP:  1.04D+00
 E= -1328.77757711061     Delta-E=       -0.000000000125 Rises=F Damp=F
 DIIS: error= 1.47D-07 at cycle  17 NSaved=  17.
 NSaved=17 IEnMin=17 EnMin= -1328.77757711061     IErMin=17 ErrMin= 1.47D-07
 ErrMax= 1.47D-07  0.00D+00 EMaxC= 1.00D+00 BMatC= 4.22D-11 BMatP= 1.41D-10
 IDIUse=1 WtCom= 1.00D+00 WtEn= 0.00D+00
 Coeff-Com: -0.173D-05 0.695D-06 0.276D-04 0.446D-04 0.174D-03 0.169D-03
 Coeff-Com: -0.231D-03-0.311D-02-0.352D-02 0.271D-02 0.348D-01 0.308D-01
 Coeff-Com: -0.623D-01-0.103D+00-0.140D+00 0.364D+00 0.879D+00
 Coeff:     -0.173D-05 0.695D-06 0.276D-04 0.446D-04 0.174D-03 0.169D-03
 Coeff:     -0.231D-03-0.311D-02-0.352D-02 0.271D-02 0.348D-01 0.308D-01
 Coeff:     -0.623D-01-0.103D+00-0.140D+00 0.364D+00 0.879D+00
 Gap=     0.146 Goal=   None    Shift=    0.000
 Gap=     0.062 Goal=   None    Shift=    0.000
 RMSDP=1.89D-08 MaxDP=2.80D-06 DE=-1.25D-10 OVMax= 1.03D-05

 Cycle  18  Pass 1  IDiag  1:
 RMSU=  5.77D-09    CP:  9.97D-01  1.46D-01  9.74D-01  5.00D-01  8.03D-01
                    CP:  7.39D-01  1.15D+00  1.86D+00  2.02D+00  1.42D+00
                    CP:  1.82D+00  1.91D+00  2.25D+00  1.74D+00  1.83D+00
                    CP:  1.46D+00  1.17D+00
 E= -1328.77757711070     Delta-E=       -0.000000000088 Rises=F Damp=F
 DIIS: error= 5.41D-08 at cycle  18 NSaved=  18.
 NSaved=18 IEnMin=18 EnMin= -1328.77757711070     IErMin=18 ErrMin= 5.41D-08
 ErrMax= 5.41D-08  0.00D+00 EMaxC= 1.00D+00 BMatC= 8.64D-12 BMatP= 4.22D-11
 IDIUse=1 WtCom= 1.00D+00 WtEn= 0.00D+00
 Coeff-Com: -0.130D-05 0.163D-06 0.164D-04 0.304D-04 0.142D-03 0.239D-03
 Coeff-Com:  0.270D-03-0.130D-02-0.295D-02-0.102D-02 0.164D-01 0.202D-01
 Coeff-Com: -0.134D-01-0.434D-01-0.142D+00 0.994D-01 0.433D+00 0.635D+00
 Coeff:     -0.130D-05 0.163D-06 0.164D-04 0.304D-04 0.142D-03 0.239D-03
 Coeff:      0.270D-03-0.130D-02-0.295D-02-0.102D-02 0.164D-01 0.202D-01
 Coeff:     -0.134D-01-0.434D-01-0.142D+00 0.994D-01 0.433D+00 0.635D+00
 Gap=     0.146 Goal=   None    Shift=    0.000
 Gap=     0.062 Goal=   None    Shift=    0.000
 RMSDP=5.64D-09 MaxDP=7.51D-07 DE=-8.82D-11 OVMax= 2.30D-06

 Error on total polarization charges =  0.04410
 SCF Done:  E(UB3LYP) =  -1328.77757711     A.U. after   18 cycles
            NFock= 18  Conv=0.56D-08     -V/T= 2.0093
 <Sx>= 0.0000 <Sy>= 0.0000 <Sz>= 0.5000 <S**2>= 0.7612 S= 0.5056
 <L.S>= 0.000000000000E+00
 KE= 1.316486010458D+03 PE=-9.481754249547D+03 EE= 3.621906656053D+03
 Annihilation of the first spin contaminant:
 S**2 before annihilation     0.7612,   after     0.7501
 Leave Link  502 at Thu Dec 20 18:58:51 2018, MaxMem=  1342177280 cpu:            3663.3 elap:             233.6
 (Enter /gpfs/apps/hpc/Apps/Restricted/Gaussian/Rev_A.03/g16/l801.exe)
 DoSCS=F DFT=T ScalE2(SS,OS)=  1.000000  1.000000
 Range of M.O.s used for correlation:     1   665
 NBasis=   665 NAE=   117 NBE=   116 NFC=     0 NFV=     0
 NROrb=    665 NOA=   117 NOB=   116 NVA=   548 NVB=   549

 **** Warning!!: The smallest beta delta epsilon is  0.61545402D-01

 Leave Link  801 at Thu Dec 20 18:58:51 2018, MaxMem=  1342177280 cpu:               1.9 elap:               0.1
 (Enter /gpfs/apps/hpc/Apps/Restricted/Gaussian/Rev_A.03/g16/l1101.exe)
 Using compressed storage, NAtomX=    69.
 Will process     70 centers per pass.
 R6Disp: Adding Grimme-D3(BJ) dispersion energy 1st derivatives to the gradient.
 Leave Link 1101 at Thu Dec 20 18:58:53 2018, MaxMem=  1342177280 cpu:              26.3 elap:               1.7
 (Enter /gpfs/apps/hpc/Apps/Restricted/Gaussian/Rev_A.03/g16/l1102.exe)
 Symmetrizing basis deriv contribution to polar:
 IMax=3 JMax=2 DiffMx= 0.00D+00
 Leave Link 1102 at Thu Dec 20 18:58:53 2018, MaxMem=  1342177280 cpu:               1.0 elap:               0.1
 (Enter /gpfs/apps/hpc/Apps/Restricted/Gaussian/Rev_A.03/g16/l1110.exe)
 Forming Gx(P) for the SCF density, NAtomX=    69.
 Integral derivatives from FoFJK, PRISM(SPDF).
 Do as many integral derivatives as possible in FoFJK.
 G2DrvN: MDV=    1342172176.
 G2DrvN: will do    35 centers at a time, making    2 passes.
 G2DrvN:  IPasSy=1 do centers    0 through   34.
 Calling FoFCou, ICntrl=  3107 FMM=T I1Cent=   0 AccDes= 0.00D+00.
 FoFJK:  IHMeth= 1 ICntrl=    3107 DoSepK=F KAlg= 0 I1Cent=           0 FoldK=F
 IRaf=         0 NMat=       1 IRICut=       1 DoRegI=T DoRafI=F ISym2E= 0 IDoP0=0 IntGTp=1.
 FoFCou: FMM=T IPFlag=           0 FMFlag=      100000 FMFlg1=        2001
         NFxFlg=           0 DoJE=F BraDBF=F KetDBF=F FulRan=T
         wScrn=  0.000000 ICntrl=      3107 IOpCl=  1 I1Cent=           0 NGrid=           0
         NMat0=    1 NMatS0=      1 NMatT0=    0 NMatD0=    1 NMtDS0=    0 NMtDT0=    0
 Symmetry not used in FoFCou.
 FMM levels:  10  Number of levels for PrismC:   9
 G2DrvN:  IPasSy=1 do centers   35 through   69.
 Calling FoFCou, ICntrl=  3107 FMM=T I1Cent=   0 AccDes= 0.00D+00.
 NEqPCM:  Using equilibrium solvation (IEInf=0, Eps=   8.9300, EpsInf=   2.0283)
 G2PCM: DoFxE=T DoFxN=T DoGrad=T DoDP/DQ/DG/TGxP=FFFF NFrqRd=   0 IEInf=0 SqF1=F DoCFld=F IF1Alg=4.
 GePol: Maximum number of non-zero 1st derivatives   =     194
 End of G2Drv F.D. properties file   721 does not exist.
 End of G2Drv F.D. properties file   722 does not exist.
 End of G2Drv F.D. properties file   788 does not exist.
 Leave Link 1110 at Thu Dec 20 19:13:16 2018, MaxMem=  1342177280 cpu:           13769.1 elap:             863.1
 (Enter /gpfs/apps/hpc/Apps/Restricted/Gaussian/Rev_A.03/g16/l1002.exe)
 Minotr:  UHF open shell wavefunction.
          IDoAtm=11111111111111111111111111111111111111111111111111
          IDoAtm=1111111111111111111
 NEqPCM:  Using equilibrium solvation (IEInf=0, Eps=   8.9300, EpsInf=   2.0283)
          Direct CPHF calculation.
          Differentiating once with respect to electric field.
                with respect to dipole field.
          Differentiating once with respect to nuclear coordinates.
          Requested convergence is 1.0D-08 RMS, and 1.0D-07 maximum.
          Secondary convergence is 1.0D-12 RMS, and 1.0D-12 maximum.
          NewPWx=T KeepS1=F KeepF1=F KeepIn=T MapXYZ=F SortEE=F KeepMc=T.
        21046 words used for storage of precomputed grid.
 Two-electron integral symmetry not used.
          MDV=    1342177280 using IRadAn=       1.
          Solving linear equations simultaneously, MaxMat=      72.
 FoF2E skips out because all densities are zero.
 CalDSu exits because no D1Ps are significant.
 FoFJK:  IHMeth= 1 ICntrl=       0 DoSepK=F KAlg= 0 I1Cent=           0 FoldK=F
 IRaf= 720000000 NMat=      72 IRICut=       1 DoRegI=T DoRafI=F ISym2E= 0 IDoP0=0 IntGTp=1.
