 Entering Gaussian System, Link 0=g16
 Initial command:
 /gpfs/apps/hpc/Apps/Restricted/Gaussian/Rev_A.03/g16/l1.exe "/gpfs/scratch60/fas/hammes_schiffer/jg2487/c16n12/Gau-3515.inp" -scrdir="/gpfs/scratch60/fas/hammes_schiffer/jg2487/c16n12/"
 Entering Link 1 = /gpfs/apps/hpc/Apps/Restricted/Gaussian/Rev_A.03/g16/l1.exe PID=      3517.
  
 Copyright (c) 1988,1990,1992,1993,1995,1998,2003,2009,2016,
            Gaussian, Inc.  All Rights Reserved.
  
 This is part of the Gaussian(R) 16 program.  It is based on
 the Gaussian(R) 09 system (copyright 2009, Gaussian, Inc.),
 the Gaussian(R) 03 system (copyright 2003, Gaussian, Inc.),
 the Gaussian(R) 98 system (copyright 1998, Gaussian, Inc.),
 the Gaussian(R) 94 system (copyright 1995, Gaussian, Inc.),
 the Gaussian 92(TM) system (copyright 1992, Gaussian, Inc.),
 the Gaussian 90(TM) system (copyright 1990, Gaussian, Inc.),
 the Gaussian 88(TM) system (copyright 1988, Gaussian, Inc.),
 the Gaussian 86(TM) system (copyright 1986, Carnegie Mellon
 University), and the Gaussian 82(TM) system (copyright 1983,
 Carnegie Mellon University). Gaussian is a federally registered
 trademark of Gaussian, Inc.
  
 This software contains proprietary and confidential information,
 including trade secrets, belonging to Gaussian, Inc.
  
 This software is provided under written license and may be
 used, copied, transmitted, or stored only in accord with that
 written license.
  
 The following legend is applicable only to US Government
 contracts under FAR:
  
                    RESTRICTED RIGHTS LEGEND
  
 Use, reproduction and disclosure by the US Government is
 subject to restrictions as set forth in subparagraphs (a)
 and (c) of the Commercial Computer Software - Restricted
 Rights clause in FAR 52.227-19.
  
 Gaussian, Inc.
 340 Quinnipiac St., Bldg. 40, Wallingford CT 06492
  
  
 ---------------------------------------------------------------
 Warning -- This program may not be used in any manner that
 competes with the business of Gaussian, Inc. or will provide
 assistance to any competitor of Gaussian, Inc.  The licensee
 of this program is prohibited from giving any competitor of
 Gaussian, Inc. access to this program.  By using this program,
 the user acknowledges that Gaussian, Inc. is engaged in the
 business of creating and licensing software in the field of
 computational chemistry and represents and warrants to the
 licensee that it is not a competitor of Gaussian, Inc. and that
 it will not use this program in any manner prohibited above.
 ---------------------------------------------------------------
  

 Cite this work as:
 Gaussian 16, Revision A.03,
 M. J. Frisch, G. W. Trucks, H. B. Schlegel, G. E. Scuseria, 
 M. A. Robb, J. R. Cheeseman, G. Scalmani, V. Barone, 
 G. A. Petersson, H. Nakatsuji, X. Li, M. Caricato, A. V. Marenich, 
 J. Bloino, B. G. Janesko, R. Gomperts, B. Mennucci, H. P. Hratchian, 
 J. V. Ortiz, A. F. Izmaylov, J. L. Sonnenberg, D. Williams-Young, 
 F. Ding, F. Lipparini, F. Egidi, J. Goings, B. Peng, A. Petrone, 
 T. Henderson, D. Ranasinghe, V. G. Zakrzewski, J. Gao, N. Rega, 
 G. Zheng, W. Liang, M. Hada, M. Ehara, K. Toyota, R. Fukuda, 
 J. Hasegawa, M. Ishida, T. Nakajima, Y. Honda, O. Kitao, H. Nakai, 
 T. Vreven, K. Throssell, J. A. Montgomery, Jr., J. E. Peralta, 
 F. Ogliaro, M. J. Bearpark, J. J. Heyd, E. N. Brothers, K. N. Kudin, 
 V. N. Staroverov, T. A. Keith, R. Kobayashi, J. Normand, 
 K. Raghavachari, A. P. Rendell, J. C. Burant, S. S. Iyengar, 
 J. Tomasi, M. Cossi, J. M. Millam, M. Klene, C. Adamo, R. Cammi, 
 J. W. Ochterski, R. L. Martin, K. Morokuma, O. Farkas, 
 J. B. Foresman, and D. J. Fox, Gaussian, Inc., Wallingford CT, 2016.
 
 ******************************************
 Gaussian 16:  ES64L-G16RevA.03 25-Dec-2016
                17-Dec-2018 
 ******************************************
 %chk=cyclohexyl-monoBIP-TS1_rev.chk
 %mem=10GB
 %nprocshared=16
 Will use up to   16 processors via shared memory.
 ----------------------------------------------------------------------
 #p opt=(calcall,tight,ts,noeigentest) freq=internalmodes b3lyp/6-31g(d
 ,p) scrf=(cpcm,solvent=dichloromethane,read) nosymm empiricaldispersio
 n=gd3bj int=grid=ultrafine
 ----------------------------------------------------------------------
 1/5=1,7=10,10=4,11=1,18=20,26=6,38=1,40=2/1,3;
 2/9=110,12=2,15=1,17=6,18=5,40=1/2;
 3/5=1,6=6,7=101,11=2,25=1,30=1,70=2103,71=2,72=9,74=-5,75=-5,124=41,140=1/1,2,3;
 4//1;
 5/5=2,38=5,53=9/2;
 8/6=4,10=90,11=11/1;
 11/6=1,8=1,9=11,15=111,16=1,31=1/1,2,10;
 10/6=1,31=1/2;
 6/7=2,8=2,9=2,10=2,18=1,28=1/1;
 7/10=1,25=1,30=1/1,2,3,16;
 1/5=1,7=10,10=4,11=1,18=20,26=6/3(3);
 2/9=110,15=1/2;
 7/8=21,9=1,25=1,30=1,44=-1/16;
 99//99;
 2/9=110,15=1/2;
 3/5=1,6=6,7=101,11=2,25=1,30=1,70=2105,71=2,72=9,74=-5,75=-5,124=41,140=1/1,2,3;
 4/5=5,16=3,69=1/1;
 5/5=2,38=5,53=9/2;
 8/6=4,10=90,11=11/1;
 11/6=1,8=1,9=11,15=111,16=1,31=1/1,2,10;
 10/6=1,31=1/2;
 7/10=1,25=1,30=1/1,2,3,16;
 1/5=1,7=10,10=4,11=1,18=20,26=6/3(-8);
 2/9=110,15=1/2;
 6/7=2,8=2,9=2,10=2,18=1,19=2,28=1/1;
 7/8=21,9=1,25=1,30=1,44=-1/16;
 99//99;
 Leave Link    1 at Mon Dec 17 13:58:53 2018, MaxMem=  1342177280 cpu:               8.0 elap:               0.5
 (Enter /gpfs/apps/hpc/Apps/Restricted/Gaussian/Rev_A.03/g16/l101.exe)
 ----------------------------------------------------------------------
 cyclohexylimine monoBIP oxidized, TS proton to imine, proton still on 
 phenol
 ----------------------------------------------------------------------
 Symbolic Z-matrix:
 Charge =  1 Multiplicity = 2
 C                    -0.56914   2.97565   0.35301 
 C                    -1.96117   3.10401   0.27713 
 C                    -2.54275   4.37258   0.19123 
 C                    -1.67016   5.46371   0.18645 
 C                    -0.26877   5.32386   0.2573 
 C                     0.31741   4.05965   0.34088 
 C                    -1.3709    0.94509   0.3763 
 H                    -3.61432   4.50865   0.12738 
 H                    -2.08765   6.46097   0.12233 
 H                     0.3584    6.20711   0.24021 
 N                    -2.42563   1.80208   0.29675 
 C                    -2.82004  -1.11126   0.29828 
 C                    -1.49328  -0.49288   0.40707 
 C                    -0.36585  -1.28608   0.5373 
 C                    -0.45895  -2.68985   0.56399 
 C                    -1.73203  -3.30121   0.44695 
 C                    -2.88921  -2.57194   0.31447 
 H                     0.61021  -0.82322   0.62405 
 H                    -1.79091  -4.38398   0.47096 
 C                     0.76672  -3.53672   0.70029 
 H                     0.98841  -4.03733  -0.24931 
 H                     1.63686  -2.94402   0.9833 
 H                     0.61348  -4.3242    1.44277 
 C                    -4.23702  -3.20654   0.19624 
 H                    -4.90575  -2.83585   0.97793 
 H                    -4.70363  -2.94858  -0.75907 
 H                    -4.16163  -4.29102   0.27271 
 O                    -3.87013  -0.42833   0.20095 
 N                    -0.22418   1.65191   0.41491 
 C                     1.73863   3.75063   0.38515 
 H                     2.46108   4.56566   0.36887 
 N                     2.10297   2.51278   0.43437 
 C                     3.52267   2.1326    0.44054 
 C                     4.1845    2.46607  -0.90678 
 C                     4.29448   2.7706    1.60582 
 H                     3.53725   1.04683   0.57204 
 C                     5.6516    2.02566  -0.91483 
 H                     4.11956   3.54976  -1.06233 
 H                     3.62719   1.98915  -1.71775 
 C                     5.75992   2.32446   1.59276 
 H                     4.24618   3.8614    1.51004 
 H                     3.8131    2.50502   2.55083 
 C                     6.42965   2.64395   0.25169 
 H                     6.11308   2.29438  -1.86937 
 H                     5.69829   0.93253  -0.83747 
 H                     6.29883   2.80286   2.4158 
 H                     5.80776   1.24298   1.77037 
 H                     7.46194   2.28169   0.24964 
 H                     6.47289   3.73202   0.12028 
 H                     0.99347   1.67509   0.43861 
 H                    -3.81483   0.52049   0.06573 
 
 Add virtual bond connecting atoms H50        and N29        Dist= 2.30D+00.
 ITRead=  0  0  0  0  0  0  0  0  0  0  0  0  0  0  0  0  0  0  0  0
 ITRead=  0  0  0  0  0  0  0  0  0  0  0  0  0  0  0  0  0  0  0  0
 ITRead=  0  0  0  0  0  0  0  0  0  0  0
 MicOpt= -1 -1 -1 -1 -1 -1 -1 -1 -1 -1 -1 -1 -1 -1 -1 -1 -1 -1 -1 -1
 MicOpt= -1 -1 -1 -1 -1 -1 -1 -1 -1 -1 -1 -1 -1 -1 -1 -1 -1 -1 -1 -1
 MicOpt= -1 -1 -1 -1 -1 -1 -1 -1 -1 -1 -1
 NAtoms=     51 NQM=       51 NQMF=       0 NMMI=      0 NMMIF=      0
                NMic=       0 NMicF=      0.
                    Isotopes and Nuclear Properties:
 (Nuclear quadrupole moments (NQMom) in fm**2, nuclear magnetic moments (NMagM)
  in nuclear magnetons)

  Atom         1           2           3           4           5           6           7           8           9          10
 IAtWgt=          12          12          12          12          12          12          12           1           1           1
 AtmWgt=  12.0000000  12.0000000  12.0000000  12.0000000  12.0000000  12.0000000  12.0000000   1.0078250   1.0078250   1.0078250
 NucSpn=           0           0           0           0           0           0           0           1           1           1
 AtZEff=  -0.0000000  -0.0000000  -0.0000000  -0.0000000  -0.0000000  -0.0000000  -0.0000000  -0.0000000  -0.0000000  -0.0000000
 NQMom=    0.0000000   0.0000000   0.0000000   0.0000000   0.0000000   0.0000000   0.0000000   0.0000000   0.0000000   0.0000000
 NMagM=    0.0000000   0.0000000   0.0000000   0.0000000   0.0000000   0.0000000   0.0000000   2.7928460   2.7928460   2.7928460
 AtZNuc=   6.0000000   6.0000000   6.0000000   6.0000000   6.0000000   6.0000000   6.0000000   1.0000000   1.0000000   1.0000000

  Atom        11          12          13          14          15          16          17          18          19          20
 IAtWgt=          14          12          12          12          12          12          12           1           1          12
 AtmWgt=  14.0030740  12.0000000  12.0000000  12.0000000  12.0000000  12.0000000  12.0000000   1.0078250   1.0078250  12.0000000
 NucSpn=           2           0           0           0           0           0           0           1           1           0
 AtZEff=  -0.0000000  -0.0000000  -0.0000000  -0.0000000  -0.0000000  -0.0000000  -0.0000000  -0.0000000  -0.0000000  -0.0000000
 NQMom=    2.0440000   0.0000000   0.0000000   0.0000000   0.0000000   0.0000000   0.0000000   0.0000000   0.0000000   0.0000000
 NMagM=    0.4037610   0.0000000   0.0000000   0.0000000   0.0000000   0.0000000   0.0000000   2.7928460   2.7928460   0.0000000
 AtZNuc=   7.0000000   6.0000000   6.0000000   6.0000000   6.0000000   6.0000000   6.0000000   1.0000000   1.0000000   6.0000000

  Atom        21          22          23          24          25          26          27          28          29          30
 IAtWgt=           1           1           1          12           1           1           1          16          14          12
 AtmWgt=   1.0078250   1.0078250   1.0078250  12.0000000   1.0078250   1.0078250   1.0078250  15.9949146  14.0030740  12.0000000
 NucSpn=           1           1           1           0           1           1           1           0           2           0
 AtZEff=  -0.0000000  -0.0000000  -0.0000000  -0.0000000  -0.0000000  -0.0000000  -0.0000000  -0.0000000  -0.0000000  -0.0000000
 NQMom=    0.0000000   0.0000000   0.0000000   0.0000000   0.0000000   0.0000000   0.0000000   0.0000000   2.0440000   0.0000000
 NMagM=    2.7928460   2.7928460   2.7928460   0.0000000   2.7928460   2.7928460   2.7928460   0.0000000   0.4037610   0.0000000
 AtZNuc=   1.0000000   1.0000000   1.0000000   6.0000000   1.0000000   1.0000000   1.0000000   8.0000000   7.0000000   6.0000000

  Atom        31          32          33          34          35          36          37          38          39          40
 IAtWgt=           1          14          12          12          12           1          12           1           1          12
 AtmWgt=   1.0078250  14.0030740  12.0000000  12.0000000  12.0000000   1.0078250  12.0000000   1.0078250   1.0078250  12.0000000
 NucSpn=           1           2           0           0           0           1           0           1           1           0
 AtZEff=  -0.0000000  -0.0000000  -0.0000000  -0.0000000  -0.0000000  -0.0000000  -0.0000000  -0.0000000  -0.0000000  -0.0000000
 NQMom=    0.0000000   2.0440000   0.0000000   0.0000000   0.0000000   0.0000000   0.0000000   0.0000000   0.0000000   0.0000000
 NMagM=    2.7928460   0.4037610   0.0000000   0.0000000   0.0000000   2.7928460   0.0000000   2.7928460   2.7928460   0.0000000
 AtZNuc=   1.0000000   7.0000000   6.0000000   6.0000000   6.0000000   1.0000000   6.0000000   1.0000000   1.0000000   6.0000000

  Atom        41          42          43          44          45          46          47          48          49          50
 IAtWgt=           1           1          12           1           1           1           1           1           1           1
 AtmWgt=   1.0078250   1.0078250  12.0000000   1.0078250   1.0078250   1.0078250   1.0078250   1.0078250   1.0078250   1.0078250
 NucSpn=           1           1           0           1           1           1           1           1           1           1
 AtZEff=  -0.0000000  -0.0000000  -0.0000000  -0.0000000  -0.0000000  -0.0000000  -0.0000000  -0.0000000  -0.0000000  -0.0000000
 NQMom=    0.0000000   0.0000000   0.0000000   0.0000000   0.0000000   0.0000000   0.0000000   0.0000000   0.0000000   0.0000000
 NMagM=    2.7928460   2.7928460   0.0000000   2.7928460   2.7928460   2.7928460   2.7928460   2.7928460   2.7928460   2.7928460
 AtZNuc=   1.0000000   1.0000000   6.0000000   1.0000000   1.0000000   1.0000000   1.0000000   1.0000000   1.0000000   1.0000000

  Atom        51
 IAtWgt=           1
 AtmWgt=   1.0078250
 NucSpn=           1
 AtZEff=  -0.0000000
 NQMom=    0.0000000
 NMagM=    2.7928460
 AtZNuc=   1.0000000
 Leave Link  101 at Mon Dec 17 13:58:54 2018, MaxMem=  1342177280 cpu:               3.2 elap:               0.2
 (Enter /gpfs/apps/hpc/Apps/Restricted/Gaussian/Rev_A.03/g16/l103.exe)

 GradGradGradGradGradGradGradGradGradGradGradGradGradGradGradGradGradGrad
 Berny optimization.
 Initialization pass.
                           ----------------------------
                           !    Initial Parameters    !
                           ! (Angstroms and Degrees)  !
 --------------------------                            --------------------------
 ! Name  Definition              Value          Derivative Info.                !
 --------------------------------------------------------------------------------
 ! R1    R(1,2)                  1.4            calculate D2E/DX2 analytically  !
 ! R2    R(1,6)                  1.4004         calculate D2E/DX2 analytically  !
 ! R3    R(1,29)                 1.3694         calculate D2E/DX2 analytically  !
 ! R4    R(2,3)                  1.3982         calculate D2E/DX2 analytically  !
 ! R5    R(2,11)                 1.3824         calculate D2E/DX2 analytically  !
 ! R6    R(3,4)                  1.3971         calculate D2E/DX2 analytically  !
 ! R7    R(3,8)                  1.0821         calculate D2E/DX2 analytically  !
 ! R8    R(4,5)                  1.4101         calculate D2E/DX2 analytically  !
 ! R9    R(4,9)                  1.083          calculate D2E/DX2 analytically  !
 ! R10   R(5,6)                  1.396          calculate D2E/DX2 analytically  !
 ! R11   R(5,10)                 1.0834         calculate D2E/DX2 analytically  !
 ! R12   R(6,30)                 1.4551         calculate D2E/DX2 analytically  !
 ! R13   R(7,11)                 1.3613         calculate D2E/DX2 analytically  !
 ! R14   R(7,13)                 1.4435         calculate D2E/DX2 analytically  !
 ! R15   R(7,29)                 1.3476         calculate D2E/DX2 analytically  !
 ! R16   R(12,13)                1.4678         calculate D2E/DX2 analytically  !
 ! R17   R(12,17)                1.4624         calculate D2E/DX2 analytically  !
 ! R18   R(12,28)                1.2564         calculate D2E/DX2 analytically  !
 ! R19   R(13,14)                1.3846         calculate D2E/DX2 analytically  !
 ! R20   R(14,15)                1.4071         calculate D2E/DX2 analytically  !
 ! R21   R(14,18)                1.0837         calculate D2E/DX2 analytically  !
 ! R22   R(15,16)                1.4171         calculate D2E/DX2 analytically  !
 ! R23   R(15,20)                1.496          calculate D2E/DX2 analytically  !
 ! R24   R(16,17)                1.3742         calculate D2E/DX2 analytically  !
 ! R25   R(16,19)                1.0846         calculate D2E/DX2 analytically  !
 ! R26   R(17,24)                1.4944         calculate D2E/DX2 analytically  !
 ! R27   R(20,21)                1.0961         calculate D2E/DX2 analytically  !
 ! R28   R(20,22)                1.0902         calculate D2E/DX2 analytically  !
 ! R29   R(20,23)                1.0931         calculate D2E/DX2 analytically  !
 ! R30   R(24,25)                1.0935         calculate D2E/DX2 analytically  !
 ! R31   R(24,26)                1.094          calculate D2E/DX2 analytically  !
 ! R32   R(24,27)                1.0898         calculate D2E/DX2 analytically  !
 ! R33   R(28,51)                0.96           calculate D2E/DX2 analytically  !
 ! R34   R(29,50)                1.2181         calculate D2E/DX2 analytically  !
 ! R35   R(30,31)                1.0893         calculate D2E/DX2 analytically  !
 ! R36   R(30,32)                1.2913         calculate D2E/DX2 analytically  !
 ! R37   R(32,33)                1.4697         calculate D2E/DX2 analytically  !
 ! R38   R(33,34)                1.5377         calculate D2E/DX2 analytically  !
 ! R39   R(33,35)                1.5364         calculate D2E/DX2 analytically  !
 ! R40   R(33,36)                1.0938         calculate D2E/DX2 analytically  !
 ! R41   R(34,37)                1.5318         calculate D2E/DX2 analytically  !
 ! R42   R(34,38)                1.0967         calculate D2E/DX2 analytically  !
 ! R43   R(34,39)                1.0935         calculate D2E/DX2 analytically  !
 ! R44   R(35,40)                1.5319         calculate D2E/DX2 analytically  !
 ! R45   R(35,41)                1.0961         calculate D2E/DX2 analytically  !
 ! R46   R(35,42)                1.0933         calculate D2E/DX2 analytically  !
 ! R47   R(37,43)                1.5324         calculate D2E/DX2 analytically  !
 ! R48   R(37,44)                1.0938         calculate D2E/DX2 analytically  !
 ! R49   R(37,45)                1.0969         calculate D2E/DX2 analytically  !
 ! R50   R(40,43)                1.5327         calculate D2E/DX2 analytically  !
 ! R51   R(40,46)                1.0939         calculate D2E/DX2 analytically  !
 ! R52   R(40,47)                1.097          calculate D2E/DX2 analytically  !
 ! R53   R(43,48)                1.094          calculate D2E/DX2 analytically  !
 ! R54   R(43,49)                1.0968         calculate D2E/DX2 analytically  !
 ! A1    A(2,1,6)              123.919          calculate D2E/DX2 analytically  !
 ! A2    A(2,1,29)             109.9722         calculate D2E/DX2 analytically  !
 ! A3    A(6,1,29)             126.0992         calculate D2E/DX2 analytically  !
 ! A4    A(1,2,3)              120.0071         calculate D2E/DX2 analytically  !
 ! A5    A(1,2,11)             104.2967         calculate D2E/DX2 analytically  !
 ! A6    A(3,2,11)             135.6919         calculate D2E/DX2 analytically  !
 ! A7    A(2,3,4)              116.6798         calculate D2E/DX2 analytically  !
 ! A8    A(2,3,8)              121.9817         calculate D2E/DX2 analytically  !
 ! A9    A(4,3,8)              121.338          calculate D2E/DX2 analytically  !
 ! A10   A(3,4,5)              122.8919         calculate D2E/DX2 analytically  !
 ! A11   A(3,4,9)              118.5924         calculate D2E/DX2 analytically  !
 ! A12   A(5,4,9)              118.5154         calculate D2E/DX2 analytically  !
 ! A13   A(4,5,6)              120.6714         calculate D2E/DX2 analytically  !
 ! A14   A(4,5,10)             119.5806         calculate D2E/DX2 analytically  !
 ! A15   A(6,5,10)             119.7468         calculate D2E/DX2 analytically  !
 ! A16   A(1,6,5)              115.8286         calculate D2E/DX2 analytically  !
 ! A17   A(1,6,30)             116.9791         calculate D2E/DX2 analytically  !
 ! A18   A(5,6,30)             127.176          calculate D2E/DX2 analytically  !
 ! A19   A(11,7,13)            124.2413         calculate D2E/DX2 analytically  !
 ! A20   A(11,7,29)            109.3156         calculate D2E/DX2 analytically  !
 ! A21   A(13,7,29)            126.4426         calculate D2E/DX2 analytically  !
 ! A22   A(2,11,7)             109.475          calculate D2E/DX2 analytically  !
 ! A23   A(13,12,17)           117.563          calculate D2E/DX2 analytically  !
 ! A24   A(13,12,28)           122.1546         calculate D2E/DX2 analytically  !
 ! A25   A(17,12,28)           120.2814         calculate D2E/DX2 analytically  !
 ! A26   A(7,13,12)            119.6516         calculate D2E/DX2 analytically  !
 ! A27   A(7,13,14)            120.2411         calculate D2E/DX2 analytically  !
 ! A28   A(12,13,14)           120.1074         calculate D2E/DX2 analytically  !
 ! A29   A(13,14,15)           121.2927         calculate D2E/DX2 analytically  !
 ! A30   A(13,14,18)           119.75           calculate D2E/DX2 analytically  !
 ! A31   A(15,14,18)           118.957          calculate D2E/DX2 analytically  !
 ! A32   A(14,15,16)           119.2264         calculate D2E/DX2 analytically  !
 ! A33   A(14,15,20)           120.815          calculate D2E/DX2 analytically  !
 ! A34   A(16,15,20)           119.9559         calculate D2E/DX2 analytically  !
 ! A35   A(15,16,17)           122.3782         calculate D2E/DX2 analytically  !
 ! A36   A(15,16,19)           118.5292         calculate D2E/DX2 analytically  !
 ! A37   A(17,16,19)           119.0909         calculate D2E/DX2 analytically  !
 ! A38   A(12,17,16)           119.4256         calculate D2E/DX2 analytically  !
 ! A39   A(12,17,24)           117.7701         calculate D2E/DX2 analytically  !
 ! A40   A(16,17,24)           122.8021         calculate D2E/DX2 analytically  !
 ! A41   A(15,20,21)           110.2            calculate D2E/DX2 analytically  !
 ! A42   A(15,20,22)           111.7042         calculate D2E/DX2 analytically  !
 ! A43   A(15,20,23)           110.7839         calculate D2E/DX2 analytically  !
 ! A44   A(21,20,22)           108.1655         calculate D2E/DX2 analytically  !
 ! A45   A(21,20,23)           106.7249         calculate D2E/DX2 analytically  !
 ! A46   A(22,20,23)           109.1003         calculate D2E/DX2 analytically  !
 ! A47   A(17,24,25)           110.5525         calculate D2E/DX2 analytically  !
 ! A48   A(17,24,26)           110.7094         calculate D2E/DX2 analytically  !
 ! A49   A(17,24,27)           110.7706         calculate D2E/DX2 analytically  !
 ! A50   A(25,24,26)           106.4671         calculate D2E/DX2 analytically  !
 ! A51   A(25,24,27)           109.2385         calculate D2E/DX2 analytically  !
 ! A52   A(26,24,27)           108.991          calculate D2E/DX2 analytically  !
 ! A53   A(12,28,51)           120.0            calculate D2E/DX2 analytically  !
 ! A54   A(1,29,7)             106.9399         calculate D2E/DX2 analytically  !
 ! A55   A(1,29,50)            103.5508         calculate D2E/DX2 analytically  !
 ! A56   A(7,29,50)            149.4463         calculate D2E/DX2 analytically  !
 ! A57   A(6,30,31)            119.2384         calculate D2E/DX2 analytically  !
 ! A58   A(6,30,32)            118.7069         calculate D2E/DX2 analytically  !
 ! A59   A(31,30,32)           122.0533         calculate D2E/DX2 analytically  !
 ! A60   A(30,32,33)           121.3773         calculate D2E/DX2 analytically  !
 ! A61   A(32,33,34)           110.8533         calculate D2E/DX2 analytically  !
 ! A62   A(32,33,35)           112.3963         calculate D2E/DX2 analytically  !
 ! A63   A(32,33,36)           105.6729         calculate D2E/DX2 analytically  !
 ! A64   A(34,33,35)           110.9947         calculate D2E/DX2 analytically  !
 ! A65   A(34,33,36)           108.3534         calculate D2E/DX2 analytically  !
 ! A66   A(35,33,36)           108.3199         calculate D2E/DX2 analytically  !
 ! A67   A(33,34,37)           110.7613         calculate D2E/DX2 analytically  !
 ! A68   A(33,34,38)           108.2447         calculate D2E/DX2 analytically  !
 ! A69   A(33,34,39)           109.6259         calculate D2E/DX2 analytically  !
 ! A70   A(37,34,38)           109.8801         calculate D2E/DX2 analytically  !
 ! A71   A(37,34,39)           111.0293         calculate D2E/DX2 analytically  !
 ! A72   A(38,34,39)           107.1935         calculate D2E/DX2 analytically  !
 ! A73   A(33,35,40)           110.6799         calculate D2E/DX2 analytically  !
 ! A74   A(33,35,41)           108.9555         calculate D2E/DX2 analytically  !
 ! A75   A(33,35,42)           109.4821         calculate D2E/DX2 analytically  !
 ! A76   A(40,35,41)           109.3443         calculate D2E/DX2 analytically  !
 ! A77   A(40,35,42)           110.9674         calculate D2E/DX2 analytically  !
 ! A78   A(41,35,42)           107.33           calculate D2E/DX2 analytically  !
 ! A79   A(34,37,43)           111.486          calculate D2E/DX2 analytically  !
 ! A80   A(34,37,44)           109.758          calculate D2E/DX2 analytically  !
 ! A81   A(34,37,45)           109.082          calculate D2E/DX2 analytically  !
 ! A82   A(43,37,44)           110.5477         calculate D2E/DX2 analytically  !
 ! A83   A(43,37,45)           109.0743         calculate D2E/DX2 analytically  !
 ! A84   A(44,37,45)           106.7643         calculate D2E/DX2 analytically  !
 ! A85   A(35,40,43)           111.3933         calculate D2E/DX2 analytically  !
 ! A86   A(35,40,46)           109.7239         calculate D2E/DX2 analytically  !
 ! A87   A(35,40,47)           109.1136         calculate D2E/DX2 analytically  !
 ! A88   A(43,40,46)           110.603          calculate D2E/DX2 analytically  !
 ! A89   A(43,40,47)           109.1538         calculate D2E/DX2 analytically  !
 ! A90   A(46,40,47)           106.7281         calculate D2E/DX2 analytically  !
 ! A91   A(37,43,40)           111.1062         calculate D2E/DX2 analytically  !
 ! A92   A(37,43,48)           110.1237         calculate D2E/DX2 analytically  !
 ! A93   A(37,43,49)           109.2115         calculate D2E/DX2 analytically  !
 ! A94   A(40,43,48)           110.1778         calculate D2E/DX2 analytically  !
 ! A95   A(40,43,49)           109.1986         calculate D2E/DX2 analytically  !
 ! A96   A(48,43,49)           106.9212         calculate D2E/DX2 analytically  !
 ! D1    D(6,1,2,3)             -0.4159         calculate D2E/DX2 analytically  !
 ! D2    D(6,1,2,11)           178.9419         calculate D2E/DX2 analytically  !
 ! D3    D(29,1,2,3)          -179.3542         calculate D2E/DX2 analytically  !
 ! D4    D(29,1,2,11)            0.0036         calculate D2E/DX2 analytically  !
 ! D5    D(2,1,6,5)              0.5061         calculate D2E/DX2 analytically  !
 ! D6    D(2,1,6,30)          -178.1296         calculate D2E/DX2 analytically  !
 ! D7    D(29,1,6,5)           179.2712         calculate D2E/DX2 analytically  !
 ! D8    D(29,1,6,30)            0.6355         calculate D2E/DX2 analytically  !
 ! D9    D(2,1,29,7)             0.1417         calculate D2E/DX2 analytically  !
 ! D10   D(2,1,29,50)          178.1571         calculate D2E/DX2 analytically  !
 ! D11   D(6,1,29,7)          -178.7679         calculate D2E/DX2 analytically  !
 ! D12   D(6,1,29,50)           -0.7526         calculate D2E/DX2 analytically  !
 ! D13   D(1,2,3,4)              0.0038         calculate D2E/DX2 analytically  !
 ! D14   D(1,2,3,8)            179.7651         calculate D2E/DX2 analytically  !
 ! D15   D(11,2,3,4)          -179.1054         calculate D2E/DX2 analytically  !
 ! D16   D(11,2,3,8)             0.6559         calculate D2E/DX2 analytically  !
 ! D17   D(1,2,11,7)            -0.1483         calculate D2E/DX2 analytically  !
 ! D18   D(3,2,11,7)           179.0556         calculate D2E/DX2 analytically  !
 ! D19   D(2,3,4,5)              0.2868         calculate D2E/DX2 analytically  !
 ! D20   D(2,3,4,9)           -179.9155         calculate D2E/DX2 analytically  !
 ! D21   D(8,3,4,5)           -179.4761         calculate D2E/DX2 analytically  !
 ! D22   D(8,3,4,9)              0.3216         calculate D2E/DX2 analytically  !
 ! D23   D(3,4,5,6)             -0.1866         calculate D2E/DX2 analytically  !
 ! D24   D(3,4,5,10)           179.4209         calculate D2E/DX2 analytically  !
 ! D25   D(9,4,5,6)           -179.9845         calculate D2E/DX2 analytically  !
 ! D26   D(9,4,5,10)            -0.377          calculate D2E/DX2 analytically  !
 ! D27   D(4,5,6,1)             -0.2034         calculate D2E/DX2 analytically  !
 ! D28   D(4,5,6,30)           178.2707         calculate D2E/DX2 analytically  !
 ! D29   D(10,5,6,1)          -179.8102         calculate D2E/DX2 analytically  !
 ! D30   D(10,5,6,30)           -1.3362         calculate D2E/DX2 analytically  !
 ! D31   D(1,6,30,31)          179.4865         calculate D2E/DX2 analytically  !
 ! D32   D(1,6,30,32)           -0.091          calculate D2E/DX2 analytically  !
 ! D33   D(5,6,30,31)            1.0277         calculate D2E/DX2 analytically  !
 ! D34   D(5,6,30,32)         -178.5498         calculate D2E/DX2 analytically  !
 ! D35   D(13,7,11,2)         -179.5186         calculate D2E/DX2 analytically  !
 ! D36   D(29,7,11,2)            0.2444         calculate D2E/DX2 analytically  !
 ! D37   D(11,7,13,12)           2.3695         calculate D2E/DX2 analytically  !
 ! D38   D(11,7,13,14)        -177.6857         calculate D2E/DX2 analytically  !
 ! D39   D(29,7,13,12)        -177.3524         calculate D2E/DX2 analytically  !
 ! D40   D(29,7,13,14)           2.5924         calculate D2E/DX2 analytically  !
 ! D41   D(11,7,29,1)           -0.2348         calculate D2E/DX2 analytically  !
 ! D42   D(11,7,29,50)        -176.4373         calculate D2E/DX2 analytically  !
 ! D43   D(13,7,29,1)          179.5216         calculate D2E/DX2 analytically  !
 ! D44   D(13,7,29,50)           3.3191         calculate D2E/DX2 analytically  !
 ! D45   D(17,12,13,7)         179.1055         calculate D2E/DX2 analytically  !
 ! D46   D(17,12,13,14)         -0.8394         calculate D2E/DX2 analytically  !
 ! D47   D(28,12,13,7)          -1.2545         calculate D2E/DX2 analytically  !
 ! D48   D(28,12,13,14)        178.8007         calculate D2E/DX2 analytically  !
 ! D49   D(13,12,17,16)          0.8676         calculate D2E/DX2 analytically  !
 ! D50   D(13,12,17,24)       -179.6627         calculate D2E/DX2 analytically  !
 ! D51   D(28,12,17,16)       -178.7795         calculate D2E/DX2 analytically  !
 ! D52   D(28,12,17,24)          0.6902         calculate D2E/DX2 analytically  !
 ! D53   D(13,12,28,51)          9.0253         calculate D2E/DX2 analytically  !
 ! D54   D(17,12,28,51)       -171.3442         calculate D2E/DX2 analytically  !
 ! D55   D(7,13,14,15)        -179.7229         calculate D2E/DX2 analytically  !
 ! D56   D(7,13,14,18)           0.4764         calculate D2E/DX2 analytically  !
 ! D57   D(12,13,14,15)          0.2216         calculate D2E/DX2 analytically  !
 ! D58   D(12,13,14,18)       -179.5791         calculate D2E/DX2 analytically  !
 ! D59   D(13,14,15,16)          0.3859         calculate D2E/DX2 analytically  !
 ! D60   D(13,14,15,20)        179.7833         calculate D2E/DX2 analytically  !
 ! D61   D(18,14,15,16)       -179.8119         calculate D2E/DX2 analytically  !
 ! D62   D(18,14,15,20)         -0.4144         calculate D2E/DX2 analytically  !
 ! D63   D(14,15,16,17)         -0.3539         calculate D2E/DX2 analytically  !
 ! D64   D(14,15,16,19)       -179.8761         calculate D2E/DX2 analytically  !
 ! D65   D(20,15,16,17)       -179.7567         calculate D2E/DX2 analytically  !
 ! D66   D(20,15,16,19)          0.7211         calculate D2E/DX2 analytically  !
 ! D67   D(14,15,20,21)       -107.9895         calculate D2E/DX2 analytically  !
 ! D68   D(14,15,20,22)         12.2749         calculate D2E/DX2 analytically  !
 ! D69   D(14,15,20,23)        134.1302         calculate D2E/DX2 analytically  !
 ! D70   D(16,15,20,21)         71.4036         calculate D2E/DX2 analytically  !
 ! D71   D(16,15,20,22)       -168.332          calculate D2E/DX2 analytically  !
 ! D72   D(16,15,20,23)        -46.4767         calculate D2E/DX2 analytically  !
 ! D73   D(15,16,17,12)         -0.2892         calculate D2E/DX2 analytically  !
 ! D74   D(15,16,17,24)       -179.7309         calculate D2E/DX2 analytically  !
 ! D75   D(19,16,17,12)        179.2305         calculate D2E/DX2 analytically  !
 ! D76   D(19,16,17,24)         -0.2113         calculate D2E/DX2 analytically  !
 ! D77   D(12,17,24,25)        -55.8296         calculate D2E/DX2 analytically  !
 ! D78   D(12,17,24,26)         61.9058         calculate D2E/DX2 analytically  !
 ! D79   D(12,17,24,27)       -177.0654         calculate D2E/DX2 analytically  !
 ! D80   D(16,17,24,25)        123.6209         calculate D2E/DX2 analytically  !
 ! D81   D(16,17,24,26)       -118.6437         calculate D2E/DX2 analytically  !
 ! D82   D(16,17,24,27)          2.3851         calculate D2E/DX2 analytically  !
 ! D83   D(6,30,32,33)         178.157          calculate D2E/DX2 analytically  !
 ! D84   D(31,30,32,33)         -1.408          calculate D2E/DX2 analytically  !
 ! D85   D(30,32,33,34)        -67.5098         calculate D2E/DX2 analytically  !
 ! D86   D(30,32,33,35)         57.3557         calculate D2E/DX2 analytically  !
 ! D87   D(30,32,33,36)        175.3068         calculate D2E/DX2 analytically  !
 ! D88   D(32,33,34,37)       -178.0758         calculate D2E/DX2 analytically  !
 ! D89   D(32,33,34,38)         61.4012         calculate D2E/DX2 analytically  !
 ! D90   D(32,33,34,39)        -55.2139         calculate D2E/DX2 analytically  !
 ! D91   D(35,33,34,37)         56.2698         calculate D2E/DX2 analytically  !
 ! D92   D(35,33,34,38)        -64.2532         calculate D2E/DX2 analytically  !
 ! D93   D(35,33,34,39)        179.1318         calculate D2E/DX2 analytically  !
 ! D94   D(36,33,34,37)        -62.5481         calculate D2E/DX2 analytically  !
 ! D95   D(36,33,34,38)        176.9289         calculate D2E/DX2 analytically  !
 ! D96   D(36,33,34,39)         60.3139         calculate D2E/DX2 analytically  !
 ! D97   D(32,33,35,40)        178.7496         calculate D2E/DX2 analytically  !
 ! D98   D(32,33,35,41)        -60.9853         calculate D2E/DX2 analytically  !
 ! D99   D(32,33,35,42)         56.1173         calculate D2E/DX2 analytically  !
 ! D100  D(34,33,35,40)        -56.4626         calculate D2E/DX2 analytically  !
 ! D101  D(34,33,35,41)         63.8026         calculate D2E/DX2 analytically  !
 ! D102  D(34,33,35,42)       -179.0948         calculate D2E/DX2 analytically  !
 ! D103  D(36,33,35,40)         62.3755         calculate D2E/DX2 analytically  !
 ! D104  D(36,33,35,41)       -177.3593         calculate D2E/DX2 analytically  !
 ! D105  D(36,33,35,42)        -60.2567         calculate D2E/DX2 analytically  !
 ! D106  D(33,34,37,43)        -55.662          calculate D2E/DX2 analytically  !
 ! D107  D(33,34,37,44)       -178.4945         calculate D2E/DX2 analytically  !
 ! D108  D(33,34,37,45)         64.8545         calculate D2E/DX2 analytically  !
 ! D109  D(38,34,37,43)         63.8835         calculate D2E/DX2 analytically  !
 ! D110  D(38,34,37,44)        -58.949          calculate D2E/DX2 analytically  !
 ! D111  D(38,34,37,45)       -175.5999         calculate D2E/DX2 analytically  !
 ! D112  D(39,34,37,43)       -177.7064         calculate D2E/DX2 analytically  !
 ! D113  D(39,34,37,44)         59.4611         calculate D2E/DX2 analytically  !
 ! D114  D(39,34,37,45)        -57.1898         calculate D2E/DX2 analytically  !
 ! D115  D(33,35,40,43)         56.0587         calculate D2E/DX2 analytically  !
 ! D116  D(33,35,40,46)        178.8746         calculate D2E/DX2 analytically  !
 ! D117  D(33,35,40,47)        -64.5193         calculate D2E/DX2 analytically  !
 ! D118  D(41,35,40,43)        -63.974          calculate D2E/DX2 analytically  !
 ! D119  D(41,35,40,46)         58.8419         calculate D2E/DX2 analytically  !
 ! D120  D(41,35,40,47)        175.4481         calculate D2E/DX2 analytically  !
 ! D121  D(42,35,40,43)        177.8218         calculate D2E/DX2 analytically  !
 ! D122  D(42,35,40,46)        -59.3623         calculate D2E/DX2 analytically  !
 ! D123  D(42,35,40,47)         57.2439         calculate D2E/DX2 analytically  !
 ! D124  D(34,37,43,40)         55.2283         calculate D2E/DX2 analytically  !
 ! D125  D(34,37,43,48)        177.5866         calculate D2E/DX2 analytically  !
 ! D126  D(34,37,43,49)        -65.2878         calculate D2E/DX2 analytically  !
 ! D127  D(44,37,43,40)        177.6078         calculate D2E/DX2 analytically  !
 ! D128  D(44,37,43,48)        -60.034          calculate D2E/DX2 analytically  !
 ! D129  D(44,37,43,49)         57.0916         calculate D2E/DX2 analytically  !
 ! D130  D(45,37,43,40)        -65.2928         calculate D2E/DX2 analytically  !
 ! D131  D(45,37,43,48)         57.0655         calculate D2E/DX2 analytically  !
 ! D132  D(45,37,43,49)        174.191          calculate D2E/DX2 analytically  !
 ! D133  D(35,40,43,37)        -55.4162         calculate D2E/DX2 analytically  !
 ! D134  D(35,40,43,48)       -177.7431         calculate D2E/DX2 analytically  !
 ! D135  D(35,40,43,49)         65.1077         calculate D2E/DX2 analytically  !
 ! D136  D(46,40,43,37)       -177.7266         calculate D2E/DX2 analytically  !
 ! D137  D(46,40,43,48)         59.9465         calculate D2E/DX2 analytically  !
 ! D138  D(46,40,43,49)        -57.2028         calculate D2E/DX2 analytically  !
 ! D139  D(47,40,43,37)         65.1382         calculate D2E/DX2 analytically  !
 ! D140  D(47,40,43,48)        -57.1887         calculate D2E/DX2 analytically  !
 ! D141  D(47,40,43,49)       -174.338          calculate D2E/DX2 analytically  !
 --------------------------------------------------------------------------------
 Trust Radius=3.00D-01 FncErr=5.00D-06 GrdErr=5.00D-06 EigMax=2.50D+02 EigMin=1.00D-04
 Number of steps in this run=    301 maximum allowed number of steps=    306.
 Search for a saddle point of order  1.
 GradGradGradGradGradGradGradGradGradGradGradGradGradGradGradGradGradGrad

 Leave Link  103 at Mon Dec 17 13:58:54 2018, MaxMem=  1342177280 cpu:               0.3 elap:               0.0
 (Enter /gpfs/apps/hpc/Apps/Restricted/Gaussian/Rev_A.03/g16/l202.exe)
 Symmetry turned off by external request.
 Stoichiometry    C22H25N3O(1+,2)
 Framework group  C1[X(C22H25N3O)]
 Deg. of freedom   147
 Full point group                 C1      NOp   1
                          Input orientation:                          
 ---------------------------------------------------------------------
 Center     Atomic      Atomic             Coordinates (Angstroms)
 Number     Number       Type             X           Y           Z
 ---------------------------------------------------------------------
      1          6           0       -0.569144    2.975654    0.353010
      2          6           0       -1.961174    3.104012    0.277127
      3          6           0       -2.542752    4.372577    0.191228
      4          6           0       -1.670159    5.463711    0.186451
      5          6           0       -0.268765    5.323858    0.257298
      6          6           0        0.317405    4.059654    0.340882
      7          6           0       -1.370904    0.945093    0.376304
      8          1           0       -3.614318    4.508651    0.127380
      9          1           0       -2.087650    6.460971    0.122328
     10          1           0        0.358400    6.207112    0.240214
     11          7           0       -2.425628    1.802082    0.296747
     12          6           0       -2.820040   -1.111264    0.298281
     13          6           0       -1.493277   -0.492884    0.407065
     14          6           0       -0.365852   -1.286077    0.537301
     15          6           0       -0.458947   -2.689846    0.563986
     16          6           0       -1.732034   -3.301209    0.446954
     17          6           0       -2.889211   -2.571944    0.314466
     18          1           0        0.610208   -0.823224    0.624049
     19          1           0       -1.790906   -4.383976    0.470959
     20          6           0        0.766720   -3.536715    0.700294
     21          1           0        0.988407   -4.037326   -0.249313
     22          1           0        1.636856   -2.944024    0.983301
     23          1           0        0.613477   -4.324198    1.442773
     24          6           0       -4.237021   -3.206535    0.196238
     25          1           0       -4.905753   -2.835846    0.977930
     26          1           0       -4.703634   -2.948581   -0.759074
     27          1           0       -4.161627   -4.291017    0.272711
     28          8           0       -3.870130   -0.428325    0.200953
     29          7           0       -0.224181    1.651911    0.414907
     30          6           0        1.738628    3.750625    0.385152
     31          1           0        2.461084    4.565660    0.368870
     32          7           0        2.102971    2.512775    0.434367
     33          6           0        3.522672    2.132599    0.440536
     34          6           0        4.184496    2.466069   -0.906784
     35          6           0        4.294485    2.770595    1.605824
     36          1           0        3.537245    1.046834    0.572035
     37          6           0        5.651605    2.025664   -0.914830
     38          1           0        4.119562    3.549763   -1.062332
     39          1           0        3.627188    1.989152   -1.717754
     40          6           0        5.759916    2.324463    1.592759
     41          1           0        4.246181    3.861404    1.510039
     42          1           0        3.813096    2.505024    2.550827
     43          6           0        6.429648    2.643945    0.251686
     44          1           0        6.113084    2.294375   -1.869374
     45          1           0        5.698287    0.932533   -0.837469
     46          1           0        6.298829    2.802859    2.415802
     47          1           0        5.807756    1.242980    1.770371
     48          1           0        7.461943    2.281686    0.249637
     49          1           0        6.472894    3.732021    0.120275
     50          1           0        0.993467    1.675091    0.438611
     51          1           0       -3.814831    0.520494    0.065734
 ---------------------------------------------------------------------
 Rotational constants (GHZ):           0.2592704           0.1216749           0.0858404
 Leave Link  202 at Mon Dec 17 13:58:54 2018, MaxMem=  1342177280 cpu:               0.1 elap:               0.0
 (Enter /gpfs/apps/hpc/Apps/Restricted/Gaussian/Rev_A.03/g16/l301.exe)
 Standard basis: 6-31G(d,p) (6D, 7F)
 Ernie: Thresh=  0.10000D-02 Tol=  0.10000D-05 Strict=F.
   515 basis functions,   903 primitive gaussians,   515 cartesian basis functions
    93 alpha electrons       92 beta electrons
       nuclear repulsion energy      2217.6210114166 Hartrees.
 IExCor=  402 DFT=T Ex+Corr=B3LYP ExCW=0 ScaHFX=  0.200000
 ScaDFX=  0.800000  0.720000  1.000000  0.810000 ScalE2=  1.000000  1.000000
 IRadAn=      5 IRanWt=     -1 IRanGd=            0 ICorTp=0 IEmpDi=141
 NAtoms=   51 NActive=   51 NUniq=   51 SFac= 1.00D+00 NAtFMM=   60 NAOKFM=F Big=F
 Integral buffers will be    131072 words long.
 Raffenetti 2 integral format.
 Two-electron integral symmetry is turned off.
 R6Disp:  Grimme-D3(BJ) Dispersion energy=       -0.1087601711 Hartrees.
 Nuclear repulsion after empirical dispersion term =     2217.5122512455 Hartrees.
 Force inversion solution in PCM.
 Using the following non-standard input for PCM:
 radii=bondi
 dis
 rep
 cav
 --- end of non-standard input.
 Force inversion solution in PCM.
 ------------------------------------------------------------------------------
 Polarizable Continuum Model (PCM)
 =================================
 Model                : C-PCM.
 Atomic radii         : Bondi.
 Polarization charges : Total charges.
 Charge compensation  : None.
 Solution method      : Matrix inversion.
 Cavity type          : Scaled VdW (van der Waals Surface) (Alpha=1.100).
 Cavity algorithm     : GePol (No added spheres)
                        Default sphere list used, NSphG=   51.
                        Lebedev-Laikov grids with approx.  5.0 points / Ang**2.
                        Smoothing algorithm: York/Karplus (Gamma=1.0000).
                        Polarization charges: spherical gaussians, with
                                              point-specific exponents (IZeta= 3).
                        Self-potential: point-specific (ISelfS= 7).
                        Self-field    : sphere-specific E.n sum rule (ISelfD= 2).
 1st derivatives      : Analytical E(r).r(x)/FMM algorithm (CHGder, D1EAlg=3).
                        Cavity 1st derivative terms included.
 2nd derivatives      : Analytical E(r).r(xy)/FMM algorithm (CHGder, D2EAlg=3).
                        Cavity 2nd derivative terms included.
 Solvent              : Dichloromethane, Eps=   8.930000 Eps(inf)=   2.028346
 ------------------------------------------------------------------------------
 GePol: Number of generator spheres                  =      51
 GePol: Total number of spheres                      =      51
 GePol: Number of exposed spheres                    =      51 (100.00%)
 GePol: Number of points                             =    3451
 GePol: Average weight of points                     =       0.12
 GePol: Minimum weight of points                     =   0.14D-11
 GePol: Maximum weight of points                     =    0.21770
 GePol: Number of points with low weight             =     225
 GePol: Fraction of low-weight points (<1% of avg)   =       6.52%
 GePol: Cavity surface area                          =    408.619 Ang**2
 GePol: Cavity volume                                =    386.349 Ang**3
 PCM non-electrostatic energy =         0.0153443505 Hartrees.
 Nuclear repulsion after PCM non-electrostatic terms =     2217.5275955960 Hartrees.
 Leave Link  301 at Mon Dec 17 13:58:54 2018, MaxMem=  1342177280 cpu:               2.8 elap:               0.2
 (Enter /gpfs/apps/hpc/Apps/Restricted/Gaussian/Rev_A.03/g16/l302.exe)
 NPDir=0 NMtPBC=     1 NCelOv=     1 NCel=       1 NClECP=     1 NCelD=      1
         NCelK=      1 NCelE2=     1 NClLst=     1 CellRange=     0.0.
 One-electron integrals computed using PRISM.
 NBasis=   515 RedAO= T EigKep=  3.06D-04  NBF=   515
 NBsUse=   515 1.00D-06 EigRej= -1.00D+00 NBFU=   515
 Precomputing XC quadrature grid using
 IXCGrd= 4 IRadAn=           5 IRanWt=          -1 IRanGd=           0 AccXCQ= 0.00D+00.
 Generated NRdTot=       0 NPtTot=           0 NUsed=           0 NTot=          32
 NSgBfM=   504   504   504   504   504 MxSgAt=    51 MxSgA2=    51.
 Leave Link  302 at Mon Dec 17 13:58:55 2018, MaxMem=  1342177280 cpu:              12.5 elap:               0.8
 (Enter /gpfs/apps/hpc/Apps/Restricted/Gaussian/Rev_A.03/g16/l303.exe)
 DipDrv:  MaxL=1.
 Leave Link  303 at Mon Dec 17 13:58:55 2018, MaxMem=  1342177280 cpu:               0.8 elap:               0.1
 (Enter /gpfs/apps/hpc/Apps/Restricted/Gaussian/Rev_A.03/g16/l401.exe)
 ExpMin= 1.61D-01 ExpMax= 5.48D+03 ExpMxC= 8.25D+02 IAcc=3 IRadAn=         5 AccDes= 0.00D+00
 Harris functional with IExCor=  402 and IRadAn=       5 diagonalized for initial guess.
 HarFok:  IExCor=  402 AccDes= 0.00D+00 IRadAn=         5 IDoV= 1 UseB2=F ITyADJ=14
 ICtDFT=  3500011 ScaDFX=  1.000000  1.000000  1.000000  1.000000
 FoFCou: FMM=F IPFlag=           0 FMFlag=      100000 FMFlg1=           0
         NFxFlg=           0 DoJE=T BraDBF=F KetDBF=T FulRan=T
         wScrn=  0.000000 ICntrl=       500 IOpCl=  0 I1Cent=   200000004 NGrid=           0
         NMat0=    1 NMatS0=      1 NMatT0=    0 NMatD0=    1 NMtDS0=    0 NMtDT0=    0
 Symmetry not used in FoFCou.
 Harris En= -1092.76461082637    
 JPrj=0 DoOrth=F DoCkMO=F.
 Initial guess <Sx>= 0.0000 <Sy>= 0.0000 <Sz>= 0.5000 <S**2>= 0.7500 S= 0.5000
 Leave Link  401 at Mon Dec 17 13:58:59 2018, MaxMem=  1342177280 cpu:              49.2 elap:               3.1
 (Enter /gpfs/apps/hpc/Apps/Restricted/Gaussian/Rev_A.03/g16/l502.exe)
 Two-electron integral symmetry not used.
 UHF open shell SCF:
 Using DIIS extrapolation, IDIIS=  1040.
 NGot=  1342177280 LenX=  1341634262 LenY=  1341368522
 Requested convergence on RMS density matrix=1.00D-08 within 128 cycles.
 Requested convergence on MAX density matrix=1.00D-06.
 Requested convergence on             energy=1.00D-06.
 No special actions if energy rises.
 Fock matrices will be formed incrementally for  20 cycles.

 Cycle   1  Pass 1  IDiag  1:
 FoFJK:  IHMeth= 1 ICntrl=       0 DoSepK=F KAlg= 0 I1Cent=           0 FoldK=F
 IRaf= 620000000 NMat=       1 IRICut=       1 DoRegI=T DoRafI=F ISym2E= 0 IDoP0=0 IntGTp=1.
 FoFCou: FMM=F IPFlag=           0 FMFlag=      100000 FMFlg1=           0
         NFxFlg=           0 DoJE=F BraDBF=F KetDBF=F FulRan=T
         wScrn=  0.000000 ICntrl=         0 IOpCl=  1 I1Cent=           0 NGrid=           0
         NMat0=    1 NMatS0=      1 NMatT0=    0 NMatD0=    1 NMtDS0=    0 NMtDT0=    0
 Symmetry not used in FoFCou.
 Inv3:  Mode=1 IEnd=    35728203.
 Iteration    1 A*A^-1 deviation from unit magnitude is 7.66D-15 for   2037.
 Iteration    1 A*A^-1 deviation from orthogonality  is 4.12D-15 for   2037   1165.
 Iteration    1 A^-1*A deviation from unit magnitude is 7.66D-15 for   2037.
 Iteration    1 A^-1*A deviation from orthogonality  is 2.73D-15 for   3432   3316.
 E= -1092.30627777543    
 DIIS: error= 2.67D-02 at cycle   1 NSaved=   1.
 NSaved= 1 IEnMin= 1 EnMin= -1092.30627777543     IErMin= 1 ErrMin= 2.67D-02
 ErrMax= 2.67D-02  0.00D+00 EMaxC= 1.00D-01 BMatC= 2.11D+00 BMatP= 2.11D+00
 IDIUse=3 WtCom= 7.33D-01 WtEn= 2.67D-01
 Coeff-Com:  0.100D+01
 Coeff-En:   0.100D+01
 Coeff:      0.100D+01
 Gap=     0.159 Goal=   None    Shift=    0.000
 Gap=     0.042 Goal=   None    Shift=    0.000
 GapD=    0.042 DampG=0.250 DampE=0.500 DampFc=0.2500 IDamp=-1.
 Damping current iteration by 2.50D-01
 RMSDP=3.28D-03 MaxDP=1.34D-01              OVMax= 2.33D-01

 Cycle   2  Pass 1  IDiag  1:
 RMSU=  7.93D-04    CP:  9.85D-01
 E= -1092.50210039306     Delta-E=       -0.195822617631 Rises=F Damp=T
 DIIS: error= 1.49D-02 at cycle   2 NSaved=   2.
 NSaved= 2 IEnMin= 2 EnMin= -1092.50210039306     IErMin= 2 ErrMin= 1.49D-02
 ErrMax= 1.49D-02  0.00D+00 EMaxC= 1.00D-01 BMatC= 5.88D-01 BMatP= 2.11D+00
 IDIUse=3 WtCom= 8.51D-01 WtEn= 1.49D-01
 Coeff-Com: -0.895D+00 0.189D+01
 Coeff-En:   0.000D+00 0.100D+01
 Coeff:     -0.761D+00 0.176D+01
 Gap=     0.198 Goal=   None    Shift=    0.000
 Gap=     0.090 Goal=   None    Shift=    0.000
 RMSDP=1.33D-03 MaxDP=7.34D-02 DE=-1.96D-01 OVMax= 1.75D-01

 Cycle   3  Pass 1  IDiag  1:
 RMSU=  8.87D-04    CP:  9.54D-01  2.13D+00
 E= -1092.83613264483     Delta-E=       -0.334032251769 Rises=F Damp=F
 DIIS: error= 5.74D-03 at cycle   3 NSaved=   3.
 NSaved= 3 IEnMin= 3 EnMin= -1092.83613264483     IErMin= 3 ErrMin= 5.74D-03
 ErrMax= 5.74D-03  0.00D+00 EMaxC= 1.00D-01 BMatC= 6.37D-02 BMatP= 5.88D-01
 IDIUse=3 WtCom= 9.43D-01 WtEn= 5.74D-02
 Coeff-Com: -0.338D+00 0.703D+00 0.635D+00
 Coeff-En:   0.000D+00 0.000D+00 0.100D+01
 Coeff:     -0.319D+00 0.663D+00 0.656D+00
 Gap=     0.149 Goal=   None    Shift=    0.000
 Gap=     0.056 Goal=   None    Shift=    0.000
 RMSDP=4.34D-04 MaxDP=3.19D-02 DE=-3.34D-01 OVMax= 6.32D-02

 Cycle   4  Pass 1  IDiag  1:
 RMSU=  3.45D-04    CP:  9.57D-01  2.16D+00  7.08D-01
 E= -1092.84702263996     Delta-E=       -0.010889995135 Rises=F Damp=F
 DIIS: error= 3.86D-03 at cycle   4 NSaved=   4.
 NSaved= 4 IEnMin= 4 EnMin= -1092.84702263996     IErMin= 4 ErrMin= 3.86D-03
 ErrMax= 3.86D-03  0.00D+00 EMaxC= 1.00D-01 BMatC= 2.42D-02 BMatP= 6.37D-02
 IDIUse=3 WtCom= 9.61D-01 WtEn= 3.86D-02
 Coeff-Com: -0.597D-01 0.129D+00 0.382D+00 0.549D+00
 Coeff-En:   0.000D+00 0.000D+00 0.286D+00 0.714D+00
 Coeff:     -0.574D-01 0.124D+00 0.379D+00 0.555D+00
 Gap=     0.149 Goal=   None    Shift=    0.000
 Gap=     0.058 Goal=   None    Shift=    0.000
 RMSDP=1.90D-04 MaxDP=1.48D-02 DE=-1.09D-02 OVMax= 2.67D-02

 Cycle   5  Pass 1  IDiag  1:
 RMSU=  9.90D-05    CP:  9.56D-01  2.12D+00  8.04D-01  6.06D-01
 E= -1092.85312000352     Delta-E=       -0.006097363551 Rises=F Damp=F
 DIIS: error= 8.14D-04 at cycle   5 NSaved=   5.
 NSaved= 5 IEnMin= 5 EnMin= -1092.85312000352     IErMin= 5 ErrMin= 8.14D-04
 ErrMax= 8.14D-04  0.00D+00 EMaxC= 1.00D-01 BMatC= 1.99D-03 BMatP= 2.42D-02
 IDIUse=3 WtCom= 9.92D-01 WtEn= 8.14D-03
 Coeff-Com: -0.247D-02 0.799D-02 0.151D+00 0.306D+00 0.538D+00
 Coeff-En:   0.000D+00 0.000D+00 0.000D+00 0.000D+00 0.100D+01
 Coeff:     -0.245D-02 0.793D-02 0.150D+00 0.304D+00 0.541D+00
 Gap=     0.149 Goal=   None    Shift=    0.000
 Gap=     0.059 Goal=   None    Shift=    0.000
 RMSDP=5.42D-05 MaxDP=3.83D-03 DE=-6.10D-03 OVMax= 1.06D-02

 Cycle   6  Pass 1  IDiag  1:
 RMSU=  3.53D-05    CP:  9.56D-01  2.13D+00  8.06D-01  6.51D-01  6.18D-01
 E= -1092.85361535473     Delta-E=       -0.000495351213 Rises=F Damp=F
 DIIS: error= 3.01D-04 at cycle   6 NSaved=   6.
 NSaved= 6 IEnMin= 6 EnMin= -1092.85361535473     IErMin= 6 ErrMin= 3.01D-04
 ErrMax= 3.01D-04  0.00D+00 EMaxC= 1.00D-01 BMatC= 1.40D-04 BMatP= 1.99D-03
 IDIUse=3 WtCom= 9.97D-01 WtEn= 3.01D-03
 Coeff-Com:  0.225D-02-0.385D-02 0.510D-01 0.117D+00 0.278D+00 0.555D+00
 Coeff-En:   0.000D+00 0.000D+00 0.000D+00 0.000D+00 0.000D+00 0.100D+01
 Coeff:      0.224D-02-0.384D-02 0.509D-01 0.117D+00 0.278D+00 0.556D+00
 Gap=     0.149 Goal=   None    Shift=    0.000
 Gap=     0.059 Goal=   None    Shift=    0.000
 RMSDP=1.74D-05 MaxDP=1.64D-03 DE=-4.95D-04 OVMax= 6.24D-03

 Cycle   7  Pass 1  IDiag  1:
 RMSU=  1.52D-05    CP:  9.56D-01  2.13D+00  8.07D-01  6.55D-01  6.96D-01
                    CP:  9.15D-01
 E= -1092.85365430377     Delta-E=       -0.000038949045 Rises=F Damp=F
 DIIS: error= 1.58D-04 at cycle   7 NSaved=   7.
 NSaved= 7 IEnMin= 7 EnMin= -1092.85365430377     IErMin= 7 ErrMin= 1.58D-04
 ErrMax= 1.58D-04  0.00D+00 EMaxC= 1.00D-01 BMatC= 3.38D-05 BMatP= 1.40D-04
 IDIUse=3 WtCom= 9.98D-01 WtEn= 1.58D-03
 Coeff-Com:  0.158D-02-0.338D-02 0.241D-02 0.128D-01 0.649D-01 0.331D+00
 Coeff-Com:  0.591D+00
 Coeff-En:   0.000D+00 0.000D+00 0.000D+00 0.000D+00 0.000D+00 0.000D+00
 Coeff-En:   0.100D+01
 Coeff:      0.158D-02-0.337D-02 0.241D-02 0.128D-01 0.648D-01 0.330D+00
 Coeff:      0.591D+00
 Gap=     0.149 Goal=   None    Shift=    0.000
 Gap=     0.059 Goal=   None    Shift=    0.000
 RMSDP=1.05D-05 MaxDP=1.06D-03 DE=-3.89D-05 OVMax= 3.83D-03

 Cycle   8  Pass 1  IDiag  1:
 RMSU=  7.97D-06    CP:  9.56D-01  2.13D+00  8.08D-01  6.60D-01  7.21D-01
                    CP:  1.09D+00  9.91D-01
 E= -1092.85366996323     Delta-E=       -0.000015659461 Rises=F Damp=F
 DIIS: error= 9.28D-05 at cycle   8 NSaved=   8.
 NSaved= 8 IEnMin= 8 EnMin= -1092.85366996323     IErMin= 8 ErrMin= 9.28D-05
 ErrMax= 9.28D-05  0.00D+00 EMaxC= 1.00D-01 BMatC= 6.32D-06 BMatP= 3.38D-05
 IDIUse=1 WtCom= 1.00D+00 WtEn= 0.00D+00
 Coeff-Com: -0.168D-03 0.445D-04-0.160D-01-0.348D-01-0.704D-01-0.548D-01
 Coeff-Com:  0.230D+00 0.946D+00
 Coeff:     -0.168D-03 0.445D-04-0.160D-01-0.348D-01-0.704D-01-0.548D-01
 Coeff:      0.230D+00 0.946D+00
 Gap=     0.149 Goal=   None    Shift=    0.000
 Gap=     0.060 Goal=   None    Shift=    0.000
 RMSDP=1.08D-05 MaxDP=1.00D-03 DE=-1.57D-05 OVMax= 5.97D-03

 Cycle   9  Pass 1  IDiag  1:
 RMSU=  4.19D-06    CP:  9.56D-01  2.13D+00  8.09D-01  6.64D-01  7.53D-01
                    CP:  1.26D+00  1.42D+00  1.38D+00
 E= -1092.85367835518     Delta-E=       -0.000008391947 Rises=F Damp=F
 DIIS: error= 4.76D-05 at cycle   9 NSaved=   9.
 NSaved= 9 IEnMin= 9 EnMin= -1092.85367835518     IErMin= 9 ErrMin= 4.76D-05
 ErrMax= 4.76D-05  0.00D+00 EMaxC= 1.00D-01 BMatC= 3.05D-06 BMatP= 6.32D-06
 IDIUse=1 WtCom= 1.00D+00 WtEn= 0.00D+00
 Coeff-Com: -0.538D-03 0.969D-03-0.106D-01-0.255D-01-0.642D-01-0.133D+00
 Coeff-Com: -0.450D-01 0.586D+00 0.691D+00
 Coeff:     -0.538D-03 0.969D-03-0.106D-01-0.255D-01-0.642D-01-0.133D+00
 Coeff:     -0.450D-01 0.586D+00 0.691D+00
 Gap=     0.149 Goal=   None    Shift=    0.000
 Gap=     0.060 Goal=   None    Shift=    0.000
 RMSDP=6.38D-06 MaxDP=5.69D-04 DE=-8.39D-06 OVMax= 3.01D-03

 Cycle  10  Pass 1  IDiag  1:
 RMSU=  2.18D-06    CP:  9.56D-01  2.13D+00  8.09D-01  6.65D-01  7.68D-01
                    CP:  1.36D+00  1.62D+00  1.79D+00  1.02D+00
 E= -1092.85368141132     Delta-E=       -0.000003056140 Rises=F Damp=F
 DIIS: error= 2.32D-05 at cycle  10 NSaved=  10.
 NSaved=10 IEnMin=10 EnMin= -1092.85368141132     IErMin=10 ErrMin= 2.32D-05
 ErrMax= 2.32D-05  0.00D+00 EMaxC= 1.00D-01 BMatC= 6.45D-07 BMatP= 3.05D-06
 IDIUse=1 WtCom= 1.00D+00 WtEn= 0.00D+00
 Coeff-Com: -0.126D-03 0.318D-03 0.892D-03 0.122D-02-0.258D-02-0.310D-01
 Coeff-Com: -0.934D-01-0.589D-01 0.290D+00 0.894D+00
 Coeff:     -0.126D-03 0.318D-03 0.892D-03 0.122D-02-0.258D-02-0.310D-01
 Coeff:     -0.934D-01-0.589D-01 0.290D+00 0.894D+00
 Gap=     0.149 Goal=   None    Shift=    0.000
 Gap=     0.060 Goal=   None    Shift=    0.000
 RMSDP=3.84D-06 MaxDP=3.32D-04 DE=-3.06D-06 OVMax= 1.89D-03

 Cycle  11  Pass 1  IDiag  1:
 RMSU=  1.21D-06    CP:  9.56D-01  2.13D+00  8.09D-01  6.66D-01  7.77D-01
                    CP:  1.41D+00  1.75D+00  2.00D+00  1.38D+00  1.26D+00
 E= -1092.85368233802     Delta-E=       -0.000000926701 Rises=F Damp=F
 DIIS: error= 1.09D-05 at cycle  11 NSaved=  11.
 NSaved=11 IEnMin=11 EnMin= -1092.85368233802     IErMin=11 ErrMin= 1.09D-05
 ErrMax= 1.09D-05  0.00D+00 EMaxC= 1.00D-01 BMatC= 2.26D-07 BMatP= 6.45D-07
 IDIUse=1 WtCom= 1.00D+00 WtEn= 0.00D+00
 Coeff-Com:  0.285D-04-0.211D-04 0.352D-02 0.806D-02 0.173D-01 0.238D-01
 Coeff-Com: -0.383D-01-0.205D+00-0.427D-01 0.462D+00 0.771D+00
 Coeff:      0.285D-04-0.211D-04 0.352D-02 0.806D-02 0.173D-01 0.238D-01
 Coeff:     -0.383D-01-0.205D+00-0.427D-01 0.462D+00 0.771D+00
 Gap=     0.149 Goal=   None    Shift=    0.000
 Gap=     0.060 Goal=   None    Shift=    0.000
 RMSDP=2.00D-06 MaxDP=2.18D-04 DE=-9.27D-07 OVMax= 8.56D-04

 Cycle  12  Pass 1  IDiag  1:
 RMSU=  5.93D-07    CP:  9.56D-01  2.13D+00  8.10D-01  6.66D-01  7.80D-01
                    CP:  1.43D+00  1.80D+00  2.13D+00  1.54D+00  1.64D+00
                    CP:  1.12D+00
 E= -1092.85368260100     Delta-E=       -0.000000262976 Rises=F Damp=F
 DIIS: error= 5.31D-06 at cycle  12 NSaved=  12.
 NSaved=12 IEnMin=12 EnMin= -1092.85368260100     IErMin=12 ErrMin= 5.31D-06
 ErrMax= 5.31D-06  0.00D+00 EMaxC= 1.00D-01 BMatC= 6.32D-08 BMatP= 2.26D-07
 IDIUse=1 WtCom= 1.00D+00 WtEn= 0.00D+00
 Coeff-Com:  0.457D-04-0.114D-03 0.121D-02 0.318D-02 0.890D-02 0.218D-01
 Coeff-Com:  0.136D-01-0.718D-01-0.109D+00-0.123D+00 0.368D+00 0.887D+00
 Coeff:      0.457D-04-0.114D-03 0.121D-02 0.318D-02 0.890D-02 0.218D-01
 Coeff:      0.136D-01-0.718D-01-0.109D+00-0.123D+00 0.368D+00 0.887D+00
 Gap=     0.149 Goal=   None    Shift=    0.000
 Gap=     0.060 Goal=   None    Shift=    0.000
 RMSDP=1.12D-06 MaxDP=1.29D-04 DE=-2.63D-07 OVMax= 3.98D-04

 Cycle  13  Pass 1  IDiag  1:
 RMSU=  3.14D-07    CP:  9.56D-01  2.13D+00  8.10D-01  6.66D-01  7.82D-01
                    CP:  1.45D+00  1.83D+00  2.18D+00  1.64D+00  1.87D+00
                    CP:  1.47D+00  1.09D+00
 E= -1092.85368266753     Delta-E=       -0.000000066532 Rises=F Damp=F
 DIIS: error= 2.51D-06 at cycle  13 NSaved=  13.
 NSaved=13 IEnMin=13 EnMin= -1092.85368266753     IErMin=13 ErrMin= 2.51D-06
 ErrMax= 2.51D-06  0.00D+00 EMaxC= 1.00D-01 BMatC= 2.18D-08 BMatP= 6.32D-08
 IDIUse=1 WtCom= 1.00D+00 WtEn= 0.00D+00
 Coeff-Com:  0.206D-04-0.647D-04 0.182D-03 0.640D-03 0.272D-02 0.966D-02
 Coeff-Com:  0.154D-01-0.930D-02-0.559D-01-0.159D+00 0.944D-01 0.536D+00
 Coeff-Com:  0.565D+00
 Coeff:      0.206D-04-0.647D-04 0.182D-03 0.640D-03 0.272D-02 0.966D-02
 Coeff:      0.154D-01-0.930D-02-0.559D-01-0.159D+00 0.944D-01 0.536D+00
 Coeff:      0.565D+00
 Gap=     0.149 Goal=   None    Shift=    0.000
 Gap=     0.060 Goal=   None    Shift=    0.000
 RMSDP=3.05D-07 MaxDP=3.46D-05 DE=-6.65D-08 OVMax= 8.28D-05

 Cycle  14  Pass 1  IDiag  1:
 RMSU=  1.62D-07    CP:  9.56D-01  2.13D+00  8.10D-01  6.66D-01  7.82D-01
                    CP:  1.45D+00  1.83D+00  2.19D+00  1.66D+00  1.91D+00
                    CP:  1.57D+00  1.28D+00  8.55D-01
 E= -1092.85368267744     Delta-E=       -0.000000009914 Rises=F Damp=F
 DIIS: error= 1.28D-06 at cycle  14 NSaved=  14.
 NSaved=14 IEnMin=14 EnMin= -1092.85368267744     IErMin=14 ErrMin= 1.28D-06
 ErrMax= 1.28D-06  0.00D+00 EMaxC= 1.00D-01 BMatC= 4.16D-09 BMatP= 2.18D-08
 IDIUse=1 WtCom= 1.00D+00 WtEn= 0.00D+00
 Coeff-Com: -0.853D-05 0.987D-05-0.296D-03-0.712D-03-0.137D-02-0.172D-02
 Coeff-Com:  0.437D-02 0.161D-01 0.462D-02-0.553D-01-0.580D-01 0.188D-01
 Coeff-Com:  0.311D+00 0.763D+00
 Coeff:     -0.853D-05 0.987D-05-0.296D-03-0.712D-03-0.137D-02-0.172D-02
 Coeff:      0.437D-02 0.161D-01 0.462D-02-0.553D-01-0.580D-01 0.188D-01
 Coeff:      0.311D+00 0.763D+00
 Gap=     0.149 Goal=   None    Shift=    0.000
 Gap=     0.060 Goal=   None    Shift=    0.000
 RMSDP=1.86D-07 MaxDP=1.96D-05 DE=-9.91D-09 OVMax= 6.93D-05

 Cycle  15  Pass 1  IDiag  1:
 RMSU=  7.39D-08    CP:  9.56D-01  2.13D+00  8.10D-01  6.66D-01  7.83D-01
                    CP:  1.45D+00  1.84D+00  2.20D+00  1.67D+00  1.94D+00
                    CP:  1.62D+00  1.40D+00  1.13D+00  1.05D+00
 E= -1092.85368268030     Delta-E=       -0.000000002854 Rises=F Damp=F
 DIIS: error= 5.73D-07 at cycle  15 NSaved=  15.
 NSaved=15 IEnMin=15 EnMin= -1092.85368268030     IErMin=15 ErrMin= 5.73D-07
 ErrMax= 5.73D-07  0.00D+00 EMaxC= 1.00D-01 BMatC= 9.34D-10 BMatP= 4.16D-09
 IDIUse=1 WtCom= 1.00D+00 WtEn= 0.00D+00
 Coeff-Com: -0.560D-05 0.130D-04-0.167D-03-0.452D-03-0.111D-02-0.240D-02
 Coeff-Com: -0.169D-03 0.875D-02 0.128D-01-0.190D-02-0.415D-01-0.797D-01
 Coeff-Com:  0.569D-01 0.377D+00 0.672D+00
 Coeff:     -0.560D-05 0.130D-04-0.167D-03-0.452D-03-0.111D-02-0.240D-02
 Coeff:     -0.169D-03 0.875D-02 0.128D-01-0.190D-02-0.415D-01-0.797D-01
 Coeff:      0.569D-01 0.377D+00 0.672D+00
 Gap=     0.149 Goal=   None    Shift=    0.000
 Gap=     0.060 Goal=   None    Shift=    0.000
 RMSDP=6.88D-08 MaxDP=7.99D-06 DE=-2.85D-09 OVMax= 1.90D-05

 Cycle  16  Pass 1  IDiag  1:
 RMSU=  4.03D-08    CP:  9.56D-01  2.13D+00  8.10D-01  6.66D-01  7.83D-01
                    CP:  1.45D+00  1.84D+00  2.20D+00  1.68D+00  1.95D+00
                    CP:  1.64D+00  1.43D+00  1.22D+00  1.27D+00  1.05D+00
 E= -1092.85368268097     Delta-E=       -0.000000000673 Rises=F Damp=F
 DIIS: error= 4.04D-07 at cycle  16 NSaved=  16.
 NSaved=16 IEnMin=16 EnMin= -1092.85368268097     IErMin=16 ErrMin= 4.04D-07
 ErrMax= 4.04D-07  0.00D+00 EMaxC= 1.00D-01 BMatC= 2.75D-10 BMatP= 9.34D-10
 IDIUse=1 WtCom= 1.00D+00 WtEn= 0.00D+00
 Coeff-Com:  0.302D-05-0.471D-06 0.493D-04 0.834D-04 0.358D-04-0.457D-03
 Coeff-Com: -0.193D-02-0.333D-02 0.558D-02 0.232D-01 0.550D-02-0.520D-01
 Coeff-Com: -0.111D+00-0.142D+00 0.352D+00 0.925D+00
 Coeff:      0.302D-05-0.471D-06 0.493D-04 0.834D-04 0.358D-04-0.457D-03
 Coeff:     -0.193D-02-0.333D-02 0.558D-02 0.232D-01 0.550D-02-0.520D-01
 Coeff:     -0.111D+00-0.142D+00 0.352D+00 0.925D+00
 Gap=     0.149 Goal=   None    Shift=    0.000
 Gap=     0.060 Goal=   None    Shift=    0.000
 RMSDP=6.15D-08 MaxDP=6.87D-06 DE=-6.73D-10 OVMax= 1.99D-05

 Cycle  17  Pass 1  IDiag  1:
 RMSU=  2.09D-08    CP:  9.56D-01  2.13D+00  8.10D-01  6.66D-01  7.83D-01
                    CP:  1.45D+00  1.84D+00  2.20D+00  1.68D+00  1.95D+00
                    CP:  1.65D+00  1.46D+00  1.30D+00  1.45D+00  1.51D+00
                    CP:  1.14D+00
 E= -1092.85368268131     Delta-E=       -0.000000000334 Rises=F Damp=F
 DIIS: error= 1.90D-07 at cycle  17 NSaved=  17.
 NSaved=17 IEnMin=17 EnMin= -1092.85368268131     IErMin=17 ErrMin= 1.90D-07
 ErrMax= 1.90D-07  0.00D+00 EMaxC= 1.00D-01 BMatC= 6.78D-11 BMatP= 2.75D-10
 IDIUse=1 WtCom= 1.00D+00 WtEn= 0.00D+00
 Coeff-Com:  0.287D-05-0.320D-05 0.532D-04 0.119D-03 0.215D-03 0.192D-03
 Coeff-Com: -0.807D-03-0.324D-02 0.469D-03 0.105D-01 0.845D-02-0.110D-01
 Coeff-Com: -0.620D-01-0.127D+00 0.516D-01 0.442D+00 0.690D+00
 Coeff:      0.287D-05-0.320D-05 0.532D-04 0.119D-03 0.215D-03 0.192D-03
 Coeff:     -0.807D-03-0.324D-02 0.469D-03 0.105D-01 0.845D-02-0.110D-01
 Coeff:     -0.620D-01-0.127D+00 0.516D-01 0.442D+00 0.690D+00
 Gap=     0.149 Goal=   None    Shift=    0.000
 Gap=     0.060 Goal=   None    Shift=    0.000
 RMSDP=2.50D-08 MaxDP=3.03D-06 DE=-3.34D-10 OVMax= 8.88D-06

 Cycle  18  Pass 1  IDiag  1:
 RMSU=  1.17D-08    CP:  9.56D-01  2.13D+00  8.10D-01  6.66D-01  7.83D-01
                    CP:  1.45D+00  1.84D+00  2.20D+00  1.68D+00  1.95D+00
                    CP:  1.65D+00  1.47D+00  1.33D+00  1.50D+00  1.65D+00
                    CP:  1.39D+00  1.09D+00
 E= -1092.85368268133     Delta-E=       -0.000000000021 Rises=F Damp=F
 DIIS: error= 9.50D-08 at cycle  18 NSaved=  18.
 NSaved=18 IEnMin=18 EnMin= -1092.85368268133     IErMin=18 ErrMin= 9.50D-08
 ErrMax= 9.50D-08  0.00D+00 EMaxC= 1.00D-01 BMatC= 2.33D-11 BMatP= 6.78D-11
 IDIUse=1 WtCom= 1.00D+00 WtEn= 0.00D+00
 Coeff-Com: -0.186D-07-0.107D-05 0.587D-05 0.240D-04 0.981D-04 0.276D-03
 Coeff-Com:  0.495D-03-0.196D-03-0.206D-02-0.473D-02 0.203D-02 0.188D-01
 Coeff-Com:  0.173D-01 0.919D-03-0.128D+00-0.178D+00 0.350D+00 0.923D+00
 Coeff:     -0.186D-07-0.107D-05 0.587D-05 0.240D-04 0.981D-04 0.276D-03
 Coeff:      0.495D-03-0.196D-03-0.206D-02-0.473D-02 0.203D-02 0.188D-01
 Coeff:      0.173D-01 0.919D-03-0.128D+00-0.178D+00 0.350D+00 0.923D+00
 Gap=     0.149 Goal=   None    Shift=    0.000
 Gap=     0.060 Goal=   None    Shift=    0.000
 RMSDP=1.81D-08 MaxDP=2.14D-06 DE=-2.14D-11 OVMax= 5.29D-06

 Cycle  19  Pass 1  IDiag  1:
 RMSU=  6.27D-09    CP:  9.56D-01  2.13D+00  8.10D-01  6.66D-01  7.83D-01
                    CP:  1.45D+00  1.84D+00  2.20D+00  1.68D+00  1.95D+00
                    CP:  1.65D+00  1.47D+00  1.34D+00  1.54D+00  1.75D+00
                    CP:  1.56D+00  1.55D+00  1.33D+00
 E= -1092.85368268136     Delta-E=       -0.000000000031 Rises=F Damp=F
 DIIS: error= 4.80D-08 at cycle  19 NSaved=  19.
 NSaved=19 IEnMin=19 EnMin= -1092.85368268136     IErMin=19 ErrMin= 4.80D-08
 ErrMax= 4.80D-08  0.00D+00 EMaxC= 1.00D-01 BMatC= 4.32D-12 BMatP= 2.33D-11
 IDIUse=1 WtCom= 1.00D+00 WtEn= 0.00D+00
 Coeff-Com: -0.723D-06 0.506D-06-0.116D-04-0.236D-04-0.237D-04 0.736D-05
 Coeff-Com:  0.371D-03 0.741D-03-0.730D-03-0.388D-02-0.172D-02 0.745D-02
 Coeff-Com:  0.191D-01 0.316D-01-0.498D-01-0.163D+00-0.436D-01 0.218D+00
 Coeff-Com:  0.986D+00
 Coeff:     -0.723D-06 0.506D-06-0.116D-04-0.236D-04-0.237D-04 0.736D-05
 Coeff:      0.371D-03 0.741D-03-0.730D-03-0.388D-02-0.172D-02 0.745D-02
 Coeff:      0.191D-01 0.316D-01-0.498D-01-0.163D+00-0.436D-01 0.218D+00
 Coeff:      0.986D+00
 Gap=     0.149 Goal=   None    Shift=    0.000
 Gap=     0.060 Goal=   None    Shift=    0.000
 RMSDP=1.09D-08 MaxDP=1.22D-06 DE=-3.14D-11 OVMax= 3.88D-06

 Cycle  20  Pass 1  IDiag  1:
 RMSU=  3.73D-09    CP:  9.56D-01  2.13D+00  8.10D-01  6.66D-01  7.83D-01
                    CP:  1.45D+00  1.84D+00  2.20D+00  1.68D+00  1.95D+00
                    CP:  1.65D+00  1.47D+00  1.35D+00  1.56D+00  1.81D+00
                    CP:  1.64D+00  1.80D+00  1.76D+00  1.46D+00
 E= -1092.85368268140     Delta-E=       -0.000000000043 Rises=F Damp=F
 DIIS: error= 5.46D-08 at cycle  20 NSaved=  20.
 NSaved=20 IEnMin=20 EnMin= -1092.85368268140     IErMin=19 ErrMin= 4.80D-08
 ErrMax= 5.46D-08  0.00D+00 EMaxC= 1.00D-01 BMatC= 2.84D-12 BMatP= 4.32D-12
 IDIUse=1 WtCom= 1.00D+00 WtEn= 0.00D+00
 Coeff-Com: -0.476D-06 0.752D-06-0.924D-05-0.237D-04-0.490D-04-0.110D-03
 Coeff-Com:  0.641D-04 0.500D-03 0.326D-03-0.636D-03-0.167D-02-0.238D-02
 Coeff-Com:  0.569D-02 0.213D-01 0.183D-01-0.335D-01-0.143D+00-0.246D+00
 Coeff-Com:  0.618D+00 0.763D+00
 Coeff:     -0.476D-06 0.752D-06-0.924D-05-0.237D-04-0.490D-04-0.110D-03
 Coeff:      0.641D-04 0.500D-03 0.326D-03-0.636D-03-0.167D-02-0.238D-02
 Coeff:      0.569D-02 0.213D-01 0.183D-01-0.335D-01-0.143D+00-0.246D+00
 Coeff:      0.618D+00 0.763D+00
 Gap=     0.149 Goal=   None    Shift=    0.000
 Gap=     0.060 Goal=   None    Shift=    0.000
 RMSDP=6.47D-09 MaxDP=6.10D-07 DE=-4.27D-11 OVMax= 2.56D-06

 Error on total polarization charges =  0.03805
 SCF Done:  E(UB3LYP) =  -1092.85368268     A.U. after   20 cycles
            NFock= 20  Conv=0.65D-08     -V/T= 2.0095
 <Sx>= 0.0000 <Sy>= 0.0000 <Sz>= 0.5000 <S**2>= 0.7621 S= 0.5060
 <L.S>= 0.000000000000E+00
 KE= 1.082519970218D+03 PE=-6.947032700410D+03 EE= 2.554131451915D+03
 Annihilation of the first spin contaminant:
 S**2 before annihilation     0.7621,   after     0.7501
 Leave Link  502 at Mon Dec 17 14:02:23 2018, MaxMem=  1342177280 cpu:            3214.1 elap:             204.3
 (Enter /gpfs/apps/hpc/Apps/Restricted/Gaussian/Rev_A.03/g16/l801.exe)
 DoSCS=F DFT=T ScalE2(SS,OS)=  1.000000  1.000000
 Range of M.O.s used for correlation:     1   515
 NBasis=   515 NAE=    93 NBE=    92 NFC=     0 NFV=     0
 NROrb=    515 NOA=    93 NOB=    92 NVA=   422 NVB=   423

 **** Warning!!: The largest alpha MO coefficient is  0.11076125D+02


 **** Warning!!: The largest beta MO coefficient is  0.11068461D+02


 **** Warning!!: The smallest beta delta epsilon is  0.59715332D-01

 Leave Link  801 at Mon Dec 17 14:02:23 2018, MaxMem=  1342177280 cpu:               0.5 elap:               0.0
 (Enter /gpfs/apps/hpc/Apps/Restricted/Gaussian/Rev_A.03/g16/l1101.exe)
 Using compressed storage, NAtomX=    51.
 Will process     52 centers per pass.
 R6Disp: Adding Grimme-D3(BJ) dispersion energy 1st derivatives to the gradient.
 Leave Link 1101 at Mon Dec 17 14:02:24 2018, MaxMem=  1342177280 cpu:              14.1 elap:               0.9
 (Enter /gpfs/apps/hpc/Apps/Restricted/Gaussian/Rev_A.03/g16/l1102.exe)
 Symmetrizing basis deriv contribution to polar:
 IMax=3 JMax=2 DiffMx= 0.00D+00
 Leave Link 1102 at Mon Dec 17 14:02:24 2018, MaxMem=  1342177280 cpu:               0.8 elap:               0.1
 (Enter /gpfs/apps/hpc/Apps/Restricted/Gaussian/Rev_A.03/g16/l1110.exe)
 Forming Gx(P) for the SCF density, NAtomX=    51.
 Integral derivatives from FoFJK, PRISM(SPDF).
 Do as many integral derivatives as possible in FoFJK.
 G2DrvN: MDV=    1342173472.
 G2DrvN: will do    52 centers at a time, making    1 passes.
 Calling FoFCou, ICntrl=  3107 FMM=F I1Cent=   0 AccDes= 0.00D+00.
 FoFJK:  IHMeth= 1 ICntrl=    3107 DoSepK=F KAlg= 0 I1Cent=           0 FoldK=F
 IRaf=         0 NMat=       1 IRICut=       1 DoRegI=T DoRafI=F ISym2E= 0 IDoP0=0 IntGTp=1.
 FoFCou: FMM=F IPFlag=           0 FMFlag=      100000 FMFlg1=           0
         NFxFlg=           0 DoJE=F BraDBF=F KetDBF=F FulRan=T
         wScrn=  0.000000 ICntrl=      3107 IOpCl=  1 I1Cent=           0 NGrid=           0
         NMat0=    1 NMatS0=      1 NMatT0=    0 NMatD0=    1 NMtDS0=    0 NMtDT0=    0
 Symmetry not used in FoFCou.
 NEqPCM:  Using equilibrium solvation (IEInf=0, Eps=   8.9300, EpsInf=   2.0283)
 G2PCM: DoFxE=T DoFxN=T DoGrad=T DoDP/DQ/DG/TGxP=FFFF NFrqRd=   0 IEInf=0 SqF1=F DoCFld=F IF1Alg=4.
 GePol: Maximum number of non-zero 1st derivatives   =     220
 End of G2Drv F.D. properties file   721 does not exist.
 End of G2Drv F.D. properties file   722 does not exist.
 End of G2Drv F.D. properties file   788 does not exist.
 Leave Link 1110 at Mon Dec 17 14:10:40 2018, MaxMem=  1342177280 cpu:            7913.9 elap:             496.0
 (Enter /gpfs/apps/hpc/Apps/Restricted/Gaussian/Rev_A.03/g16/l1002.exe)
 Minotr:  UHF open shell wavefunction.
          IDoAtm=11111111111111111111111111111111111111111111111111
          IDoAtm=1
 NEqPCM:  Using equilibrium solvation (IEInf=0, Eps=   8.9300, EpsInf=   2.0283)
          Direct CPHF calculation.
          Differentiating once with respect to electric field.
                with respect to dipole field.
          Differentiating once with respect to nuclear coordinates.
          Requested convergence is 1.0D-08 RMS, and 1.0D-07 maximum.
          Secondary convergence is 1.0D-12 RMS, and 1.0D-12 maximum.
          NewPWx=T KeepS1=F KeepF1=F KeepIn=T MapXYZ=F SortEE=F KeepMc=T.
        15472 words used for storage of precomputed grid.
 Two-electron integral symmetry not used.
          MDV=    1342177280 using IRadAn=       1.
          Solving linear equations simultaneously, MaxMat=     384.
 FoF2E skips out because all densities are zero.
 CalDSu exits because no D1Ps are significant.
 FoFJK:  IHMeth= 1 ICntrl=       0 DoSepK=F KAlg= 0 I1Cent=           0 FoldK=F
 IRaf= 580000000 NMat=      80 IRICut=     200 DoRegI=T DoRafI=T ISym2E= 0 IDoP0=0 IntGTp=1.
          There are   156 degrees of freedom in the 1st order CPHF.  IDoFFX=6 NUNeed=     3.
    153 vectors produced by pass  0 Test12= 7.82D-14 1.00D-09 XBig12= 4.28D+03 5.53D+01.
 AX will form    80 AO Fock derivatives at one time.
    153 vectors produced by pass  1 Test12= 7.82D-14 1.00D-09 XBig12= 3.40D+02 3.13D+00.
    153 vectors produced by pass  2 Test12= 7.82D-14 1.00D-09 XBig12= 6.90D+00 4.08D-01.
    153 vectors produced by pass  3 Test12= 7.82D-14 1.00D-09 XBig12= 8.06D-02 4.38D-02.
    153 vectors produced by pass  4 Test12= 7.82D-14 1.00D-09 XBig12= 4.55D-04 1.74D-03.
    140 vectors produced by pass  5 Test12= 7.82D-14 1.00D-09 XBig12= 1.91D-06 8.96D-05.
     74 vectors produced by pass  6 Test12= 7.82D-14 1.00D-09 XBig12= 9.11D-09 5.48D-06.
     17 vectors produced by pass  7 Test12= 7.82D-14 1.00D-09 XBig12= 4.47D-11 3.86D-07.
      3 vectors produced by pass  8 Test12= 7.82D-14 1.00D-09 XBig12= 2.12D-13 3.28D-08.
      1 vectors produced by pass  9 Test12= 7.82D-14 1.00D-09 XBig12= 1.55D-15 4.06D-09.
 InvSVY:  IOpt=1 It=  1 EMax= 2.84D-14
 Solved reduced A of dimension  1000 with   156 vectors.
 FullF1:  Do perturbations      1 to       3.
 Isotropic polarizability for W=    0.000000      559.77 Bohr**3.
 End of Minotr F.D. properties file   721 does not exist.
 End of Minotr F.D. properties file   722 does not exist.
 End of Minotr F.D. properties file   788 does not exist.
 Leave Link 1002 at Mon Dec 17 14:28:45 2018, MaxMem=  1342177280 cpu:           17308.4 elap:            1084.4
 (Enter /gpfs/apps/hpc/Apps/Restricted/Gaussian/Rev_A.03/g16/l601.exe)
 Copying SCF densities to generalized density rwf, IOpCl= 1 IROHF=0.

 **********************************************************************

            Population analysis using the SCF density.

 **********************************************************************

 Alpha  occ. eigenvalues --  -19.24610 -14.37503 -14.37441 -14.35492 -10.33241
 Alpha  occ. eigenvalues --  -10.28941 -10.26895 -10.26015 -10.25252 -10.24563
 Alpha  occ. eigenvalues --  -10.24436 -10.24233 -10.23108 -10.22985 -10.22756
 Alpha  occ. eigenvalues --  -10.22628 -10.22563 -10.22302 -10.21604 -10.20228
 Alpha  occ. eigenvalues --  -10.20003 -10.19028 -10.18985 -10.18474 -10.18470
 Alpha  occ. eigenvalues --  -10.18173  -1.16064  -1.03811  -0.96526  -0.90469
 Alpha  occ. eigenvalues --   -0.88534  -0.87855  -0.83539  -0.82747  -0.81751
 Alpha  occ. eigenvalues --   -0.78651  -0.76124  -0.74969  -0.74472  -0.72669
 Alpha  occ. eigenvalues --   -0.72029  -0.69193  -0.67234  -0.64692  -0.63324
 Alpha  occ. eigenvalues --   -0.62138  -0.61821  -0.60807  -0.60342  -0.58415
 Alpha  occ. eigenvalues --   -0.56283  -0.54525  -0.52716  -0.51788  -0.50779
 Alpha  occ. eigenvalues --   -0.50263  -0.49960  -0.48979  -0.48249  -0.47086
 Alpha  occ. eigenvalues --   -0.46982  -0.45559  -0.45027  -0.44738  -0.44486
 Alpha  occ. eigenvalues --   -0.44266  -0.43870  -0.43262  -0.42744  -0.41693
 Alpha  occ. eigenvalues --   -0.41687  -0.41278  -0.40091  -0.39758  -0.38928
 Alpha  occ. eigenvalues --   -0.38836  -0.38669  -0.38638  -0.36879  -0.36497
 Alpha  occ. eigenvalues --   -0.35612  -0.35174  -0.35027  -0.32977  -0.32644
 Alpha  occ. eigenvalues --   -0.32052  -0.30727  -0.30661  -0.29876  -0.28233
 Alpha  occ. eigenvalues --   -0.26387  -0.25146  -0.24307
 Alpha virt. eigenvalues --   -0.09371  -0.05886  -0.04172  -0.00503   0.01551
 Alpha virt. eigenvalues --    0.04568   0.06947   0.08362   0.09320   0.09755
 Alpha virt. eigenvalues --    0.10007   0.10669   0.11769   0.11936   0.12529
 Alpha virt. eigenvalues --    0.12792   0.13121   0.13680   0.14878   0.15201
 Alpha virt. eigenvalues --    0.15438   0.15792   0.16056   0.16721   0.16855
 Alpha virt. eigenvalues --    0.17098   0.17172   0.17569   0.17924   0.18049
 Alpha virt. eigenvalues --    0.18179   0.18259   0.18706   0.20104   0.20504
 Alpha virt. eigenvalues --    0.21260   0.21888   0.22730   0.23641   0.23869
 Alpha virt. eigenvalues --    0.24349   0.24536   0.25393   0.25674   0.27155
 Alpha virt. eigenvalues --    0.27481   0.28355   0.29060   0.30551   0.30716
 Alpha virt. eigenvalues --    0.31859   0.33192   0.33758   0.35528   0.38271
 Alpha virt. eigenvalues --    0.39251   0.40372   0.42307   0.42582   0.45190
 Alpha virt. eigenvalues --    0.46654   0.47711   0.48012   0.48713   0.49880
 Alpha virt. eigenvalues --    0.50065   0.50358   0.51307   0.51579   0.51866
 Alpha virt. eigenvalues --    0.51982   0.52222   0.52869   0.53022   0.53289
 Alpha virt. eigenvalues --    0.53470   0.53796   0.55016   0.55180   0.55230
 Alpha virt. eigenvalues --    0.56509   0.56620   0.57380   0.58765   0.58841
 Alpha virt. eigenvalues --    0.58955   0.59866   0.60498   0.60990   0.61363
 Alpha virt. eigenvalues --    0.61831   0.62117   0.62904   0.63419   0.64220
 Alpha virt. eigenvalues --    0.64770   0.65535   0.65744   0.67032   0.67806
 Alpha virt. eigenvalues --    0.68949   0.69367   0.70384   0.70960   0.71424
 Alpha virt. eigenvalues --    0.71631   0.73488   0.74192   0.74505   0.75035
 Alpha virt. eigenvalues --    0.76020   0.76839   0.77365   0.78043   0.78904
 Alpha virt. eigenvalues --    0.79850   0.80145   0.80326   0.80495   0.81296
 Alpha virt. eigenvalues --    0.83184   0.83410   0.83821   0.84155   0.84763
 Alpha virt. eigenvalues --    0.84983   0.85595   0.85949   0.86926   0.87236
 Alpha virt. eigenvalues --    0.87560   0.88552   0.88649   0.89698   0.90618
 Alpha virt. eigenvalues --    0.90765   0.91045   0.91359   0.92117   0.92489
 Alpha virt. eigenvalues --    0.93155   0.93971   0.94116   0.94783   0.95161
 Alpha virt. eigenvalues --    0.95189   0.95620   0.96112   0.97166   0.98947
 Alpha virt. eigenvalues --    0.99961   1.03978   1.04963   1.05259   1.07497
 Alpha virt. eigenvalues --    1.08305   1.09087   1.09928   1.12318   1.13590
 Alpha virt. eigenvalues --    1.14028   1.14641   1.15252   1.16860   1.18604
 Alpha virt. eigenvalues --    1.19389   1.19724   1.21407   1.22893   1.23785
[...]
 1,0.00053916,0.00029703,0.00041738,0.00006805,0.00103065,0.00081047,0.
 00035498,0.00009184,-0.00026714,0.00001905,0.00063886,-0.00073169,-0.0
 8328426,0.07662281,-0.00000096,0.00000257,0.00000086,0.00000203,0.0000
 0273,0.00000295,0.00000036,-0.00000122,-0.00000048,0.00000244,0.000000
 64,0.00000538,-0.00000229,0.00000282,0.00000189,0.00000359,0.,-0.00005
 127,0.00000018,-0.00000117,0.00000187,0.00000014,-0.00000014,-0.000001
 62,0.00000026,-0.00000007,-0.00000018,-0.00000018,-0.00000015,-0.00000
 219,0.00000513,-0.00000203,-0.00000039,-0.00000147,0.00000159,-0.00000
 055,0.00000269,-0.00000269,0.00000078,-0.00000165,0.00000436,0.0000007
 2,-0.00000003,-0.00000296,-0.00000016,-0.00000075,-0.00000024,-0.00000
 010,-0.00000008,-0.00000173,-0.00000013,0.00000005,-0.00000039,-0.0000
 0177,0.00000005,0.00000013,-0.00000012,-0.00000028,0.00000062,0.000000
 70,-0.00000008,0.00000049,-0.00000001,0.00000008,0.,-0.00000058,-0.000
 00034,-0.00000026,-0.00000005,0.00000011,-0.00000006,0.00000004,-0.000
 00003,0.00000005,0.00000001,0.00000018,0.00000006,0.00000002,0.0000000
 8,0.00000007,-0.00000003,0.00000165,-0.00000099,0.00000080,0.00001933,
 0.00000724,-0.00000247,-0.00001394,0.00000588,0.00005239,-0.00000609,0
 .00001092,0.00000683,0.00005638,0.00005031,0.00037614,-0.00010905,-0.0
 0011999,-0.00088689,-0.00159301,-0.00340841,-0.00418310,0.00151595,0.0
 0236463,-0.00559427,0.00000953,0.00002466,0.00011176,-0.02566255,0.009
 37800,-0.00009203,0.00032338,0.00000636,-0.00000768,-0.00188464,0.0001
 4407,0.00006159,0.02922587,-0.01035113,0.00095653,-0.00028222,-0.00006
 350,0.00001395,0.00207623,-0.00024365,-0.00001980,-0.00272582,0.001055
 18,-0.04717747,0.00069454,0.00069651,0.00071607,0.00075505,0.00010647,
 0.00098838,-0.00073538,-0.00052976,0.00124399,-0.00070772,0.00001464,0
 .00127427,0.00290742,-0.00019463,0.05277644,-0.00000355,0.00000155,-0.
 00000012,0.00000728,0.00000768,0.00000011,0.00000109,-0.00000696,0.000
 00033,0.00001120,0.00000616,0.00000012,-0.00001206,0.00000787,-0.00000
 078,0.00000566,0.00000648,-0.00000101,-0.00000328,0.00000929,-0.000000
 34,0.,0.00000019,-0.00000002,0.00000014,-0.00000009,0.00000005,-0.0000
 0148,0.00000122,-0.00000007,0.00000643,-0.00000857,0.00000065,-0.00000
 598,0.00000565,-0.00000068,0.00000972,-0.00001021,0.00000123,-0.000006
 03,0.00001743,-0.00000092,-0.00000013,-0.00001243,-0.00000013,-0.00000
 287,-0.00000119,-0.00000029,-0.00000097,-0.00000701,0.00000012,0.00000
 009,-0.00000050,-0.00000008,0.00000020,0.00000055,-0.00000001,-0.00000
 023,0.00000319,0.00000137,-0.00000085,0.00000020,-0.00000039,-0.000000
 34,-0.00000005,-0.00000037,-0.00000095,-0.00000011,-0.00000040,0.00000
 058,-0.00000043,0.00000011,0.00000029,0.00000020,0.00000002,0.00000032
 ,0.00000021,0.,0.00000025,0.00000038,-0.00000001,0.00000669,-0.0000049
 2,0.00000065,0.00000640,-0.00000296,-0.00000027,-0.00002807,-0.0000195
 9,-0.00000013,-0.00002410,-0.00001654,-0.00001178,-0.00001013,0.000013
 28,0.00000596,-0.00006627,0.00004539,-0.00001916,0.00092053,-0.0009645
 5,0.00051554,0.00080819,-0.00103101,-0.00025795,0.00003879,0.00014083,
 -0.00001969,-0.00073945,-0.01622620,0.00167840,0.00010587,0.00068996,-
 0.00018629,0.00017757,0.00019144,-0.00001863,-0.00088547,-0.01462975,0
 .00223934,0.00024267,0.00060963,0.00014092,0.00016430,0.00017074,-0.00
 004120,-0.04993724,0.00151985,-0.00018979,0.00054174,0.00074324,0.0003
 3813,-0.00079659,-0.00171476,-0.00248714,0.00039959,0.00059960,-0.0003
 7015,-0.00046433,-0.00095917,0.00258404,0.00084833,0.03023647,-0.00384
 733,0.04870578,-0.00000333,0.00000011,0.00000043,-0.00000221,0.0000035
 6,-0.00000027,-0.00000536,0.00000635,-0.00000042,-0.00001280,-0.000006
 18,0.00000024,0.00000762,-0.00003051,0.00000183,-0.00002658,0.00004504
 ,-0.00000735,0.00001006,0.00001497,0.00000044,-0.00000070,0.00000011,-
 0.00000006,-0.00000315,0.00000194,-0.00000012,0.00000177,0.00000255,0.
 00000005,-0.00001988,0.00000051,-0.00000127,0.00000870,-0.00000808,0.0
 0000085,-0.00000217,-0.00000293,-0.00000021,0.00000236,-0.00000026,0.0
 0000044,0.00000296,-0.00000041,0.00000002,-0.00000108,0.00000070,0.000
 00003,0.00000196,0.00000450,0.00000010,0.00000078,-0.00000033,-0.00000
 036,0.00000020,-0.00000040,-0.00000002,0.00000140,0.00000207,0.0000011
 7,0.00000034,0.00000050,-0.00000028,-0.00000063,-0.00000055,-0.0000010
 0,-0.00000061,-0.00000040,0.00000023,-0.00000063,0.00000059,-0.0000001
 4,-0.00000055,-0.00000035,0.00000021,-0.00000051,-0.00000041,-0.000000
 25,-0.00000019,-0.00000038,0.,-0.00000991,0.00000401,-0.00000091,-0.00
 006755,-0.00003299,-0.00000057,0.00001751,-0.00012333,0.00001058,0.000
 06031,0.00003336,0.00002070,-0.00016910,0.00004090,0.00001849,0.000099
 23,0.00023829,-0.00006157,0.00075339,0.00051321,0.00062167,0.00040127,
 0.00037950,-0.00052724,0.00011703,-0.00005949,-0.00000314,0.00015536,-
 0.01497154,0.00088726,-0.00029556,0.00060983,0.00000989,-0.00007950,0.
 00031186,-0.00013799,0.00026014,-0.00745685,0.00138119,-0.00027868,0.0
 0052181,-0.00006792,-0.00013407,0.00028069,0.00005344,0.00042438,-0.29
 937937,0.03039936,0.00030306,0.00069872,-0.00021469,-0.00173904,-0.000
 21046,-0.00268220,0.00006371,0.00060654,0.00044519,-0.00076163,0.00085
 271,0.00161079,0.00023525,-0.00948408,0.00106442,0.00059316,0.32653323
 ,-0.00000007,0.00000099,0.00000083,0.00000029,0.00000015,0.00000073,0.
 00000034,-0.00000042,-0.00000010,0.00000100,0.00000024,0.00000156,-0.0
 0000055,0.00000296,-0.00000025,0.00000319,-0.00000403,-0.00001355,-0.0
 0000096,-0.00000242,0.00000012,0.00000009,-0.00000007,-0.00000044,0.00
 000032,-0.00000015,0.00000013,0.00000001,-0.00000032,0.00000028,0.0000
 0275,-0.00000020,0.00000002,-0.00000067,0.00000064,-0.00000033,0.00000
 032,0.00000014,0.00000023,-0.00000037,0.00000013,0.00000071,-0.0000000
 8,-0.00000004,-0.00000014,0.00000009,-0.00000006,0.00000006,-0.0000001
 1,-0.00000035,-0.00000009,-0.00000002,-0.00000013,-0.00000123,0.,0.000
 00004,-0.00000014,-0.00000046,-0.00000039,0.00000026,0.00000037,0.0000
 0054,0.00000022,0.00000019,0.00000006,-0.00000091,-0.00000029,-0.00000
 029,0.00000001,0.00000004,-0.00000004,0.00000004,-0.00000003,0.0000000
 5,-0.00000001,0.00000012,0.00000001,0.00000004,0.00000002,0.00000003,-
 0.00000006,0.00000079,-0.00000017,0.00000037,0.00001062,0.00000462,-0.
 00000100,-0.00000152,0.00001543,0.00001560,-0.00001107,-0.00000232,0.0
 0000076,0.00003311,0.00001462,0.00013401,-0.00002329,-0.00006677,-0.00
 029219,0.00117651,-0.00004267,0.00091530,-0.00131733,0.00024900,0.0011
 2844,-0.00001751,-0.00000185,-0.00005914,-0.00021353,-0.02752681,0.001
 70061,-0.00019351,0.00060979,-0.00009429,0.00027047,0.00022126,-0.0000
 9546,0.00031469,0.03081827,-0.00583891,0.00039066,-0.00057784,0.000056
 63,-0.00026461,-0.00032263,-0.00003391,-0.00001029,0.03028254,-0.05232
 421,0.00069691,0.00044439,0.00119699,-0.00346424,-0.00267915,-0.003598
 43,-0.00066652,-0.00036382,0.00137673,0.00355772,0.00159591,-0.0049868
 0,-0.00020785,0.00016256,-0.00055966,-0.00005223,-0.03282137,0.0613709
 0,-0.01693171,0.03514146,-0.00191565,0.01006626,0.00402192,0.00044634,
 -0.00036382,0.00320874,-0.00016672,-0.00237334,-0.00211918,0.00000089,
 -0.00134497,-0.00434630,0.00020501,-0.00998266,0.00018501,-0.00029978,
 -0.00621437,-0.02489652,0.00005149,0.00027234,-0.00049220,0.00004239,-
 0.00034184,-0.00007172,-0.00001109,0.00031769,-0.00044602,0.00002523,0
 .02159929,-0.00607149,0.00142086,-0.00251342,0.00293787,-0.00028434,0.
 00331818,-0.00260929,0.00044589,-0.00186744,0.00562480,-0.00039294,-0.
 00005736,-0.00384984,-0.00005415,-0.00059805,-0.00010376,-0.00008559,-
 0.00018112,-0.00205746,0.00003986,0.00068678,-0.00086449,0.00004546,0.
 00008366,0.00023166,0.00000339,-0.00002738,0.00096851,0.00039143,-0.00
 030091,0.00007928,-0.00012672,-0.00010628,0.00000105,-0.00008520,-0.00
 030142,0.00001945,-0.00012118,0.00013269,-0.00003682,0.00002791,0.0001
 3546,0.00008686,0.00000166,0.00014697,0.00009483,0.00001012,0.00014360
 ,0.00015268,0.00000272,0.00287015,-0.00006716,0.00024994,-0.02859854,0
 .04317611,-0.00166206,0.03462341,-0.01300490,0.00129924,-0.00180351,0.
 00804191,-0.00046526,0.02001182,0.04688758,-0.00185674,-0.00874510,0.0
 1013315,0.00034207,0.00203192,-0.00040183,0.00108635,0.00292370,-0.000
 80651,-0.00120357,0.00160652,-0.00131002,-0.00002707,-0.00024064,0.000
 29103,-0.00092927,-0.00015732,-0.00002025,0.00004617,-0.00016130,-0.00
 000626,-0.00024173,-0.00018092,0.00068521,0.00104576,-0.00031321,0.000
 01221,-0.00009448,-0.00025838,-0.00008708,0.00024802,-0.00014644,-0.00
 032832,0.00007753,0.00054392,-0.00008681,-0.00014140,0.00010600,-0.000
 11222,0.00006601,0.00065308,-0.00008489,0.00013309,0.00011559,-0.00015
 147,-0.00004894,0.00022303,0.00004655,-0.00002666,-0.00001921,0.000088
 86,-0.00001310,-0.01676934,0.02421040,0.00785560,0.00034288,0.00594671
 ,-0.00243754,0.00053036,0.00075285,0.00188032,-0.00002318,-0.00150471,
 -0.00094712,-0.00003011,0.00034119,-0.00187268,0.00011911,-0.00457769,
 -0.00064852,-0.00030647,-0.00542696,-0.00655775,-0.00026562,0.00014786
 ,-0.00045548,0.00004918,-0.00019667,-0.00001007,-0.00000287,0.00008672
 ,-0.00001107,0.00000448,0.00428184,-0.00373146,0.00051928,-0.00050374,
 0.00066771,-0.00007099,0.00025831,-0.00049460,0.00001682,-0.00051495,0
 .00110895,-0.00006181,0.00009444,-0.00084512,-0.00001113,-0.00003587,0
 .00004563,-0.00000728,-0.00005759,-0.00039112,0.00000604,0.00017698,-0
 .00141691,-0.00000596,0.00003786,0.00005742,0.00000330,-0.00000440,0.0
 0020270,0.00007185,-0.00006384,0.00001995,-0.00001917,-0.00001126,-0.0
 0001220,-0.00001121,-0.00005891,0.00001607,-0.00002948,0.00003583,-0.0
 0001334,0.00000819,0.00003606,0.00002360,-0.00000132,0.00003841,0.0000
 2545,0.00000457,0.00003422,0.00003743,0.00000058,0.00066667,0.00000709
 ,0.00005663,0.03342550,-0.03443458,0.00061806,-0.00031918,-0.02057397,
 0.00093712,0.00064371,0.00164657,0.00012957,0.03143603,-0.02424519,0.0
 0021053,0.00033630,0.01314623,0.00016814,0.00224763,-0.00056996,0.0009
 8530,0.00288772,-0.00093785,-0.00116613,0.00061264,-0.00025927,0.00003
 304,-0.00013815,0.00030777,-0.00085892,-0.00010300,0.00003380,0.000032
 05,-0.00025465,-0.00010734,-0.00024310,-0.00007203,0.00067997,0.000923
 27,-0.00013475,0.00006407,-0.00003500,-0.00043056,-0.00024284,0.000234
 51,-0.00015916,-0.00022400,0.00005762,0.00042951,-0.00009444,-0.000090
 01,0.00006560,-0.00009225,0.00003818,0.00051725,-0.00009771,0.00008426
 ,0.00006302,-0.00011376,-0.00002258,0.00013767,0.00002906,-0.00002012,
 -0.00000612,0.00005832,-0.00000963,-0.09493710,0.07450719,-0.00150404,
 0.00097972,0.00357005,-0.00002726,0.00040212,0.00143095,-0.00006782,-0
 .00006944,0.00023346,0.00012302,0.00003693,-0.00010918,-0.00017562,0.0
 0008246,-0.00038320,0.00010927,-0.00036680,-0.00389825,-0.00012310,-0.
 00020904,-0.00981260,-0.00001091,0.00002072,0.00019369,-0.00000030,0.0
 0000097,0.00007725,-0.00000516,0.00000298,0.00018863,-0.00004290,0.000
 00073,0.00462468,-0.00006369,0.00004330,0.00003892,0.00012550,0.000006
 13,-0.00069105,-0.00000192,0.00016813,-0.00004120,-0.00000574,-0.00010
 340,-0.00011814,-0.00000603,-0.00000509,0.00003650,-0.00001688,-0.0000
 4014,-0.00003636,-0.00001095,0.00001382,0.00055063,-0.00000349,0.00000
 471,0.00003352,0.00000894,0.00002440,-0.00004076,-0.00000496,-0.000010
 50,-0.00000037,-0.00000869,0.00000247,0.00000670,-0.00000948,0.0000046
 7,-0.00000005,0.00000509,-0.00000376,-0.00000663,0.00000425,0.00000503
 ,0.00000154,0.00000059,-0.00000051,0.00000103,0.00000211,0.00000306,0.
 00000057,0.00007298,0.00001084,-0.00006809,-0.00086077,0.00043931,-0.0
 2460426,0.00048816,0.00089518,0.00280602,-0.00016387,0.00029645,0.0050
 6041,-0.00013253,0.00044260,-0.03134006,-0.00017786,-0.00001954,-0.000
 06056,0.00061259,-0.00026007,-0.00038189,-0.00093156,0.00017382,-0.000
 45562,-0.00005127,-0.00009671,0.00011117,0.00006059,-0.00015201,-0.000
 07847,-0.00015015,-0.00000687,0.00017330,-0.00010310,-0.00012939,-0.00
 014619,-0.00004920,0.00003531,-0.00012261,0.00017282,0.00002085,0.0001
 5705,0.00042073,0.00029332,-0.00014066,-0.00000957,0.00000837,-0.00000
 620,0.00000999,0.00000544,-0.00002733,0.00002939,0.00000525,-0.0000071
 9,-0.00003866,-0.00000579,-0.00003226,-0.00002493,0.00000293,-0.000006
 61,-0.00000430,-0.00000297,-0.00001045,0.00000033,-0.00000008,-0.00000
 002,0.00262307,-0.00287368,0.05290597,0.00678367,-0.00090166,0.0001611
 3,0.00341488,-0.01503626,0.00143148,0.00011799,0.00386255,-0.00011321,
 -0.00438696,-0.00115912,-0.00014475,0.00259960,-0.00135146,0.00018011,
 0.00177045,0.00010789,-0.00004634,-0.01729409,-0.00629972,-0.00110977,
 -0.00034023,-0.00011378,-0.00016327,0.00008777,0.00007875,-0.00000524,
 0.00001168,0.00003899,-0.00000387,-0.01339880,0.03116830,-0.00124702,0
 .02087189,0.02817907,0.00143586,-0.00674063,0.00675400,-0.00047801,0.0
 0316799,-0.00902620,0.00050339,0.00227905,0.00624607,0.00011996,0.0021
 2556,0.00199374,0.00007817,-0.00674660,0.00987789,-0.00143005,0.000050
 11,-0.00002957,0.00000272,-0.00049699,0.00013437,0.00003124,0.00003759
 ,-0.00098768,-0.00035051,0.00023185,-0.00006340,0.00012012,0.00000824,
 0.00000340,0.00005249,0.00025268,-0.00000177,0.00012353,-0.00109738,-0
 .00030156,-0.00006338,-0.00002266,-0.00023048,-0.00005719,-0.00004973,
 -0.00022700,0.00006915,-0.00002657,-0.00004857,0.00000331,-0.08088174,
 -0.05343769,-0.00321977,0.00709098,0.00576418,0.00008394,0.00019266,0.
 00047080,-0.00003065,0.00009313,0.00001838,0.00000165,0.00056635,0.000
 34285,0.00002908,-0.00008858,0.00017312,-0.00001211,0.00003256,-0.0000
 1846,0.00003465,0.00003944,-0.00002579,-0.00002908,0.00000991,-0.00001
 724,0.00000120,-0.00000549,0.00000676,-0.00002089,-0.00000157,0.000003
 71,0.00000009,-0.00000335,-0.00000184,-0.00000009,-0.00000430,0.000010
 85,0.00001992,-0.00000413,0.00000211,-0.00000207,-0.00000287,-0.000001
 64,0.00000243,-0.00000286,-0.00000876,0.00000121,0.00001359,-0.0000017
 9,-0.00000371,0.00000048,0.00000024,0.00000173,0.00001429,-0.00000067,
 0.00000384,0.00000114,-0.00000061,-0.00000202,0.00000611,0.00000063,-0
 .00000016,-0.00000018,0.00000459,-0.00000043,-0.00171206,-0.00043765,-
 0.00008271,0.08143611,0.01277825,-0.00568790,0.00067945,-0.00055846,-0
 .02620058,0.00135455,-0.00066653,0.00764184,-0.00031194,-0.00904995,-0
 .00288073,-0.00023364,0.00608459,-0.00357414,0.00040974,0.00272971,0.0
 0171321,-0.00004542,-0.00699118,0.00151655,-0.00028329,0.00001783,-0.0
 0007645,-0.00005752,0.00011506,-0.00001600,-0.00000576,0.00000019,-0.0
 0001287,-0.00000630,0.01318902,0.03122634,0.00290382,0.03560577,-0.055
 39061,0.00396885,-0.01079909,0.01161755,-0.00116144,0.00529281,-0.0178
 3735,0.00084981,0.00457155,0.01164214,0.00023709,0.00221234,0.00102787
 ,0.00017090,-0.00211902,0.01698349,-0.00055278,-0.00049838,0.00031037,
 -0.00003707,-0.00031384,0.00000280,-0.00005421,0.00009878,-0.00131982,
 -0.00048758,0.00028024,-0.00009565,0.00017353,-0.00000943,-0.00000104,
 0.00006505,0.00032794,0.00001908,0.00018250,-0.00160283,0.00059867,-0.
 00028294,-0.00026213,-0.00046722,0.00025768,-0.00016895,-0.00044605,-0
 .00016968,-0.00018340,0.00010472,0.00003977,-0.05954080,-0.17719612,-0
 .00406421,0.01578784,0.01019877,0.00033755,0.00112468,0.00016549,0.000
 00542,-0.00003300,0.00002606,-0.00000318,0.00085895,0.00115459,-0.0000
 2079,-0.00000910,0.00017726,0.00002062,0.00000326,0.00002164,-0.000045
 27,0.00002792,0.00002324,0.00002485,-0.00002969,-0.00000292,-0.0000035
 8,-0.00000144,-0.00001782,0.00001576,0.00000262,0.00000186,0.00000270,
 0.00000230,-0.00000027,0.00000501,-0.00000112,-0.00001632,-0.00000326,
 0.00000148,0.00000271,-0.00000417,0.00000139,-0.00000247,-0.00000429,0
 .00000073,0.00000148,0.00000021,-0.00000806,0.00000240,-0.00000064,-0.
 00000149,0.00000539,-0.00000150,-0.00000463,0.00000143,0.00000065,-0.0
 0000115,0.00000482,0.00000019,-0.00000322,-0.00000025,-0.00000014,0.00
 000127,0.00000282,-0.00000043,-0.00274679,-0.00058277,-0.00007620,-0.0
 0551285,0.19563074,0.00032494,0.00027870,0.00091644,0.00095259,-0.0009
 6854,-0.00271436,0.00003691,0.00009198,-0.00042321,-0.00018189,-0.0000
 0813,0.00007721,0.00007612,-0.00003971,-0.00009476,0.00012503,-0.00004
 794,0.00051768,-0.00129377,-0.00042810,0.00088870,-0.00017301,-0.00006
 396,-0.00013944,0.00000724,0.00001312,0.00002497,0.00000130,0.00000636
 ,0.00001547,-0.00155398,0.00401151,-0.01027829,0.00105566,0.00351203,-
 0.00016771,-0.00009757,0.00020757,-0.00369854,0.00017512,-0.00046257,-
 0.00021671,0.00007528,0.00031799,0.00024590,0.00010166,0.00018859,0.00
 068260,-0.00114559,0.00074601,0.00686441,-0.00000996,0.00000613,0.0001
 7995,0.00004494,-0.00001639,-0.00096139,0.00001100,-0.00004572,0.00000
 481,-0.00000538,0.00000046,0.00001292,-0.00000812,-0.00000637,0.000017
 50,0.00002494,-0.00001767,0.00001716,-0.00005343,-0.00002037,-0.000425
 73,-0.00005774,-0.00010514,0.00005686,0.00002386,0.00006662,0.00006058
 ,-0.00000289,0.00000553,0.00005524,-0.00289434,-0.00371901,-0.03268051
 ,0.00038297,0.00023893,0.00103103,-0.00000903,0.00005376,0.00004525,0.
 00001428,0.00000010,-0.00001611,0.00005114,0.00000118,-0.00015023,-0.0
 0001013,0.00001959,0.00002458,0.00000025,0.00000018,0.00000459,0.00000
 717,-0.00000857,-0.00000598,0.00000248,-0.00000232,0.00000054,0.000000
 08,-0.00000033,-0.00000168,0.00000004,-0.00000032,0.00000020,-0.000000
 79,-0.00000129,-0.00000251,-0.00000049,0.00000404,0.00000417,-0.000000
 93,0.00000103,-0.00000021,-0.00000004,0.00000015,-0.00000175,-0.000000
 46,-0.00000082,0.00000172,0.00000172,0.00000016,-0.00000139,0.00000027
 ,-0.00000017,0.00000061,0.00000223,-0.00000091,-0.00000053,0.00000003,
 -0.00000010,0.00000009,0.00000066,-0.00000001,-0.00000095,-0.00000003,
 0.00000038,-0.00000037,-0.00012422,-0.00001913,0.00042422,0.00412388,-
 0.00378849,0.03980695\\-0.00000099,-0.00000111,0.00001136,-0.00000157,
 -0.00000163,0.00001580,-0.00000252,-0.00000137,0.00002257,-0.00000343,
 -0.00000100,0.00002450,-0.00000287,-0.00000037,0.00001997,-0.00000200,
 -0.00000011,0.00001323,0.00000027,-0.00000187,0.00000577,-0.00000274,-
 0.00000201,0.00002616,-0.00000406,-0.00000097,0.00002969,-0.00000365,0
 .00000022,0.00002179,-0.00000068,-0.00000164,0.00001208,0.00000120,-0.
 00000240,0.00000208,0.00000097,-0.00000145,0.00000047,0.00000233,-0.00
 000196,-0.00000607,0.00000314,-0.00000125,-0.00001107,0.00000297,-0.00
 000207,-0.00000940,0.00000228,-0.00000213,-0.00000304,0.00000202,-0.00
 000115,-0.00000731,0.00000381,-0.00000223,-0.00001334,0.00000397,-0.00
 000143,-0.00001814,0.00000150,0.00000248,-0.00002069,0.00000432,-0.000
 00178,-0.00001868,0.00000663,-0.00000446,-0.00002065,0.00000223,-0.000
 00278,-0.00000122,0.00000434,-0.00000637,0.00000220,-0.00000068,0.0000
 0064,0.00000127,0.00000317,-0.00000307,-0.00000558,0.00000040,-0.00000
 210,0.00000813,-0.00000016,-0.00000062,0.00000509,-0.00000158,0.000000
 40,0.00000801,-0.00000227,0.00000111,0.00000924,-0.00000072,0.00000062
 ,0.00000198,-0.00000052,0.00000140,-0.00000358,-0.00000461,0.00000712,
 -0.00000412,0.00000254,-0.00000276,-0.00000311,0.00000062,0.00000091,-
 0.00000796,-0.00000433,0.00000802,-0.00001000,-0.00000576,0.00000771,0
 .00000043,-0.00000666,0.00001002,-0.00000454,0.00000282,-0.00000185,-0
 .00000902,0.00000157,-0.00000243,0.00000142,0.00000547,-0.00000679,-0.
 00000279,-0.00000130,0.00000385,-0.00000966,-0.00000727,0.00001208,-0.
 00001027,-0.00000339,0.00000776,-0.00001456,0.00000492,-0.00000479,-0.
 00000855,0.00000402,-0.00000251,-0.00001352,-0.00000106,0.00000448,-0.
 00001399,-0.00000238,0.00000439,-0.00000536,-0.00000010,-0.00000016,0.
 00000175,-0.00000023,-0.00000258,0.00001122\\\@


 MARY HAD A LITTLE LAMB
      HIS FEET WERE BLACK AS SOOT,
           AND EVERYWHERE THAT MARY WENT
                HIS SOOTY FOOT HE PUT.

                    -- NONAME
 Job cpu time:       0 days  8 hours 26 minutes 28.7 seconds.
 Elapsed time:       0 days  0 hours 31 minutes 47.2 seconds.
 File lengths (MBytes):  RWF=   3152 Int=      0 D2E=      0 Chk=     60 Scr=      8
 Normal termination of Gaussian 16 at Mon Dec 17 18:27:38 2018.
