 Entering Gaussian System, Link 0=g16
 Initial command:
 /gpfs/apps/hpc/Apps/Restricted/Gaussian/Rev_A.03/g16/l1.exe "/gpfs/scratch60/fas/hammes_schiffer/jg2487/c43n04/Gau-432273.inp" -scrdir="/gpfs/scratch60/fas/hammes_schiffer/jg2487/c43n04/"
 Entering Link 1 = /gpfs/apps/hpc/Apps/Restricted/Gaussian/Rev_A.03/g16/l1.exe PID=    432274.
  
 Copyright (c) 1988,1990,1992,1993,1995,1998,2003,2009,2016,
            Gaussian, Inc.  All Rights Reserved.
  
 This is part of the Gaussian(R) 16 program.  It is based on
 the Gaussian(R) 09 system (copyright 2009, Gaussian, Inc.),
 the Gaussian(R) 03 system (copyright 2003, Gaussian, Inc.),
 the Gaussian(R) 98 system (copyright 1998, Gaussian, Inc.),
 the Gaussian(R) 94 system (copyright 1995, Gaussian, Inc.),
 the Gaussian 92(TM) system (copyright 1992, Gaussian, Inc.),
 the Gaussian 90(TM) system (copyright 1990, Gaussian, Inc.),
 the Gaussian 88(TM) system (copyright 1988, Gaussian, Inc.),
 the Gaussian 86(TM) system (copyright 1986, Carnegie Mellon
 University), and the Gaussian 82(TM) system (copyright 1983,
 Carnegie Mellon University). Gaussian is a federally registered
 trademark of Gaussian, Inc.
  
 This software contains proprietary and confidential information,
 including trade secrets, belonging to Gaussian, Inc.
  
 This software is provided under written license and may be
 used, copied, transmitted, or stored only in accord with that
 written license.
  
 The following legend is applicable only to US Government
 contracts under FAR:
  
                    RESTRICTED RIGHTS LEGEND
  
 Use, reproduction and disclosure by the US Government is
 subject to restrictions as set forth in subparagraphs (a)
 and (c) of the Commercial Computer Software - Restricted
 Rights clause in FAR 52.227-19.
  
 Gaussian, Inc.
 340 Quinnipiac St., Bldg. 40, Wallingford CT 06492
  
  
 ---------------------------------------------------------------
 Warning -- This program may not be used in any manner that
 competes with the business of Gaussian, Inc. or will provide
 assistance to any competitor of Gaussian, Inc.  The licensee
 of this program is prohibited from giving any competitor of
 Gaussian, Inc. access to this program.  By using this program,
 the user acknowledges that Gaussian, Inc. is engaged in the
 business of creating and licensing software in the field of
 computational chemistry and represents and warrants to the
 licensee that it is not a competitor of Gaussian, Inc. and that
 it will not use this program in any manner prohibited above.
 ---------------------------------------------------------------
  

 Cite this work as:
 Gaussian 16, Revision A.03,
 M. J. Frisch, G. W. Trucks, H. B. Schlegel, G. E. Scuseria, 
 M. A. Robb, J. R. Cheeseman, G. Scalmani, V. Barone, 
 G. A. Petersson, H. Nakatsuji, X. Li, M. Caricato, A. V. Marenich, 
 J. Bloino, B. G. Janesko, R. Gomperts, B. Mennucci, H. P. Hratchian, 
 J. V. Ortiz, A. F. Izmaylov, J. L. Sonnenberg, D. Williams-Young, 
 F. Ding, F. Lipparini, F. Egidi, J. Goings, B. Peng, A. Petrone, 
 T. Henderson, D. Ranasinghe, V. G. Zakrzewski, J. Gao, N. Rega, 
 G. Zheng, W. Liang, M. Hada, M. Ehara, K. Toyota, R. Fukuda, 
 J. Hasegawa, M. Ishida, T. Nakajima, Y. Honda, O. Kitao, H. Nakai, 
 T. Vreven, K. Throssell, J. A. Montgomery, Jr., J. E. Peralta, 
 F. Ogliaro, M. J. Bearpark, J. J. Heyd, E. N. Brothers, K. N. Kudin, 
 V. N. Staroverov, T. A. Keith, R. Kobayashi, J. Normand, 
 K. Raghavachari, A. P. Rendell, J. C. Burant, S. S. Iyengar, 
 J. Tomasi, M. Cossi, J. M. Millam, M. Klene, C. Adamo, R. Cammi, 
 J. W. Ochterski, R. L. Martin, K. Morokuma, O. Farkas, 
 J. B. Foresman, and D. J. Fox, Gaussian, Inc., Wallingford CT, 2016.
 
 ******************************************
 Gaussian 16:  ES64L-G16RevA.03 25-Dec-2016
                21-Dec-2018 
 ******************************************
 %chk=cyclohexyl-monoBIP-TS1_rev.chk
 %mem=10GB
 %nprocshared=16
 Will use up to   16 processors via shared memory.
 ----------------------------------------------------------------------
 #p opt=(calcfc,tight,ts,noeigentest) freq=internalmodes b3lyp/6-31g(d,
 p) scrf=(cpcm,solvent=dichloromethane,read) nosymm empiricaldispersion
 =gd3bj int=grid=ultrafine
 ----------------------------------------------------------------------
 1/5=1,7=10,10=4,11=1,18=20,26=6,38=1,40=2/1,3;
 2/9=110,12=2,15=1,17=6,18=5,40=1/2;
 3/5=1,6=6,7=101,11=2,25=1,30=1,70=2103,71=2,72=9,74=-5,75=-5,124=41,140=1/1,2,3;
 4//1;
 5/5=2,38=5,53=9/2;
 8/6=4,10=90,11=11/1;
 11/6=1,8=1,9=11,15=111,16=1,31=1/1,2,10;
 10/6=1,13=1,31=1/2;
 6/7=2,8=2,9=2,10=2,28=1/1;
 7/10=1,18=20,25=1,30=1/1,2,3,16;
 1/5=1,7=10,10=4,11=1,18=20,26=6/3(2);
 2/9=110,15=1/2;
 99//99;
 2/9=110,15=1/2;
 3/5=1,6=6,7=101,11=2,25=1,30=1,70=2105,71=1,72=9,74=-5,75=-5,124=41/1,2,3;
 4/5=5,16=3,69=1/1;
 5/5=2,38=5,53=9/2;
 7/30=1/1,2,3,16;
 1/5=1,7=10,11=1,18=20,26=6/3(-5);
 2/9=110,15=1/2;
 6/7=2,8=2,9=2,10=2,19=2,28=1/1;
 99/9=1/99;
 Leave Link    1 at Fri Dec 21 13:58:29 2018, MaxMem=  1342177280 cpu:               8.5 elap:               0.6
 (Enter /gpfs/apps/hpc/Apps/Restricted/Gaussian/Rev_A.03/g16/l101.exe)
 ----------------------------------------------------------------------
 cyclohexylimine monoBIP oxidized, TS proton to imine, proton still on 
 phenol
 ----------------------------------------------------------------------
 Symbolic Z-matrix:
 Charge =  1 Multiplicity = 2
 C                    -0.6546    3.08514  -0.24421 
 C                    -2.0766    3.10454  -0.27757 
 C                    -2.73035   4.35152  -0.22957 
 C                    -1.93366   5.48153  -0.0959 
 C                    -0.51336   5.43128  -0.01948 
 C                     0.16384   4.2213   -0.10404 
 C                    -1.37177   1.04628  -0.29 
 H                    -3.80962   4.42872  -0.26737 
 H                    -2.40906   6.4523   -0.03146 
 H                     0.04002   6.3556    0.10183 
 N                    -2.49915   1.80451  -0.33013 
 C                    -2.67516  -1.03684   0.03851 
 C                    -1.3939   -0.37216  -0.13163 
 C                    -0.20655  -1.0992    0.00548 
 C                    -0.24098  -2.44608   0.32669 
 C                    -1.51847  -3.08995   0.42439 
 C                    -2.72691  -2.44505   0.30991 
 H                     0.73415  -0.57403  -0.08208 
 H                    -1.52195  -4.15063   0.63014 
 C                     1.00366  -3.23914   0.69907 
 C                    -4.06527  -3.14962   0.55733 
 O                    -3.78413  -0.34587  -0.03813 
 N                    -0.23191   1.80398  -0.29211 
 C                     1.60696   3.99977  -0.03462 
 H                     2.26794   4.84475   0.15059 
 N                     2.046     2.81661  -0.29671 
 C                     3.42681   2.35433  -0.21114 
 C                     4.48396   3.41254   0.11558 
 C                     3.5027    1.16499   0.75308 
 H                     3.62918   1.92692  -1.20272 
 C                     5.88582   2.78629   0.05641 
 H                     4.29933   3.78751   1.13114 
 H                     4.41714   4.26602  -0.5659 
 C                     4.89252   0.52849   0.66552 
 H                     3.30201   1.50879   1.77455 
 H                     2.72689   0.44013   0.48617 
 C                     5.99189   1.55147   0.96824 
 H                     6.63489   3.52939   0.3362 
 H                     6.10195   2.48921  -0.98121 
 H                     4.95318  -0.31881   1.34935 
 H                     5.03084   0.12614  -0.34622 
 H                     6.98218   1.09812   0.86298 
 H                     5.8947    1.86565   2.01688 
 H                     0.96698   1.89079  -0.26082 
 H                    -3.54924   0.65423  -0.19392 
 C                     2.28516  -2.41159   0.55704 
 H                     2.44467  -2.07232  -0.47076 
 H                     2.27042  -1.54055   1.21981 
 H                     3.14093  -3.0325    0.83413 
 C                     1.12381  -4.50581  -0.16371 
 H                     2.01128  -5.06024   0.14488 
 H                     0.26418  -5.16856  -0.04926 
 H                     1.22963  -4.25699  -1.22271 
 C                     0.85125  -3.64435   2.1859 
 H                    -0.07666  -4.19045   2.37058 
 H                     1.69388  -4.2741    2.47933 
 H                     0.84692  -2.75529   2.82163 
 C                    -4.99459  -2.995    -0.66789 
 H                    -5.80281  -3.72775  -0.60304 
 H                    -5.43611  -1.99992  -0.71091 
 H                    -4.44784  -3.17142  -1.59714 
 C                    -4.72257  -2.52627   1.80964 
 H                    -4.9922   -1.48453   1.64008 
 H                    -5.62941  -3.08155   2.06463 
 H                    -4.04     -2.57436   2.66167 
 C                    -3.86148  -4.64814   0.82636 
 H                    -3.41871  -5.16032  -0.0322 
 H                    -3.22687  -4.82488   1.69961 
 H                    -4.8344   -5.10262   1.02284 
 
 Add virtual bond connecting atoms H44        and N23        Dist= 2.27D+00.
 ITRead=  0  0  0  0  0  0  0  0  0  0  0  0  0  0  0  0  0  0  0  0
 ITRead=  0  0  0  0  0  0  0  0  0  0  0  0  0  0  0  0  0  0  0  0
 ITRead=  0  0  0  0  0  0  0  0  0  0  0  0  0  0  0  0  0  0  0  0
 ITRead=  0  0  0  0  0  0  0  0  0
 MicOpt= -1 -1 -1 -1 -1 -1 -1 -1 -1 -1 -1 -1 -1 -1 -1 -1 -1 -1 -1 -1
 MicOpt= -1 -1 -1 -1 -1 -1 -1 -1 -1 -1 -1 -1 -1 -1 -1 -1 -1 -1 -1 -1
 MicOpt= -1 -1 -1 -1 -1 -1 -1 -1 -1 -1 -1 -1 -1 -1 -1 -1 -1 -1 -1 -1
 MicOpt= -1 -1 -1 -1 -1 -1 -1 -1 -1
 NAtoms=     69 NQM=       69 NQMF=       0 NMMI=      0 NMMIF=      0
                NMic=       0 NMicF=      0.
                    Isotopes and Nuclear Properties:
 (Nuclear quadrupole moments (NQMom) in fm**2, nuclear magnetic moments (NMagM)
  in nuclear magnetons)

  Atom         1           2           3           4           5           6           7           8           9          10
 IAtWgt=          12          12          12          12          12          12          12           1           1           1
 AtmWgt=  12.0000000  12.0000000  12.0000000  12.0000000  12.0000000  12.0000000  12.0000000   1.0078250   1.0078250   1.0078250
 NucSpn=           0           0           0           0           0           0           0           1           1           1
 AtZEff=  -0.0000000  -0.0000000  -0.0000000  -0.0000000  -0.0000000  -0.0000000  -0.0000000  -0.0000000  -0.0000000  -0.0000000
 NQMom=    0.0000000   0.0000000   0.0000000   0.0000000   0.0000000   0.0000000   0.0000000   0.0000000   0.0000000   0.0000000
 NMagM=    0.0000000   0.0000000   0.0000000   0.0000000   0.0000000   0.0000000   0.0000000   2.7928460   2.7928460   2.7928460
 AtZNuc=   6.0000000   6.0000000   6.0000000   6.0000000   6.0000000   6.0000000   6.0000000   1.0000000   1.0000000   1.0000000

  Atom        11          12          13          14          15          16          17          18          19          20
 IAtWgt=          14          12          12          12          12          12          12           1           1          12
 AtmWgt=  14.0030740  12.0000000  12.0000000  12.0000000  12.0000000  12.0000000  12.0000000   1.0078250   1.0078250  12.0000000
 NucSpn=           2           0           0           0           0           0           0           1           1           0
 AtZEff=  -0.0000000  -0.0000000  -0.0000000  -0.0000000  -0.0000000  -0.0000000  -0.0000000  -0.0000000  -0.0000000  -0.0000000
 NQMom=    2.0440000   0.0000000   0.0000000   0.0000000   0.0000000   0.0000000   0.0000000   0.0000000   0.0000000   0.0000000
 NMagM=    0.4037610   0.0000000   0.0000000   0.0000000   0.0000000   0.0000000   0.0000000   2.7928460   2.7928460   0.0000000
 AtZNuc=   7.0000000   6.0000000   6.0000000   6.0000000   6.0000000   6.0000000   6.0000000   1.0000000   1.0000000   6.0000000

  Atom        21          22          23          24          25          26          27          28          29          30
 IAtWgt=          12          16          14          12           1          14          12          12          12           1
 AtmWgt=  12.0000000  15.9949146  14.0030740  12.0000000   1.0078250  14.0030740  12.0000000  12.0000000  12.0000000   1.0078250
 NucSpn=           0           0           2           0           1           2           0           0           0           1
 AtZEff=  -0.0000000  -0.0000000  -0.0000000  -0.0000000  -0.0000000  -0.0000000  -0.0000000  -0.0000000  -0.0000000  -0.0000000
 NQMom=    0.0000000   0.0000000   2.0440000   0.0000000   0.0000000   2.0440000   0.0000000   0.0000000   0.0000000   0.0000000
 NMagM=    0.0000000   0.0000000   0.4037610   0.0000000   2.7928460   0.4037610   0.0000000   0.0000000   0.0000000   2.7928460
 AtZNuc=   6.0000000   8.0000000   7.0000000   6.0000000   1.0000000   7.0000000   6.0000000   6.0000000   6.0000000   1.0000000

  Atom        31          32          33          34          35          36          37          38          39          40
 IAtWgt=          12           1           1          12           1           1          12           1           1           1
 AtmWgt=  12.0000000   1.0078250   1.0078250  12.0000000   1.0078250   1.0078250  12.0000000   1.0078250   1.0078250   1.0078250
 NucSpn=           0           1           1           0           1           1           0           1           1           1
 AtZEff=  -0.0000000  -0.0000000  -0.0000000  -0.0000000  -0.0000000  -0.0000000  -0.0000000  -0.0000000  -0.0000000  -0.0000000
 NQMom=    0.0000000   0.0000000   0.0000000   0.0000000   0.0000000   0.0000000   0.0000000   0.0000000   0.0000000   0.0000000
 NMagM=    0.0000000   2.7928460   2.7928460   0.0000000   2.7928460   2.7928460   0.0000000   2.7928460   2.7928460   2.7928460
 AtZNuc=   6.0000000   1.0000000   1.0000000   6.0000000   1.0000000   1.0000000   6.0000000   1.0000000   1.0000000   1.0000000

  Atom        41          42          43          44          45          46          47          48          49          50
 IAtWgt=           1           1           1           1           1          12           1           1           1          12
 AtmWgt=   1.0078250   1.0078250   1.0078250   1.0078250   1.0078250  12.0000000   1.0078250   1.0078250   1.0078250  12.0000000
 NucSpn=           1           1           1           1           1           0           1           1           1           0
 AtZEff=  -0.0000000  -0.0000000  -0.0000000  -0.0000000  -0.0000000  -0.0000000  -0.0000000  -0.0000000  -0.0000000  -0.0000000
 NQMom=    0.0000000   0.0000000   0.0000000   0.0000000   0.0000000   0.0000000   0.0000000   0.0000000   0.0000000   0.0000000
 NMagM=    2.7928460   2.7928460   2.7928460   2.7928460   2.7928460   0.0000000   2.7928460   2.7928460   2.7928460   0.0000000
 AtZNuc=   1.0000000   1.0000000   1.0000000   1.0000000   1.0000000   6.0000000   1.0000000   1.0000000   1.0000000   6.0000000

  Atom        51          52          53          54          55          56          57          58          59          60
 IAtWgt=           1           1           1          12           1           1           1          12           1           1
 AtmWgt=   1.0078250   1.0078250   1.0078250  12.0000000   1.0078250   1.0078250   1.0078250  12.0000000   1.0078250   1.0078250
 NucSpn=           1           1           1           0           1           1           1           0           1           1
 AtZEff=  -0.0000000  -0.0000000  -0.0000000  -0.0000000  -0.0000000  -0.0000000  -0.0000000  -0.0000000  -0.0000000  -0.0000000
 NQMom=    0.0000000   0.0000000   0.0000000   0.0000000   0.0000000   0.0000000   0.0000000   0.0000000   0.0000000   0.0000000
 NMagM=    2.7928460   2.7928460   2.7928460   0.0000000   2.7928460   2.7928460   2.7928460   0.0000000   2.7928460   2.7928460
 AtZNuc=   1.0000000   1.0000000   1.0000000   6.0000000   1.0000000   1.0000000   1.0000000   6.0000000   1.0000000   1.0000000

  Atom        61          62          63          64          65          66          67          68          69
 IAtWgt=           1          12           1           1           1          12           1           1           1
 AtmWgt=   1.0078250  12.0000000   1.0078250   1.0078250   1.0078250  12.0000000   1.0078250   1.0078250   1.0078250
 NucSpn=           1           0           1           1           1           0           1           1           1
 AtZEff=  -0.0000000  -0.0000000  -0.0000000  -0.0000000  -0.0000000  -0.0000000  -0.0000000  -0.0000000  -0.0000000
 NQMom=    0.0000000   0.0000000   0.0000000   0.0000000   0.0000000   0.0000000   0.0000000   0.0000000   0.0000000
 NMagM=    2.7928460   0.0000000   2.7928460   2.7928460   2.7928460   0.0000000   2.7928460   2.7928460   2.7928460
 AtZNuc=   1.0000000   6.0000000   1.0000000   1.0000000   1.0000000   6.0000000   1.0000000   1.0000000   1.0000000
 Leave Link  101 at Fri Dec 21 13:58:29 2018, MaxMem=  1342177280 cpu:               5.4 elap:               0.4
 (Enter /gpfs/apps/hpc/Apps/Restricted/Gaussian/Rev_A.03/g16/l103.exe)

 GradGradGradGradGradGradGradGradGradGradGradGradGradGradGradGradGradGrad
 Berny optimization.
 Initialization pass.
                           ----------------------------
                           !    Initial Parameters    !
                           ! (Angstroms and Degrees)  !
 --------------------------                            --------------------------
 ! Name  Definition              Value          Derivative Info.                !
 --------------------------------------------------------------------------------
 ! R1    R(1,2)                  1.4225         calculate D2E/DX2 analytically  !
 ! R2    R(1,6)                  1.4072         calculate D2E/DX2 analytically  !
 ! R3    R(1,23)                 1.3499         calculate D2E/DX2 analytically  !
 ! R4    R(2,3)                  1.4088         calculate D2E/DX2 analytically  !
 ! R5    R(2,11)                 1.368          calculate D2E/DX2 analytically  !
 ! R6    R(3,4)                  1.3891         calculate D2E/DX2 analytically  !
 ! R7    R(3,8)                  1.0827         calculate D2E/DX2 analytically  !
 ! R8    R(4,5)                  1.4232         calculate D2E/DX2 analytically  !
 ! R9    R(4,9)                  1.0828         calculate D2E/DX2 analytically  !
 ! R10   R(5,6)                  1.3892         calculate D2E/DX2 analytically  !
 ! R11   R(5,10)                 1.0841         calculate D2E/DX2 analytically  !
 ! R12   R(6,24)                 1.4617         calculate D2E/DX2 analytically  !
 ! R13   R(7,11)                 1.3592         calculate D2E/DX2 analytically  !
 ! R14   R(7,13)                 1.4274         calculate D2E/DX2 analytically  !
 ! R15   R(7,23)                 1.3687         calculate D2E/DX2 analytically  !
 ! R16   R(12,13)                1.4534         calculate D2E/DX2 analytically  !
 ! R17   R(12,17)                1.4351         calculate D2E/DX2 analytically  !
 ! R18   R(12,22)                1.3089         calculate D2E/DX2 analytically  !
 ! R19   R(13,14)                1.399          calculate D2E/DX2 analytically  !
 ! R20   R(14,15)                1.3851         calculate D2E/DX2 analytically  !
 ! R21   R(14,18)                1.0809         calculate D2E/DX2 analytically  !
 ! R22   R(15,16)                1.4339         calculate D2E/DX2 analytically  !
 ! R23   R(15,20)                1.5221         calculate D2E/DX2 analytically  !
 ! R24   R(16,17)                1.3745         calculate D2E/DX2 analytically  !
 ! R25   R(16,19)                1.0805         calculate D2E/DX2 analytically  !
 ! R26   R(17,21)                1.5326         calculate D2E/DX2 analytically  !
 ! R27   R(20,46)                1.5321         calculate D2E/DX2 analytically  !
 ! R28   R(20,50)                1.5373         calculate D2E/DX2 analytically  !
 ! R29   R(20,54)                1.5486         calculate D2E/DX2 analytically  !
 ! R30   R(21,58)                1.5455         calculate D2E/DX2 analytically  !
 ! R31   R(21,62)                1.5456         calculate D2E/DX2 analytically  !
 ! R32   R(21,66)                1.5361         calculate D2E/DX2 analytically  !
 ! R33   R(22,45)                1.0391         calculate D2E/DX2 analytically  !
 ! R34   R(23,44)                1.2024         calculate D2E/DX2 analytically  !
 ! R35   R(24,25)                1.0887         calculate D2E/DX2 analytically  !
 ! R36   R(24,26)                1.2889         calculate D2E/DX2 analytically  !
 ! R37   R(26,27)                1.4587         calculate D2E/DX2 analytically  !
 ! R38   R(27,28)                1.531          calculate D2E/DX2 analytically  !
 ! R39   R(27,29)                1.533          calculate D2E/DX2 analytically  !
 ! R40   R(27,30)                1.0986         calculate D2E/DX2 analytically  !
 ! R41   R(28,31)                1.5365         calculate D2E/DX2 analytically  !
 ! R42   R(28,32)                1.0982         calculate D2E/DX2 analytically  !
 ! R43   R(28,33)                1.0942         calculate D2E/DX2 analytically  !
 ! R44   R(29,34)                1.5311         calculate D2E/DX2 analytically  !
 ! R45   R(29,35)                1.0963         calculate D2E/DX2 analytically  !
 ! R46   R(29,36)                1.0948         calculate D2E/DX2 analytically  !
 ! R47   R(31,37)                1.5387         calculate D2E/DX2 analytically  !
 ! R48   R(31,38)                1.0916         calculate D2E/DX2 analytically  !
 ! R49   R(31,39)                1.1007         calculate D2E/DX2 analytically  !
 ! R50   R(34,37)                1.5319         calculate D2E/DX2 analytically  !
 ! R51   R(34,40)                1.0905         calculate D2E/DX2 analytically  !
 ! R52   R(34,41)                1.0976         calculate D2E/DX2 analytically  !
 ! R53   R(37,42)                1.0942         calculate D2E/DX2 analytically  !
 ! R54   R(37,43)                1.099          calculate D2E/DX2 analytically  !
 ! R55   R(46,47)                1.094          calculate D2E/DX2 analytically  !
 ! R56   R(46,48)                1.0946         calculate D2E/DX2 analytically  !
 ! R57   R(46,49)                1.093          calculate D2E/DX2 analytically  !
 ! R58   R(50,51)                1.091          calculate D2E/DX2 analytically  !
 ! R59   R(50,52)                1.0915         calculate D2E/DX2 analytically  !
 ! R60   R(50,53)                1.093          calculate D2E/DX2 analytically  !
 ! R61   R(54,55)                1.0924         calculate D2E/DX2 analytically  !
 ! R62   R(54,56)                1.0921         calculate D2E/DX2 analytically  !
 ! R63   R(54,57)                1.093          calculate D2E/DX2 analytically  !
 ! R64   R(58,59)                1.0929         calculate D2E/DX2 analytically  !
 ! R65   R(58,60)                1.0895         calculate D2E/DX2 analytically  !
 ! R66   R(58,61)                1.0925         calculate D2E/DX2 analytically  !
 ! R67   R(62,63)                1.0893         calculate D2E/DX2 analytically  !
 ! R68   R(62,64)                1.0935         calculate D2E/DX2 analytically  !
 ! R69   R(62,65)                1.0928         calculate D2E/DX2 analytically  !
 ! R70   R(66,67)                1.0934         calculate D2E/DX2 analytically  !
 ! R71   R(66,68)                1.0939         calculate D2E/DX2 analytically  !
 ! R72   R(66,69)                1.0917         calculate D2E/DX2 analytically  !
 ! A1    A(2,1,6)              124.9389         calculate D2E/DX2 analytically  !
 ! A2    A(2,1,23)             108.9721         calculate D2E/DX2 analytically  !
 ! A3    A(6,1,23)             125.991          calculate D2E/DX2 analytically  !
 ! A4    A(1,2,3)              118.3694         calculate D2E/DX2 analytically  !
 ! A5    A(1,2,11)             107.2601         calculate D2E/DX2 analytically  !
 ! A6    A(3,2,11)             134.359          calculate D2E/DX2 analytically  !
 ! A7    A(2,3,4)              117.2063         calculate D2E/DX2 analytically  !
 ! A8    A(2,3,8)              121.6358         calculate D2E/DX2 analytically  !
 ! A9    A(4,3,8)              121.1368         calculate D2E/DX2 analytically  !
 ! A10   A(3,4,5)              123.2851         calculate D2E/DX2 analytically  !
 ! A11   A(3,4,9)              118.8964         calculate D2E/DX2 analytically  !
 ! A12   A(5,4,9)              117.8125         calculate D2E/DX2 analytically  !
 ! A13   A(4,5,6)              120.9279         calculate D2E/DX2 analytically  !
 ! A14   A(4,5,10)             119.0321         calculate D2E/DX2 analytically  !
 ! A15   A(6,5,10)             120.0393         calculate D2E/DX2 analytically  !
 ! A16   A(1,6,5)              115.1991         calculate D2E/DX2 analytically  !
 ! A17   A(1,6,24)             117.1663         calculate D2E/DX2 analytically  !
 ! A18   A(5,6,24)             127.6195         calculate D2E/DX2 analytically  !
 ! A19   A(11,7,13)            123.0076         calculate D2E/DX2 analytically  !
 ! A20   A(11,7,23)            112.4499         calculate D2E/DX2 analytically  !
 ! A21   A(13,7,23)            124.276          calculate D2E/DX2 analytically  !
 ! A22   A(2,11,7)             105.8313         calculate D2E/DX2 analytically  !
 ! A23   A(13,12,17)           120.179          calculate D2E/DX2 analytically  !
 ! A24   A(13,12,22)           119.9098         calculate D2E/DX2 analytically  !
 ! A25   A(17,12,22)           119.9048         calculate D2E/DX2 analytically  !
 ! A26   A(7,13,12)            118.7575         calculate D2E/DX2 analytically  !
 ! A27   A(7,13,14)            120.9397         calculate D2E/DX2 analytically  !
 ! A28   A(12,13,14)           119.9372         calculate D2E/DX2 analytically  !
 ! A29   A(13,14,15)           120.4635         calculate D2E/DX2 analytically  !
 ! A30   A(13,14,18)           118.5671         calculate D2E/DX2 analytically  !
 ! A31   A(15,14,18)           120.8552         calculate D2E/DX2 analytically  !
 ! A32   A(14,15,16)           118.3329         calculate D2E/DX2 analytically  !
 ! A33   A(14,15,20)           122.8936         calculate D2E/DX2 analytically  !
 ! A34   A(16,15,20)           118.5472         calculate D2E/DX2 analytically  !
 ! A35   A(15,16,17)           124.5351         calculate D2E/DX2 analytically  !
 ! A36   A(15,16,19)           117.1713         calculate D2E/DX2 analytically  !
 ! A37   A(17,16,19)           118.2698         calculate D2E/DX2 analytically  !
 ! A38   A(12,17,16)           116.3879         calculate D2E/DX2 analytically  !
 ! A39   A(12,17,21)           120.8736         calculate D2E/DX2 analytically  !
 ! A40   A(16,17,21)           122.589          calculate D2E/DX2 analytically  !
 ! A41   A(15,20,46)           112.3248         calculate D2E/DX2 analytically  !
 ! A42   A(15,20,50)           110.8499         calculate D2E/DX2 analytically  !
 ! A43   A(15,20,54)           106.9031         calculate D2E/DX2 analytically  !
 ! A44   A(46,20,50)           109.127          calculate D2E/DX2 analytically  !
 ! A45   A(46,20,54)           108.2203         calculate D2E/DX2 analytically  !
 ! A46   A(50,20,54)           109.3259         calculate D2E/DX2 analytically  !
 ! A47   A(17,21,58)           110.5557         calculate D2E/DX2 analytically  !
 ! A48   A(17,21,62)           108.4674         calculate D2E/DX2 analytically  !
 ! A49   A(17,21,66)           111.1557         calculate D2E/DX2 analytically  !
 ! A50   A(58,21,62)           110.2582         calculate D2E/DX2 analytically  !
 ! A51   A(58,21,66)           108.4344         calculate D2E/DX2 analytically  !
 ! A52   A(62,21,66)           107.9367         calculate D2E/DX2 analytically  !
 ! A53   A(12,22,45)           108.9879         calculate D2E/DX2 analytically  !
 ! A54   A(1,23,7)             105.3413         calculate D2E/DX2 analytically  !
 ! A55   A(1,23,44)            104.0491         calculate D2E/DX2 analytically  !
 ! A56   A(7,23,44)            150.489          calculate D2E/DX2 analytically  !
 ! A57   A(6,24,25)            119.3329         calculate D2E/DX2 analytically  !
 ! A58   A(6,24,26)            117.7601         calculate D2E/DX2 analytically  !
 ! A59   A(25,24,26)           122.7014         calculate D2E/DX2 analytically  !
 ! A60   A(24,26,27)           126.9731         calculate D2E/DX2 analytically  !
 ! A61   A(26,27,28)           116.5577         calculate D2E/DX2 analytically  !
 ! A62   A(26,27,29)           109.2467         calculate D2E/DX2 analytically  !
 ! A63   A(26,27,30)           104.1661         calculate D2E/DX2 analytically  !
 ! A64   A(28,27,29)           111.5822         calculate D2E/DX2 analytically  !
 ! A65   A(28,27,30)           109.5315         calculate D2E/DX2 analytically  !
 ! A66   A(29,27,30)           104.8776         calculate D2E/DX2 analytically  !
 ! A67   A(27,28,31)           109.8794         calculate D2E/DX2 analytically  !
 ! A68   A(27,28,32)           108.4964         calculate D2E/DX2 analytically  !
 ! A69   A(27,28,33)           111.3485         calculate D2E/DX2 analytically  !
 ! A70   A(31,28,32)           109.1568         calculate D2E/DX2 analytically  !
 ! A71   A(31,28,33)           110.4652         calculate D2E/DX2 analytically  !
 ! A72   A(32,28,33)           107.4182         calculate D2E/DX2 analytically  !
 ! A73   A(27,29,34)           109.3586         calculate D2E/DX2 analytically  !
 ! A74   A(27,29,35)           109.4931         calculate D2E/DX2 analytically  !
 ! A75   A(27,29,36)           108.982          calculate D2E/DX2 analytically  !
 ! A76   A(34,29,35)           110.4753         calculate D2E/DX2 analytically  !
 ! A77   A(34,29,36)           110.7354         calculate D2E/DX2 analytically  !
 ! A78   A(35,29,36)           107.7624         calculate D2E/DX2 analytically  !
 ! A79   A(28,31,37)           111.5411         calculate D2E/DX2 analytically  !
 ! A80   A(28,31,38)           109.8007         calculate D2E/DX2 analytically  !
 ! A81   A(28,31,39)           108.9923         calculate D2E/DX2 analytically  !
 ! A82   A(37,31,38)           110.3113         calculate D2E/DX2 analytically  !
 ! A83   A(37,31,39)           109.1776         calculate D2E/DX2 analytically  !
 ! A84   A(38,31,39)           106.8942         calculate D2E/DX2 analytically  !
 ! A85   A(29,34,37)           111.2544         calculate D2E/DX2 analytically  !
 ! A86   A(29,34,40)           109.732          calculate D2E/DX2 analytically  !
 ! A87   A(29,34,41)           108.6327         calculate D2E/DX2 analytically  !
 ! A88   A(37,34,40)           110.7942         calculate D2E/DX2 analytically  !
 ! A89   A(37,34,41)           109.6652         calculate D2E/DX2 analytically  !
 ! A90   A(40,34,41)           106.6303         calculate D2E/DX2 analytically  !
 ! A91   A(31,37,34)           111.6745         calculate D2E/DX2 analytically  !
 ! A92   A(31,37,42)           109.7484         calculate D2E/DX2 analytically  !
 ! A93   A(31,37,43)           109.2648         calculate D2E/DX2 analytically  !
 ! A94   A(34,37,42)           110.7203         calculate D2E/DX2 analytically  !
 ! A95   A(34,37,43)           108.4212         calculate D2E/DX2 analytically  !
 ! A96   A(42,37,43)           106.8742         calculate D2E/DX2 analytically  !
 ! A97   A(20,46,47)           112.1199         calculate D2E/DX2 analytically  !
 ! A98   A(20,46,48)           111.2495         calculate D2E/DX2 analytically  !
 ! A99   A(20,46,49)           108.9381         calculate D2E/DX2 analytically  !
 ! A100  A(47,46,48)           108.906          calculate D2E/DX2 analytically  !
 ! A101  A(47,46,49)           107.4685         calculate D2E/DX2 analytically  !
 ! A102  A(48,46,49)           108.0047         calculate D2E/DX2 analytically  !
 ! A103  A(20,50,51)           108.8787         calculate D2E/DX2 analytically  !
 ! A104  A(20,50,52)           112.3284         calculate D2E/DX2 analytically  !
 ! A105  A(20,50,53)           111.3324         calculate D2E/DX2 analytically  !
 ! A106  A(51,50,52)           107.604          calculate D2E/DX2 analytically  !
 ! A107  A(51,50,53)           108.1192         calculate D2E/DX2 analytically  !
 ! A108  A(52,50,53)           108.4262         calculate D2E/DX2 analytically  !
 ! A109  A(20,54,55)           112.1314         calculate D2E/DX2 analytically  !
 ! A110  A(20,54,56)           109.446          calculate D2E/DX2 analytically  !
 ! A111  A(20,54,57)           110.2427         calculate D2E/DX2 analytically  !
 ! A112  A(55,54,56)           108.7653         calculate D2E/DX2 analytically  !
 ! A113  A(55,54,57)           107.7547         calculate D2E/DX2 analytically  !
 ! A114  A(56,54,57)           108.4104         calculate D2E/DX2 analytically  !
 ! A115  A(21,58,59)           109.3027         calculate D2E/DX2 analytically  !
 ! A116  A(21,58,60)           111.491          calculate D2E/DX2 analytically  !
 ! A117  A(21,58,61)           110.9284         calculate D2E/DX2 analytically  !
 ! A118  A(59,58,60)           108.3632         calculate D2E/DX2 analytically  !
 ! A119  A(59,58,61)           108.1985         calculate D2E/DX2 analytically  !
 ! A120  A(60,58,61)           108.4643         calculate D2E/DX2 analytically  !
 ! A121  A(21,62,63)           111.397          calculate D2E/DX2 analytically  !
 ! A122  A(21,62,64)           109.6833         calculate D2E/DX2 analytically  !
 ! A123  A(21,62,65)           110.3867         calculate D2E/DX2 analytically  !
 ! A124  A(63,62,64)           108.4604         calculate D2E/DX2 analytically  !
 ! A125  A(63,62,65)           108.5446         calculate D2E/DX2 analytically  !
 ! A126  A(64,62,65)           108.2907         calculate D2E/DX2 analytically  !
 ! A127  A(21,66,67)           111.9127         calculate D2E/DX2 analytically  !
 ! A128  A(21,66,68)           111.9883         calculate D2E/DX2 analytically  !
 ! A129  A(21,66,69)           108.6284         calculate D2E/DX2 analytically  !
 ! A130  A(67,66,68)           108.4357         calculate D2E/DX2 analytically  !
 ! A131  A(67,66,69)           107.8913         calculate D2E/DX2 analytically  !
 ! A132  A(68,66,69)           107.8237         calculate D2E/DX2 analytically  !
 ! D1    D(6,1,2,3)              3.0894         calculate D2E/DX2 analytically  !
 ! D2    D(6,1,2,11)          -175.8528         calculate D2E/DX2 analytically  !
 ! D3    D(23,1,2,3)           179.6668         calculate D2E/DX2 analytically  !
 ! D4    D(23,1,2,11)            0.7246         calculate D2E/DX2 analytically  !
 ! D5    D(2,1,6,5)             -1.1856         calculate D2E/DX2 analytically  !
 ! D6    D(2,1,6,24)           177.5094         calculate D2E/DX2 analytically  !
 ! D7    D(23,1,6,5)          -177.1844         calculate D2E/DX2 analytically  !
 ! D8    D(23,1,6,24)            1.5105         calculate D2E/DX2 analytically  !
 ! D9    D(2,1,23,7)            -2.771          calculate D2E/DX2 analytically  !
 ! D10   D(2,1,23,44)          179.9254         calculate D2E/DX2 analytically  !
 ! D11   D(6,1,23,7)           173.7613         calculate D2E/DX2 analytically  !
 ! D12   D(6,1,23,44)           -3.5423         calculate D2E/DX2 analytically  !
 ! D13   D(1,2,3,4)             -2.6225         calculate D2E/DX2 analytically  !
 ! D14   D(1,2,3,8)            179.0273         calculate D2E/DX2 analytically  !
 ! D15   D(11,2,3,4)           175.9646         calculate D2E/DX2 analytically  !
 ! D16   D(11,2,3,8)            -2.3856         calculate D2E/DX2 analytically  !
 ! D17   D(1,2,11,7)             1.6613         calculate D2E/DX2 analytically  !
 ! D18   D(3,2,11,7)          -177.0369         calculate D2E/DX2 analytically  !
 ! D19   D(2,3,4,5)              0.582          calculate D2E/DX2 analytically  !
 ! D20   D(2,3,4,9)           -178.503          calculate D2E/DX2 analytically  !
 ! D21   D(8,3,4,5)            178.941          calculate D2E/DX2 analytically  !
 ! D22   D(8,3,4,9)             -0.144          calculate D2E/DX2 analytically  !
 ! D23   D(3,4,5,6)              1.3399         calculate D2E/DX2 analytically  !
 ! D24   D(3,4,5,10)          -178.9451         calculate D2E/DX2 analytically  !
 ! D25   D(9,4,5,6)           -179.5659         calculate D2E/DX2 analytically  !
 ! D26   D(9,4,5,10)             0.1492         calculate D2E/DX2 analytically  !
 ! D27   D(4,5,6,1)             -1.0153         calculate D2E/DX2 analytically  !
 ! D28   D(4,5,6,24)          -179.5493         calculate D2E/DX2 analytically  !
 ! D29   D(10,5,6,1)           179.2726         calculate D2E/DX2 analytically  !
 ! D30   D(10,5,6,24)            0.7385         calculate D2E/DX2 analytically  !
 ! D31   D(1,6,24,25)         -175.321          calculate D2E/DX2 analytically  !
 ! D32   D(1,6,24,26)            9.7473         calculate D2E/DX2 analytically  !
 ! D33   D(5,6,24,25)            3.1881         calculate D2E/DX2 analytically  !
 ! D34   D(5,6,24,26)         -171.7437         calculate D2E/DX2 analytically  !
 ! D35   D(13,7,11,2)          170.731          calculate D2E/DX2 analytically  !
 ! D36   D(23,7,11,2)           -3.5647         calculate D2E/DX2 analytically  !
 ! D37   D(11,7,13,12)          -2.0652         calculate D2E/DX2 analytically  !
 ! D38   D(11,7,13,14)        -175.1196         calculate D2E/DX2 analytically  !
 ! D39   D(23,7,13,12)         171.5522         calculate D2E/DX2 analytically  !
 ! D40   D(23,7,13,14)          -1.5022         calculate D2E/DX2 analytically  !
 ! D41   D(11,7,23,1)            3.9996         calculate D2E/DX2 analytically  !
 ! D42   D(11,7,23,44)         178.6837         calculate D2E/DX2 analytically  !
 ! D43   D(13,7,23,1)         -170.2112         calculate D2E/DX2 analytically  !
 ! D44   D(13,7,23,44)           4.4729         calculate D2E/DX2 analytically  !
 ! D45   D(17,12,13,7)        -174.8698         calculate D2E/DX2 analytically  !
 ! D46   D(17,12,13,14)         -1.7439         calculate D2E/DX2 analytically  !
 ! D47   D(22,12,13,7)           4.2083         calculate D2E/DX2 analytically  !
 ! D48   D(22,12,13,14)        177.3342         calculate D2E/DX2 analytically  !
 ! D49   D(13,12,17,16)          1.4339         calculate D2E/DX2 analytically  !
 ! D50   D(13,12,17,21)        177.1027         calculate D2E/DX2 analytically  !
 ! D51   D(22,12,17,16)       -177.6442         calculate D2E/DX2 analytically  !
 ! D52   D(22,12,17,21)         -1.9754         calculate D2E/DX2 analytically  !
 ! D53   D(13,12,22,45)         -1.7615         calculate D2E/DX2 analytically  !
 ! D54   D(17,12,22,45)        177.3192         calculate D2E/DX2 analytically  !
 ! D55   D(7,13,14,15)         171.8045         calculate D2E/DX2 analytically  !
 ! D56   D(7,13,14,18)          -4.3441         calculate D2E/DX2 analytically  !
 ! D57   D(12,13,14,15)         -1.1686         calculate D2E/DX2 analytically  !
 ! D58   D(12,13,14,18)       -177.3173         calculate D2E/DX2 analytically  !
 ! D59   D(13,14,15,16)          4.144          calculate D2E/DX2 analytically  !
 ! D60   D(13,14,15,20)       -170.3061         calculate D2E/DX2 analytically  !
 ! D61   D(18,14,15,16)       -179.7962         calculate D2E/DX2 analytically  !
 ! D62   D(18,14,15,20)          5.7536         calculate D2E/DX2 analytically  !
 ! D63   D(14,15,16,17)         -4.6053         calculate D2E/DX2 analytically  !
 ! D64   D(14,15,16,19)        177.2045         calculate D2E/DX2 analytically  !
 ! D65   D(20,15,16,17)        170.0904         calculate D2E/DX2 analytically  !
 ! D66   D(20,15,16,19)         -8.0999         calculate D2E/DX2 analytically  !
 ! D67   D(14,15,20,46)         -4.9575         calculate D2E/DX2 analytically  !
 ! D68   D(14,15,20,50)       -127.3305         calculate D2E/DX2 analytically  !
 ! D69   D(14,15,20,54)        113.6008         calculate D2E/DX2 analytically  !
 ! D70   D(16,15,20,46)       -179.3964         calculate D2E/DX2 analytically  !
 ! D71   D(16,15,20,50)         58.2306         calculate D2E/DX2 analytically  !
 ! D72   D(16,15,20,54)        -60.8381         calculate D2E/DX2 analytically  !
 ! D73   D(15,16,17,12)          1.7331         calculate D2E/DX2 analytically  !
 ! D74   D(15,16,17,21)       -173.8546         calculate D2E/DX2 analytically  !
 ! D75   D(19,16,17,12)        179.905          calculate D2E/DX2 analytically  !
 ! D76   D(19,16,17,21)          4.3173         calculate D2E/DX2 analytically  !
 ! D77   D(12,17,21,58)         59.6071         calculate D2E/DX2 analytically  !
 ! D78   D(12,17,21,62)        -61.3975         calculate D2E/DX2 analytically  !
 ! D79   D(12,17,21,66)       -179.9124         calculate D2E/DX2 analytically  !
 ! D80   D(16,17,21,58)       -124.9984         calculate D2E/DX2 analytically  !
 ! D81   D(16,17,21,62)        113.9971         calculate D2E/DX2 analytically  !
 ! D82   D(16,17,21,66)         -4.5179         calculate D2E/DX2 analytically  !
 ! D83   D(15,20,46,47)        -61.0176         calculate D2E/DX2 analytically  !
 ! D84   D(15,20,46,48)         61.2133         calculate D2E/DX2 analytically  !
 ! D85   D(15,20,46,49)       -179.8364         calculate D2E/DX2 analytically  !
 ! D86   D(50,20,46,47)         62.3256         calculate D2E/DX2 analytically  !
 ! D87   D(50,20,46,48)       -175.4434         calculate D2E/DX2 analytically  !
 ! D88   D(50,20,46,49)        -56.4931         calculate D2E/DX2 analytically  !
 ! D89   D(54,20,46,47)       -178.7975         calculate D2E/DX2 analytically  !
 ! D90   D(54,20,46,48)        -56.5665         calculate D2E/DX2 analytically  !
 ! D91   D(54,20,46,49)         62.3838         calculate D2E/DX2 analytically  !
 ! D92   D(15,20,50,51)       -178.6945         calculate D2E/DX2 analytically  !
 ! D93   D(15,20,50,52)        -59.6174         calculate D2E/DX2 analytically  !
 ! D94   D(15,20,50,53)         62.2013         calculate D2E/DX2 analytically  !
 ! D95   D(46,20,50,51)         57.0898         calculate D2E/DX2 analytically  !
 ! D96   D(46,20,50,52)        176.1669         calculate D2E/DX2 analytically  !
 ! D97   D(46,20,50,53)        -62.0144         calculate D2E/DX2 analytically  !
 ! D98   D(54,20,50,51)        -61.0958         calculate D2E/DX2 analytically  !
 ! D99   D(54,20,50,52)         57.9813         calculate D2E/DX2 analytically  !
 ! D100  D(54,20,50,53)        179.8            calculate D2E/DX2 analytically  !
 ! D101  D(15,20,54,55)         55.478          calculate D2E/DX2 analytically  !
 ! D102  D(15,20,54,56)        176.2669         calculate D2E/DX2 analytically  !
 ! D103  D(15,20,54,57)        -64.5781         calculate D2E/DX2 analytically  !
 ! D104  D(46,20,54,55)        176.6759         calculate D2E/DX2 analytically  !
 ! D105  D(46,20,54,56)        -62.5353         calculate D2E/DX2 analytically  !
 ! D106  D(46,20,54,57)         56.6198         calculate D2E/DX2 analytically  !
 ! D107  D(50,20,54,55)        -64.5734         calculate D2E/DX2 analytically  !
 ! D108  D(50,20,54,56)         56.2155         calculate D2E/DX2 analytically  !
 ! D109  D(50,20,54,57)        175.3705         calculate D2E/DX2 analytically  !
 ! D110  D(17,21,58,59)        163.5606         calculate D2E/DX2 analytically  !
 ! D111  D(17,21,58,60)        -76.6608         calculate D2E/DX2 analytically  !
 ! D112  D(17,21,58,61)         44.3363         calculate D2E/DX2 analytically  !
 ! D113  D(62,21,58,59)        -76.5045         calculate D2E/DX2 analytically  !
 ! D114  D(62,21,58,60)         43.274          calculate D2E/DX2 analytically  !
 ! D115  D(62,21,58,61)        164.2711         calculate D2E/DX2 analytically  !
 ! D116  D(66,21,58,59)         41.4683         calculate D2E/DX2 analytically  !
 ! D117  D(66,21,58,60)        161.2468         calculate D2E/DX2 analytically  !
 ! D118  D(66,21,58,61)        -77.7561         calculate D2E/DX2 analytically  !
 ! D119  D(17,21,62,63)         65.6456         calculate D2E/DX2 analytically  !
 ! D120  D(17,21,62,64)       -174.2642         calculate D2E/DX2 analytically  !
 ! D121  D(17,21,62,65)        -55.0203         calculate D2E/DX2 analytically  !
 ! D122  D(58,21,62,63)        -55.5424         calculate D2E/DX2 analytically  !
 ! D123  D(58,21,62,64)         64.5478         calculate D2E/DX2 analytically  !
 ! D124  D(58,21,62,65)       -176.2084         calculate D2E/DX2 analytically  !
 ! D125  D(66,21,62,63)       -173.8211         calculate D2E/DX2 analytically  !
 ! D126  D(66,21,62,64)        -53.7309         calculate D2E/DX2 analytically  !
 ! D127  D(66,21,62,65)         65.513          calculate D2E/DX2 analytically  !
 ! D128  D(17,21,66,67)        -62.4844         calculate D2E/DX2 analytically  !
 ! D129  D(17,21,66,68)         59.5233         calculate D2E/DX2 analytically  !
 ! D130  D(17,21,66,69)        178.5006         calculate D2E/DX2 analytically  !
 ! D131  D(58,21,66,67)         59.2409         calculate D2E/DX2 analytically  !
 ! D132  D(58,21,66,68)       -178.7514         calculate D2E/DX2 analytically  !
 ! D133  D(58,21,66,69)        -59.7741         calculate D2E/DX2 analytically  !
 ! D134  D(62,21,66,67)        178.6815         calculate D2E/DX2 analytically  !
 ! D135  D(62,21,66,68)        -59.3108         calculate D2E/DX2 analytically  !
 ! D136  D(62,21,66,69)         59.6665         calculate D2E/DX2 analytically  !
 ! D137  D(6,24,26,27)        -176.0706         calculate D2E/DX2 analytically  !
 ! D138  D(25,24,26,27)          9.1806         calculate D2E/DX2 analytically  !
 ! D139  D(24,26,27,28)         -5.3099         calculate D2E/DX2 analytically  !
 ! D140  D(24,26,27,29)        122.2862         calculate D2E/DX2 analytically  !
 ! D141  D(24,26,27,30)       -126.0837         calculate D2E/DX2 analytically  !
 ! D142  D(26,27,28,31)       -175.4664         calculate D2E/DX2 analytically  !
 ! D143  D(26,27,28,32)         65.2642         calculate D2E/DX2 analytically  !
 ! D144  D(26,27,28,33)        -52.7478         calculate D2E/DX2 analytically  !
 ! D145  D(29,27,28,31)         58.0903         calculate D2E/DX2 analytically  !
 ! D146  D(29,27,28,32)        -61.1791         calculate D2E/DX2 analytically  !
 ! D147  D(29,27,28,33)       -179.1911         calculate D2E/DX2 analytically  !
 ! D148  D(30,27,28,31)        -57.5865         calculate D2E/DX2 analytically  !
 ! D149  D(30,27,28,32)       -176.8559         calculate D2E/DX2 analytically  !
 ! D150  D(30,27,28,33)         65.1321         calculate D2E/DX2 analytically  !
 ! D151  D(26,27,29,34)        170.4497         calculate D2E/DX2 analytically  !
 ! D152  D(26,27,29,35)        -68.3736         calculate D2E/DX2 analytically  !
 ! D153  D(26,27,29,36)         49.2714         calculate D2E/DX2 analytically  !
 ! D154  D(28,27,29,34)        -59.2055         calculate D2E/DX2 analytically  !
 ! D155  D(28,27,29,35)         61.9712         calculate D2E/DX2 analytically  !
 ! D156  D(28,27,29,36)        179.6161         calculate D2E/DX2 analytically  !
 ! D157  D(30,27,29,34)         59.2899         calculate D2E/DX2 analytically  !
 ! D158  D(30,27,29,35)       -179.5334         calculate D2E/DX2 analytically  !
 ! D159  D(30,27,29,36)        -61.8884         calculate D2E/DX2 analytically  !
 ! D160  D(27,28,31,37)        -54.6994         calculate D2E/DX2 analytically  !
 ! D161  D(27,28,31,38)       -177.2984         calculate D2E/DX2 analytically  !
 ! D162  D(27,28,31,39)         65.9217         calculate D2E/DX2 analytically  !
 ! D163  D(32,28,31,37)         64.1648         calculate D2E/DX2 analytically  !
 ! D164  D(32,28,31,38)        -58.4342         calculate D2E/DX2 analytically  !
 ! D165  D(32,28,31,39)       -175.2141         calculate D2E/DX2 analytically  !
 ! D166  D(33,28,31,37)       -177.938          calculate D2E/DX2 analytically  !
 ! D167  D(33,28,31,38)         59.463          calculate D2E/DX2 analytically  !
 ! D168  D(33,28,31,39)        -57.317          calculate D2E/DX2 analytically  !
 ! D169  D(27,29,34,37)         57.0356         calculate D2E/DX2 analytically  !
 ! D170  D(27,29,34,40)       -179.9944         calculate D2E/DX2 analytically  !
 ! D171  D(27,29,34,41)        -63.7754         calculate D2E/DX2 analytically  !
 ! D172  D(35,29,34,37)        -63.5438         calculate D2E/DX2 analytically  !
 ! D173  D(35,29,34,40)         59.4262         calculate D2E/DX2 analytically  !
 ! D174  D(35,29,34,41)        175.6453         calculate D2E/DX2 analytically  !
 ! D175  D(36,29,34,37)        177.1448         calculate D2E/DX2 analytically  !
 ! D176  D(36,29,34,40)        -59.8852         calculate D2E/DX2 analytically  !
 ! D177  D(36,29,34,41)         56.3339         calculate D2E/DX2 analytically  !
 ! D178  D(28,31,37,34)         53.7946         calculate D2E/DX2 analytically  !
 ! D179  D(28,31,37,42)        176.9695         calculate D2E/DX2 analytically  !
 ! D180  D(28,31,37,43)        -66.147          calculate D2E/DX2 analytically  !
 ! D181  D(38,31,37,34)        176.1005         calculate D2E/DX2 analytically  !
 ! D182  D(38,31,37,42)        -60.7246         calculate D2E/DX2 analytically  !
 ! D183  D(38,31,37,43)         56.1589         calculate D2E/DX2 analytically  !
 ! D184  D(39,31,37,34)        -66.7179         calculate D2E/DX2 analytically  !
 ! D185  D(39,31,37,42)         56.457          calculate D2E/DX2 analytically  !
 ! D186  D(39,31,37,43)        173.3405         calculate D2E/DX2 analytically  !
 ! D187  D(29,34,37,31)        -55.0469         calculate D2E/DX2 analytically  !
 ! D188  D(29,34,37,42)       -177.668          calculate D2E/DX2 analytically  !
 ! D189  D(29,34,37,43)         65.3896         calculate D2E/DX2 analytically  !
 ! D190  D(40,34,37,31)       -177.4053         calculate D2E/DX2 analytically  !
 ! D191  D(40,34,37,42)         59.9736         calculate D2E/DX2 analytically  !
 ! D192  D(40,34,37,43)        -56.9688         calculate D2E/DX2 analytically  !
 ! D193  D(41,34,37,31)         65.1555         calculate D2E/DX2 analytically  !
 ! D194  D(41,34,37,42)        -57.4655         calculate D2E/DX2 analytically  !
 ! D195  D(41,34,37,43)       -174.408          calculate D2E/DX2 analytically  !
 --------------------------------------------------------------------------------
 Trust Radius=3.00D-01 FncErr=5.00D-06 GrdErr=5.00D-06 EigMax=2.50D+02 EigMin=1.00D-04
 Number of steps in this run=    409 maximum allowed number of steps=    414.
 Search for a saddle point of order  1.
 GradGradGradGradGradGradGradGradGradGradGradGradGradGradGradGradGradGrad

 Leave Link  103 at Fri Dec 21 13:58:29 2018, MaxMem=  1342177280 cpu:               0.3 elap:               0.1
 (Enter /gpfs/apps/hpc/Apps/Restricted/Gaussian/Rev_A.03/g16/l202.exe)
 Symmetry turned off by external request.
 Stoichiometry    C28H37N3O(1+,2)
 Framework group  C1[X(C28H37N3O)]
 Deg. of freedom   201
 Full point group                 C1      NOp   1
                          Input orientation:                          
 ---------------------------------------------------------------------
 Center     Atomic      Atomic             Coordinates (Angstroms)
 Number     Number       Type             X           Y           Z
 ---------------------------------------------------------------------
      1          6           0       -0.654595    3.085142   -0.244209
      2          6           0       -2.076603    3.104538   -0.277570
      3          6           0       -2.730352    4.351517   -0.229568
      4          6           0       -1.933661    5.481528   -0.095895
      5          6           0       -0.513360    5.431283   -0.019484
      6          6           0        0.163844    4.221299   -0.104039
      7          6           0       -1.371769    1.046275   -0.290004
      8          1           0       -3.809618    4.428721   -0.267365
      9          1           0       -2.409064    6.452297   -0.031464
     10          1           0        0.040022    6.355596    0.101828
     11          7           0       -2.499145    1.804514   -0.330132
     12          6           0       -2.675161   -1.036842    0.038509
     13          6           0       -1.393895   -0.372155   -0.131625
     14          6           0       -0.206550   -1.099196    0.005484
     15          6           0       -0.240977   -2.446076    0.326691
     16          6           0       -1.518472   -3.089952    0.424390
     17          6           0       -2.726913   -2.445053    0.309913
     18          1           0        0.734147   -0.574032   -0.082084
     19          1           0       -1.521945   -4.150631    0.630138
     20          6           0        1.003659   -3.239143    0.699069
     21          6           0       -4.065274   -3.149623    0.557327
     22          8           0       -3.784131   -0.345868   -0.038133
     23          7           0       -0.231909    1.803980   -0.292106
     24          6           0        1.606960    3.999772   -0.034622
     25          1           0        2.267935    4.844754    0.150589
     26          7           0        2.046003    2.816611   -0.296706
     27          6           0        3.426814    2.354333   -0.211138
     28          6           0        4.483959    3.412539    0.115575
     29          6           0        3.502695    1.164994    0.753077
     30          1           0        3.629183    1.926916   -1.202719
     31          6           0        5.885816    2.786292    0.056411
     32          1           0        4.299329    3.787514    1.131142
     33          1           0        4.417140    4.266017   -0.565902
     34          6           0        4.892518    0.528494    0.665516
     35          1           0        3.302014    1.508787    1.774545
     36          1           0        2.726885    0.440126    0.486173
     37          6           0        5.991886    1.551473    0.968242
     38          1           0        6.634886    3.529392    0.336199
     39          1           0        6.101946    2.489208   -0.981208
     40          1           0        4.953179   -0.318813    1.349349
     41          1           0        5.030837    0.126140   -0.346216
     42          1           0        6.982175    1.098119    0.862984
     43          1           0        5.894697    1.865654    2.016876
     44          1           0        0.966984    1.890789   -0.260823
     45          1           0       -3.549242    0.654228   -0.193915
     46          6           0        2.285162   -2.411587    0.557039
     47          1           0        2.444665   -2.072319   -0.470755
     48          1           0        2.270422   -1.540550    1.219805
     49          1           0        3.140926   -3.032497    0.834129
     50          6           0        1.123806   -4.505808   -0.163705
     51          1           0        2.011280   -5.060242    0.144882
     52          1           0        0.264176   -5.168558   -0.049258
     53          1           0        1.229627   -4.256991   -1.222708
     54          6           0        0.851248   -3.644354    2.185897
     55          1           0       -0.076655   -4.190452    2.370583
     56          1           0        1.693879   -4.274097    2.479330
     57          1           0        0.846923   -2.755293    2.821625
     58          6           0       -4.994593   -2.995000   -0.667886
     59          1           0       -5.802806   -3.727754   -0.603037
     60          1           0       -5.436106   -1.999920   -0.710909
     61          1           0       -4.447835   -3.171420   -1.597136
     62          6           0       -4.722574   -2.526270    1.809639
     63          1           0       -4.992199   -1.484527    1.640082
     64          1           0       -5.629415   -3.081551    2.064632
     65          1           0       -4.039999   -2.574361    2.661671
     66          6           0       -3.861478   -4.648137    0.826355
     67          1           0       -3.418712   -5.160322   -0.032196
     68          1           0       -3.226868   -4.824878    1.699613
     69          1           0       -4.834395   -5.102621    1.022843
 ---------------------------------------------------------------------
 Rotational constants (GHZ):           0.1676072           0.0924901           0.0617561
 Leave Link  202 at Fri Dec 21 13:58:29 2018, MaxMem=  1342177280 cpu:               0.4 elap:               0.1
 (Enter /gpfs/apps/hpc/Apps/Restricted/Gaussian/Rev_A.03/g16/l301.exe)
 Standard basis: 6-31G(d,p) (6D, 7F)
 Ernie: Thresh=  0.10000D-02 Tol=  0.10000D-05 Strict=F.
   665 basis functions,  1155 primitive gaussians,   665 cartesian basis functions
   117 alpha electrons      116 beta electrons
       nuclear repulsion energy      3262.4718978499 Hartrees.
 IExCor=  402 DFT=T Ex+Corr=B3LYP ExCW=0 ScaHFX=  0.200000
 ScaDFX=  0.800000  0.720000  1.000000  0.810000 ScalE2=  1.000000  1.000000
 IRadAn=      5 IRanWt=     -1 IRanGd=            0 ICorTp=0 IEmpDi=141
 NAtoms=   69 NActive=   69 NUniq=   69 SFac= 1.00D+00 NAtFMM=   60 NAOKFM=T Big=T
 Integral buffers will be    131072 words long.
 Raffenetti 2 integral format.
 Two-electron integral symmetry is turned off.
 R6Disp:  Grimme-D3(BJ) Dispersion energy=       -0.1542557729 Hartrees.
 Nuclear repulsion after empirical dispersion term =     3262.3176420770 Hartrees.
 Force inversion solution in PCM.
 Using the following non-standard input for PCM:
 radii=bondi
 dis
 rep
 cav
 --- end of non-standard input.
 Force inversion solution in PCM.
 ------------------------------------------------------------------------------
 Polarizable Continuum Model (PCM)
 =================================
 Model                : C-PCM.
 Atomic radii         : Bondi.
 Polarization charges : Total charges.
 Charge compensation  : None.
 Solution method      : Matrix inversion.
 Cavity type          : Scaled VdW (van der Waals Surface) (Alpha=1.100).
 Cavity algorithm     : GePol (No added spheres)
                        Default sphere list used, NSphG=   69.
                        Lebedev-Laikov grids with approx.  5.0 points / Ang**2.
                        Smoothing algorithm: York/Karplus (Gamma=1.0000).
                        Polarization charges: spherical gaussians, with
                                              point-specific exponents (IZeta= 3).
                        Self-potential: point-specific (ISelfS= 7).
                        Self-field    : sphere-specific E.n sum rule (ISelfD= 2).
 1st derivatives      : Analytical E(r).r(x)/FMM algorithm (CHGder, D1EAlg=3).
                        Cavity 1st derivative terms included.
 2nd derivatives      : Analytical E(r).r(xy)/FMM algorithm (CHGder, D2EAlg=3).
                        Cavity 2nd derivative terms included.
 Solvent              : Dichloromethane, Eps=   8.930000 Eps(inf)=   2.028346
 ------------------------------------------------------------------------------
 GePol: Number of generator spheres                  =      69
 GePol: Total number of spheres                      =      69
 GePol: Number of exposed spheres                    =      69 (100.00%)
 GePol: Number of points                             =    4328
 GePol: Average weight of points                     =       0.12
 GePol: Minimum weight of points                     =   0.15D-09
 GePol: Maximum weight of points                     =    0.21770
 GePol: Number of points with low weight             =     325
 GePol: Fraction of low-weight points (<1% of avg)   =       7.51%
 GePol: Cavity surface area                          =    508.374 Ang**2
 GePol: Cavity volume                                =    497.737 Ang**3
 PCM non-electrostatic energy =         0.0262226770 Hartrees.
 Nuclear repulsion after PCM non-electrostatic terms =     3262.3438647540 Hartrees.
 Leave Link  301 at Fri Dec 21 13:58:30 2018, MaxMem=  1342177280 cpu:               5.3 elap:               0.4
 (Enter /gpfs/apps/hpc/Apps/Restricted/Gaussian/Rev_A.03/g16/l302.exe)
 NPDir=0 NMtPBC=     1 NCelOv=     1 NCel=       1 NClECP=     1 NCelD=      1
         NCelK=      1 NCelE2=     1 NClLst=     1 CellRange=     0.0.
 One-electron integrals computed using PRISM.
 NBasis=   665 RedAO= T EigKep=  2.96D-04  NBF=   665
 NBsUse=   665 1.00D-06 EigRej= -1.00D+00 NBFU=   665
 Precomputing XC quadrature grid using
 IXCGrd= 4 IRadAn=           5 IRanWt=          -1 IRanGd=           0 AccXCQ= 0.00D+00.
 Generated NRdTot=       0 NPtTot=           0 NUsed=           0 NTot=          32
 NSgBfM=   655   655   655   655   655 MxSgAt=    69 MxSgA2=    69.
 Leave Link  302 at Fri Dec 21 13:58:31 2018, MaxMem=  1342177280 cpu:              18.2 elap:               1.2
 (Enter /gpfs/apps/hpc/Apps/Restricted/Gaussian/Rev_A.03/g16/l303.exe)
 DipDrv:  MaxL=1.
 Leave Link  303 at Fri Dec 21 13:58:31 2018, MaxMem=  1342177280 cpu:               1.8 elap:               0.1
 (Enter /gpfs/apps/hpc/Apps/Restricted/Gaussian/Rev_A.03/g16/l401.exe)
 ExpMin= 1.61D-01 ExpMax= 5.48D+03 ExpMxC= 8.25D+02 IAcc=3 IRadAn=         5 AccDes= 0.00D+00
 Harris functional with IExCor=  402 and IRadAn=       5 diagonalized for initial guess.
 HarFok:  IExCor=  402 AccDes= 0.00D+00 IRadAn=         5 IDoV= 1 UseB2=F ITyADJ=14
 ICtDFT=  3500011 ScaDFX=  1.000000  1.000000  1.000000  1.000000
 FoFCou: FMM=F IPFlag=           0 FMFlag=      100000 FMFlg1=        2001
         NFxFlg=           0 DoJE=T BraDBF=F KetDBF=T FulRan=T
         wScrn=  0.000000 ICntrl=       500 IOpCl=  0 I1Cent=   200000004 NGrid=           0
         NMat0=    1 NMatS0=      1 NMatT0=    0 NMatD0=    1 NMtDS0=    0 NMtDT0=    0
 Symmetry not used in FoFCou.
 Harris En= -1328.74051900113    
 JPrj=0 DoOrth=F DoCkMO=F.
 Initial guess <Sx>= 0.0000 <Sy>= 0.0000 <Sz>= 0.5000 <S**2>= 0.7500 S= 0.5000
 Leave Link  401 at Fri Dec 21 13:58:35 2018, MaxMem=  1342177280 cpu:              63.8 elap:               4.1
 (Enter /gpfs/apps/hpc/Apps/Restricted/Gaussian/Rev_A.03/g16/l502.exe)
 Two-electron integral symmetry not used.
 UHF open shell SCF:
 Using DIIS extrapolation, IDIIS=  1040.
 NGot=  1342177280 LenX=  1341276554 LenY=  1340833664
 Requested convergence on RMS density matrix=1.00D-08 within 128 cycles.
 Requested convergence on MAX density matrix=1.00D-06.
 Requested convergence on             energy=1.00D-06.
 No special actions if energy rises.
 Fock matrices will be formed incrementally for  20 cycles.

 Cycle   1  Pass 1  IDiag  1:
 FoFJK:  IHMeth= 1 ICntrl=       0 DoSepK=F KAlg= 0 I1Cent=           0 FoldK=F
 IRaf= 840000000 NMat=       1 IRICut=       1 DoRegI=T DoRafI=F ISym2E= 0 IDoP0=0 IntGTp=1.
 FoFCou: FMM=T IPFlag=           0 FMFlag=      100000 FMFlg1=        2001
         NFxFlg=           0 DoJE=F BraDBF=F KetDBF=F FulRan=T
         wScrn=  0.000000 ICntrl=         0 IOpCl=  1 I1Cent=           0 NGrid=           0
         NMat0=    1 NMatS0=      1 NMatT0=    0 NMatD0=    1 NMtDS0=    0 NMtDT0=    0
 Symmetry not used in FoFCou.
 FMM levels:  10  Number of levels for PrismC:   9
 Inv3:  Mode=1 IEnd=    56194752.
 Iteration    1 A*A^-1 deviation from unit magnitude is 1.41D-14 for    921.
 Iteration    1 A*A^-1 deviation from orthogonality  is 6.17D-15 for   1861    937.
 Iteration    1 A^-1*A deviation from unit magnitude is 1.41D-14 for    921.
 Iteration    1 A^-1*A deviation from orthogonality  is 3.08D-15 for   1861    937.
 E= -1327.99288131465    
 DIIS: error= 2.70D-02 at cycle   1 NSaved=   1.
 NSaved= 1 IEnMin= 1 EnMin= -1327.99288131465     IErMin= 1 ErrMin= 2.70D-02
 ErrMax= 2.70D-02  0.00D+00 EMaxC= 1.00D-01 BMatC= 3.00D+00 BMatP= 3.00D+00
 IDIUse=3 WtCom= 7.30D-01 WtEn= 2.70D-01
 Coeff-Com:  0.100D+01
 Coeff-En:   0.100D+01
 Coeff:      0.100D+01
 Gap=     0.149 Goal=   None    Shift=    0.000
 Gap=     0.052 Goal=   None    Shift=    0.000
 GapD=    0.052 DampG=0.500 DampE=0.500 DampFc=0.2500 IDamp=-1.
 Damping current iteration by 2.50D-01
 RMSDP=3.04D-03 MaxDP=1.31D-01              OVMax= 3.00D-01

 Cycle   2  Pass 1  IDiag  1:
 RMSU=  7.37D-04    CP:  9.85D-01
 E= -1328.27887070169     Delta-E=       -0.285989387035 Rises=F Damp=T
 DIIS: error= 1.41D-02 at cycle   2 NSaved=   2.
 NSaved= 2 IEnMin= 2 EnMin= -1328.27887070169     IErMin= 2 ErrMin= 1.41D-02
 ErrMax= 1.41D-02  0.00D+00 EMaxC= 1.00D-01 BMatC= 8.00D-01 BMatP= 3.00D+00
 IDIUse=3 WtCom= 8.59D-01 WtEn= 1.41D-01
 Coeff-Com: -0.867D+00 0.187D+01
 Coeff-En:   0.000D+00 0.100D+01
 Coeff:     -0.745D+00 0.174D+01
 Gap=     0.181 Goal=   None    Shift=    0.000
 Gap=     0.061 Goal=   None    Shift=    0.000
 RMSDP=1.14D-03 MaxDP=7.45D-02 DE=-2.86D-01 OVMax= 2.47D-01

 Cycle   3  Pass 1  IDiag  1:
 RMSU=  8.05D-04    CP:  9.55D-01  1.99D+00
 E= -1328.76130816930     Delta-E=       -0.482437467614 Rises=F Damp=F
 DIIS: error= 4.21D-03 at cycle   3 NSaved=   3.
 NSaved= 3 IEnMin= 3 EnMin= -1328.76130816930     IErMin= 3 ErrMin= 4.21D-03
 ErrMax= 4.21D-03  0.00D+00 EMaxC= 1.00D-01 BMatC= 8.56D-02 BMatP= 8.00D-01
 IDIUse=3 WtCom= 9.58D-01 WtEn= 4.21D-02
 Coeff-Com: -0.320D+00 0.690D+00 0.630D+00
 Coeff-En:   0.000D+00 0.000D+00 0.100D+01
 Coeff:     -0.306D+00 0.661D+00 0.645D+00
 Gap=     0.146 Goal=   None    Shift=    0.000
 Gap=     0.056 Goal=   None    Shift=    0.000
 RMSDP=4.08D-04 MaxDP=3.59D-02 DE=-4.82D-01 OVMax= 1.14D-01

 Cycle   4  Pass 1  IDiag  1:
 RMSU=  3.21D-04    CP:  9.58D-01  2.04D+00  6.92D-01
 E= -1328.77462135576     Delta-E=       -0.013313186458 Rises=F Damp=F
 DIIS: error= 3.11D-03 at cycle   4 NSaved=   4.
 NSaved= 4 IEnMin= 4 EnMin= -1328.77462135576     IErMin= 4 ErrMin= 3.11D-03
 ErrMax= 3.11D-03  0.00D+00 EMaxC= 1.00D-01 BMatC= 3.90D-02 BMatP= 8.56D-02
 IDIUse=3 WtCom= 9.69D-01 WtEn= 3.11D-02
 Coeff-Com: -0.526D-01 0.123D+00 0.399D+00 0.530D+00
 Coeff-En:   0.000D+00 0.000D+00 0.319D+00 0.681D+00
 Coeff:     -0.510D-01 0.119D+00 0.397D+00 0.535D+00
 Gap=     0.147 Goal=   None    Shift=    0.000
 Gap=     0.058 Goal=   None    Shift=    0.000
 RMSDP=1.80D-04 MaxDP=1.65D-02 DE=-1.33D-02 OVMax= 4.04D-02

 Cycle   5  Pass 1  IDiag  1:
 RMSU=  9.08D-05    CP:  9.58D-01  2.00D+00  7.91D-01  5.91D-01
 E= -1328.78418182211     Delta-E=       -0.009560466352 Rises=F Damp=F
 DIIS: error= 9.81D-04 at cycle   5 NSaved=   5.
 NSaved= 5 IEnMin= 5 EnMin= -1328.78418182211     IErMin= 5 ErrMin= 9.81D-04
 ErrMax= 9.81D-04  0.00D+00 EMaxC= 1.00D-01 BMatC= 2.39D-03 BMatP= 3.90D-02
 IDIUse=3 WtCom= 9.90D-01 WtEn= 9.81D-03
 Coeff-Com:  0.794D-03 0.400D-02 0.156D+00 0.279D+00 0.560D+00
 Coeff-En:   0.000D+00 0.000D+00 0.000D+00 0.000D+00 0.100D+01
 Coeff:      0.786D-03 0.397D-02 0.154D+00 0.276D+00 0.565D+00
 Gap=     0.146 Goal=   None    Shift=    0.000
 Gap=     0.060 Goal=   None    Shift=    0.000
 RMSDP=4.90D-05 MaxDP=5.66D-03 DE=-9.56D-03 OVMax= 1.92D-02

 Cycle   6  Pass 1  IDiag  1:
 RMSU=  3.25D-05    CP:  9.57D-01  2.00D+00  7.96D-01  6.38D-01  6.36D-01
 E= -1328.78475925374     Delta-E=       -0.000577431633 Rises=F Damp=F
 DIIS: error= 2.47D-04 at cycle   6 NSaved=   6.
 NSaved= 6 IEnMin= 6 EnMin= -1328.78475925374     IErMin= 6 ErrMin= 2.47D-04
 ErrMax= 2.47D-04  0.00D+00 EMaxC= 1.00D-01 BMatC= 2.06D-04 BMatP= 2.39D-03
 IDIUse=3 WtCom= 9.98D-01 WtEn= 2.47D-03
 Coeff-Com:  0.417D-02-0.660D-02 0.492D-01 0.958D-01 0.291D+00 0.566D+00
 Coeff-En:   0.000D+00 0.000D+00 0.000D+00 0.000D+00 0.000D+00 0.100D+01
 Coeff:      0.415D-02-0.658D-02 0.491D-01 0.956D-01 0.290D+00 0.567D+00
 Gap=     0.146 Goal=   None    Shift=    0.000
 Gap=     0.060 Goal=   None    Shift=    0.000
 RMSDP=1.45D-05 MaxDP=1.25D-03 DE=-5.77D-04 OVMax= 3.30D-03

 Cycle   7  Pass 1  IDiag  1:
 RMSU=  1.27D-05    CP:  9.57D-01  2.00D+00  7.97D-01  6.41D-01  7.09D-01
                    CP:  9.59D-01
 E= -1328.78481704694     Delta-E=       -0.000057793196 Rises=F Damp=F
 DIIS: error= 1.43D-04 at cycle   7 NSaved=   7.
 NSaved= 7 IEnMin= 7 EnMin= -1328.78481704694     IErMin= 7 ErrMin= 1.43D-04
 ErrMax= 1.43D-04  0.00D+00 EMaxC= 1.00D-01 BMatC= 3.25D-05 BMatP= 2.06D-04
 IDIUse=3 WtCom= 9.99D-01 WtEn= 1.43D-03
 Coeff-Com:  0.203D-02-0.390D-02 0.124D-02 0.160D-02 0.638D-01 0.267D+00
 Coeff-Com:  0.668D+00
 Coeff-En:   0.000D+00 0.000D+00 0.000D+00 0.000D+00 0.000D+00 0.000D+00
 Coeff-En:   0.100D+01
 Coeff:      0.203D-02-0.389D-02 0.124D-02 0.160D-02 0.637D-01 0.267D+00
 Coeff:      0.669D+00
 Gap=     0.147 Goal=   None    Shift=    0.000
 Gap=     0.061 Goal=   None    Shift=    0.000
 RMSDP=1.05D-05 MaxDP=1.02D-03 DE=-5.78D-05 OVMax= 7.43D-03

 Cycle   8  Pass 1  IDiag  1:
 RMSU=  7.57D-06    CP:  9.57D-01  2.01D+00  7.98D-01  6.47D-01  7.39D-01
                    CP:  1.16D+00  1.05D+00
 E= -1328.78483649751     Delta-E=       -0.000019450570 Rises=F Damp=F
 DIIS: error= 6.50D-05 at cycle   8 NSaved=   8.
 NSaved= 8 IEnMin= 8 EnMin= -1328.78483649751     IErMin= 8 ErrMin= 6.50D-05
 ErrMax= 6.50D-05  0.00D+00 EMaxC= 1.00D-01 BMatC= 1.55D-05 BMatP= 3.25D-05
 IDIUse=1 WtCom= 1.00D+00 WtEn= 0.00D+00
 Coeff-Com: -0.254D-03 0.223D-03-0.156D-01-0.349D-01-0.640D-01-0.921D-01
 Coeff-Com:  0.399D+00 0.808D+00
 Coeff:     -0.254D-03 0.223D-03-0.156D-01-0.349D-01-0.640D-01-0.921D-01
 Coeff:      0.399D+00 0.808D+00
 Gap=     0.147 Goal=   None    Shift=    0.000
 Gap=     0.061 Goal=   None    Shift=    0.000
 RMSDP=9.33D-06 MaxDP=1.01D-03 DE=-1.95D-05 OVMax= 6.38D-03

 Cycle   9  Pass 1  IDiag  1:
 RMSU=  3.75D-06    CP:  9.57D-01  2.01D+00  7.98D-01  6.52D-01  7.68D-01
                    CP:  1.33D+00  1.48D+00  1.28D+00
 E= -1328.78484850810     Delta-E=       -0.000012010590 Rises=F Damp=F
 DIIS: error= 3.67D-05 at cycle   9 NSaved=   9.
 NSaved= 9 IEnMin= 9 EnMin= -1328.78484850810     IErMin= 9 ErrMin= 3.67D-05
 ErrMax= 3.67D-05  0.00D+00 EMaxC= 1.00D-01 BMatC= 4.80D-06 BMatP= 1.55D-05
 IDIUse=1 WtCom= 1.00D+00 WtEn= 0.00D+00
 Coeff-Com: -0.557D-03 0.102D-02-0.998D-02-0.239D-01-0.606D-01-0.163D+00
 Coeff-Com:  0.547D-01 0.498D+00 0.704D+00
 Coeff:     -0.557D-03 0.102D-02-0.998D-02-0.239D-01-0.606D-01-0.163D+00
 Coeff:      0.547D-01 0.498D+00 0.704D+00
 Gap=     0.147 Goal=   None    Shift=    0.000
 Gap=     0.061 Goal=   None    Shift=    0.000
 RMSDP=6.11D-06 MaxDP=6.14D-04 DE=-1.20D-05 OVMax= 4.43D-03

 Cycle  10  Pass 1  IDiag  1:
 RMSU=  2.02D-06    CP:  9.57D-01  2.01D+00  7.98D-01  6.54D-01  7.84D-01
                    CP:  1.44D+00  1.72D+00  1.64D+00  1.09D+00
 E= -1328.78485289863     Delta-E=       -0.000004390533 Rises=F Damp=F
 DIIS: error= 2.72D-05 at cycle  10 NSaved=  10.
 NSaved=10 IEnMin=10 EnMin= -1328.78485289863     IErMin=10 ErrMin= 2.72D-05
 ErrMax= 2.72D-05  0.00D+00 EMaxC= 1.00D-01 BMatC= 1.04D-06 BMatP= 4.80D-06
 IDIUse=1 WtCom= 1.00D+00 WtEn= 0.00D+00
 Coeff-Com: -0.485D-04 0.224D-03-0.724D-04-0.194D-02-0.854D-02-0.536D-01
 Coeff-Com: -0.628D-01 0.784D-02 0.315D+00 0.804D+00
 Coeff:     -0.485D-04 0.224D-03-0.724D-04-0.194D-02-0.854D-02-0.536D-01
 Coeff:     -0.628D-01 0.784D-02 0.315D+00 0.804D+00
 Gap=     0.147 Goal=   None    Shift=    0.000
 Gap=     0.061 Goal=   None    Shift=    0.000
 RMSDP=3.30D-06 MaxDP=3.44D-04 DE=-4.39D-06 OVMax= 2.47D-03

 Cycle  11  Pass 1  IDiag  1:
 RMSU=  1.16D-06    CP:  9.57D-01  2.01D+00  7.98D-01  6.55D-01  7.91D-01
                    CP:  1.49D+00  1.83D+00  1.84D+00  1.40D+00  1.24D+00
 E= -1328.78485413982     Delta-E=       -0.000001241185 Rises=F Damp=F
 DIIS: error= 1.32D-05 at cycle  11 NSaved=  11.
 NSaved=11 IEnMin=11 EnMin= -1328.78485413982     IErMin=11 ErrMin= 1.32D-05
 ErrMax= 1.32D-05  0.00D+00 EMaxC= 1.00D-01 BMatC= 4.52D-07 BMatP= 1.04D-06
 IDIUse=1 WtCom= 1.00D+00 WtEn= 0.00D+00
 Coeff-Com:  0.178D-03-0.226D-03 0.366D-02 0.730D-02 0.175D-01 0.251D-01
 Coeff-Com: -0.539D-01-0.187D+00-0.794D-01 0.480D+00 0.787D+00
 Coeff:      0.178D-03-0.226D-03 0.366D-02 0.730D-02 0.175D-01 0.251D-01
 Coeff:     -0.539D-01-0.187D+00-0.794D-01 0.480D+00 0.787D+00
 Gap=     0.147 Goal=   None    Shift=    0.000
 Gap=     0.061 Goal=   None    Shift=    0.000
 RMSDP=2.30D-06 MaxDP=2.66D-04 DE=-1.24D-06 OVMax= 1.60D-03

 Cycle  12  Pass 1  IDiag  1:
 RMSU=  5.85D-07    CP:  9.57D-01  2.01D+00  7.98D-01  6.56D-01  7.95D-01
                    CP:  1.53D+00  1.91D+00  1.98D+00  1.63D+00  1.71D+00
                    CP:  1.14D+00
 E= -1328.78485466956     Delta-E=       -0.000000529738 Rises=F Damp=F
 DIIS: error= 6.29D-06 at cycle  12 NSaved=  12.
 NSaved=12 IEnMin=12 EnMin= -1328.78485466956     IErMin=12 ErrMin= 6.29D-06
 ErrMax= 6.29D-06  0.00D+00 EMaxC= 1.00D-01 BMatC= 7.67D-08 BMatP= 4.52D-07
 IDIUse=1 WtCom= 1.00D+00 WtEn= 0.00D+00
 Coeff-Com:  0.822D-04-0.171D-03 0.109D-02 0.257D-02 0.858D-02 0.250D-01
 Coeff-Com:  0.104D-01-0.532D-01-0.126D+00-0.143D+00 0.243D+00 0.103D+01
 Coeff:      0.822D-04-0.171D-03 0.109D-02 0.257D-02 0.858D-02 0.250D-01
 Coeff:      0.104D-01-0.532D-01-0.126D+00-0.143D+00 0.243D+00 0.103D+01
 Gap=     0.147 Goal=   None    Shift=    0.000
 Gap=     0.061 Goal=   None    Shift=    0.000
 RMSDP=1.27D-06 MaxDP=1.58D-04 DE=-5.30D-07 OVMax= 8.78D-04

 Cycle  13  Pass 1  IDiag  1:
 RMSU=  3.14D-07    CP:  9.57D-01  2.01D+00  7.98D-01  6.56D-01  7.97D-01
                    CP:  1.54D+00  1.94D+00  2.05D+00  1.75D+00  1.99D+00
                    CP:  1.55D+00  1.26D+00
 E= -1328.78485479773     Delta-E=       -0.000000128173 Rises=F Damp=F
 DIIS: error= 3.41D-06 at cycle  13 NSaved=  13.
 NSaved=13 IEnMin=13 EnMin= -1328.78485479773     IErMin=13 ErrMin= 3.41D-06
 ErrMax= 3.41D-06  0.00D+00 EMaxC= 1.00D-01 BMatC= 2.88D-08 BMatP= 7.67D-08
 IDIUse=1 WtCom= 1.00D+00 WtEn= 0.00D+00
 Coeff-Com:  0.603D-05-0.432D-04-0.510D-04 0.108D-03 0.168D-02 0.944D-02
 Coeff-Com:  0.139D-01 0.235D-02-0.578D-01-0.175D+00-0.454D-03 0.567D+00
 Coeff-Com:  0.639D+00
 Coeff:      0.603D-05-0.432D-04-0.510D-04 0.108D-03 0.168D-02 0.944D-02
 Coeff:      0.139D-01 0.235D-02-0.578D-01-0.175D+00-0.454D-03 0.567D+00
 Coeff:      0.639D+00
 Gap=     0.147 Goal=   None    Shift=    0.000
 Gap=     0.061 Goal=   None    Shift=    0.000
 RMSDP=4.64D-07 MaxDP=6.35D-05 DE=-1.28D-07 OVMax= 2.63D-04

 Cycle  14  Pass 1  IDiag  1:
 RMSU=  1.70D-07    CP:  9.57D-01  2.01D+00  7.98D-01  6.56D-01  7.98D-01
                    CP:  1.55D+00  1.95D+00  2.06D+00  1.80D+00  2.08D+00
                    CP:  1.66D+00  1.54D+00  9.07D-01
 E= -1328.78485481892     Delta-E=       -0.000000021196 Rises=F Damp=F
 DIIS: error= 2.18D-06 at cycle  14 NSaved=  14.
 NSaved=14 IEnMin=14 EnMin= -1328.78485481892     IErMin=14 ErrMin= 2.18D-06
 ErrMax= 2.18D-06  0.00D+00 EMaxC= 1.00D-01 BMatC= 7.61D-09 BMatP= 2.88D-08
 IDIUse=1 WtCom= 1.00D+00 WtEn= 0.00D+00
 Coeff-Com: -0.265D-04 0.357D-04-0.366D-03-0.760D-03-0.169D-02-0.218D-02
 Coeff-Com:  0.499D-02 0.192D-01 0.696D-02-0.593D-01-0.658D-01 0.314D-02
 Coeff-Com:  0.371D+00 0.725D+00
 Coeff:     -0.265D-04 0.357D-04-0.366D-03-0.760D-03-0.169D-02-0.218D-02
 Coeff:      0.499D-02 0.192D-01 0.696D-02-0.593D-01-0.658D-01 0.314D-02
 Coeff:      0.371D+00 0.725D+00
 Gap=     0.147 Goal=   None    Shift=    0.000
 Gap=     0.061 Goal=   None    Shift=    0.000
 RMSDP=1.82D-07 MaxDP=2.31D-05 DE=-2.12D-08 OVMax= 9.16D-05

 Cycle  15  Pass 1  IDiag  1:
 RMSU=  7.46D-08    CP:  9.57D-01  2.01D+00  7.98D-01  6.56D-01  7.98D-01
                    CP:  1.55D+00  1.96D+00  2.07D+00  1.81D+00  2.11D+00
                    CP:  1.72D+00  1.64D+00  1.19D+00  1.01D+00
 E= -1328.78485482361     Delta-E=       -0.000000004683 Rises=F Damp=F
 DIIS: error= 8.46D-07 at cycle  15 NSaved=  15.
 NSaved=15 IEnMin=15 EnMin= -1328.78485482361     IErMin=15 ErrMin= 8.46D-07
 ErrMax= 8.46D-07  0.00D+00 EMaxC= 1.00D-01 BMatC= 1.38D-09 BMatP= 7.61D-09
 IDIUse=1 WtCom= 1.00D+00 WtEn= 0.00D+00
 Coeff-Com: -0.130D-04 0.233D-04-0.172D-03-0.399D-03-0.113D-02-0.260D-02
 Coeff-Com: -0.108D-03 0.908D-02 0.139D-01-0.122D-02-0.277D-01-0.975D-01
 Coeff-Com:  0.805D-01 0.343D+00 0.684D+00
 Coeff:     -0.130D-04 0.233D-04-0.172D-03-0.399D-03-0.113D-02-0.260D-02
 Coeff:     -0.108D-03 0.908D-02 0.139D-01-0.122D-02-0.277D-01-0.975D-01
 Coeff:      0.805D-01 0.343D+00 0.684D+00
 Gap=     0.147 Goal=   None    Shift=    0.000
 Gap=     0.061 Goal=   None    Shift=    0.000
 RMSDP=7.15D-08 MaxDP=9.33D-06 DE=-4.68D-09 OVMax= 2.90D-05

 Cycle  16  Pass 1  IDiag  1:
 RMSU=  4.30D-08    CP:  9.57D-01  2.01D+00  7.98D-01  6.56D-01  7.98D-01
                    CP:  1.55D+00  1.96D+00  2.07D+00  1.81D+00  2.11D+00
                    CP:  1.73D+00  1.68D+00  1.28D+00  1.20D+00  9.94D-01
 E= -1328.78485482450     Delta-E=       -0.000000000897 Rises=F Damp=F
 DIIS: error= 5.45D-07 at cycle  16 NSaved=  16.
 NSaved=16 IEnMin=16 EnMin= -1328.78485482450     IErMin=16 ErrMin= 5.45D-07
 ErrMax= 5.45D-07  0.00D+00 EMaxC= 1.00D-01 BMatC= 6.41D-10 BMatP= 1.38D-09
 IDIUse=1 WtCom= 1.00D+00 WtEn= 0.00D+00
 Coeff-Com:  0.557D-05-0.424D-05 0.604D-04 0.101D-03 0.557D-04-0.543D-03
 Coeff-Com: -0.258D-02-0.330D-02 0.575D-02 0.241D-01 0.142D-01-0.648D-01
 Coeff-Com: -0.113D+00-0.124D+00 0.455D+00 0.809D+00
 Coeff:      0.557D-05-0.424D-05 0.604D-04 0.101D-03 0.557D-04-0.543D-03
 Coeff:     -0.258D-02-0.330D-02 0.575D-02 0.241D-01 0.142D-01-0.648D-01
 Coeff:     -0.113D+00-0.124D+00 0.455D+00 0.809D+00
 Gap=     0.147 Goal=   None    Shift=    0.000
 Gap=     0.061 Goal=   None    Shift=    0.000
 RMSDP=6.10D-08 MaxDP=6.73D-06 DE=-8.97D-10 OVMax= 2.39D-05

 Cycle  17  Pass 1  IDiag  1:
 RMSU=  1.91D-08    CP:  9.57D-01  2.01D+00  7.98D-01  6.56D-01  7.98D-01
                    CP:  1.55D+00  1.96D+00  2.07D+00  1.81D+00  2.12D+00
                    CP:  1.74D+00  1.71D+00  1.36D+00  1.35D+00  1.41D+00
                    CP:  1.04D+00
 E= -1328.78485482495     Delta-E=       -0.000000000447 Rises=F Damp=F
 DIIS: error= 2.13D-07 at cycle  17 NSaved=  17.
 NSaved=17 IEnMin=17 EnMin= -1328.78485482495     IErMin=17 ErrMin= 2.13D-07
 ErrMax= 2.13D-07  0.00D+00 EMaxC= 1.00D-01 BMatC= 9.47D-11 BMatP= 6.41D-10
 IDIUse=1 WtCom= 1.00D+00 WtEn= 0.00D+00
 Coeff-Com:  0.486D-05-0.576D-05 0.550D-04 0.109D-03 0.195D-03 0.171D-03
 Coeff-Com: -0.121D-02-0.280D-02 0.874D-03 0.111D-01 0.109D-01-0.179D-01
 Coeff-Com: -0.656D-01-0.116D+00 0.141D+00 0.387D+00 0.653D+00
 Coeff:      0.486D-05-0.576D-05 0.550D-04 0.109D-03 0.195D-03 0.171D-03
 Coeff:     -0.121D-02-0.280D-02 0.874D-03 0.111D-01 0.109D-01-0.179D-01
 Coeff:     -0.656D-01-0.116D+00 0.141D+00 0.387D+00 0.653D+00
 Gap=     0.147 Goal=   None    Shift=    0.000
 Gap=     0.061 Goal=   None    Shift=    0.000
 RMSDP=1.94D-08 MaxDP=2.61D-06 DE=-4.47D-10 OVMax= 9.96D-06

 Cycle  18  Pass 1  IDiag  1:
 RMSU=  1.07D-08    CP:  9.57D-01  2.01D+00  7.98D-01  6.56D-01  7.98D-01
                    CP:  1.55D+00  1.96D+00  2.07D+00  1.81D+00  2.12D+00
                    CP:  1.75D+00  1.71D+00  1.38D+00  1.39D+00  1.50D+00
                    CP:  1.23D+00  1.03D+00
 E= -1328.78485482497     Delta-E=       -0.000000000015 Rises=F Damp=F
 DIIS: error= 1.48D-07 at cycle  18 NSaved=  18.
 NSaved=18 IEnMin=18 EnMin= -1328.78485482497     IErMin=18 ErrMin= 1.48D-07
 ErrMax= 1.48D-07  0.00D+00 EMaxC= 1.00D-01 BMatC= 3.42D-11 BMatP= 9.47D-11
 IDIUse=1 WtCom= 1.00D+00 WtEn= 0.00D+00
 Coeff-Com:  0.517D-06-0.156D-05 0.676D-05 0.213D-04 0.829D-04 0.316D-03
 Coeff-Com:  0.301D-03-0.248D-03-0.176D-02-0.368D-02 0.671D-03 0.161D-01
 Coeff-Com:  0.116D-01-0.169D-01-0.956D-01-0.123D+00 0.381D+00 0.830D+00
 Coeff:      0.517D-06-0.156D-05 0.676D-05 0.213D-04 0.829D-04 0.316D-03
 Coeff:      0.301D-03-0.248D-03-0.176D-02-0.368D-02 0.671D-03 0.161D-01
 Coeff:      0.116D-01-0.169D-01-0.956D-01-0.123D+00 0.381D+00 0.830D+00
 Gap=     0.147 Goal=   None    Shift=    0.000
 Gap=     0.061 Goal=   None    Shift=    0.000
 RMSDP=1.40D-08 MaxDP=2.11D-06 DE=-1.46D-11 OVMax= 6.50D-06

 Cycle  19  Pass 1  IDiag  1:
 RMSU=  5.96D-09    CP:  9.57D-01  2.01D+00  7.98D-01  6.56D-01  7.98D-01
                    CP:  1.55D+00  1.96D+00  2.07D+00  1.81D+00  2.12D+00
[...]
     24          6           0        1.676240    3.919116   -0.277557
     25          1           0        2.359275    4.764029   -0.332412
     26          7           0        2.092194    2.701890   -0.178146
     27          6           0        3.498978    2.314566   -0.084536
     28          6           0        4.501209    3.468410   -0.143796
     29          6           0        3.680374    1.478638    1.194291
     30          1           0        3.677586    1.650084   -0.939980
     31          6           0        5.936224    2.936892   -0.029663
     32          1           0        4.301451    4.158983    0.684607
     33          1           0        4.378637    4.030108   -1.074896
     34          6           0        5.116167    0.956018    1.304409
     35          1           0        3.447189    2.114979    2.055940
     36          1           0        2.962335    0.652603    1.193870
     37          6           0        6.127124    2.105937    1.243577
     38          1           0        6.641244    3.772479   -0.051878
     39          1           0        6.156973    2.312188   -0.903664
     40          1           0        5.232753    0.387361    2.231300
     41          1           0        5.308896    0.261639    0.477241
     42          1           0        7.148927    1.717736    1.291683
     43          1           0        5.989105    2.752180    2.119472
     44          1           0        1.033540    1.826676   -0.093551
     45          1           0       -3.529748    0.679241    0.139171
     46          6           0        2.216047   -2.651063    0.320296
     47          1           0        2.253587   -2.145907   -0.648447
     48          1           0        2.339572   -1.900745    1.106010
     49          1           0        3.063424   -3.337684    0.373427
     50          6           0        0.830016   -4.503946   -0.627772
     51          1           0        1.703344   -5.158066   -0.570306
     52          1           0       -0.063059   -5.125645   -0.537092
     53          1           0        0.818571   -4.028872   -1.611528
     54          6           0        0.933348   -4.147272    1.866890
     55          1           0        0.015925   -4.711720    2.047128
     56          1           0        1.774118   -4.844521    1.904594
     57          1           0        1.050262   -3.417255    2.671285
     58          6           0       -5.014832   -2.901742   -0.597582
     59          1           0       -5.951548   -3.457866   -0.508843
     60          1           0       -5.248838   -1.845898   -0.727327
     61          1           0       -4.492296   -3.255353   -1.490217
     62          6           0       -4.883225   -2.598029    1.913520
     63          1           0       -5.019533   -1.518689    1.860141
     64          1           0       -5.868307   -3.065347    1.994273
     65          1           0       -4.319313   -2.835875    2.819202
     66          6           0       -4.001750   -4.665130    0.838028
     67          1           0       -3.513494   -5.124465   -0.025474
     68          1           0       -3.429303   -4.918010    1.734620
     69          1           0       -4.993831   -5.109978    0.939241
 ---------------------------------------------------------------------
 Rotational constants (GHZ):           0.1699680           0.0871300           0.0598986
 Leave Link  202 at Fri Dec 21 17:38:54 2018, MaxMem=  1342177280 cpu:               0.8 elap:               0.1
 (Enter /gpfs/apps/hpc/Apps/Restricted/Gaussian/Rev_A.03/g16/l301.exe)
 Standard basis: 6-31G(d,p) (6D, 7F)
 Ernie: Thresh=  0.10000D-02 Tol=  0.10000D-05 Strict=F.
   665 basis functions,  1155 primitive gaussians,   665 cartesian basis functions
   117 alpha electrons      116 beta electrons
       nuclear repulsion energy      3237.8183011265 Hartrees.
 IExCor=  402 DFT=T Ex+Corr=B3LYP ExCW=0 ScaHFX=  0.200000
 ScaDFX=  0.800000  0.720000  1.000000  0.810000 ScalE2=  1.000000  1.000000
 IRadAn=      5 IRanWt=     -1 IRanGd=            0 ICorTp=0 IEmpDi=141
 NAtoms=   69 NActive=   69 NUniq=   69 SFac= 1.00D+00 NAtFMM=   60 NAOKFM=T Big=T
 Integral buffers will be    131072 words long.
 Raffenetti 2 integral format.
 Two-electron integral symmetry is turned off.
 R6Disp:  Grimme-D3(BJ) Dispersion energy=       -0.1520231504 Hartrees.
 Nuclear repulsion after empirical dispersion term =     3237.6662779761 Hartrees.
 ------------------------------------------------------------------------------
 Polarizable Continuum Model (PCM)
 =================================
 Model                : C-PCM.
 Atomic radii         : Bondi.
 Polarization charges : Total charges.
 Charge compensation  : None.
 Solution method      : Matrix inversion.
 Cavity type          : Scaled VdW (van der Waals Surface) (Alpha=1.100).
 Cavity algorithm     : GePol (No added spheres)
                        Default sphere list used, NSphG=   69.
                        Lebedev-Laikov grids with approx.  5.0 points / Ang**2.
                        Smoothing algorithm: York/Karplus (Gamma=1.0000).
                        Polarization charges: spherical gaussians, with
                                              point-specific exponents (IZeta= 3).
                        Self-potential: point-specific (ISelfS= 7).
                        Self-field    : sphere-specific E.n sum rule (ISelfD= 2).
 1st derivatives      : Analytical E(r).r(x)/FMM algorithm (CHGder, D1EAlg=3).
                        Cavity 1st derivative terms included.
 Solvent              : Dichloromethane, Eps=   8.930000 Eps(inf)=   2.028346
 ------------------------------------------------------------------------------
 GePol: Number of generator spheres                  =      69
 GePol: Total number of spheres                      =      69
 GePol: Number of exposed spheres                    =      69 (100.00%)
 GePol: Number of points                             =    4370
 GePol: Average weight of points                     =       0.12
 GePol: Minimum weight of points                     =   0.58D-10
 GePol: Maximum weight of points                     =    0.21770
 GePol: Number of points with low weight             =     338
 GePol: Fraction of low-weight points (<1% of avg)   =       7.73%
 GePol: Cavity surface area                          =    515.802 Ang**2
 GePol: Cavity volume                                =    498.363 Ang**3
 PCM non-electrostatic energy =         0.0261930771 Hartrees.
 Nuclear repulsion after PCM non-electrostatic terms =     3237.6924710532 Hartrees.
 Leave Link  301 at Fri Dec 21 17:38:54 2018, MaxMem=  1342177280 cpu:               3.0 elap:               0.2
 (Enter /gpfs/apps/hpc/Apps/Restricted/Gaussian/Rev_A.03/g16/l302.exe)
 NPDir=0 NMtPBC=     1 NCelOv=     1 NCel=       1 NClECP=     1 NCelD=      1
         NCelK=      1 NCelE2=     1 NClLst=     1 CellRange=     0.0.
 One-electron integrals computed using PRISM.
 NBasis=   665 RedAO= T EigKep=  3.02D-04  NBF=   665
 NBsUse=   665 1.00D-06 EigRej= -1.00D+00 NBFU=   665
 Precomputing XC quadrature grid using
 IXCGrd= 4 IRadAn=           5 IRanWt=          -1 IRanGd=           0 AccXCQ= 0.00D+00.
 Generated NRdTot=       0 NPtTot=           0 NUsed=           0 NTot=          32
 NSgBfM=   655   655   655   655   655 MxSgAt=    69 MxSgA2=    69.
 Leave Link  302 at Fri Dec 21 17:38:55 2018, MaxMem=  1342177280 cpu:              19.7 elap:               1.3
 (Enter /gpfs/apps/hpc/Apps/Restricted/Gaussian/Rev_A.03/g16/l303.exe)
 DipDrv:  MaxL=1.
 Leave Link  303 at Fri Dec 21 17:38:56 2018, MaxMem=  1342177280 cpu:               1.2 elap:               0.1
 (Enter /gpfs/apps/hpc/Apps/Restricted/Gaussian/Rev_A.03/g16/l401.exe)
 Initial guess from the checkpoint file:  "cyclohexyl-monoBIP-TS1_rev.chk"
 B after Tr=     0.002339    0.002030   -0.020693
         Rot=    0.999998    0.001509    0.001112   -0.000032 Ang=   0.21 deg.
 Guess basis will be translated and rotated to current coordinates.
 JPrj=2 DoOrth=T DoCkMO=T.
 Initial guess <Sx>= 0.0000 <Sy>= 0.0000 <Sz>= 0.5000 <S**2>= 0.7607 S= 0.5053
 Generating alternative initial guess.
 ExpMin= 1.61D-01 ExpMax= 5.48D+03 ExpMxC= 8.25D+02 IAcc=2 IRadAn=         4 AccDes= 0.00D+00
 Harris functional with IExCor=  402 and IRadAn=       4 diagonalized for initial guess.
 HarFok:  IExCor=  402 AccDes= 0.00D+00 IRadAn=         4 IDoV= 1 UseB2=F ITyADJ=14
 ICtDFT=  3500011 ScaDFX=  1.000000  1.000000  1.000000  1.000000
 FoFCou: FMM=F IPFlag=           0 FMFlag=      100000 FMFlg1=        2001
         NFxFlg=           0 DoJE=T BraDBF=F KetDBF=T FulRan=T
         wScrn=  0.000000 ICntrl=       500 IOpCl=  0 I1Cent=   200000004 NGrid=           0
         NMat0=    1 NMatS0=      1 NMatT0=    0 NMatD0=    1 NMtDS0=    0 NMtDT0=    0
 Symmetry not used in FoFCou.
 Harris En= -1328.75030754728    
 Leave Link  401 at Fri Dec 21 17:38:59 2018, MaxMem=  1342177280 cpu:              48.7 elap:               3.1
 (Enter /gpfs/apps/hpc/Apps/Restricted/Gaussian/Rev_A.03/g16/l502.exe)
 Two-electron integral symmetry not used.
 UHF open shell SCF:
 Using DIIS extrapolation, IDIIS=  1040.
 NGot=  1342177280 LenX=  1341276554 LenY=  1340833664
 Requested convergence on RMS density matrix=1.00D-08 within 128 cycles.
 Requested convergence on MAX density matrix=1.00D-06.
 Requested convergence on             energy=1.00D-06.
 No special actions if energy rises.
 Fock matrices will be formed incrementally for  20 cycles.

 Cycle   1  Pass 1  IDiag  1:
 FoFJK:  IHMeth= 1 ICntrl=       0 DoSepK=F KAlg= 0 I1Cent=           0 FoldK=F
 IRaf= 810000000 NMat=       1 IRICut=       1 DoRegI=T DoRafI=F ISym2E= 0 IDoP0=0 IntGTp=1.
 FoFCou: FMM=T IPFlag=           0 FMFlag=      100000 FMFlg1=        2001
         NFxFlg=           0 DoJE=F BraDBF=F KetDBF=F FulRan=T
         wScrn=  0.000000 ICntrl=         0 IOpCl=  1 I1Cent=           0 NGrid=           0
         NMat0=    1 NMatS0=      1 NMatT0=    0 NMatD0=    1 NMtDS0=    0 NMtDT0=    0
 Symmetry not used in FoFCou.
 FMM levels:  10  Number of levels for PrismC:   9
 Inv3:  Mode=1 IEnd=    57290700.
 Iteration    1 A*A^-1 deviation from unit magnitude is 1.09D-14 for   4354.
 Iteration    1 A*A^-1 deviation from orthogonality  is 5.59D-15 for    858    747.
 Iteration    1 A^-1*A deviation from unit magnitude is 1.09D-14 for   4354.
 Iteration    1 A^-1*A deviation from orthogonality  is 4.66D-15 for    858    747.
 E= -1328.76498132532    
 DIIS: error= 5.24D-03 at cycle   1 NSaved=   1.
 NSaved= 1 IEnMin= 1 EnMin= -1328.76498132532     IErMin= 1 ErrMin= 5.24D-03
 ErrMax= 5.24D-03  0.00D+00 EMaxC= 1.00D-01 BMatC= 5.66D-02 BMatP= 5.66D-02
 IDIUse=3 WtCom= 9.48D-01 WtEn= 5.24D-02
 Coeff-Com:  0.100D+01
 Coeff-En:   0.100D+01
 Coeff:      0.100D+01
 Gap=     1.676 Goal=   None    Shift=    0.000
 Gap=     1.676 Goal=   None    Shift=    0.000
 GapD=    1.676 DampG=2.000 DampE=1.000 DampFc=2.0000 IDamp=-1.
 RMSDP=2.56D-04 MaxDP=1.47D-02              OVMax= 3.19D-02

 Cycle   2  Pass 1  IDiag  1:
 RMSU=  2.56D-04    CP:  1.00D+00
 E= -1328.79167491558     Delta-E=       -0.026693590268 Rises=F Damp=F
 DIIS: error= 5.70D-04 at cycle   2 NSaved=   2.
 NSaved= 2 IEnMin= 2 EnMin= -1328.79167491558     IErMin= 2 ErrMin= 5.70D-04
 ErrMax= 5.70D-04  0.00D+00 EMaxC= 1.00D-01 BMatC= 5.07D-04 BMatP= 5.66D-02
 IDIUse=3 WtCom= 9.94D-01 WtEn= 5.70D-03
 Coeff-Com: -0.836D-01 0.108D+01
 Coeff-En:   0.000D+00 0.100D+01
 Coeff:     -0.831D-01 0.108D+01
 Gap=     0.146 Goal=   None    Shift=    0.000
 Gap=     0.061 Goal=   None    Shift=    0.000
 RMSDP=3.61D-05 MaxDP=1.99D-03 DE=-2.67D-02 OVMax= 3.73D-03

 Cycle   3  Pass 1  IDiag  1:
 RMSU=  2.23D-05    CP:  9.99D-01  1.11D+00
 E= -1328.79193242249     Delta-E=       -0.000257506903 Rises=F Damp=F
 DIIS: error= 1.48D-04 at cycle   3 NSaved=   3.
 NSaved= 3 IEnMin= 3 EnMin= -1328.79193242249     IErMin= 3 ErrMin= 1.48D-04
 ErrMax= 1.48D-04  0.00D+00 EMaxC= 1.00D-01 BMatC= 8.37D-05 BMatP= 5.07D-04
 IDIUse=3 WtCom= 9.99D-01 WtEn= 1.48D-03
 Coeff-Com: -0.343D-01 0.420D+00 0.614D+00
 Coeff-En:   0.000D+00 0.000D+00 0.100D+01
 Coeff:     -0.343D-01 0.420D+00 0.615D+00
 Gap=     0.146 Goal=   None    Shift=    0.000
 Gap=     0.061 Goal=   None    Shift=    0.000
 RMSDP=9.74D-06 MaxDP=8.94D-04 DE=-2.58D-04 OVMax= 1.61D-03

 Cycle   4  Pass 1  IDiag  1:
 RMSU=  9.09D-06    CP:  9.99D-01  1.12D+00  8.57D-01
 E= -1328.79194569755     Delta-E=       -0.000013275062 Rises=F Damp=F
 DIIS: error= 8.00D-05 at cycle   4 NSaved=   4.
 NSaved= 4 IEnMin= 4 EnMin= -1328.79194569755     IErMin= 4 ErrMin= 8.00D-05
 ErrMax= 8.00D-05  0.00D+00 EMaxC= 1.00D-01 BMatC= 2.96D-05 BMatP= 8.37D-05
 IDIUse=1 WtCom= 1.00D+00 WtEn= 0.00D+00
 Coeff-Com: -0.756D-02 0.835D-01 0.372D+00 0.552D+00
 Coeff:     -0.756D-02 0.835D-01 0.372D+00 0.552D+00
 Gap=     0.146 Goal=   None    Shift=    0.000
 Gap=     0.061 Goal=   None    Shift=    0.000
 RMSDP=4.82D-06 MaxDP=5.80D-04 DE=-1.33D-05 OVMax= 1.02D-03

 Cycle   5  Pass 1  IDiag  1:
 RMSU=  2.91D-06    CP:  9.99D-01  1.12D+00  9.46D-01  6.42D-01
 E= -1328.79195137943     Delta-E=       -0.000005681883 Rises=F Damp=F
 DIIS: error= 3.13D-05 at cycle   5 NSaved=   5.
 NSaved= 5 IEnMin= 5 EnMin= -1328.79195137943     IErMin= 5 ErrMin= 3.13D-05
 ErrMax= 3.13D-05  0.00D+00 EMaxC= 1.00D-01 BMatC= 3.96D-06 BMatP= 2.96D-05
 IDIUse=1 WtCom= 1.00D+00 WtEn= 0.00D+00
 Coeff-Com: -0.915D-03 0.501D-02 0.161D+00 0.338D+00 0.497D+00
 Coeff:     -0.915D-03 0.501D-02 0.161D+00 0.338D+00 0.497D+00
 Gap=     0.146 Goal=   None    Shift=    0.000
 Gap=     0.061 Goal=   None    Shift=    0.000
 RMSDP=1.68D-06 MaxDP=2.02D-04 DE=-5.68D-06 OVMax= 4.10D-04

 Cycle   6  Pass 1  IDiag  1:
 RMSU=  9.18D-07    CP:  9.99D-01  1.12D+00  9.51D-01  7.14D-01  5.77D-01
 E= -1328.79195222752     Delta-E=       -0.000000848083 Rises=F Damp=F
 DIIS: error= 6.07D-06 at cycle   6 NSaved=   6.
 NSaved= 6 IEnMin= 6 EnMin= -1328.79195222752     IErMin= 6 ErrMin= 6.07D-06
 ErrMax= 6.07D-06  0.00D+00 EMaxC= 1.00D-01 BMatC= 2.25D-07 BMatP= 3.96D-06
 IDIUse=1 WtCom= 1.00D+00 WtEn= 0.00D+00
 Coeff-Com:  0.672D-03-0.102D-01 0.218D-01 0.767D-01 0.237D+00 0.674D+00
 Coeff:      0.672D-03-0.102D-01 0.218D-01 0.767D-01 0.237D+00 0.674D+00
 Gap=     0.146 Goal=   None    Shift=    0.000
 Gap=     0.061 Goal=   None    Shift=    0.000
 RMSDP=4.31D-07 MaxDP=3.38D-05 DE=-8.48D-07 OVMax= 1.12D-04

 Cycle   7  Pass 1  IDiag  1:
 RMSU=  2.91D-07    CP:  9.99D-01  1.12D+00  9.56D-01  7.17D-01  6.41D-01
                    CP:  7.52D-01
 E= -1328.79195228316     Delta-E=       -0.000000055648 Rises=F Damp=F
 DIIS: error= 1.36D-06 at cycle   7 NSaved=   7.
 NSaved= 7 IEnMin= 7 EnMin= -1328.79195228316     IErMin= 7 ErrMin= 1.36D-06
 ErrMax= 1.36D-06  0.00D+00 EMaxC= 1.00D-01 BMatC= 1.40D-08 BMatP= 2.25D-07
 IDIUse=1 WtCom= 1.00D+00 WtEn= 0.00D+00
 Coeff-Com:  0.351D-03-0.506D-02 0.510D-02 0.246D-01 0.978D-01 0.319D+00
 Coeff-Com:  0.558D+00
 Coeff:      0.351D-03-0.506D-02 0.510D-02 0.246D-01 0.978D-01 0.319D+00
 Coeff:      0.558D+00
 Gap=     0.146 Goal=   None    Shift=    0.000
 Gap=     0.061 Goal=   None    Shift=    0.000
 RMSDP=1.46D-07 MaxDP=1.29D-05 DE=-5.56D-08 OVMax= 4.33D-05

 Cycle   8  Pass 1  IDiag  1:
 RMSU=  1.33D-07    CP:  9.99D-01  1.12D+00  9.57D-01  7.17D-01  6.45D-01
                    CP:  8.15D-01  9.61D-01
 E= -1328.79195228741     Delta-E=       -0.000000004245 Rises=F Damp=F
 DIIS: error= 1.36D-06 at cycle   8 NSaved=   8.
 NSaved= 8 IEnMin= 8 EnMin= -1328.79195228741     IErMin= 8 ErrMin= 1.36D-06
 ErrMax= 1.36D-06  0.00D+00 EMaxC= 1.00D-01 BMatC= 3.40D-09 BMatP= 1.40D-08
 IDIUse=1 WtCom= 1.00D+00 WtEn= 0.00D+00
 Coeff-Com:  0.384D-06 0.159D-03-0.312D-02-0.880D-02-0.121D-01-0.200D-01
 Coeff-Com:  0.307D+00 0.737D+00
 Coeff:      0.384D-06 0.159D-03-0.312D-02-0.880D-02-0.121D-01-0.200D-01
 Coeff:      0.307D+00 0.737D+00
 Gap=     0.146 Goal=   None    Shift=    0.000
 Gap=     0.061 Goal=   None    Shift=    0.000
 RMSDP=1.07D-07 MaxDP=1.29D-05 DE=-4.24D-09 OVMax= 6.88D-05

 Cycle   9  Pass 1  IDiag  1:
 RMSU=  6.35D-08    CP:  9.99D-01  1.12D+00  9.57D-01  7.19D-01  6.50D-01
                    CP:  8.44D-01  1.23D+00  1.04D+00
 E= -1328.79195228949     Delta-E=       -0.000000002080 Rises=F Damp=F
 DIIS: error= 6.89D-07 at cycle   9 NSaved=   9.
 NSaved= 9 IEnMin= 9 EnMin= -1328.79195228949     IErMin= 9 ErrMin= 6.89D-07
 ErrMax= 6.89D-07  0.00D+00 EMaxC= 1.00D-01 BMatC= 8.28D-10 BMatP= 3.40D-09
 IDIUse=1 WtCom= 1.00D+00 WtEn= 0.00D+00
 Coeff-Com: -0.491D-04 0.793D-03-0.214D-02-0.809D-02-0.189D-01-0.576D-01
 Coeff-Com:  0.558D-01 0.370D+00 0.660D+00
 Coeff:     -0.491D-04 0.793D-03-0.214D-02-0.809D-02-0.189D-01-0.576D-01
 Coeff:      0.558D-01 0.370D+00 0.660D+00
 Gap=     0.146 Goal=   None    Shift=    0.000
 Gap=     0.061 Goal=   None    Shift=    0.000
 RMSDP=5.92D-08 MaxDP=5.92D-06 DE=-2.08D-09 OVMax= 3.72D-05

 Cycle  10  Pass 1  IDiag  1:
 RMSU=  3.05D-08    CP:  9.99D-01  1.12D+00  9.57D-01  7.19D-01  6.52D-01
                    CP:  8.59D-01  1.35D+00  1.27D+00  1.29D+00
 E= -1328.79195229012     Delta-E=       -0.000000000635 Rises=F Damp=F
 DIIS: error= 5.94D-07 at cycle  10 NSaved=  10.
 NSaved=10 IEnMin=10 EnMin= -1328.79195229012     IErMin=10 ErrMin= 5.94D-07
 ErrMax= 5.94D-07  0.00D+00 EMaxC= 1.00D-01 BMatC= 2.54D-10 BMatP= 8.28D-10
 IDIUse=1 WtCom= 1.00D+00 WtEn= 0.00D+00
 Coeff-Com: -0.277D-04 0.370D-03 0.329D-03-0.772D-03-0.406D-02-0.245D-01
 Coeff-Com: -0.121D+00-0.104D+00 0.327D+00 0.926D+00
 Coeff:     -0.277D-04 0.370D-03 0.329D-03-0.772D-03-0.406D-02-0.245D-01
 Coeff:     -0.121D+00-0.104D+00 0.327D+00 0.926D+00
 Gap=     0.146 Goal=   None    Shift=    0.000
 Gap=     0.061 Goal=   None    Shift=    0.000
 RMSDP=7.01D-08 MaxDP=8.64D-06 DE=-6.35D-10 OVMax= 5.10D-05

 Cycle  11  Pass 1  IDiag  1:
 RMSU=  1.84D-08    CP:  9.99D-01  1.12D+00  9.57D-01  7.19D-01  6.54D-01
                    CP:  8.76D-01  1.48D+00  1.52D+00  1.93D+00  1.31D+00
 E= -1328.79195229061     Delta-E=       -0.000000000484 Rises=F Damp=F
 DIIS: error= 2.48D-07 at cycle  11 NSaved=  11.
 NSaved=11 IEnMin=11 EnMin= -1328.79195229061     IErMin=11 ErrMin= 2.48D-07
 ErrMax= 2.48D-07  0.00D+00 EMaxC= 1.00D-01 BMatC= 1.26D-10 BMatP= 2.54D-10
 IDIUse=1 WtCom= 1.00D+00 WtEn= 0.00D+00
 Coeff-Com:  0.629D-05-0.140D-03 0.102D-02 0.270D-02 0.625D-02 0.113D-01
 Coeff-Com: -0.833D-01-0.184D+00-0.172D+00 0.504D+00 0.914D+00
 Coeff:      0.629D-05-0.140D-03 0.102D-02 0.270D-02 0.625D-02 0.113D-01
 Coeff:     -0.833D-01-0.184D+00-0.172D+00 0.504D+00 0.914D+00
 Gap=     0.146 Goal=   None    Shift=    0.000
 Gap=     0.061 Goal=   None    Shift=    0.000
 RMSDP=5.00D-08 MaxDP=5.54D-06 DE=-4.84D-10 OVMax= 3.32D-05

 Cycle  12  Pass 1  IDiag  1:
 RMSU=  1.11D-08    CP:  9.99D-01  1.12D+00  9.57D-01  7.19D-01  6.55D-01
                    CP:  8.87D-01  1.56D+00  1.69D+00  2.38D+00  1.88D+00
                    CP:  1.24D+00
 E= -1328.79195229073     Delta-E=       -0.000000000126 Rises=F Damp=F
 DIIS: error= 1.29D-07 at cycle  12 NSaved=  12.
 NSaved=12 IEnMin=12 EnMin= -1328.79195229073     IErMin=12 ErrMin= 1.29D-07
 ErrMax= 1.29D-07  0.00D+00 EMaxC= 1.00D-01 BMatC= 3.44D-11 BMatP= 1.26D-10
 IDIUse=1 WtCom= 1.00D+00 WtEn= 0.00D+00
 Coeff-Com:  0.138D-04-0.221D-03 0.532D-03 0.195D-02 0.573D-02 0.163D-01
 Coeff-Com: -0.107D-01-0.753D-01-0.230D+00 0.433D-01 0.573D+00 0.675D+00
 Coeff:      0.138D-04-0.221D-03 0.532D-03 0.195D-02 0.573D-02 0.163D-01
 Coeff:     -0.107D-01-0.753D-01-0.230D+00 0.433D-01 0.573D+00 0.675D+00
 Gap=     0.146 Goal=   None    Shift=    0.000
 Gap=     0.061 Goal=   None    Shift=    0.000
 RMSDP=2.09D-08 MaxDP=2.27D-06 DE=-1.26D-10 OVMax= 1.50D-05

 Cycle  13  Pass 1  IDiag  1:
 RMSU=  5.13D-09    CP:  9.99D-01  1.12D+00  9.57D-01  7.19D-01  6.55D-01
                    CP:  8.90D-01  1.59D+00  1.76D+00  2.57D+00  2.12D+00
                    CP:  1.58D+00  9.33D-01
