 Entering Gaussian System, Link 0=g16
 Input=cyclohexyl-triBIP-E0PT.com
 Output=cyclohexyl-triBIP-E0PT.log
 Initial command:
 /gpfs/apps/hpc/Apps/Restricted/Gaussian/Rev_A.03/g16/l1.exe "/gpfs/scratch60/fas/hammes_schiffer/jg2487/c42n01/Gau-75920.inp" -scrdir="/gpfs/scratch60/fas/hammes_schiffer/jg2487/c42n01/"
 Entering Link 1 = /gpfs/apps/hpc/Apps/Restricted/Gaussian/Rev_A.03/g16/l1.exe PID=     75921.
  
 Copyright (c) 1988,1990,1992,1993,1995,1998,2003,2009,2016,
            Gaussian, Inc.  All Rights Reserved.
  
 This is part of the Gaussian(R) 16 program.  It is based on
 the Gaussian(R) 09 system (copyright 2009, Gaussian, Inc.),
 the Gaussian(R) 03 system (copyright 2003, Gaussian, Inc.),
 the Gaussian(R) 98 system (copyright 1998, Gaussian, Inc.),
 the Gaussian(R) 94 system (copyright 1995, Gaussian, Inc.),
 the Gaussian 92(TM) system (copyright 1992, Gaussian, Inc.),
 the Gaussian 90(TM) system (copyright 1990, Gaussian, Inc.),
 the Gaussian 88(TM) system (copyright 1988, Gaussian, Inc.),
 the Gaussian 86(TM) system (copyright 1986, Carnegie Mellon
 University), and the Gaussian 82(TM) system (copyright 1983,
 Carnegie Mellon University). Gaussian is a federally registered
 trademark of Gaussian, Inc.
  
 This software contains proprietary and confidential information,
 including trade secrets, belonging to Gaussian, Inc.
  
 This software is provided under written license and may be
 used, copied, transmitted, or stored only in accord with that
 written license.
  
 The following legend is applicable only to US Government
 contracts under FAR:
  
                    RESTRICTED RIGHTS LEGEND
  
 Use, reproduction and disclosure by the US Government is
 subject to restrictions as set forth in subparagraphs (a)
 and (c) of the Commercial Computer Software - Restricted
 Rights clause in FAR 52.227-19.
  
 Gaussian, Inc.
 340 Quinnipiac St., Bldg. 40, Wallingford CT 06492
  
  
 ---------------------------------------------------------------
 Warning -- This program may not be used in any manner that
 competes with the business of Gaussian, Inc. or will provide
 assistance to any competitor of Gaussian, Inc.  The licensee
 of this program is prohibited from giving any competitor of
 Gaussian, Inc. access to this program.  By using this program,
 the user acknowledges that Gaussian, Inc. is engaged in the
 business of creating and licensing software in the field of
 computational chemistry and represents and warrants to the
 licensee that it is not a competitor of Gaussian, Inc. and that
 it will not use this program in any manner prohibited above.
 ---------------------------------------------------------------
  

 Cite this work as:
 Gaussian 16, Revision A.03,
 M. J. Frisch, G. W. Trucks, H. B. Schlegel, G. E. Scuseria, 
 M. A. Robb, J. R. Cheeseman, G. Scalmani, V. Barone, 
 G. A. Petersson, H. Nakatsuji, X. Li, M. Caricato, A. V. Marenich, 
 J. Bloino, B. G. Janesko, R. Gomperts, B. Mennucci, H. P. Hratchian, 
 J. V. Ortiz, A. F. Izmaylov, J. L. Sonnenberg, D. Williams-Young, 
 F. Ding, F. Lipparini, F. Egidi, J. Goings, B. Peng, A. Petrone, 
 T. Henderson, D. Ranasinghe, V. G. Zakrzewski, J. Gao, N. Rega, 
 G. Zheng, W. Liang, M. Hada, M. Ehara, K. Toyota, R. Fukuda, 
 J. Hasegawa, M. Ishida, T. Nakajima, Y. Honda, O. Kitao, H. Nakai, 
 T. Vreven, K. Throssell, J. A. Montgomery, Jr., J. E. Peralta, 
 F. Ogliaro, M. J. Bearpark, J. J. Heyd, E. N. Brothers, K. N. Kudin, 
 V. N. Staroverov, T. A. Keith, R. Kobayashi, J. Normand, 
 K. Raghavachari, A. P. Rendell, J. C. Burant, S. S. Iyengar, 
 J. Tomasi, M. Cossi, J. M. Millam, M. Klene, C. Adamo, R. Cammi, 
 J. W. Ochterski, R. L. Martin, K. Morokuma, O. Farkas, 
 J. B. Foresman, and D. J. Fox, Gaussian, Inc., Wallingford CT, 2016.
 
 ******************************************
 Gaussian 16:  ES64L-G16RevA.03 25-Dec-2016
                21-Dec-2018 
 ******************************************
 %chk=cyclohexyl-triBIP-E0PT.chk
 %mem=10GB
 %nprocshared=16
 Will use up to   16 processors via shared memory.
 ----------------------------------------------------------------
 #p freq(ReadFC,InternalModes) Geom(AllCheck) NoSymm scale=0.9631
 ----------------------------------------------------------------
 1/18=20,29=7,38=1,114=963100/1,3;
 2/9=110,12=2,15=1,40=1/2;
 7/8=21,25=11,30=1/16;
 99/5=2/99;
 Leave Link    1 at Fri Dec 21 18:35:51 2018, MaxMem=  1342177280 cpu:               8.1 elap:               0.5
 (Enter /gpfs/apps/hpc/Apps/Restricted/Gaussian/Rev_A.03/g16/l101.exe)
 Structure from the checkpoint file:  "cyclohexyl-triBIP-E0PT.chk"
 ----------------------------------------------------------------
 cyclohexylimine triBIP oxidized, no proton transfer optimization
 ----------------------------------------------------------------
 Charge =  1 Multiplicity = 2
 Redundant internal coordinates found in file.  (old form).
 C,0,1.6860074486,0.3617641338,0.9170550537
 C,0,0.5872591833,1.1990335871,0.6120426071
 C,0,0.7812584252,2.5773133646,0.4599134361
 C,0,2.0738847231,3.070049098,0.6209244603
 C,0,3.1565111737,2.228360205,0.9288716022
 C,0,2.9921757949,0.8468864731,1.0862128257
 C,0,-0.1758156319,-0.8195391276,0.7603560637
 H,0,-0.0489687285,3.2312543682,0.2227342288
 H,0,2.2565532746,4.1317933896,0.5054656382
 H,0,4.1441587586,2.6610273799,1.0362270949
 C,0,-2.4574630286,-1.7263666661,0.5114755495
 C,0,-3.422329448,-2.7715905832,0.5137067931
 C,0,-3.0316326691,-4.0936907779,0.7808620813
 C,0,-1.6868961498,-4.31452776,1.0341309761
 C,0,-0.7343548639,-3.2687170794,1.0292450502
 C,0,-1.0925808295,-1.9463008913,0.7715824028
 C,0,-4.4545164917,-0.9106806933,0.0489873379
 H,0,-3.7553016045,-4.8986724942,0.7868940111
 H,0,-1.343565819,-5.3194474471,1.2454532822
 H,0,0.3015831116,-3.50921915,1.2344492301
 N,0,-0.5626303438,0.4323440881,0.5221271087
 C,0,-6.865162666,-0.5744840822,-0.430356984
 C,0,-5.5263222654,-0.0152256759,-0.2832467173
 C,0,-5.326245144,1.3489367181,-0.4667557492
 C,0,-6.3921648321,2.1859365123,-0.7924699743
 C,0,-7.6951436739,1.6121927278,-0.9284952648
 C,0,-7.9769472428,0.2786417011,-0.7608823929
 H,0,-4.329454774,1.7524440194,-0.360179411
 H,0,-8.5047913764,2.2804291465,-1.1802952167
 C,0,-6.2300463617,3.680577393,-1.0125737926
 C,0,-9.3891262297,-0.2901128475,-0.910882814
 O,0,-7.0610446091,-1.8515513968,-0.2633556928
 H,0,-6.1492310614,-2.3096565043,-0.0309227928
 N,0,-3.1376609893,-0.5785048428,0.2175687198
 N,0,-4.6463361066,-2.2279144327,0.2253490728
 H,0,-2.6626196967,0.3208610967,0.1613080569
 N,0,1.170721978,-0.9085870016,1.0019057697
 H,0,1.7487059991,-1.7199822991,1.1922808467
 C,0,4.0709605767,-0.0703906323,1.4128132289
 N,0,3.9357105101,-1.3950305663,1.4553318442
 N,0,5.3511487685,0.3274947947,1.7124159869
 C,0,7.4288330207,-0.9690985863,2.3305691173
 C,0,7.8530771498,-2.290987755,2.5082505102
 C,0,6.9797251134,-3.3793929266,2.334320302
 C,0,5.6440647286,-3.1965061739,1.9797713966
 C,0,5.1885326752,-1.8843304118,1.7954667864
 C,0,6.0841719847,-0.8040108757,1.9659397316
 H,0,8.8841091796,-2.4737423818,2.7916891367
 H,0,7.3570498358,-4.383970284,2.4844424779
 H,0,4.9736654763,-4.0385133024,1.8562764883
 H,0,5.7507764816,1.255507173,1.7975343205
 C,0,8.3204149056,0.1715323465,2.5314008514
 H,0,9.3520013607,-0.0782482204,2.792874641
 N,0,7.9010586059,1.3764203487,2.4145373831
 C,0,8.8145594051,2.5005114742,2.6230619903
 C,0,10.2679676911,2.1661253134,2.976744891
 C,0,8.7521641842,3.4108049598,1.3850437374
 H,0,8.3884891661,3.0723233009,3.4604350133
 C,0,11.0908459504,3.4425444617,3.1854577866
 H,0,10.7084682792,1.5776787656,2.1624882584
 H,0,10.3046692953,1.543792148,3.8763372032
 C,0,9.5784087922,4.6851206526,1.5860771771
 H,0,9.138058079,2.849257128,0.5252414835
 H,0,7.7066339606,3.6518698565,1.1699258387
 C,0,11.0288284089,4.3597717961,1.9595185529
 H,0,12.1285895342,3.180360191,3.4139368067
 H,0,10.7030309902,3.9825369515,4.0583608983
 H,0,9.5465558549,5.2985282126,0.6803591303
 H,0,9.1269696142,5.2813683568,2.3888217857
 H,0,11.5861581362,5.2823817438,2.1498752144
 H,0,11.515951372,3.8601037814,1.1127884825
 C,0,-6.6853693086,4.0221952583,-2.4508140533
 H,0,-7.7229902932,3.7352412124,-2.6322751607
 H,0,-6.600659487,5.1012766561,-2.6019744063
 H,0,-6.0537160456,3.5195296896,-3.1865845118
 C,0,-7.1249033047,4.4339553188,-0.000992151
 H,0,-7.0191853556,5.5090759419,-0.1651498254
 H,0,-8.1798582849,4.1767270722,-0.1152057023
 H,0,-6.8230928438,4.2113265056,1.0249175434
 C,0,-4.7800063061,4.1464075567,-0.831349426
 H,0,-4.4187875429,3.956864003,0.1825341605
 H,0,-4.1064444906,3.6543602375,-1.5373072913
 H,0,-4.7233830298,5.2218419442,-1.0105532844
 C,0,-9.4154642868,-1.3295643399,-2.0529728483
 H,0,-8.7292652425,-2.1540758431,-1.8661676971
 H,0,-10.4270267102,-1.7330956205,-2.1455759045
 H,0,-9.1480569081,-0.8601073346,-3.0031687557
 C,0,-10.3955106526,0.8177070176,-1.2551150774
 H,0,-10.4403149362,1.579446064,-0.472201454
 H,0,-10.1495921816,1.3081011447,-2.200404922
 H,0,-11.3896538232,0.376978428,-1.352606114
 C,0,-9.8341124775,-0.9437579299,0.416199064
 H,0,-9.1895091012,-1.7757669309,0.6970276196
 H,0,-9.8289473268,-0.2083095899,1.2250537587
 H,0,-10.8536913808,-1.3203597511,0.3038234887
 Recover connectivity data from disk.
 ITRead=  0  0  0  0  0  0  0  0  0  0  0  0  0  0  0  0  0  0  0  0
 ITRead=  0  0  0  0  0  0  0  0  0  0  0  0  0  0  0  0  0  0  0  0
 ITRead=  0  0  0  0  0  0  0  0  0  0  0  0  0  0  0  0  0  0  0  0
 ITRead=  0  0  0  0  0  0  0  0  0  0  0  0  0  0  0  0  0  0  0  0
 ITRead=  0  0  0  0  0  0  0  0  0  0  0  0  0  0  0
 MicOpt= -1 -1 -1 -1 -1 -1 -1 -1 -1 -1 -1 -1 -1 -1 -1 -1 -1 -1 -1 -1
 MicOpt= -1 -1 -1 -1 -1 -1 -1 -1 -1 -1 -1 -1 -1 -1 -1 -1 -1 -1 -1 -1
 MicOpt= -1 -1 -1 -1 -1 -1 -1 -1 -1 -1 -1 -1 -1 -1 -1 -1 -1 -1 -1 -1
 MicOpt= -1 -1 -1 -1 -1 -1 -1 -1 -1 -1 -1 -1 -1 -1 -1 -1 -1 -1 -1 -1
 MicOpt= -1 -1 -1 -1 -1 -1 -1 -1 -1 -1 -1 -1 -1 -1 -1
 NAtoms=     95 NQM=       95 NQMF=       0 NMMI=      0 NMMIF=      0
                NMic=       0 NMicF=      0.
                    Isotopes and Nuclear Properties:
 (Nuclear quadrupole moments (NQMom) in fm**2, nuclear magnetic moments (NMagM)
  in nuclear magnetons)

  Atom         1           2           3           4           5           6           7           8           9          10
 IAtWgt=          12          12          12          12          12          12          12           1           1           1
 AtmWgt=  12.0000000  12.0000000  12.0000000  12.0000000  12.0000000  12.0000000  12.0000000   1.0078250   1.0078250   1.0078250
 NucSpn=           0           0           0           0           0           0           0           1           1           1
 AtZEff=   3.6000000   3.6000000   3.6000000   3.6000000   3.6000000   3.6000000   3.6000000   1.0000000   1.0000000   1.0000000
 NQMom=    0.0000000   0.0000000   0.0000000   0.0000000   0.0000000   0.0000000   0.0000000   0.0000000   0.0000000   0.0000000
 NMagM=    0.0000000   0.0000000   0.0000000   0.0000000   0.0000000   0.0000000   0.0000000   2.7928460   2.7928460   2.7928460
 AtZNuc=   6.0000000   6.0000000   6.0000000   6.0000000   6.0000000   6.0000000   6.0000000   1.0000000   1.0000000   1.0000000

  Atom        11          12          13          14          15          16          17          18          19          20
 IAtWgt=          12          12          12          12          12          12          12           1           1           1
 AtmWgt=  12.0000000  12.0000000  12.0000000  12.0000000  12.0000000  12.0000000  12.0000000   1.0078250   1.0078250   1.0078250
 NucSpn=           0           0           0           0           0           0           0           1           1           1
 AtZEff=   3.6000000   3.6000000   3.6000000   3.6000000   3.6000000   3.6000000   3.6000000   1.0000000   1.0000000   1.0000000
 NQMom=    0.0000000   0.0000000   0.0000000   0.0000000   0.0000000   0.0000000   0.0000000   0.0000000   0.0000000   0.0000000
 NMagM=    0.0000000   0.0000000   0.0000000   0.0000000   0.0000000   0.0000000   0.0000000   2.7928460   2.7928460   2.7928460
 AtZNuc=   6.0000000   6.0000000   6.0000000   6.0000000   6.0000000   6.0000000   6.0000000   1.0000000   1.0000000   1.0000000

  Atom        21          22          23          24          25          26          27          28          29          30
 IAtWgt=          14          12          12          12          12          12          12           1           1          12
 AtmWgt=  14.0030740  12.0000000  12.0000000  12.0000000  12.0000000  12.0000000  12.0000000   1.0078250   1.0078250  12.0000000
 NucSpn=           2           0           0           0           0           0           0           1           1           0
 AtZEff=   4.5500000   3.6000000   3.6000000   3.6000000   3.6000000   3.6000000   3.6000000   1.0000000   1.0000000   3.6000000
 NQMom=    2.0440000   0.0000000   0.0000000   0.0000000   0.0000000   0.0000000   0.0000000   0.0000000   0.0000000   0.0000000
 NMagM=    0.4037610   0.0000000   0.0000000   0.0000000   0.0000000   0.0000000   0.0000000   2.7928460   2.7928460   0.0000000
 AtZNuc=   7.0000000   6.0000000   6.0000000   6.0000000   6.0000000   6.0000000   6.0000000   1.0000000   1.0000000   6.0000000

  Atom        31          32          33          34          35          36          37          38          39          40
 IAtWgt=          12          16           1          14          14           1          14           1          12          14
 AtmWgt=  12.0000000  15.9949146   1.0078250  14.0030740  14.0030740   1.0078250  14.0030740   1.0078250  12.0000000  14.0030740
 NucSpn=           0           0           1           2           2           1           2           1           0           2
 AtZEff=   3.6000000   5.6000000   1.0000000   4.5500000   4.5500000   1.0000000   4.5500000   1.0000000   3.6000000   4.5500000
 NQMom=    0.0000000   0.0000000   0.0000000   2.0440000   2.0440000   0.0000000   2.0440000   0.0000000   0.0000000   2.0440000
 NMagM=    0.0000000   0.0000000   2.7928460   0.4037610   0.4037610   2.7928460   0.4037610   2.7928460   0.0000000   0.4037610
 AtZNuc=   6.0000000   8.0000000   1.0000000   7.0000000   7.0000000   1.0000000   7.0000000   1.0000000   6.0000000   7.0000000

  Atom        41          42          43          44          45          46          47          48          49          50
 IAtWgt=          14          12          12          12          12          12          12           1           1           1
 AtmWgt=  14.0030740  12.0000000  12.0000000  12.0000000  12.0000000  12.0000000  12.0000000   1.0078250   1.0078250   1.0078250
 NucSpn=           2           0           0           0           0           0           0           1           1           1
 AtZEff=   4.5500000   3.6000000   3.6000000   3.6000000   3.6000000   3.6000000   3.6000000   1.0000000   1.0000000   1.0000000
 NQMom=    2.0440000   0.0000000   0.0000000   0.0000000   0.0000000   0.0000000   0.0000000   0.0000000   0.0000000   0.0000000
 NMagM=    0.4037610   0.0000000   0.0000000   0.0000000   0.0000000   0.0000000   0.0000000   2.7928460   2.7928460   2.7928460
 AtZNuc=   7.0000000   6.0000000   6.0000000   6.0000000   6.0000000   6.0000000   6.0000000   1.0000000   1.0000000   1.0000000

  Atom        51          52          53          54          55          56          57          58          59          60
 IAtWgt=           1          12           1          14          12          12          12           1          12           1
 AtmWgt=   1.0078250  12.0000000   1.0078250  14.0030740  12.0000000  12.0000000  12.0000000   1.0078250  12.0000000   1.0078250
 NucSpn=           1           0           1           2           0           0           0           1           0           1
 AtZEff=   1.0000000   3.6000000   1.0000000   4.5500000   3.6000000   3.6000000   3.6000000   1.0000000   3.6000000   1.0000000
 NQMom=    0.0000000   0.0000000   0.0000000   2.0440000   0.0000000   0.0000000   0.0000000   0.0000000   0.0000000   0.0000000
 NMagM=    2.7928460   0.0000000   2.7928460   0.4037610   0.0000000   0.0000000   0.0000000   2.7928460   0.0000000   2.7928460
 AtZNuc=   1.0000000   6.0000000   1.0000000   7.0000000   6.0000000   6.0000000   6.0000000   1.0000000   6.0000000   1.0000000

  Atom        61          62          63          64          65          66          67          68          69          70
 IAtWgt=           1          12           1           1          12           1           1           1           1           1
 AtmWgt=   1.0078250  12.0000000   1.0078250   1.0078250  12.0000000   1.0078250   1.0078250   1.0078250   1.0078250   1.0078250
 NucSpn=           1           0           1           1           0           1           1           1           1           1
 AtZEff=   1.0000000   3.6000000   1.0000000   1.0000000   3.6000000   1.0000000   1.0000000   1.0000000   1.0000000   1.0000000
 NQMom=    0.0000000   0.0000000   0.0000000   0.0000000   0.0000000   0.0000000   0.0000000   0.0000000   0.0000000   0.0000000
 NMagM=    2.7928460   0.0000000   2.7928460   2.7928460   0.0000000   2.7928460   2.7928460   2.7928460   2.7928460   2.7928460
 AtZNuc=   1.0000000   6.0000000   1.0000000   1.0000000   6.0000000   1.0000000   1.0000000   1.0000000   1.0000000   1.0000000

  Atom        71          72          73          74          75          76          77          78          79          80
 IAtWgt=           1          12           1           1           1          12           1           1           1          12
 AtmWgt=   1.0078250  12.0000000   1.0078250   1.0078250   1.0078250  12.0000000   1.0078250   1.0078250   1.0078250  12.0000000
 NucSpn=           1           0           1           1           1           0           1           1           1           0
 AtZEff=   1.0000000   3.6000000   1.0000000   1.0000000   1.0000000   3.6000000   1.0000000   1.0000000   1.0000000   3.6000000
 NQMom=    0.0000000   0.0000000   0.0000000   0.0000000   0.0000000   0.0000000   0.0000000   0.0000000   0.0000000   0.0000000
 NMagM=    2.7928460   0.0000000   2.7928460   2.7928460   2.7928460   0.0000000   2.7928460   2.7928460   2.7928460   0.0000000
 AtZNuc=   1.0000000   6.0000000   1.0000000   1.0000000   1.0000000   6.0000000   1.0000000   1.0000000   1.0000000   6.0000000

  Atom        81          82          83          84          85          86          87          88          89          90
 IAtWgt=           1           1           1          12           1           1           1          12           1           1
 AtmWgt=   1.0078250   1.0078250   1.0078250  12.0000000   1.0078250   1.0078250   1.0078250  12.0000000   1.0078250   1.0078250
 NucSpn=           1           1           1           0           1           1           1           0           1           1
 AtZEff=   1.0000000   1.0000000   1.0000000   3.6000000   1.0000000   1.0000000   1.0000000   3.6000000   1.0000000   1.0000000
 NQMom=    0.0000000   0.0000000   0.0000000   0.0000000   0.0000000   0.0000000   0.0000000   0.0000000   0.0000000   0.0000000
 NMagM=    2.7928460   2.7928460   2.7928460   0.0000000   2.7928460   2.7928460   2.7928460   0.0000000   2.7928460   2.7928460
 AtZNuc=   1.0000000   1.0000000   1.0000000   6.0000000   1.0000000   1.0000000   1.0000000   6.0000000   1.0000000   1.0000000

  Atom        91          92          93          94          95
 IAtWgt=           1          12           1           1           1
 AtmWgt=   1.0078250  12.0000000   1.0078250   1.0078250   1.0078250
 NucSpn=           1           0           1           1           1
 AtZEff=   1.0000000   3.6000000   1.0000000   1.0000000   1.0000000
 NQMom=    0.0000000   0.0000000   0.0000000   0.0000000   0.0000000
 NMagM=    2.7928460   0.0000000   2.7928460   2.7928460   2.7928460
 AtZNuc=   1.0000000   6.0000000   1.0000000   1.0000000   1.0000000
 Leave Link  101 at Fri Dec 21 18:35:51 2018, MaxMem=  1342177280 cpu:               3.7 elap:               0.2
 (Enter /gpfs/apps/hpc/Apps/Restricted/Gaussian/Rev_A.03/g16/l103.exe)

 GradGradGradGradGradGradGradGradGradGradGradGradGradGradGradGradGradGrad
 Berny optimization.
 Initialization pass.
                           ----------------------------
                           !    Initial Parameters    !
                           ! (Angstroms and Degrees)  !
 --------------------------                            --------------------------
 ! Name  Definition              Value          Derivative Info.                !
 --------------------------------------------------------------------------------
 ! R1    R(1,2)                  1.4147         estimate D2E/DX2                !
 ! R2    R(1,6)                  1.4036         estimate D2E/DX2                !
 ! R3    R(1,37)                 1.3735         estimate D2E/DX2                !
 ! R4    R(2,3)                  1.4002         estimate D2E/DX2                !
 ! R5    R(2,21)                 1.385          estimate D2E/DX2                !
 ! R6    R(3,4)                  1.3927         estimate D2E/DX2                !
 ! R7    R(3,8)                  1.0831         estimate D2E/DX2                !
 ! R8    R(4,5)                  1.4055         estimate D2E/DX2                !
 ! R9    R(4,9)                  1.0835         estimate D2E/DX2                !
 ! R10   R(5,6)                  1.4001         estimate D2E/DX2                !
 ! R11   R(5,10)                 1.0836         estimate D2E/DX2                !
 ! R12   R(6,39)                 1.4532         estimate D2E/DX2                !
 ! R13   R(7,16)                 1.4526         estimate D2E/DX2                !
 ! R14   R(7,21)                 1.3318         estimate D2E/DX2                !
 ! R15   R(7,37)                 1.3709         estimate D2E/DX2                !
 ! R16   R(11,12)                1.4225         estimate D2E/DX2                !
 ! R17   R(11,16)                1.4067         estimate D2E/DX2                !
 ! R18   R(11,34)                1.3662         estimate D2E/DX2                !
 ! R19   R(12,13)                1.4043         estimate D2E/DX2                !
 ! R20   R(12,35)                1.37           estimate D2E/DX2                !
 ! R21   R(13,14)                1.3861         estimate D2E/DX2                !
 ! R22   R(13,18)                1.0825         estimate D2E/DX2                !
 ! R23   R(14,15)                1.4146         estimate D2E/DX2                !
 ! R24   R(14,19)                1.0828         estimate D2E/DX2                !
 ! R25   R(15,16)                1.3941         estimate D2E/DX2                !
 ! R26   R(15,20)                1.0831         estimate D2E/DX2                !
 ! R27   R(17,23)                1.4356         estimate D2E/DX2                !
 ! R28   R(17,34)                1.3685         estimate D2E/DX2                !
 ! R29   R(17,35)                1.3428         estimate D2E/DX2                !
 ! R30   R(22,23)                1.4584         estimate D2E/DX2                !
 ! R31   R(22,27)                1.4398         estimate D2E/DX2                !
 ! R32   R(22,32)                1.3028         estimate D2E/DX2                !
 ! R33   R(23,24)                1.3909         estimate D2E/DX2                !
 ! R34   R(24,25)                1.3939         estimate D2E/DX2                !
 ! R35   R(24,28)                1.0806         estimate D2E/DX2                !
 ! R36   R(25,26)                1.4302         estimate D2E/DX2                !
 ! R37   R(25,30)                1.5194         estimate D2E/DX2                !
 ! R38   R(26,27)                1.3733         estimate D2E/DX2                !
 ! R39   R(26,29)                1.0796         estimate D2E/DX2                !
 ! R40   R(27,31)                1.5298         estimate D2E/DX2                !
 ! R41   R(30,72)                1.5468         estimate D2E/DX2                !
 ! R42   R(30,76)                1.5465         estimate D2E/DX2                !
 ! R43   R(30,80)                1.5338         estimate D2E/DX2                !
 ! R44   R(31,84)                1.5445         estimate D2E/DX2                !
 ! R45   R(31,88)                1.5358         estimate D2E/DX2                !
 ! R46   R(31,92)                1.5448         estimate D2E/DX2                !
 ! R47   R(32,33)                1.0466         estimate D2E/DX2                !
 ! R48   R(34,36)                1.0187         estimate D2E/DX2                !
 ! R49   R(37,38)                1.0142         estimate D2E/DX2                !
 ! R50   R(39,40)                1.3322         estimate D2E/DX2                !
 ! R51   R(39,41)                1.3737         estimate D2E/DX2                !
 ! R52   R(40,46)                1.3873         estimate D2E/DX2                !
 ! R53   R(41,47)                1.3718         estimate D2E/DX2                !
 ! R54   R(41,51)                1.014          estimate D2E/DX2                !
 ! R55   R(42,43)                1.3996         estimate D2E/DX2                !
 ! R56   R(42,47)                1.403          estimate D2E/DX2                !
 ! R57   R(42,52)                1.4616         estimate D2E/DX2                !
 ! R58   R(43,44)                1.4063         estimate D2E/DX2                !
 ! R59   R(43,48)                1.0848         estimate D2E/DX2                !
 ! R60   R(44,45)                1.394          estimate D2E/DX2                !
 ! R61   R(44,49)                1.0836         estimate D2E/DX2                !
 ! R62   R(45,46)                1.4012         estimate D2E/DX2                !
 ! R63   R(45,50)                1.0834         estimate D2E/DX2                !
 ! R64   R(46,47)                1.4136         estimate D2E/DX2                !
 ! R65   R(52,53)                1.0931         estimate D2E/DX2                !
 ! R66   R(52,54)                1.2811         estimate D2E/DX2                !
 ! R67   R(54,55)                1.4634         estimate D2E/DX2                !
 ! R68   R(55,56)                1.5327         estimate D2E/DX2                !
 ! R69   R(55,57)                1.5379         estimate D2E/DX2                !
 ! R70   R(55,58)                1.0999         estimate D2E/DX2                !
 ! R71   R(56,59)                1.5329         estimate D2E/DX2                !
 ! R72   R(56,60)                1.097          estimate D2E/DX2                !
 ! R73   R(56,61)                1.0945         estimate D2E/DX2                !
 ! R74   R(57,62)                1.532          estimate D2E/DX2                !
 ! R75   R(57,63)                1.097          estimate D2E/DX2                !
 ! R76   R(57,64)                1.0943         estimate D2E/DX2                !
 ! R77   R(59,65)                1.5323         estimate D2E/DX2                !
 ! R78   R(59,66)                1.0945         estimate D2E/DX2                !
 ! R79   R(59,67)                1.0972         estimate D2E/DX2                !
 ! R80   R(62,65)                1.5327         estimate D2E/DX2                !
 ! R81   R(62,68)                1.0944         estimate D2E/DX2                !
 ! R82   R(62,69)                1.0971         estimate D2E/DX2                !
 ! R83   R(65,70)                1.0946         estimate D2E/DX2                !
 ! R84   R(65,71)                1.0972         estimate D2E/DX2                !
 ! R85   R(72,73)                1.0918         estimate D2E/DX2                !
 ! R86   R(72,74)                1.0929         estimate D2E/DX2                !
 ! R87   R(72,75)                1.0923         estimate D2E/DX2                !
 ! R88   R(76,77)                1.0927         estimate D2E/DX2                !
 ! R89   R(76,78)                1.0919         estimate D2E/DX2                !
 ! R90   R(76,79)                1.0923         estimate D2E/DX2                !
 ! R91   R(80,81)                1.0929         estimate D2E/DX2                !
 ! R92   R(80,82)                1.0928         estimate D2E/DX2                !
 ! R93   R(80,83)                1.0917         estimate D2E/DX2                !
 ! R94   R(84,85)                1.0888         estimate D2E/DX2                !
 ! R95   R(84,86)                1.093          estimate D2E/DX2                !
 ! R96   R(84,87)                1.0931         estimate D2E/DX2                !
 ! R97   R(88,89)                1.0933         estimate D2E/DX2                !
 ! R98   R(88,90)                1.0929         estimate D2E/DX2                !
 ! R99   R(88,91)                1.0918         estimate D2E/DX2                !
 ! R100  R(92,93)                1.0893         estimate D2E/DX2                !
 ! R101  R(92,94)                1.0932         estimate D2E/DX2                !
 ! R102  R(92,95)                1.0927         estimate D2E/DX2                !
 ! A1    A(2,1,6)              122.97           estimate D2E/DX2                !
 ! A2    A(2,1,37)             105.6248         estimate D2E/DX2                !
 ! A3    A(6,1,37)             131.4032         estimate D2E/DX2                !
 ! A4    A(1,2,3)              119.895          estimate D2E/DX2                !
 ! A5    A(1,2,21)             109.3424         estimate D2E/DX2                !
 ! A6    A(3,2,21)             130.7616         estimate D2E/DX2                !
 ! A7    A(2,3,4)              117.6657         estimate D2E/DX2                !
 ! A8    A(2,3,8)              120.7909         estimate D2E/DX2                !
 ! A9    A(4,3,8)              121.5432         estimate D2E/DX2                !
 ! A10   A(3,4,5)              121.8973         estimate D2E/DX2                !
 ! A11   A(3,4,9)              119.3964         estimate D2E/DX2                !
 ! A12   A(5,4,9)              118.7062         estimate D2E/DX2                !
 ! A13   A(4,5,6)              121.676          estimate D2E/DX2                !
 ! A14   A(4,5,10)             118.9912         estimate D2E/DX2                !
 ! A15   A(6,5,10)             119.3295         estimate D2E/DX2                !
 ! A16   A(1,6,5)              115.895          estimate D2E/DX2                !
 ! A17   A(1,6,39)             119.983          estimate D2E/DX2                !
 ! A18   A(5,6,39)             124.1207         estimate D2E/DX2                !
 ! A19   A(16,7,21)            123.1762         estimate D2E/DX2                !
 ! A20   A(16,7,37)            124.6199         estimate D2E/DX2                !
 ! A21   A(21,7,37)            112.2014         estimate D2E/DX2                !
 ! A22   A(12,11,16)           122.8842         estimate D2E/DX2                !
 ! A23   A(12,11,34)           106.2589         estimate D2E/DX2                !
 ! A24   A(16,11,34)           130.8568         estimate D2E/DX2                !
 ! A25   A(11,12,13)           120.2236         estimate D2E/DX2                !
 ! A26   A(11,12,35)           108.3056         estimate D2E/DX2                !
 ! A27   A(13,12,35)           131.4705         estimate D2E/DX2                !
 ! A28   A(12,13,14)           117.0447         estimate D2E/DX2                !
 ! A29   A(12,13,18)           121.011          estimate D2E/DX2                !
 ! A30   A(14,13,18)           121.9443         estimate D2E/DX2                !
 ! A31   A(13,14,15)           122.3344         estimate D2E/DX2                !
 ! A32   A(13,14,19)           119.4166         estimate D2E/DX2                !
 ! A33   A(15,14,19)           118.249          estimate D2E/DX2                !
 ! A34   A(14,15,16)           121.9311         estimate D2E/DX2                !
 ! A35   A(14,15,20)           118.635          estimate D2E/DX2                !
 ! A36   A(16,15,20)           119.4338         estimate D2E/DX2                !
 ! A37   A(7,16,11)            119.3158         estimate D2E/DX2                !
 ! A38   A(7,16,15)            125.1026         estimate D2E/DX2                !
 ! A39   A(11,16,15)           115.5813         estimate D2E/DX2                !
 ! A40   A(23,17,34)           126.5486         estimate D2E/DX2                !
 ! A41   A(23,17,35)           122.3866         estimate D2E/DX2                !
 ! A42   A(34,17,35)           111.0629         estimate D2E/DX2                !
 ! A43   A(2,21,7)             105.522          estimate D2E/DX2                !
 ! A44   A(23,22,27)           120.3182         estimate D2E/DX2                !
 ! A45   A(23,22,32)           120.0675         estimate D2E/DX2                !
 ! A46   A(27,22,32)           119.6143         estimate D2E/DX2                !
 ! A47   A(17,23,22)           118.0042         estimate D2E/DX2                !
 ! A48   A(17,23,24)           122.3362         estimate D2E/DX2                !
 ! A49   A(22,23,24)           119.6596         estimate D2E/DX2                !
 ! A50   A(23,24,25)           120.6484         estimate D2E/DX2                !
 ! A51   A(23,24,28)           119.0708         estimate D2E/DX2                !
 ! A52   A(25,24,28)           120.2794         estimate D2E/DX2                !
 ! A53   A(24,25,26)           118.5571         estimate D2E/DX2                !
 ! A54   A(24,25,30)           122.8846         estimate D2E/DX2                !
 ! A55   A(26,25,30)           118.5581         estimate D2E/DX2                !
 ! A56   A(25,26,27)           124.396          estimate D2E/DX2                !
 ! A57   A(25,26,29)           117.2023         estimate D2E/DX2                !
 ! A58   A(27,26,29)           118.4017         estimate D2E/DX2                !
 ! A59   A(22,27,26)           116.4198         estimate D2E/DX2                !
 ! A60   A(22,27,31)           120.9987         estimate D2E/DX2                !
 ! A61   A(26,27,31)           122.5815         estimate D2E/DX2                !
 ! A62   A(25,30,72)           108.6954         estimate D2E/DX2                !
 ! A63   A(25,30,76)           108.8269         estimate D2E/DX2                !
 ! A64   A(25,30,80)           112.4896         estimate D2E/DX2                !
 ! A65   A(72,30,76)           109.2862         estimate D2E/DX2                !
 ! A66   A(72,30,80)           108.7284         estimate D2E/DX2                !
 ! A67   A(76,30,80)           108.7721         estimate D2E/DX2                !
 ! A68   A(27,31,84)           109.783          estimate D2E/DX2                !
 ! A69   A(27,31,88)           111.0211         estimate D2E/DX2                !
 ! A70   A(27,31,92)           109.8153         estimate D2E/DX2                !
 ! A71   A(84,31,88)           107.9717         estimate D2E/DX2                !
 ! A72   A(84,31,92)           110.216          estimate D2E/DX2                !
 ! A73   A(88,31,92)           107.9998         estimate D2E/DX2                !
 ! A74   A(22,32,33)           109.0604         estimate D2E/DX2                !
 ! A75   A(11,34,17)           107.5557         estimate D2E/DX2                !
 ! A76   A(11,34,36)           121.431          estimate D2E/DX2                !
 ! A77   A(17,34,36)           131.0123         estimate D2E/DX2                !
 ! A78   A(12,35,17)           106.8167         estimate D2E/DX2                !
 ! A79   A(1,37,7)             107.3091         estimate D2E/DX2                !
 ! A80   A(1,37,38)            122.5291         estimate D2E/DX2                !
 ! A81   A(7,37,38)            130.1485         estimate D2E/DX2                !
 ! A82   A(6,39,40)            124.0162         estimate D2E/DX2                !
 ! A83   A(6,39,41)            123.9186         estimate D2E/DX2                !
 ! A84   A(40,39,41)           112.0652         estimate D2E/DX2                !
 ! A85   A(39,40,46)           105.476          estimate D2E/DX2                !
 ! A86   A(39,41,47)           107.4202         estimate D2E/DX2                !
 ! A87   A(39,41,51)           130.5946         estimate D2E/DX2                !
 ! A88   A(47,41,51)           121.9231         estimate D2E/DX2                !
 ! A89   A(43,42,47)           115.7627         estimate D2E/DX2                !
 ! A90   A(43,42,52)           122.3243         estimate D2E/DX2                !
 ! A91   A(47,42,52)           121.9063         estimate D2E/DX2                !
 ! A92   A(42,43,44)           121.805          estimate D2E/DX2                !
 ! A93   A(42,43,48)           118.71           estimate D2E/DX2                !
 ! A94   A(44,43,48)           119.4846         estimate D2E/DX2                !
 ! A95   A(43,44,45)           121.6666         estimate D2E/DX2                !
 ! A96   A(43,44,49)           118.9569         estimate D2E/DX2                !
 ! A97   A(45,44,49)           119.376          estimate D2E/DX2                !
 ! A98   A(44,45,46)           117.8936         estimate D2E/DX2                !
 ! A99   A(44,45,50)           121.3293         estimate D2E/DX2                !
 ! A100  A(46,45,50)           120.7757         estimate D2E/DX2                !
 ! A101  A(40,46,45)           131.0053         estimate D2E/DX2                !
 ! A102  A(40,46,47)           109.4013         estimate D2E/DX2                !
 ! A103  A(45,46,47)           119.5932         estimate D2E/DX2                !
 ! A104  A(41,47,42)           131.0884         estimate D2E/DX2                !
 ! A105  A(41,47,46)           105.6351         estimate D2E/DX2                !
 ! A106  A(42,47,46)           123.2753         estimate D2E/DX2                !
 ! A107  A(42,52,53)           115.4806         estimate D2E/DX2                !
 ! A108  A(42,52,54)           121.4497         estimate D2E/DX2                !
 ! A109  A(53,52,54)           123.0677         estimate D2E/DX2                !
 ! A110  A(52,54,55)           120.3377         estimate D2E/DX2                !
 ! A111  A(54,55,56)           117.2081         estimate D2E/DX2                !
 ! A112  A(54,55,57)           108.3382         estimate D2E/DX2                !
 ! A113  A(54,55,58)           105.4274         estimate D2E/DX2                !
 ! A114  A(56,55,57)           110.6926         estimate D2E/DX2                !
 ! A115  A(56,55,58)           107.7626         estimate D2E/DX2                !
 ! A116  A(57,55,58)           106.8241         estimate D2E/DX2                !
 ! A117  A(55,56,59)           111.0249         estimate D2E/DX2                !
 ! A118  A(55,56,60)           109.058          estimate D2E/DX2                !
 ! A119  A(55,56,61)           110.2127         estimate D2E/DX2                !
 ! A120  A(59,56,60)           109.4005         estimate D2E/DX2                !
 ! A121  A(59,56,61)           110.093          estimate D2E/DX2                !
 ! A122  A(60,56,61)           106.9549         estimate D2E/DX2                !
 ! A123  A(55,57,62)           111.397          estimate D2E/DX2                !
 ! A124  A(55,57,63)           108.2799         estimate D2E/DX2                !
 ! A125  A(55,57,64)           109.1107         estimate D2E/DX2                !
 ! A126  A(62,57,63)           109.8106         estimate D2E/DX2                !
 ! A127  A(62,57,64)           110.9679         estimate D2E/DX2                !
 ! A128  A(63,57,64)           107.1437         estimate D2E/DX2                !
 ! A129  A(56,59,65)           111.5774         estimate D2E/DX2                !
 ! A130  A(56,59,66)           109.7508         estimate D2E/DX2                !
 ! A131  A(56,59,67)           109.1696         estimate D2E/DX2                !
 ! A132  A(65,59,66)           110.4129         estimate D2E/DX2                !
 ! A133  A(65,59,67)           109.1219         estimate D2E/DX2                !
 ! A134  A(66,59,67)           106.675          estimate D2E/DX2                !
 ! A135  A(57,62,65)           111.4563         estimate D2E/DX2                !
 ! A136  A(57,62,68)           109.9953         estimate D2E/DX2                !
 ! A137  A(57,62,69)           109.0351         estimate D2E/DX2                !
 ! A138  A(65,62,68)           110.3766         estimate D2E/DX2                !
 ! A139  A(65,62,69)           109.0553         estimate D2E/DX2                !
 ! A140  A(68,62,69)           106.7955         estimate D2E/DX2                !
 ! A141  A(59,65,62)           111.1187         estimate D2E/DX2                !
 ! A142  A(59,65,70)           110.1696         estimate D2E/DX2                !
 ! A143  A(59,65,71)           109.0769         estimate D2E/DX2                !
 ! A144  A(62,65,70)           110.2005         estimate D2E/DX2                !
 ! A145  A(62,65,71)           109.1946         estimate D2E/DX2                !
 ! A146  A(70,65,71)           106.978          estimate D2E/DX2                !
 ! A147  A(30,72,73)           112.1027         estimate D2E/DX2                !
 ! A148  A(30,72,74)           108.896          estimate D2E/DX2                !
 ! A149  A(30,72,75)           110.7616         estimate D2E/DX2                !
 ! A150  A(73,72,74)           108.0707         estimate D2E/DX2                !
 ! A151  A(73,72,75)           108.4637         estimate D2E/DX2                !
 ! A152  A(74,72,75)           108.4451         estimate D2E/DX2                !
 ! A153  A(30,76,77)           108.9693         estimate D2E/DX2                !
 ! A154  A(30,76,78)           112.0794         estimate D2E/DX2                !
 ! A155  A(30,76,79)           110.8045         estimate D2E/DX2                !
 ! A156  A(77,76,78)           108.0328         estimate D2E/DX2                !
 ! A157  A(77,76,79)           108.3548         estimate D2E/DX2                !
 ! A158  A(78,76,79)           108.4935         estimate D2E/DX2                !
 ! A159  A(30,80,81)           111.6799         estimate D2E/DX2                !
 ! A160  A(30,80,82)           111.6934         estimate D2E/DX2                !
 ! A161  A(30,80,83)           109.1972         estimate D2E/DX2                !
 ! A162  A(81,80,82)           108.5124         estimate D2E/DX2                !
 ! A163  A(81,80,83)           107.8176         estimate D2E/DX2                !
 ! A164  A(82,80,83)           107.7906         estimate D2E/DX2                !
 ! A165  A(31,84,85)           111.8395         estimate D2E/DX2                !
 ! A166  A(31,84,86)           109.0804         estimate D2E/DX2                !
 ! A167  A(31,84,87)           110.4621         estimate D2E/DX2                !
 ! A168  A(85,84,86)           108.5551         estimate D2E/DX2                !
 ! A169  A(85,84,87)           108.6744         estimate D2E/DX2                !
 ! A170  A(86,84,87)           108.1392         estimate D2E/DX2                !
 ! A171  A(31,88,89)           111.6507         estimate D2E/DX2                !
 ! A172  A(31,88,90)           111.7204         estimate D2E/DX2                !
 ! A173  A(31,88,91)           108.9963         estimate D2E/DX2                !
 ! A174  A(89,88,90)           108.4195         estimate D2E/DX2                !
 ! A175  A(89,88,91)           107.932          estimate D2E/DX2                !
 ! A176  A(90,88,91)           107.9849         estimate D2E/DX2                !
 ! A177  A(31,92,93)           111.9743         estimate D2E/DX2                !
 ! A178  A(31,92,94)           110.4622         estimate D2E/DX2                !
 ! A179  A(31,92,95)           109.042          estimate D2E/DX2                !
 ! A180  A(93,92,94)           108.6802         estimate D2E/DX2                !
 ! A181  A(93,92,95)           108.3862         estimate D2E/DX2                !
 ! A182  A(94,92,95)           108.2012         estimate D2E/DX2                !
 ! D1    D(6,1,2,3)              0.3034         estimate D2E/DX2                !
 ! D2    D(6,1,2,21)          -179.3736         estimate D2E/DX2                !
 ! D3    D(37,1,2,3)           179.8548         estimate D2E/DX2                !
 ! D4    D(37,1,2,21)            0.1777         estimate D2E/DX2                !
 ! D5    D(2,1,6,5)             -0.2708         estimate D2E/DX2                !
 ! D6    D(2,1,6,39)           179.3471         estimate D2E/DX2                !
 ! D7    D(37,1,6,5)          -179.6948         estimate D2E/DX2                !
 ! D8    D(37,1,6,39)           -0.0769         estimate D2E/DX2                !
 ! D9    D(2,1,37,7)            -0.1641         estimate D2E/DX2                !
 ! D10   D(2,1,37,38)          178.6319         estimate D2E/DX2                !
 ! D11   D(6,1,37,7)           179.3341         estimate D2E/DX2                !
 ! D12   D(6,1,37,38)           -1.8699         estimate D2E/DX2                !
 ! D13   D(1,2,3,4)             -0.0741         estimate D2E/DX2                !
 ! D14   D(1,2,3,8)            179.7694         estimate D2E/DX2                !
 ! D15   D(21,2,3,4)           179.5236         estimate D2E/DX2                !
 ! D16   D(21,2,3,8)            -0.6329         estimate D2E/DX2                !
 ! D17   D(1,2,21,7)            -0.1191         estimate D2E/DX2                !
 ! D18   D(3,2,21,7)          -179.7494         estimate D2E/DX2                !
 ! D19   D(2,3,4,5)             -0.1665         estimate D2E/DX2                !
 ! D20   D(2,3,4,9)            179.756          estimate D2E/DX2                !
 ! D21   D(8,3,4,5)            179.9912         estimate D2E/DX2                !
 ! D22   D(8,3,4,9)             -0.0862         estimate D2E/DX2                !
 ! D23   D(3,4,5,6)              0.196          estimate D2E/DX2                !
 ! D24   D(3,4,5,10)           179.5332         estimate D2E/DX2                !
 ! D25   D(9,4,5,6)           -179.727          estimate D2E/DX2                !
 ! D26   D(9,4,5,10)            -0.3898         estimate D2E/DX2                !
 ! D27   D(4,5,6,1)              0.0241         estimate D2E/DX2                !
 ! D28   D(4,5,6,39)          -179.5762         estimate D2E/DX2                !
 ! D29   D(10,5,6,1)          -179.311          estimate D2E/DX2                !
 ! D30   D(10,5,6,39)            1.0888         estimate D2E/DX2                !
 ! D31   D(1,6,39,40)            6.1129         estimate D2E/DX2                !
 ! D32   D(1,6,39,41)         -173.9744         estimate D2E/DX2                !
 ! D33   D(5,6,39,40)         -174.3022         estimate D2E/DX2                !
 ! D34   D(5,6,39,41)            5.6104         estimate D2E/DX2                !
 ! D35   D(21,7,16,11)           0.4532         estimate D2E/DX2                !
 ! D36   D(21,7,16,15)        -179.307          estimate D2E/DX2                !
 ! D37   D(37,7,16,11)         179.8214         estimate D2E/DX2                !
 ! D38   D(37,7,16,15)           0.0612         estimate D2E/DX2                !
 ! D39   D(16,7,21,2)          179.4522         estimate D2E/DX2                !
 ! D40   D(37,7,21,2)            0.0138         estimate D2E/DX2                !
 ! D41   D(16,7,37,1)         -179.3302         estimate D2E/DX2                !
 ! D42   D(16,7,37,38)           1.9978         estimate D2E/DX2                !
 ! D43   D(21,7,37,1)            0.0986         estimate D2E/DX2                !
 ! D44   D(21,7,37,38)        -178.5733         estimate D2E/DX2                !
 ! D45   D(16,11,12,13)         -0.1135         estimate D2E/DX2                !
 ! D46   D(16,11,12,35)       -179.9399         estimate D2E/DX2                !
 ! D47   D(34,11,12,13)        179.7436         estimate D2E/DX2                !
 ! D48   D(34,11,12,35)         -0.0827         estimate D2E/DX2                !
 ! D49   D(12,11,16,7)        -179.4879         estimate D2E/DX2                !
 ! D50   D(12,11,16,15)          0.2946         estimate D2E/DX2                !
 ! D51   D(34,11,16,7)           0.6934         estimate D2E/DX2                !
 ! D52   D(34,11,16,15)       -179.5241         estimate D2E/DX2                !
 ! D53   D(12,11,34,17)         -0.0024         estimate D2E/DX2                !
 ! D54   D(12,11,34,36)        179.6685         estimate D2E/DX2                !
 ! D55   D(16,11,34,17)        179.839          estimate D2E/DX2                !
 ! D56   D(16,11,34,36)         -0.4901         estimate D2E/DX2                !
 ! D57   D(11,12,13,14)         -0.0576         estimate D2E/DX2                !
 ! D58   D(11,12,13,18)        179.9321         estimate D2E/DX2                !
 ! D59   D(35,12,13,14)        179.7224         estimate D2E/DX2                !
 ! D60   D(35,12,13,18)         -0.2879         estimate D2E/DX2                !
 ! D61   D(11,12,35,17)          0.1359         estimate D2E/DX2                !
 ! D62   D(13,12,35,17)       -179.6639         estimate D2E/DX2                !
 ! D63   D(12,13,14,15)          0.0333         estimate D2E/DX2                !
 ! D64   D(12,13,14,19)        179.9586         estimate D2E/DX2                !
 ! D65   D(18,13,14,15)       -179.9563         estimate D2E/DX2                !
 ! D66   D(18,13,14,19)         -0.031          estimate D2E/DX2                !
 ! D67   D(13,14,15,16)          0.1653         estimate D2E/DX2                !
 ! D68   D(13,14,15,20)       -179.9592         estimate D2E/DX2                !
 ! D69   D(19,14,15,16)       -179.7608         estimate D2E/DX2                !
 ! D70   D(19,14,15,20)          0.1146         estimate D2E/DX2                !
 ! D71   D(14,15,16,7)         179.451          estimate D2E/DX2                !
 ! D72   D(14,15,16,11)         -0.3172         estimate D2E/DX2                !
 ! D73   D(20,15,16,7)          -0.4234         estimate D2E/DX2                !
 ! D74   D(20,15,16,11)        179.8083         estimate D2E/DX2                !
 ! D75   D(34,17,23,22)        179.4471         estimate D2E/DX2                !
 ! D76   D(34,17,23,24)         -0.5045         estimate D2E/DX2                !
 ! D77   D(35,17,23,22)          0.0045         estimate D2E/DX2                !
 ! D78   D(35,17,23,24)       -179.9471         estimate D2E/DX2                !
 ! D79   D(23,17,34,11)       -179.4056         estimate D2E/DX2                !
 ! D80   D(23,17,34,36)          0.9665         estimate D2E/DX2                !
 ! D81   D(35,17,34,11)          0.09           estimate D2E/DX2                !
 ! D82   D(35,17,34,36)       -179.5379         estimate D2E/DX2                !
 ! D83   D(23,17,35,12)        179.3789         estimate D2E/DX2                !
 ! D84   D(34,17,35,12)         -0.1412         estimate D2E/DX2                !
 ! D85   D(27,22,23,17)        179.9099         estimate D2E/DX2                !
 ! D86   D(27,22,23,24)         -0.1372         estimate D2E/DX2                !
 ! D87   D(32,22,23,17)         -0.1148         estimate D2E/DX2                !
 ! D88   D(32,22,23,24)        179.8382         estimate D2E/DX2                !
 ! D89   D(23,22,27,26)          0.2855         estimate D2E/DX2                !
 ! D90   D(23,22,27,31)       -179.6381         estimate D2E/DX2                !
 ! D91   D(32,22,27,26)       -179.69           estimate D2E/DX2                !
 ! D92   D(32,22,27,31)          0.3865         estimate D2E/DX2                !
 ! D93   D(23,22,32,33)         -0.005          estimate D2E/DX2                !
 ! D94   D(27,22,32,33)        179.9705         estimate D2E/DX2                !
 ! D95   D(17,23,24,25)        179.8192         estimate D2E/DX2                !
 ! D96   D(17,23,24,28)          0.2467         estimate D2E/DX2                !
 ! D97   D(22,23,24,25)         -0.1316         estimate D2E/DX2                !
 ! D98   D(22,23,24,28)       -179.7041         estimate D2E/DX2                !
 ! D99   D(23,24,25,26)          0.2359         estimate D2E/DX2                !
 ! D100  D(23,24,25,30)       -179.6156         estimate D2E/DX2                !
 ! D101  D(28,24,25,26)        179.8032         estimate D2E/DX2                !
 ! D102  D(28,24,25,30)         -0.0482         estimate D2E/DX2                !
 ! D103  D(24,25,26,27)         -0.0737         estimate D2E/DX2                !
 ! D104  D(24,25,26,29)        179.9458         estimate D2E/DX2                !
 ! D105  D(30,25,26,27)        179.7843         estimate D2E/DX2                !
 ! D106  D(30,25,26,29)         -0.1963         estimate D2E/DX2                !
 ! D107  D(24,25,30,72)        120.2704         estimate D2E/DX2                !
 ! D108  D(24,25,30,76)       -120.7975         estimate D2E/DX2                !
 ! D109  D(24,25,30,80)         -0.1914         estimate D2E/DX2                !
 ! D110  D(26,25,30,72)        -59.581          estimate D2E/DX2                !
 ! D111  D(26,25,30,76)         59.351          estimate D2E/DX2                !
 ! D112  D(26,25,30,80)        179.9572         estimate D2E/DX2                !
 ! D113  D(25,26,27,22)         -0.1847         estimate D2E/DX2                !
 ! D114  D(25,26,27,31)        179.7376         estimate D2E/DX2                !
 ! D115  D(29,26,27,22)        179.7956         estimate D2E/DX2                !
 ! D116  D(29,26,27,31)         -0.2821         estimate D2E/DX2                !
 ! D117  D(22,27,31,84)        -61.0717         estimate D2E/DX2                !
 ! D118  D(22,27,31,88)        179.6206         estimate D2E/DX2                !
 ! D119  D(22,27,31,92)         60.2572         estimate D2E/DX2                !
 ! D120  D(26,27,31,84)        119.0095         estimate D2E/DX2                !
 ! D121  D(26,27,31,88)         -0.2982         estimate D2E/DX2                !
 ! D122  D(26,27,31,92)       -119.6616         estimate D2E/DX2                !
 ! D123  D(25,30,72,73)         58.6585         estimate D2E/DX2                !
 ! D124  D(25,30,72,74)        178.1882         estimate D2E/DX2                !
 ! D125  D(25,30,72,75)        -62.6415         estimate D2E/DX2                !
 ! D126  D(76,30,72,73)        -59.9848         estimate D2E/DX2                !
 ! D127  D(76,30,72,74)         59.545          estimate D2E/DX2                !
 ! D128  D(76,30,72,75)        178.7152         estimate D2E/DX2                !
 ! D129  D(80,30,72,73)       -178.5811         estimate D2E/DX2                !
 ! D130  D(80,30,72,74)        -59.0513         estimate D2E/DX2                !
 ! D131  D(80,30,72,75)         60.1189         estimate D2E/DX2                !
 ! D132  D(25,30,76,77)       -179.332          estimate D2E/DX2                !
 ! D133  D(25,30,76,78)        -59.8155         estimate D2E/DX2                !
 ! D134  D(25,30,76,79)         61.5369         estimate D2E/DX2                !
 ! D135  D(72,30,76,77)        -60.7706         estimate D2E/DX2                !
 ! D136  D(72,30,76,78)         58.7459         estimate D2E/DX2                !
 ! D137  D(72,30,76,79)       -179.9018         estimate D2E/DX2                !
 ! D138  D(80,30,76,77)         57.7986         estimate D2E/DX2                !
 ! D139  D(80,30,76,78)        177.315          estimate D2E/DX2                !
 ! D140  D(80,30,76,79)        -61.3326         estimate D2E/DX2                !
 ! D141  D(25,30,80,81)        -61.3971         estimate D2E/DX2                !
 ! D142  D(25,30,80,82)         60.3298         estimate D2E/DX2                !
 ! D143  D(25,30,80,83)        179.4538         estimate D2E/DX2                !
 ! D144  D(72,30,80,81)        178.1601         estimate D2E/DX2                !
 ! D145  D(72,30,80,82)        -60.1131         estimate D2E/DX2                !
 ! D146  D(72,30,80,83)         59.0109         estimate D2E/DX2                !
 ! D147  D(76,30,80,81)         59.2406         estimate D2E/DX2                !
 ! D148  D(76,30,80,82)       -179.0325         estimate D2E/DX2                !
 ! D149  D(76,30,80,83)        -59.9085         estimate D2E/DX2                !
 ! D150  D(27,31,84,85)         59.5264         estimate D2E/DX2                !
 ! D151  D(27,31,84,86)        179.6175         estimate D2E/DX2                !
 ! D152  D(27,31,84,87)        -61.6529         estimate D2E/DX2                !
 ! D153  D(88,31,84,85)       -179.3131         estimate D2E/DX2                !
 ! D154  D(88,31,84,86)        -59.222          estimate D2E/DX2                !
 ! D155  D(88,31,84,87)         59.5076         estimate D2E/DX2                !
 ! D156  D(92,31,84,85)        -61.5616         estimate D2E/DX2                !
 ! D157  D(92,31,84,86)         58.5295         estimate D2E/DX2                !
 ! D158  D(92,31,84,87)        177.2592         estimate D2E/DX2                !
 ! D159  D(27,31,88,89)        -60.7609         estimate D2E/DX2                !
 ! D160  D(27,31,88,90)         60.8446         estimate D2E/DX2                !
 ! D161  D(27,31,88,91)       -179.9038         estimate D2E/DX2                !
 ! D162  D(84,31,88,89)        178.8519         estimate D2E/DX2                !
 ! D163  D(84,31,88,90)        -59.5426         estimate D2E/DX2                !
 ! D164  D(84,31,88,91)         59.709          estimate D2E/DX2                !
 ! D165  D(92,31,88,89)         59.6838         estimate D2E/DX2                !
 ! D166  D(92,31,88,90)       -178.7107         estimate D2E/DX2                !
 ! D167  D(92,31,88,91)        -59.4591         estimate D2E/DX2                !
 ! D168  D(27,31,92,93)        -61.6403         estimate D2E/DX2                !
 ! D169  D(27,31,92,94)         59.6381         estimate D2E/DX2                !
 ! D170  D(27,31,92,95)        178.42           estimate D2E/DX2                !
 ! D171  D(84,31,92,93)         59.4284         estimate D2E/DX2                !
 ! D172  D(84,31,92,94)       -179.2933         estimate D2E/DX2                !
 ! D173  D(84,31,92,95)        -60.5114         estimate D2E/DX2                !
 ! D174  D(88,31,92,93)        177.1626         estimate D2E/DX2                !
 ! D175  D(88,31,92,94)        -61.5591         estimate D2E/DX2                !
 ! D176  D(88,31,92,95)         57.2228         estimate D2E/DX2                !
 ! D177  D(6,39,40,46)         179.761          estimate D2E/DX2                !
 ! D178  D(41,39,40,46)         -0.1608         estimate D2E/DX2                !
 ! D179  D(6,39,41,47)         179.9355         estimate D2E/DX2                !
 ! D180  D(6,39,41,51)           2.8224         estimate D2E/DX2                !
 ! D181  D(40,39,41,47)         -0.1426         estimate D2E/DX2                !
 ! D182  D(40,39,41,51)       -177.2557         estimate D2E/DX2                !
 ! D183  D(39,40,46,45)       -179.7575         estimate D2E/DX2                !
 ! D184  D(39,40,46,47)          0.3988         estimate D2E/DX2                !
 ! D185  D(39,41,47,42)       -179.2249         estimate D2E/DX2                !
 ! D186  D(39,41,47,46)          0.3759         estimate D2E/DX2                !
 ! D187  D(51,41,47,42)         -1.8074         estimate D2E/DX2                !
 ! D188  D(51,41,47,46)        177.7933         estimate D2E/DX2                !
 ! D189  D(47,42,43,44)         -0.1812         estimate D2E/DX2                !
 ! D190  D(47,42,43,48)       -179.9369         estimate D2E/DX2                !
 ! D191  D(52,42,43,44)        178.8903         estimate D2E/DX2                !
 ! D192  D(52,42,43,48)         -0.8655         estimate D2E/DX2                !
 ! D193  D(43,42,47,41)       -179.8195         estimate D2E/DX2                !
 ! D194  D(43,42,47,46)          0.6403         estimate D2E/DX2                !
 ! D195  D(52,42,47,41)          1.1048         estimate D2E/DX2                !
 ! D196  D(52,42,47,46)       -178.4354         estimate D2E/DX2                !
 ! D197  D(43,42,52,53)          2.235          estimate D2E/DX2                !
 ! D198  D(43,42,52,54)       -177.2619         estimate D2E/DX2                !
 ! D199  D(47,42,52,53)       -178.7501         estimate D2E/DX2                !
 ! D200  D(47,42,52,54)          1.753          estimate D2E/DX2                !
 ! D201  D(42,43,44,45)         -0.2092         estimate D2E/DX2                !
 ! D202  D(42,43,44,49)       -179.9586         estimate D2E/DX2                !
 ! D203  D(48,43,44,45)        179.5447         estimate D2E/DX2                !
 ! D204  D(48,43,44,49)         -0.2047         estimate D2E/DX2                !
 ! D205  D(43,44,45,46)          0.1557         estimate D2E/DX2                !
 ! D206  D(43,44,45,50)       -179.419          estimate D2E/DX2                !
 ! D207  D(49,44,45,46)        179.9041         estimate D2E/DX2                !
 ! D208  D(49,44,45,50)          0.3294         estimate D2E/DX2                !
 ! D209  D(44,45,46,40)       -179.5481         estimate D2E/DX2                !
 ! D210  D(44,45,46,47)          0.2824         estimate D2E/DX2                !
 ! D211  D(50,45,46,40)          0.0291         estimate D2E/DX2                !
 ! D212  D(50,45,46,47)        179.8595         estimate D2E/DX2                !
 ! D213  D(40,46,47,41)         -0.4853         estimate D2E/DX2                !
 ! D214  D(40,46,47,42)        179.1548         estimate D2E/DX2                !
 ! D215  D(45,46,47,41)        179.6504         estimate D2E/DX2                !
 ! D216  D(45,46,47,42)         -0.7095         estimate D2E/DX2                !
 ! D217  D(42,52,54,55)        179.9038         estimate D2E/DX2                !
 ! D218  D(53,52,54,55)          0.4457         estimate D2E/DX2                !
 ! D219  D(52,54,55,56)          0.1699         estimate D2E/DX2                !
 ! D220  D(52,54,55,57)        126.2544         estimate D2E/DX2                !
 ! D221  D(52,54,55,58)       -119.6797         estimate D2E/DX2                !
 ! D222  D(54,55,56,59)       -179.0814         estimate D2E/DX2                !
 ! D223  D(54,55,56,60)         60.3028         estimate D2E/DX2                !
 ! D224  D(54,55,56,61)        -56.8245         estimate D2E/DX2                !
 ! D225  D(57,55,56,59)         56.0041         estimate D2E/DX2                !
 ! D226  D(57,55,56,60)        -64.6118         estimate D2E/DX2                !
 ! D227  D(57,55,56,61)        178.2609         estimate D2E/DX2                !
 ! D228  D(58,55,56,59)        -60.4757         estimate D2E/DX2                !
 ! D229  D(58,55,56,60)        178.9084         estimate D2E/DX2                !
 ! D230  D(58,55,56,61)         61.7811         estimate D2E/DX2                !
 ! D231  D(54,55,57,62)        174.3656         estimate D2E/DX2                !
 ! D232  D(54,55,57,63)        -64.7851         estimate D2E/DX2                !
 ! D233  D(54,55,57,64)         51.5103         estimate D2E/DX2                !
 ! D234  D(56,55,57,62)        -55.8351         estimate D2E/DX2                !
 ! D235  D(56,55,57,63)         65.0142         estimate D2E/DX2                !
 ! D236  D(56,55,57,64)       -178.6905         estimate D2E/DX2                !
 ! D237  D(58,55,57,62)         61.2239         estimate D2E/DX2                !
 ! D238  D(58,55,57,63)       -177.9268         estimate D2E/DX2                !
 ! D239  D(58,55,57,64)        -61.6315         estimate D2E/DX2                !
 ! D240  D(55,56,59,65)        -55.9896         estimate D2E/DX2                !
 ! D241  D(55,56,59,66)       -178.7077         estimate D2E/DX2                !
 ! D242  D(55,56,59,67)         64.7026         estimate D2E/DX2                !
 ! D243  D(60,56,59,65)         64.4235         estimate D2E/DX2                !
 ! D244  D(60,56,59,66)        -58.2945         estimate D2E/DX2                !
 ! D245  D(60,56,59,67)       -174.8842         estimate D2E/DX2                !
 ! D246  D(61,56,59,65)       -178.316          estimate D2E/DX2                !
 ! D247  D(61,56,59,66)         58.966          estimate D2E/DX2                !
 ! D248  D(61,56,59,67)        -57.6237         estimate D2E/DX2                !
 ! D249  D(55,57,62,65)         55.2738         estimate D2E/DX2                !
 ! D250  D(55,57,62,68)        178.0343         estimate D2E/DX2                !
 ! D251  D(55,57,62,69)        -65.1693         estimate D2E/DX2                !
 ! D252  D(63,57,62,65)        -64.6748         estimate D2E/DX2                !
 ! D253  D(63,57,62,68)         58.0857         estimate D2E/DX2                !
 ! D254  D(63,57,62,69)        174.8821         estimate D2E/DX2                !
 ! D255  D(64,57,62,65)        177.0584         estimate D2E/DX2                !
 ! D256  D(64,57,62,68)        -60.1812         estimate D2E/DX2                !
 ! D257  D(64,57,62,69)         56.6152         estimate D2E/DX2                !
 ! D258  D(56,59,65,62)         55.0517         estimate D2E/DX2                !
 ! D259  D(56,59,65,70)        177.479          estimate D2E/DX2                !
 ! D260  D(56,59,65,71)        -65.3795         estimate D2E/DX2                !
 ! D261  D(66,59,65,62)        177.3903         estimate D2E/DX2                !
 ! D262  D(66,59,65,70)        -60.1825         estimate D2E/DX2                !
 ! D263  D(66,59,65,71)         56.959          estimate D2E/DX2                !
 ! D264  D(67,59,65,62)        -65.6684         estimate D2E/DX2                !
 ! D265  D(67,59,65,70)         56.7588         estimate D2E/DX2                !
 ! D266  D(67,59,65,71)        173.9003         estimate D2E/DX2                !
 ! D267  D(57,62,65,59)        -54.6033         estimate D2E/DX2                !
 ! D268  D(57,62,65,70)       -177.0127         estimate D2E/DX2                !
 ! D269  D(57,62,65,71)         65.7583         estimate D2E/DX2                !
 ! D270  D(68,62,65,59)       -177.145          estimate D2E/DX2                !
 ! D271  D(68,62,65,70)         60.4457         estimate D2E/DX2                !
 ! D272  D(68,62,65,71)        -56.7834         estimate D2E/DX2                !
 ! D273  D(69,62,65,59)         65.828          estimate D2E/DX2                !
 ! D274  D(69,62,65,70)        -56.5814         estimate D2E/DX2                !
 ! D275  D(69,62,65,71)       -173.8104         estimate D2E/DX2                !
 --------------------------------------------------------------------------------
 Trust Radius=3.00D-01 FncErr=1.00D-07 GrdErr=1.00D-07 EigMax=2.50D+02 EigMin=1.00D-04
 Number of steps in this run=    569 maximum allowed number of steps=    570.
 GradGradGradGradGradGradGradGradGradGradGradGradGradGradGradGradGradGrad

 Leave Link  103 at Fri Dec 21 18:35:51 2018, MaxMem=  1342177280 cpu:               0.6 elap:               0.1
 (Enter /gpfs/apps/hpc/Apps/Restricted/Gaussian/Rev_A.03/g16/l202.exe)
 Symmetry turned off by external request.
 Stoichiometry    C42H45N7O(1+,2)
 Framework group  C1[X(C42H45N7O)]
 Deg. of freedom   279
 Full point group                 C1      NOp   1
                          Input orientation:                          
 ---------------------------------------------------------------------
 Center     Atomic      Atomic             Coordinates (Angstroms)
 Number     Number       Type             X           Y           Z
 ---------------------------------------------------------------------
      1          6           0        1.686007    0.361764    0.917055
      2          6           0        0.587259    1.199034    0.612043
      3          6           0        0.781258    2.577313    0.459913
      4          6           0        2.073885    3.070049    0.620924
      5          6           0        3.156511    2.228360    0.928872
      6          6           0        2.992176    0.846886    1.086213
      7          6           0       -0.175816   -0.819539    0.760356
      8          1           0       -0.048969    3.231254    0.222734
      9          1           0        2.256553    4.131793    0.505466
     10          1           0        4.144159    2.661027    1.036227
     11          6           0       -2.457463   -1.726367    0.511476
     12          6           0       -3.422329   -2.771591    0.513707
     13          6           0       -3.031633   -4.093691    0.780862
     14          6           0       -1.686896   -4.314528    1.034131
     15          6           0       -0.734355   -3.268717    1.029245
     16          6           0       -1.092581   -1.946301    0.771582
     17          6           0       -4.454516   -0.910681    0.048987
     18          1           0       -3.755302   -4.898672    0.786894
     19          1           0       -1.343566   -5.319447    1.245453
     20          1           0        0.301583   -3.509219    1.234449
     21          7           0       -0.562630    0.432344    0.522127
     22          6           0       -6.865163   -0.574484   -0.430357
     23          6           0       -5.526322   -0.015226   -0.283247
     24          6           0       -5.326245    1.348937   -0.466756
     25          6           0       -6.392165    2.185937   -0.792470
     26          6           0       -7.695144    1.612193   -0.928495
     27          6           0       -7.976947    0.278642   -0.760882
     28          1           0       -4.329455    1.752444   -0.360179
     29          1           0       -8.504791    2.280429   -1.180295
     30          6           0       -6.230046    3.680577   -1.012574
     31          6           0       -9.389126   -0.290113   -0.910883
     32          8           0       -7.061045   -1.851551   -0.263356
     33          1           0       -6.149231   -2.309657   -0.030923
     34          7           0       -3.137661   -0.578505    0.217569
     35          7           0       -4.646336   -2.227914    0.225349
     36          1           0       -2.662620    0.320861    0.161308
     37          7           0        1.170722   -0.908587    1.001906
     38          1           0        1.748706   -1.719982    1.192281
     39          6           0        4.070961   -0.070391    1.412813
     40          7           0        3.935711   -1.395031    1.455332
     41          7           0        5.351149    0.327495    1.712416
     42          6           0        7.428833   -0.969099    2.330569
     43          6           0        7.853077   -2.290988    2.508251
     44          6           0        6.979725   -3.379393    2.334320
     45          6           0        5.644065   -3.196506    1.979771
     46          6           0        5.188533   -1.884330    1.795467
     47          6           0        6.084172   -0.804011    1.965940
     48          1           0        8.884109   -2.473742    2.791689
     49          1           0        7.357050   -4.383970    2.484442
     50          1           0        4.973665   -4.038513    1.856276
     51          1           0        5.750776    1.255507    1.797534
     52          6           0        8.320415    0.171532    2.531401
     53          1           0        9.352001   -0.078248    2.792875
     54          7           0        7.901059    1.376420    2.414537
     55          6           0        8.814559    2.500511    2.623062
     56          6           0       10.267968    2.166125    2.976745
     57          6           0        8.752164    3.410805    1.385044
     58          1           0        8.388489    3.072323    3.460435
     59          6           0       11.090846    3.442544    3.185458
     60          1           0       10.708468    1.577679    2.162488
     61          1           0       10.304669    1.543792    3.876337
     62          6           0        9.578409    4.685121    1.586077
     63          1           0        9.138058    2.849257    0.525241
     64          1           0        7.706634    3.651870    1.169926
     65          6           0       11.028828    4.359772    1.959519
     66          1           0       12.128590    3.180360    3.413937
     67          1           0       10.703031    3.982537    4.058361
     68          1           0        9.546556    5.298528    0.680359
     69          1           0        9.126970    5.281368    2.388822
     70          1           0       11.586158    5.282382    2.149875
     71          1           0       11.515951    3.860104    1.112788
     72          6           0       -6.685369    4.022195   -2.450814
     73          1           0       -7.722990    3.735241   -2.632275
     74          1           0       -6.600659    5.101277   -2.601974
     75          1           0       -6.053716    3.519530   -3.186585
     76          6           0       -7.124903    4.433955   -0.000992
     77          1           0       -7.019185    5.509076   -0.165150
     78          1           0       -8.179858    4.176727   -0.115206
     79          1           0       -6.823093    4.211327    1.024918
     80          6           0       -4.780006    4.146408   -0.831349
     81          1           0       -4.418788    3.956864    0.182534
     82          1           0       -4.106444    3.654360   -1.537307
     83          1           0       -4.723383    5.221842   -1.010553
     84          6           0       -9.415464   -1.329564   -2.052973
     85          1           0       -8.729265   -2.154076   -1.866168
     86          1           0      -10.427027   -1.733096   -2.145576
     87          1           0       -9.148057   -0.860107   -3.003169
     88          6           0      -10.395511    0.817707   -1.255115
     89          1           0      -10.440315    1.579446   -0.472201
     90          1           0      -10.149592    1.308101   -2.200405
     91          1           0      -11.389654    0.376978   -1.352606
     92          6           0       -9.834112   -0.943758    0.416199
     93          1           0       -9.189509   -1.775767    0.697028
     94          1           0       -9.828947   -0.208310    1.225054
     95          1           0      -10.853691   -1.320360    0.303823
 ---------------------------------------------------------------------
 Rotational constants (GHZ):           0.1244094           0.0175683           0.0155397
 Leave Link  202 at Fri Dec 21 18:35:51 2018, MaxMem=  1342177280 cpu:               0.1 elap:               0.0
 (Enter /gpfs/apps/hpc/Apps/Restricted/Gaussian/Rev_A.03/g16/l716.exe)
 Electric field and nuclear coordinate derivatives read from checkpoint file.
 Dipole        =-6.02556416D+00 1.05518184D+00 2.61870362D-01
 Polarizability= 1.34889642D+03-2.01042828D+02 1.10319324D+03
                 2.22697081D+02-1.35832066D+02 3.93005119D+02
 Full mass-weighted force constant matrix:
 Low frequencies ---   -4.5339   -0.0038    0.0009    0.0037    1.1923    7.3446
 Low frequencies ---   15.4935   20.7966   25.8620
 Diagonal vibrational polarizability:
      404.9713063     134.2312911     154.6683359
 Harmonic frequencies (cm**-1), IR intensities (KM/Mole), Raman scattering
 activities (A**4/AMU), depolarization ratios for plane and unpolarized
 incident light, reduced masses (AMU), force constants (mDyne/A),
 and normal coordinates:
                      1                      2                      3
                      A                      A                      A
 Frequencies --     14.3582                19.9485                22.6830
 Red. masses --      5.8115                 5.3700                 5.3557
 Frc consts  --      0.0007                 0.0013                 0.0016
 IR Inten    --      0.6258                 0.3605                 0.0384
  Atom  AN      X      Y      Z        X      Y      Z        X      Y      Z
     1   6    -0.01   0.05   0.11     0.03   0.04  -0.10     0.00   0.03  -0.01
     2   6    -0.01   0.05   0.13     0.03   0.04  -0.11     0.01   0.03  -0.03
     3   6    -0.01   0.06   0.16     0.04   0.04  -0.12     0.01   0.03  -0.03
     4   6    -0.01   0.05   0.15     0.04   0.03  -0.12     0.01   0.03  -0.01
     5   6    -0.01   0.04   0.12     0.04   0.03  -0.10     0.00   0.03   0.00
     6   6    -0.01   0.04   0.10     0.03   0.03  -0.09     0.00   0.03   0.01
     7   6    -0.01   0.05   0.09     0.02   0.05  -0.08     0.01   0.03  -0.04
     8   1    -0.01   0.06   0.18     0.05   0.04  -0.12     0.01   0.03  -0.04
     9   1    -0.00   0.05   0.17     0.05   0.03  -0.12     0.01   0.03  -0.02
    10   1    -0.00   0.03   0.11     0.04   0.03  -0.10     0.00   0.03   0.02
    11   6    -0.00   0.04   0.03     0.01   0.04  -0.01     0.01   0.01  -0.05
    12   6     0.00   0.03   0.01     0.02   0.04   0.02     0.03   0.00  -0.07
    13   6     0.00   0.04   0.01     0.03   0.04   0.01     0.04   0.00  -0.10
    14   6    -0.00   0.04   0.05     0.04   0.05  -0.02     0.04   0.01  -0.09
    15   6    -0.01   0.05   0.07     0.03   0.05  -0.05     0.03   0.02  -0.07
    16   6    -0.01   0.05   0.07     0.02   0.05  -0.05     0.02   0.02  -0.05
    17   6    -0.00   0.03  -0.01    -0.00   0.03   0.02     0.00  -0.00  -0.04
    18   1     0.01   0.03  -0.00     0.03   0.04   0.03     0.05  -0.01  -0.11
    19   1     0.00   0.04   0.05     0.05   0.05  -0.03     0.05   0.01  -0.11
    20   1    -0.01   0.05   0.09     0.04   0.06  -0.08     0.03   0.03  -0.07
    21   7    -0.01   0.06   0.12     0.03   0.05  -0.09     0.01   0.03  -0.04
    22   6    -0.00  -0.01  -0.03    -0.01  -0.01   0.05     0.00  -0.02  -0.03
    23   6    -0.01   0.01  -0.03    -0.02   0.01   0.02    -0.01  -0.01  -0.01
    24   6    -0.04   0.01  -0.04    -0.04   0.01  -0.01    -0.02  -0.00   0.03
    25   6    -0.06  -0.01  -0.05    -0.06  -0.01  -0.01    -0.03  -0.00   0.05
    26   6    -0.05  -0.03  -0.05    -0.05  -0.03   0.02    -0.02  -0.01   0.03
    27   6    -0.02  -0.04  -0.04    -0.03  -0.03   0.05    -0.01  -0.02  -0.01
    28   1    -0.05   0.04  -0.05    -0.04   0.02  -0.04    -0.02   0.01   0.05
    29   1    -0.06  -0.05  -0.05    -0.06  -0.05   0.02    -0.03  -0.02   0.05
    30   6    -0.09  -0.01  -0.06    -0.08  -0.02  -0.05    -0.05   0.01   0.10
    31   6    -0.01  -0.07  -0.05    -0.03  -0.05   0.08    -0.00  -0.04  -0.03
    32   8     0.02  -0.02  -0.03     0.00  -0.01   0.07     0.01  -0.03  -0.06
    33   1     0.03   0.00  -0.02     0.02   0.01   0.07     0.02  -0.02  -0.07
    34   7    -0.01   0.04   0.02    -0.00   0.04  -0.01     0.00   0.01  -0.03
    35   7     0.01   0.03  -0.02     0.01   0.03   0.04     0.02  -0.01  -0.06
    36   1    -0.01   0.04   0.05    -0.01   0.04  -0.03    -0.01   0.02  -0.02
    37   7    -0.01   0.05   0.09     0.02   0.04  -0.08     0.00   0.03  -0.01
    38   1    -0.01   0.04   0.06     0.02   0.04  -0.07     0.00   0.04  -0.00
    39   6    -0.00   0.03   0.06     0.02   0.03  -0.07    -0.01   0.03   0.04
    40   7    -0.01   0.03   0.04     0.00   0.03  -0.07    -0.03   0.04   0.08
    41   7     0.01   0.01   0.01     0.01   0.01  -0.04    -0.01   0.02   0.03
    42   6     0.03  -0.02  -0.09    -0.02  -0.01   0.02    -0.03   0.00   0.10
    43   6     0.02  -0.02  -0.12    -0.04  -0.02   0.04    -0.06   0.00   0.15
    44   6     0.00  -0.01  -0.10    -0.04  -0.01   0.01    -0.08   0.01   0.19
    45   6    -0.01   0.01  -0.05    -0.03   0.01  -0.02    -0.07   0.02   0.17
    46   6    -0.00   0.01  -0.01    -0.01   0.02  -0.04    -0.05   0.03   0.11
    47   6     0.01   0.00  -0.04    -0.00   0.01  -0.01    -0.03   0.02   0.08
    48   1     0.03  -0.03  -0.16    -0.05  -0.03   0.07    -0.07  -0.01   0.17
    49   1    -0.00  -0.02  -0.12    -0.06  -0.01   0.02    -0.10   0.01   0.23
    50   1    -0.02   0.01  -0.03    -0.04   0.02  -0.04    -0.09   0.03   0.19
    51   1     0.02   0.01   0.01     0.02   0.01  -0.03     0.01   0.02  -0.01
[...]
 ! R15   R(7,37)                -0.0345                  1.7                    !
 ! R48   R(34,36)               -0.0163                  0.8                    !
 ! R49   R(37,38)                0.7708                 38.2                    !
 ! R51   R(39,41)               -0.0336                  1.7                    !
 ! R53   R(41,47)               -0.0302                  1.5                    !
 ! R54   R(41,51)                0.7442                 36.9                    !
 ! A2    A(2,1,37)              -0.0169                  0.8                    !
 ! A3    A(6,1,37)               0.0175                  0.9                    !
 ! A20   A(16,7,37)              0.0172                  0.9                    !
 ! A21   A(21,7,37)             -0.0166                  0.8                    !
 ! A79   A(1,37,7)               0.034                   1.7                    !
 ! A81   A(7,37,38)             -0.0348                  1.7                    !
 ! A83   A(6,39,41)              0.0162                  0.8                    !
 ! A84   A(40,39,41)            -0.0154                  0.8                    !
 ! A86   A(39,41,47)             0.0325                  1.6                    !
 ! A87   A(39,41,51)            -0.0343                  1.7                    !
 ! A104  A(41,47,42)             0.017                   0.8                    !
 ! A105  A(41,47,46)            -0.0166                  0.8                    !
 --------------------------------------------------------------------------------
                           ----------------------------
                           ! Normal Mode   279        !
 --------------------------                            --------------------------
 ! Name  Definition              Value          Relative Weight (%)             !
 --------------------------------------------------------------------------------
 ! R3    R(1,37)                 0.0305                  1.5                    !
 ! R15   R(7,37)                 0.0335                  1.7                    !
 ! R48   R(34,36)                0.0128                  0.6                    !
 ! R49   R(37,38)               -0.7444                 37.0                    !
 ! R51   R(39,41)               -0.0348                  1.7                    !
 ! R53   R(41,47)               -0.0313                  1.6                    !
 ! R54   R(41,51)                0.771                  38.3                    !
 ! A2    A(2,1,37)               0.0164                  0.8                    !
 ! A3    A(6,1,37)              -0.017                   0.8                    !
 ! A20   A(16,7,37)             -0.0166                  0.8                    !
 ! A21   A(21,7,37)              0.016                   0.8                    !
 ! A79   A(1,37,7)              -0.0329                  1.6                    !
 ! A81   A(7,37,38)              0.0329                  1.6                    !
 ! A83   A(6,39,41)              0.0174                  0.9                    !
 ! A84   A(40,39,41)            -0.0169                  0.8                    !
 ! A86   A(39,41,47)             0.0343                  1.7                    !
 ! A87   A(39,41,51)            -0.0365                  1.8                    !
 ! A104  A(41,47,42)             0.0177                  0.9                    !
 ! A105  A(41,47,46)            -0.017                   0.8                    !
 --------------------------------------------------------------------------------
 -------------------------------------------------------------------
 Center     Atomic                   Forces (Hartrees/Bohr)
 Number     Number              X              Y              Z
 -------------------------------------------------------------------
      1        6           0.000000382    0.000000087   -0.000001046
      2        6          -0.000000322    0.000000338    0.000001283
      3        6          -0.000000782    0.000000871    0.000004969
      4        6          -0.000000862    0.000000952    0.000006418
      5        6          -0.000000737    0.000000543    0.000004145
      6        6          -0.000000092    0.000000316    0.000000401
      7        6           0.000000631   -0.000000375   -0.000004287
      8        1          -0.000001099    0.000001111    0.000006625
      9        1          -0.000001513    0.000001362    0.000009250
     10        1          -0.000000938    0.000000785    0.000005449
     11        6           0.000001198   -0.000000945   -0.000006895
     12        6           0.000001695   -0.000001233   -0.000009873
     13        6           0.000002074   -0.000001733   -0.000013421
     14        6           0.000002353   -0.000001891   -0.000013825
     15        6           0.000001787   -0.000001423   -0.000011010
     16        6           0.000001335   -0.000000696   -0.000007401
     17        6           0.000000800   -0.000000237   -0.000005135
     18        1           0.000002513   -0.000002082   -0.000015619
     19        1           0.000002660   -0.000002234   -0.000016563
     20        1           0.000001887   -0.000001479   -0.000011503
     21        7           0.000000209    0.000000038   -0.000001068
     22        6           0.000000647   -0.000001182   -0.000003963
     23        6           0.000000343    0.000000305   -0.000002630
     24        6          -0.000000224    0.000000456    0.000001173
     25        6          -0.000000184    0.000001173    0.000003306
     26        6          -0.000000342    0.000000641    0.000001640
     27        6           0.000000228    0.000000152   -0.000002043
     28        1          -0.000000409    0.000000746    0.000002247
     29        1          -0.000000661    0.000001282    0.000003356
     30        6          -0.000001203    0.000001661    0.000007431
     31        6           0.000000723    0.000000130   -0.000003638
     32        8           0.000001149    0.000000071   -0.000007680
     33        1           0.000001441   -0.000000729   -0.000009095
     34        7           0.000000333   -0.000000201   -0.000003872
     35        7           0.000001545   -0.000001014   -0.000008105
     36        1           0.000000325    0.000000164   -0.000001420
     37        7           0.000000668   -0.000000530   -0.000004385
     38        1           0.000001092   -0.000000740   -0.000006589
     39        6           0.000000274   -0.000000441   -0.000001958
     40        7           0.000000967   -0.000000379   -0.000005580
     41        7           0.000000186   -0.000000411   -0.000000779
     42        6           0.000000501   -0.000001294   -0.000004089
     43        6           0.000001252   -0.000001588   -0.000007653
     44        6           0.000001696   -0.000001482   -0.000010698
     45        6           0.000001697   -0.000001107   -0.000010246
     46        6           0.000001039   -0.000000690   -0.000006741
     47        6           0.000000583   -0.000000937   -0.000003732
     48        1           0.000001285   -0.000001861   -0.000008048
     49        1           0.000002155   -0.000001711   -0.000013318
     50        1           0.000002031   -0.000001067   -0.000012589
     51        1          -0.000000339   -0.000000602    0.000001767
     52        6           0.000000132   -0.000001346   -0.000000871
     53        1           0.000000220   -0.000001695   -0.000001555
     54        7          -0.000000378   -0.000001212    0.000002172
     55        6          -0.000000966   -0.000001390    0.000005394
     56        6          -0.000000782   -0.000001707    0.000004595
     57        6          -0.000001224    0.000001859    0.000007848
     58        1          -0.000001240   -0.000003913    0.000006874
     59        6          -0.000001415   -0.000001940    0.000008128
     60        1          -0.000000473    0.000000638    0.000003019
     61        1          -0.000000601   -0.000004119    0.000002928
     62        6          -0.000001840    0.000001701    0.000011318
     63        1          -0.000000898    0.000004383    0.000006313
     64        1          -0.000001324    0.000001995    0.000008401
     65        6          -0.000001681    0.000001404    0.000010593
     66        1          -0.000001302   -0.000002077    0.000007475
     67        1          -0.000001729   -0.000004461    0.000009544
     68        1          -0.000002013    0.000004144    0.000012976
     69        1          -0.000002165   -0.000000646    0.000012915
     70        1          -0.000002135    0.000001076    0.000013109
     71        1          -0.000001436    0.000003840    0.000009274
     72        6          -0.000001126    0.000005420    0.000008139
     73        1          -0.000001089    0.000005389    0.000007373
     74        1          -0.000001680    0.000005805    0.000011178
     75        1          -0.000000933    0.000007625    0.000006959
     76        6          -0.000001588   -0.000001491    0.000009239
     77        1          -0.000002028   -0.000000978    0.000012205
     78        1          -0.000001493   -0.000001644    0.000008500
     79        1          -0.000001570   -0.000004071    0.000008774
     80        6          -0.000001401    0.000001814    0.000008688
     81        1          -0.000001352   -0.000000703    0.000008218
     82        1          -0.000001079    0.000004049    0.000007424
     83        1          -0.000001842    0.000002358    0.000011632
     84        6           0.000001169    0.000003041   -0.000006447
     85        1           0.000001488    0.000002899   -0.000008657
     86        1           0.000001319    0.000002877   -0.000007642
     87        1           0.000001008    0.000005766   -0.000005173
     88        6           0.000000115    0.000000459   -0.000000705
     89        1          -0.000000248   -0.000001646    0.000001315
     90        1           0.000000036    0.000003176    0.000000593
     91        1           0.000000375    0.000000319   -0.000001965
     92        6           0.000000747   -0.000003807   -0.000005375
     93        1           0.000001111   -0.000004216   -0.000007670
     94        1           0.000000378   -0.000005957   -0.000003477
     95        1           0.000000961   -0.000003909   -0.000006538
 -------------------------------------------------------------------
 Cartesian Forces:  Max     0.000016563 RMS     0.000004679
 FormGI is forming the generalized inverse of G from B-inverse, IUseBI=4.
 Leave Link  716 at Fri Dec 21 18:35:52 2018, MaxMem=  1342177280 cpu:               8.9 elap:               0.6
 (Enter /gpfs/apps/hpc/Apps/Restricted/Gaussian/Rev_A.03/g16/l9999.exe)

 ----------------------------------------------------------------------

 Electric dipole moment (input orientation):
 (Debye = 10**-18 statcoulomb cm , SI units = C m)
                  (au)            (Debye)         (10**-30 SI)
   Tot        0.612286D+01      0.155628D+02      0.519118D+02
   x         -0.602556D+01     -0.153155D+02     -0.510869D+02
   y          0.105518D+01      0.268200D+01      0.894620D+01
   z          0.261870D+00      0.665608D+00      0.222023D+01

 Dipole polarizability, Alpha (input orientation).
 (esu units = cm**3 , SI units = C**2 m**2 J**-1)
 Alpha(0;0):
               (au)            (10**-24 esu)      (10**-40 SI)
   iso        0.948365D+03      0.140533D+03      0.156364D+03
   aniso      0.103180D+04      0.152898D+03      0.170122D+03
   xx         0.134890D+04      0.199886D+03      0.222403D+03
   yx        -0.201043D+03     -0.297915D+02     -0.331475D+02
   yy         0.110319D+04      0.163476D+03      0.181892D+03
   zx         0.222697D+03      0.330003D+02      0.367178D+02
   zy        -0.135832D+03     -0.201282D+02     -0.223957D+02
   zz         0.393005D+03      0.582374D+02      0.647978D+02

 ----------------------------------------------------------------------

 Dipole orientation:
     6          2.04364210          0.88369818         -2.94353113
     6          1.58580266          2.18248151         -0.65217374
     6          1.75261753          4.82203964         -0.57639075
     6          2.37753369          6.07150272         -2.80680420
     6          2.83730177          4.75869502         -5.06938195
     6          2.68319215          2.12069277         -5.20094967
     6          1.13847793         -1.80625357          0.12152187
     1          1.40073691          5.84468729          1.16137728
     1          2.51373290          8.11450721         -2.81007049
     1          3.30290956          5.82161784         -6.75652610
     6          0.08971618         -4.09130492          4.04925804
     6         -0.35729274         -6.30751037          5.50340450
     6         -0.21420156         -8.70168442          4.36785625
     6          0.36998917         -8.77630208          1.81560396
     6          0.81058202         -6.56194293          0.38435505
     6          0.68961340         -4.16030041          1.46038754
     6         -0.78856539         -3.05695255          7.99143474
     1         -0.54782920        -10.40393488          5.45199417
     1          0.50035435        -10.58453799          0.86692520
     1          1.25776513         -6.75191868         -1.60391432
     7          1.02812280          0.45078164          1.22932128
     6         -1.90125092         -3.02452334         12.54525321
     6         -1.27551807         -1.63420028         10.24943617
     6         -1.17058081          0.99152703         10.30678241
     6         -1.66258201          2.30664687         12.53532759
     6         -2.26732364          0.89714194         14.76063150
     6         -2.40341864         -1.69232726         14.86395603
     1         -0.71415316          2.00397884          8.59307611
     1         -2.63922989          1.95712108         16.46360182
     6         -1.59070888          5.17217146         12.70280011
     6         -3.04731949         -3.12168340         17.29283450
     8         -2.00955444         -5.48368703         12.50713488
     1         -1.59532609         -6.12017774         10.68103425
     7         -0.19565573         -2.09728076          5.66428533
     7         -0.89125932         -5.59165780          7.93343743
     1          0.04009406         -0.28180673          5.06919769
     7          1.74162184         -1.63454891         -2.39210790
     1          1.92410506         -3.00855094         -3.71584029
     6          3.15390069          0.66185688         -7.47949197
     7          2.80763954         -1.82547093         -7.65592097
     7          4.00572900          1.68822650         -9.70646249
     6          5.03655186         -0.25493914        -13.94262187
     6          5.01783047         -2.60927657        -15.14772080
     6          4.24226483         -4.81926240        -13.89206381
     6          3.45928213         -4.77854481        -11.37723515
     6          3.45848824         -2.44949953        -10.11764878
     6          4.22814018         -0.24638234        -11.41766598
     1          5.62759384         -2.72021961        -17.10173715
     1          4.26349863         -6.59649103        -14.90879670
     1          2.88056660         -6.49021576        -10.41468928
     1          4.50305133          3.48707234        -10.14054795
     6          5.88065210          2.04777017        -15.21299848
     1          6.42904204          1.82109749        -17.19164919
     7          5.97717475          4.16900057        -14.05017725
     6          6.83344921          6.44557575        -15.36608110
     6          7.58411275          6.16319105        -18.14929336
     6          4.80248346          8.50079073        -15.05365301
     1          8.50908580          7.09171325        -14.31982156
     6          8.47535296          8.69151218        -19.24704350
     1          5.94829600          5.48342069        -19.22593802
     1          9.07075251          4.73896059        -18.34751267
     6          5.67924897         11.02878568        -16.15896923
     1          3.08288038          7.86845335        -16.02366685
     1          4.33574529          8.69208019        -13.04816292
     6          6.46903247         10.75563939        -18.93208341
     1          8.95939940          8.45470511        -21.24385077
     1         10.21243607          9.27941907        -18.27941805
     1          4.17912680         12.44011473        -15.97316883
     1          7.29458168         11.72326536        -15.06037196
     1          7.18163944         12.55876341        -19.65270070
     1          4.80638806         10.26376260        -20.06914404
     6         -4.22171226          6.12779309         13.54457440
     1         -4.78707838          5.34116020         15.36611832
     1         -4.15976815          8.18414642         13.72624233
     1         -5.65946653          5.63869811         12.14672295
     6          0.40158733          5.95083367         14.69407084
     1          0.44097165          8.01060494         14.83432965
     1         -0.03191650          5.19154677         16.56296651
     1          2.28168188          5.30076507         14.14320848
     6         -0.91527654          6.41403613         10.17251617
     1          0.96062066          5.84688427          9.52097511
     1         -2.28868220          5.94760671          8.70259502
     1         -0.91038743          8.46419443         10.40296234
     6         -5.49427854         -4.66617254         16.91099544
     1         -5.30789502         -6.02983265         15.38145583
     1         -5.92671645         -5.68775912         18.65329483
     1         -7.08106509         -3.41266169         16.48978765
     6         -3.48250721         -1.28503517         19.49736221
     1         -1.79844020         -0.15529345         19.89203366
     1         -5.05662838         -0.00128802         19.12333230
     1         -3.93312232         -2.36796688         21.19475812
     6         -0.84015838         -4.89066285         18.01476230
     1         -0.48682470         -6.31149209         16.56773555
     1          0.89079892         -3.80227858         18.31004036
     1         -1.30216991         -5.85883412         19.77914186

 Electric dipole moment (dipole orientation):
 (Debye = 10**-18 statcoulomb cm , SI units = C m)
                  (au)            (Debye)         (10**-30 SI)
   Tot        0.612286D+01      0.155628D+02      0.519118D+02
   x          0.000000D+00      0.000000D+00      0.000000D+00
   y          0.000000D+00      0.000000D+00      0.000000D+00
   z          0.612286D+01      0.155628D+02      0.519118D+02

 Dipole polarizability, Alpha (dipole orientation).
 (esu units = cm**3 , SI units = C**2 m**2 J**-1)
 Alpha(0;0):
               (au)            (10**-24 esu)      (10**-40 SI)
   iso        0.948365D+03      0.140533D+03      0.156364D+03
   aniso      0.103180D+04      0.152898D+03      0.170122D+03
   xx         0.399733D+03      0.592343D+02      0.659071D+02
   yx         0.109084D+02      0.161646D+01      0.179855D+01
   yy         0.105807D+04      0.156789D+03      0.174452D+03
   zx        -0.256389D+03     -0.379929D+02     -0.422728D+02
   zy         0.190194D+03      0.281839D+02      0.313588D+02
   zz         0.138729D+04      0.205576D+03      0.228734D+03

 ----------------------------------------------------------------------

 This type of calculation cannot be archived.


 A MAN IS EXACTLY AS GREAT AS THE TIDE SURGING
 BENEATH HIM.      - BISMARCK
 Job cpu time:       0 days  0 hours  0 minutes 21.8 seconds.
 Elapsed time:       0 days  0 hours  0 minutes  1.5 seconds.
 File lengths (MBytes):  RWF=     80 Int=      0 D2E=      0 Chk=    140 Scr=      8
 Normal termination of Gaussian 16 at Fri Dec 21 18:35:52 2018.
