 Entering Gaussian System, Link 0=g16
 Input=cyclohexyl-triBIP-E0PT.com
 Output=cyclohexyl-triBIP-E0PT.log
 Initial command:
 /gpfs/apps/hpc/Apps/Restricted/Gaussian/Rev_A.03/g16/l1.exe "/gpfs/scratch60/fas/hammes_schiffer/jg2487/c43n04/Gau-87405.inp" -scrdir="/gpfs/scratch60/fas/hammes_schiffer/jg2487/c43n04/"
 Entering Link 1 = /gpfs/apps/hpc/Apps/Restricted/Gaussian/Rev_A.03/g16/l1.exe PID=     87406.
  
 Copyright (c) 1988,1990,1992,1993,1995,1998,2003,2009,2016,
            Gaussian, Inc.  All Rights Reserved.
  
 This is part of the Gaussian(R) 16 program.  It is based on
 the Gaussian(R) 09 system (copyright 2009, Gaussian, Inc.),
 the Gaussian(R) 03 system (copyright 2003, Gaussian, Inc.),
 the Gaussian(R) 98 system (copyright 1998, Gaussian, Inc.),
 the Gaussian(R) 94 system (copyright 1995, Gaussian, Inc.),
 the Gaussian 92(TM) system (copyright 1992, Gaussian, Inc.),
 the Gaussian 90(TM) system (copyright 1990, Gaussian, Inc.),
 the Gaussian 88(TM) system (copyright 1988, Gaussian, Inc.),
 the Gaussian 86(TM) system (copyright 1986, Carnegie Mellon
 University), and the Gaussian 82(TM) system (copyright 1983,
 Carnegie Mellon University). Gaussian is a federally registered
 trademark of Gaussian, Inc.
  
 This software contains proprietary and confidential information,
 including trade secrets, belonging to Gaussian, Inc.
  
 This software is provided under written license and may be
 used, copied, transmitted, or stored only in accord with that
 written license.
  
 The following legend is applicable only to US Government
 contracts under FAR:
  
                    RESTRICTED RIGHTS LEGEND
  
 Use, reproduction and disclosure by the US Government is
 subject to restrictions as set forth in subparagraphs (a)
 and (c) of the Commercial Computer Software - Restricted
 Rights clause in FAR 52.227-19.
  
 Gaussian, Inc.
 340 Quinnipiac St., Bldg. 40, Wallingford CT 06492
  
  
 ---------------------------------------------------------------
 Warning -- This program may not be used in any manner that
 competes with the business of Gaussian, Inc. or will provide
 assistance to any competitor of Gaussian, Inc.  The licensee
 of this program is prohibited from giving any competitor of
 Gaussian, Inc. access to this program.  By using this program,
 the user acknowledges that Gaussian, Inc. is engaged in the
 business of creating and licensing software in the field of
 computational chemistry and represents and warrants to the
 licensee that it is not a competitor of Gaussian, Inc. and that
 it will not use this program in any manner prohibited above.
 ---------------------------------------------------------------
  

 Cite this work as:
 Gaussian 16, Revision A.03,
 M. J. Frisch, G. W. Trucks, H. B. Schlegel, G. E. Scuseria, 
 M. A. Robb, J. R. Cheeseman, G. Scalmani, V. Barone, 
 G. A. Petersson, H. Nakatsuji, X. Li, M. Caricato, A. V. Marenich, 
 J. Bloino, B. G. Janesko, R. Gomperts, B. Mennucci, H. P. Hratchian, 
 J. V. Ortiz, A. F. Izmaylov, J. L. Sonnenberg, D. Williams-Young, 
 F. Ding, F. Lipparini, F. Egidi, J. Goings, B. Peng, A. Petrone, 
 T. Henderson, D. Ranasinghe, V. G. Zakrzewski, J. Gao, N. Rega, 
 G. Zheng, W. Liang, M. Hada, M. Ehara, K. Toyota, R. Fukuda, 
 J. Hasegawa, M. Ishida, T. Nakajima, Y. Honda, O. Kitao, H. Nakai, 
 T. Vreven, K. Throssell, J. A. Montgomery, Jr., J. E. Peralta, 
 F. Ogliaro, M. J. Bearpark, J. J. Heyd, E. N. Brothers, K. N. Kudin, 
 V. N. Staroverov, T. A. Keith, R. Kobayashi, J. Normand, 
 K. Raghavachari, A. P. Rendell, J. C. Burant, S. S. Iyengar, 
 J. Tomasi, M. Cossi, J. M. Millam, M. Klene, C. Adamo, R. Cammi, 
 J. W. Ochterski, R. L. Martin, K. Morokuma, O. Farkas, 
 J. B. Foresman, and D. J. Fox, Gaussian, Inc., Wallingford CT, 2016.
 
 ******************************************
 Gaussian 16:  ES64L-G16RevA.03 25-Dec-2016
                16-Dec-2018 
 ******************************************
 %chk=cyclohexyl-triBIP-E0PT.chk
 %mem=10GB
 %nprocshared=16
 Will use up to   16 processors via shared memory.
 ----------------------------------------------------------------
 #p freq(ReadFC,InternalModes) Geom(AllCheck) NoSymm scale=0.9649
 ----------------------------------------------------------------
 1/18=20,29=7,38=1,114=964900/1,3;
 2/9=110,12=2,15=1,40=1/2;
 7/8=21,25=11,30=1/16;
 99/5=2/99;
 Leave Link    1 at Sun Dec 16 14:43:25 2018, MaxMem=  1342177280 cpu:               9.7 elap:               0.7
 (Enter /gpfs/apps/hpc/Apps/Restricted/Gaussian/Rev_A.03/g16/l101.exe)
 Structure from the checkpoint file:  "cyclohexyl-triBIP-E0PT.chk"
 ----------------------------------------------------------------
 cyclohexylimine triBIP oxidized, no proton transfer optimization
 ----------------------------------------------------------------
 Charge =  1 Multiplicity = 2
 Redundant internal coordinates found in file.  (old form).
 C,0,1.679093,0.392516,0.951704
 C,0,0.583138,1.23902,0.66246
 C,0,0.785084,2.617408,0.521563
 C,0,2.082175,3.100512,0.676029
 C,0,3.161904,2.249613,0.967544
 C,0,2.989619,0.867853,1.114017
 C,0,-0.190301,-0.777162,0.793914
 H,0,-0.041688,3.280139,0.297933
 H,0,2.270411,4.162112,0.568099
 H,0,4.153565,2.674439,1.069845
 C,0,-2.476903,-1.67209,0.544911
 C,0,-3.444403,-2.712401,0.535354
 C,0,-3.058054,-4.038958,0.783708
 C,0,-1.712933,-4.268819,1.030112
 C,0,-0.756916,-3.227339,1.035657
 C,0,-1.112074,-1.900105,0.796896
 C,0,-4.469938,-0.841212,0.093306
 H,0,-3.784443,-4.841559,0.780738
 H,0,-1.373544,-5.278116,1.226608
 H,0,0.278962,-3.474016,1.234157
 N,0,-0.571698,0.479469,0.571814
 C,0,-6.874604,-0.531138,-0.406558
 C,0,-5.550051,0.050128,-0.235386
 C,0,-5.39636,1.419798,-0.399483
 C,0,-6.486925,2.231631,-0.737984
 C,0,-7.774862,1.643283,-0.899728
 C,0,-7.997861,0.298611,-0.743528
 H,0,-4.423547,1.87569,-0.268655
 H,0,-8.608121,2.287418,-1.15646
 C,0,-6.307026,3.696629,-0.964649
 H,0,-5.418532,4.072108,-0.456473
 H,0,-6.184999,3.886168,-2.03859
 H,0,-7.184685,4.25744,-0.637686
 C,0,-9.344172,-0.333262,-0.904914
 H,0,-9.329156,-1.081283,-1.702661
 H,0,-9.638885,-0.852807,0.010969
 H,0,-10.092203,0.422694,-1.139948
 O,0,-7.079924,-1.807151,-0.259669
 H,0,-6.164981,-2.262578,-0.017879
 N,0,-3.152785,-0.516324,0.266169
 N,0,-4.667327,-2.159371,0.25339
 H,0,-2.665299,0.377074,0.215405
 N,0,1.157208,-0.875798,1.026136
 H,0,1.731256,-1.692664,1.204316
 C,0,4.066303,-0.058482,1.420333
 N,0,3.922424,-1.382233,1.461635
 N,0,5.354775,0.329406,1.696127
 C,0,7.435098,-0.982999,2.269366
 C,0,7.853135,-2.308182,2.437224
 C,0,6.968089,-3.389711,2.28075
 C,0,5.627296,-3.196965,1.951499
 C,0,5.177973,-1.881367,1.776546
 C,0,6.08489,-0.807952,1.930807
 H,0,8.888097,-2.498431,2.700623
 H,0,7.340823,-4.397142,2.422858
 H,0,4.948789,-4.034253,1.840316
 H,0,5.762279,1.254391,1.776811
 C,0,8.33709,0.15123,2.460613
 H,0,9.371245,-0.106199,2.704127
 N,0,7.92244,1.359214,2.359876
 C,0,8.843572,2.476804,2.568957
 C,0,10.295143,2.133293,2.921334
 C,0,8.786536,3.391781,1.334166
 H,0,8.421471,3.048639,3.408346
 C,0,11.123033,3.405197,3.13792
 H,0,10.734085,1.54782,2.104138
 H,0,10.328123,1.5056,3.817289
 C,0,9.617645,4.661828,1.542403
 H,0,9.171712,2.831995,0.472857
 H,0,7.742556,3.638202,1.117971
 C,0,11.066225,4.32934,1.91686
 H,0,12.159418,3.137691,3.366255
 H,0,10.736374,3.942052,4.013305
 H,0,9.589721,5.27975,0.639743
 H,0,9.167089,5.255978,2.347193
 H,0,11.626082,5.249087,2.113462
 H,0,11.553417,3.832807,1.068352
 Recover connectivity data from disk.
 ITRead=  0  0  0  0  0  0  0  0  0  0  0  0  0  0  0  0  0  0  0  0
 ITRead=  0  0  0  0  0  0  0  0  0  0  0  0  0  0  0  0  0  0  0  0
 ITRead=  0  0  0  0  0  0  0  0  0  0  0  0  0  0  0  0  0  0  0  0
 ITRead=  0  0  0  0  0  0  0  0  0  0  0  0  0  0  0  0  0
 MicOpt= -1 -1 -1 -1 -1 -1 -1 -1 -1 -1 -1 -1 -1 -1 -1 -1 -1 -1 -1 -1
 MicOpt= -1 -1 -1 -1 -1 -1 -1 -1 -1 -1 -1 -1 -1 -1 -1 -1 -1 -1 -1 -1
 MicOpt= -1 -1 -1 -1 -1 -1 -1 -1 -1 -1 -1 -1 -1 -1 -1 -1 -1 -1 -1 -1
 MicOpt= -1 -1 -1 -1 -1 -1 -1 -1 -1 -1 -1 -1 -1 -1 -1 -1 -1
 NAtoms=     77 NQM=       77 NQMF=       0 NMMI=      0 NMMIF=      0
                NMic=       0 NMicF=      0.
                    Isotopes and Nuclear Properties:
 (Nuclear quadrupole moments (NQMom) in fm**2, nuclear magnetic moments (NMagM)
  in nuclear magnetons)

  Atom         1           2           3           4           5           6           7           8           9          10
 IAtWgt=          12          12          12          12          12          12          12           1           1           1
 AtmWgt=  12.0000000  12.0000000  12.0000000  12.0000000  12.0000000  12.0000000  12.0000000   1.0078250   1.0078250   1.0078250
 NucSpn=           0           0           0           0           0           0           0           1           1           1
 AtZEff=   3.6000000   3.6000000   3.6000000   3.6000000   3.6000000   3.6000000   3.6000000   1.0000000   1.0000000   1.0000000
 NQMom=    0.0000000   0.0000000   0.0000000   0.0000000   0.0000000   0.0000000   0.0000000   0.0000000   0.0000000   0.0000000
 NMagM=    0.0000000   0.0000000   0.0000000   0.0000000   0.0000000   0.0000000   0.0000000   2.7928460   2.7928460   2.7928460
 AtZNuc=   6.0000000   6.0000000   6.0000000   6.0000000   6.0000000   6.0000000   6.0000000   1.0000000   1.0000000   1.0000000

  Atom        11          12          13          14          15          16          17          18          19          20
 IAtWgt=          12          12          12          12          12          12          12           1           1           1
 AtmWgt=  12.0000000  12.0000000  12.0000000  12.0000000  12.0000000  12.0000000  12.0000000   1.0078250   1.0078250   1.0078250
 NucSpn=           0           0           0           0           0           0           0           1           1           1
 AtZEff=   3.6000000   3.6000000   3.6000000   3.6000000   3.6000000   3.6000000   3.6000000   1.0000000   1.0000000   1.0000000
 NQMom=    0.0000000   0.0000000   0.0000000   0.0000000   0.0000000   0.0000000   0.0000000   0.0000000   0.0000000   0.0000000
 NMagM=    0.0000000   0.0000000   0.0000000   0.0000000   0.0000000   0.0000000   0.0000000   2.7928460   2.7928460   2.7928460
 AtZNuc=   6.0000000   6.0000000   6.0000000   6.0000000   6.0000000   6.0000000   6.0000000   1.0000000   1.0000000   1.0000000

  Atom        21          22          23          24          25          26          27          28          29          30
 IAtWgt=          14          12          12          12          12          12          12           1           1          12
 AtmWgt=  14.0030740  12.0000000  12.0000000  12.0000000  12.0000000  12.0000000  12.0000000   1.0078250   1.0078250  12.0000000
 NucSpn=           2           0           0           0           0           0           0           1           1           0
 AtZEff=   4.5500000   3.6000000   3.6000000   3.6000000   3.6000000   3.6000000   3.6000000   1.0000000   1.0000000   3.6000000
 NQMom=    2.0440000   0.0000000   0.0000000   0.0000000   0.0000000   0.0000000   0.0000000   0.0000000   0.0000000   0.0000000
 NMagM=    0.4037610   0.0000000   0.0000000   0.0000000   0.0000000   0.0000000   0.0000000   2.7928460   2.7928460   0.0000000
 AtZNuc=   7.0000000   6.0000000   6.0000000   6.0000000   6.0000000   6.0000000   6.0000000   1.0000000   1.0000000   6.0000000

  Atom        31          32          33          34          35          36          37          38          39          40
 IAtWgt=           1           1           1          12           1           1           1          16           1          14
 AtmWgt=   1.0078250   1.0078250   1.0078250  12.0000000   1.0078250   1.0078250   1.0078250  15.9949146   1.0078250  14.0030740
 NucSpn=           1           1           1           0           1           1           1           0           1           2
 AtZEff=   1.0000000   1.0000000   1.0000000   3.6000000   1.0000000   1.0000000   1.0000000   5.6000000   1.0000000   4.5500000
 NQMom=    0.0000000   0.0000000   0.0000000   0.0000000   0.0000000   0.0000000   0.0000000   0.0000000   0.0000000   2.0440000
 NMagM=    2.7928460   2.7928460   2.7928460   0.0000000   2.7928460   2.7928460   2.7928460   0.0000000   2.7928460   0.4037610
 AtZNuc=   1.0000000   1.0000000   1.0000000   6.0000000   1.0000000   1.0000000   1.0000000   8.0000000   1.0000000   7.0000000

  Atom        41          42          43          44          45          46          47          48          49          50
 IAtWgt=          14           1          14           1          12          14          14          12          12          12
 AtmWgt=  14.0030740   1.0078250  14.0030740   1.0078250  12.0000000  14.0030740  14.0030740  12.0000000  12.0000000  12.0000000
 NucSpn=           2           1           2           1           0           2           2           0           0           0
 AtZEff=   4.5500000   1.0000000   4.5500000   1.0000000   3.6000000   4.5500000   4.5500000   3.6000000   3.6000000   3.6000000
 NQMom=    2.0440000   0.0000000   2.0440000   0.0000000   0.0000000   2.0440000   2.0440000   0.0000000   0.0000000   0.0000000
 NMagM=    0.4037610   2.7928460   0.4037610   2.7928460   0.0000000   0.4037610   0.4037610   0.0000000   0.0000000   0.0000000
 AtZNuc=   7.0000000   1.0000000   7.0000000   1.0000000   6.0000000   7.0000000   7.0000000   6.0000000   6.0000000   6.0000000

  Atom        51          52          53          54          55          56          57          58          59          60
 IAtWgt=          12          12          12           1           1           1           1          12           1          14
 AtmWgt=  12.0000000  12.0000000  12.0000000   1.0078250   1.0078250   1.0078250   1.0078250  12.0000000   1.0078250  14.0030740
 NucSpn=           0           0           0           1           1           1           1           0           1           2
 AtZEff=   3.6000000   3.6000000   3.6000000   1.0000000   1.0000000   1.0000000   1.0000000   3.6000000   1.0000000   4.5500000
 NQMom=    0.0000000   0.0000000   0.0000000   0.0000000   0.0000000   0.0000000   0.0000000   0.0000000   0.0000000   2.0440000
 NMagM=    0.0000000   0.0000000   0.0000000   2.7928460   2.7928460   2.7928460   2.7928460   0.0000000   2.7928460   0.4037610
 AtZNuc=   6.0000000   6.0000000   6.0000000   1.0000000   1.0000000   1.0000000   1.0000000   6.0000000   1.0000000   7.0000000

  Atom        61          62          63          64          65          66          67          68          69          70
 IAtWgt=          12          12          12           1          12           1           1          12           1           1
 AtmWgt=  12.0000000  12.0000000  12.0000000   1.0078250  12.0000000   1.0078250   1.0078250  12.0000000   1.0078250   1.0078250
 NucSpn=           0           0           0           1           0           1           1           0           1           1
 AtZEff=   3.6000000   3.6000000   3.6000000   1.0000000   3.6000000   1.0000000   1.0000000   3.6000000   1.0000000   1.0000000
 NQMom=    0.0000000   0.0000000   0.0000000   0.0000000   0.0000000   0.0000000   0.0000000   0.0000000   0.0000000   0.0000000
 NMagM=    0.0000000   0.0000000   0.0000000   2.7928460   0.0000000   2.7928460   2.7928460   0.0000000   2.7928460   2.7928460
 AtZNuc=   6.0000000   6.0000000   6.0000000   1.0000000   6.0000000   1.0000000   1.0000000   6.0000000   1.0000000   1.0000000

  Atom        71          72          73          74          75          76          77
 IAtWgt=          12           1           1           1           1           1           1
 AtmWgt=  12.0000000   1.0078250   1.0078250   1.0078250   1.0078250   1.0078250   1.0078250
 NucSpn=           0           1           1           1           1           1           1
 AtZEff=   3.6000000   1.0000000   1.0000000   1.0000000   1.0000000   1.0000000   1.0000000
 NQMom=    0.0000000   0.0000000   0.0000000   0.0000000   0.0000000   0.0000000   0.0000000
 NMagM=    0.0000000   2.7928460   2.7928460   2.7928460   2.7928460   2.7928460   2.7928460
 AtZNuc=   6.0000000   1.0000000   1.0000000   1.0000000   1.0000000   1.0000000   1.0000000
 Leave Link  101 at Sun Dec 16 14:43:25 2018, MaxMem=  1342177280 cpu:               5.8 elap:               0.4
 (Enter /gpfs/apps/hpc/Apps/Restricted/Gaussian/Rev_A.03/g16/l103.exe)

 GradGradGradGradGradGradGradGradGradGradGradGradGradGradGradGradGradGrad
 Berny optimization.
 Initialization pass.
                           ----------------------------
                           !    Initial Parameters    !
                           ! (Angstroms and Degrees)  !
 --------------------------                            --------------------------
 ! Name  Definition              Value          Derivative Info.                !
 --------------------------------------------------------------------------------
 ! R1    R(1,2)                  1.4147         estimate D2E/DX2                !
 ! R2    R(1,6)                  1.4035         estimate D2E/DX2                !
 ! R3    R(1,43)                 1.3735         estimate D2E/DX2                !
 ! R4    R(2,3)                  1.4002         estimate D2E/DX2                !
 ! R5    R(2,21)                 1.3852         estimate D2E/DX2                !
 ! R6    R(3,4)                  1.3927         estimate D2E/DX2                !
 ! R7    R(3,8)                  1.0829         estimate D2E/DX2                !
 ! R8    R(4,5)                  1.4053         estimate D2E/DX2                !
 ! R9    R(4,9)                  1.0835         estimate D2E/DX2                !
 ! R10   R(5,6)                  1.4001         estimate D2E/DX2                !
 ! R11   R(5,10)                 1.0837         estimate D2E/DX2                !
 ! R12   R(6,45)                 1.453          estimate D2E/DX2                !
 ! R13   R(7,16)                 1.4528         estimate D2E/DX2                !
 ! R14   R(7,21)                 1.3319         estimate D2E/DX2                !
 ! R15   R(7,43)                 1.3709         estimate D2E/DX2                !
 ! R16   R(11,12)                1.4207         estimate D2E/DX2                !
 ! R17   R(11,16)                1.4065         estimate D2E/DX2                !
 ! R18   R(11,40)                1.3676         estimate D2E/DX2                !
 ! R19   R(12,13)                1.4038         estimate D2E/DX2                !
 ! R20   R(12,41)                1.3715         estimate D2E/DX2                !
 ! R21   R(13,14)                1.3867         estimate D2E/DX2                !
 ! R22   R(13,18)                1.0825         estimate D2E/DX2                !
 ! R23   R(14,15)                1.4137         estimate D2E/DX2                !
 ! R24   R(14,19)                1.0828         estimate D2E/DX2                !
 ! R25   R(15,16)                1.3945         estimate D2E/DX2                !
 ! R26   R(15,20)                1.0832         estimate D2E/DX2                !
 ! R27   R(17,23)                1.4385         estimate D2E/DX2                !
 ! R28   R(17,40)                1.3676         estimate D2E/DX2                !
 ! R29   R(17,41)                1.3424         estimate D2E/DX2                !
 ! R30   R(22,23)                1.4566         estimate D2E/DX2                !
 ! R31   R(22,27)                1.4366         estimate D2E/DX2                !
 ! R32   R(22,38)                1.3007         estimate D2E/DX2                !
 ! R33   R(23,24)                1.388          estimate D2E/DX2                !
 ! R34   R(24,25)                1.4011         estimate D2E/DX2                !
 ! R35   R(24,28)                1.0823         estimate D2E/DX2                !
 ! R36   R(25,26)                1.4252         estimate D2E/DX2                !
 ! R37   R(25,30)                1.4933         estimate D2E/DX2                !
 ! R38   R(26,27)                1.372          estimate D2E/DX2                !
 ! R39   R(26,29)                1.084          estimate D2E/DX2                !
 ! R40   R(27,34)                1.4959         estimate D2E/DX2                !
 ! R41   R(30,31)                1.0903         estimate D2E/DX2                !
 ! R42   R(30,32)                1.0973         estimate D2E/DX2                !
 ! R43   R(30,33)                1.0916         estimate D2E/DX2                !
 ! R44   R(34,35)                1.0937         estimate D2E/DX2                !
 ! R45   R(34,36)                1.0934         estimate D2E/DX2                !
 ! R46   R(34,37)                1.0892         estimate D2E/DX2                !
 ! R47   R(38,39)                1.0502         estimate D2E/DX2                !
 ! R48   R(40,42)                1.019          estimate D2E/DX2                !
 ! R49   R(43,44)                1.0142         estimate D2E/DX2                !
 ! R50   R(45,46)                1.3322         estimate D2E/DX2                !
 ! R51   R(45,47)                1.3736         estimate D2E/DX2                !
 ! R52   R(46,52)                1.3873         estimate D2E/DX2                !
 ! R53   R(47,53)                1.3718         estimate D2E/DX2                !
 ! R54   R(47,57)                1.014          estimate D2E/DX2                !
 ! R55   R(48,49)                1.3997         estimate D2E/DX2                !
 ! R56   R(48,53)                1.403          estimate D2E/DX2                !
 ! R57   R(48,58)                1.4617         estimate D2E/DX2                !
 ! R58   R(49,50)                1.4062         estimate D2E/DX2                !
 ! R59   R(49,54)                1.0848         estimate D2E/DX2                !
 ! R60   R(50,51)                1.394          estimate D2E/DX2                !
 ! R61   R(50,55)                1.0835         estimate D2E/DX2                !
 ! R62   R(51,52)                1.4012         estimate D2E/DX2                !
 ! R63   R(51,56)                1.0834         estimate D2E/DX2                !
 ! R64   R(52,53)                1.4137         estimate D2E/DX2                !
 ! R65   R(58,59)                1.0932         estimate D2E/DX2                !
 ! R66   R(58,60)                1.2811         estimate D2E/DX2                !
 ! R67   R(60,61)                1.4633         estimate D2E/DX2                !
 ! R68   R(61,62)                1.5327         estimate D2E/DX2                !
 ! R69   R(61,63)                1.5379         estimate D2E/DX2                !
 ! R70   R(61,64)                1.0999         estimate D2E/DX2                !
 ! R71   R(62,65)                1.533          estimate D2E/DX2                !
 ! R72   R(62,66)                1.0969         estimate D2E/DX2                !
 ! R73   R(62,67)                1.0945         estimate D2E/DX2                !
 ! R74   R(63,68)                1.532          estimate D2E/DX2                !
 ! R75   R(63,69)                1.0971         estimate D2E/DX2                !
 ! R76   R(63,70)                1.0942         estimate D2E/DX2                !
 ! R77   R(65,71)                1.5324         estimate D2E/DX2                !
 ! R78   R(65,72)                1.0944         estimate D2E/DX2                !
 ! R79   R(65,73)                1.0973         estimate D2E/DX2                !
 ! R80   R(68,71)                1.5327         estimate D2E/DX2                !
 ! R81   R(68,74)                1.0943         estimate D2E/DX2                !
 ! R82   R(68,75)                1.0971         estimate D2E/DX2                !
 ! R83   R(71,76)                1.0945         estimate D2E/DX2                !
 ! R84   R(71,77)                1.0972         estimate D2E/DX2                !
 ! A1    A(2,1,6)              122.9818         estimate D2E/DX2                !
 ! A2    A(2,1,43)             105.6203         estimate D2E/DX2                !
 ! A3    A(6,1,43)             131.3972         estimate D2E/DX2                !
 ! A4    A(1,2,3)              119.8601         estimate D2E/DX2                !
 ! A5    A(1,2,21)             109.3377         estimate D2E/DX2                !
 ! A6    A(3,2,21)             130.8017         estimate D2E/DX2                !
 ! A7    A(2,3,4)              117.6864         estimate D2E/DX2                !
 ! A8    A(2,3,8)              120.8708         estimate D2E/DX2                !
 ! A9    A(4,3,8)              121.4427         estimate D2E/DX2                !
 ! A10   A(3,4,5)              121.9074         estimate D2E/DX2                !
 ! A11   A(3,4,9)              119.3797         estimate D2E/DX2                !
 ! A12   A(5,4,9)              118.7129         estimate D2E/DX2                !
 ! A13   A(4,5,6)              121.6487         estimate D2E/DX2                !
 ! A14   A(4,5,10)             119.033          estimate D2E/DX2                !
 ! A15   A(6,5,10)             119.3146         estimate D2E/DX2                !
 ! A16   A(1,6,5)              115.915          estimate D2E/DX2                !
 ! A17   A(1,6,45)             120.0259         estimate D2E/DX2                !
 ! A18   A(5,6,45)             124.0587         estimate D2E/DX2                !
 ! A19   A(16,7,21)            123.2248         estimate D2E/DX2                !
 ! A20   A(16,7,43)            124.5883         estimate D2E/DX2                !
 ! A21   A(21,7,43)            112.185          estimate D2E/DX2                !
 ! A22   A(12,11,16)           122.91           estimate D2E/DX2                !
 ! A23   A(12,11,40)           106.3141         estimate D2E/DX2                !
 ! A24   A(16,11,40)           130.7751         estimate D2E/DX2                !
 ! A25   A(11,12,13)           120.2213         estimate D2E/DX2                !
 ! A26   A(11,12,41)           108.2616         estimate D2E/DX2                !
 ! A27   A(13,12,41)           131.5161         estimate D2E/DX2                !
 ! A28   A(12,13,14)           117.0675         estimate D2E/DX2                !
 ! A29   A(12,13,18)           121.0285         estimate D2E/DX2                !
 ! A30   A(14,13,18)           121.904          estimate D2E/DX2                !
 ! A31   A(13,14,15)           122.3129         estimate D2E/DX2                !
 ! A32   A(13,14,19)           119.3927         estimate D2E/DX2                !
 ! A33   A(15,14,19)           118.2944         estimate D2E/DX2                !
 ! A34   A(14,15,16)           121.8866         estimate D2E/DX2                !
 ! A35   A(14,15,20)           118.6623         estimate D2E/DX2                !
 ! A36   A(16,15,20)           119.4509         estimate D2E/DX2                !
 ! A37   A(7,16,11)            119.3407         estimate D2E/DX2                !
 ! A38   A(7,16,15)            125.0583         estimate D2E/DX2                !
 ! A39   A(11,16,15)           115.601          estimate D2E/DX2                !
 ! A40   A(23,17,40)           127.2189         estimate D2E/DX2                !
 ! A41   A(23,17,41)           121.6873         estimate D2E/DX2                !
 ! A42   A(40,17,41)           111.0883         estimate D2E/DX2                !
 ! A43   A(2,21,7)             105.5276         estimate D2E/DX2                !
 ! A44   A(23,22,27)           120.5374         estimate D2E/DX2                !
 ! A45   A(23,22,38)           121.4494         estimate D2E/DX2                !
 ! A46   A(27,22,38)           118.0131         estimate D2E/DX2                !
 ! A47   A(17,23,22)           117.5418         estimate D2E/DX2                !
 ! A48   A(17,23,24)           123.7339         estimate D2E/DX2                !
 ! A49   A(22,23,24)           118.7241         estimate D2E/DX2                !
 ! A50   A(23,24,25)           120.9414         estimate D2E/DX2                !
 ! A51   A(23,24,28)           120.0602         estimate D2E/DX2                !
 ! A52   A(25,24,28)           118.9982         estimate D2E/DX2                !
 ! A53   A(24,25,26)           119.4486         estimate D2E/DX2                !
 ! A54   A(24,25,30)           120.7542         estimate D2E/DX2                !
 ! A55   A(26,25,30)           119.7784         estimate D2E/DX2                !
 ! A56   A(25,26,27)           122.5874         estimate D2E/DX2                !
 ! A57   A(25,26,29)           118.439          estimate D2E/DX2                !
 ! A58   A(27,26,29)           118.9735         estimate D2E/DX2                !
 ! A59   A(22,27,26)           117.7566         estimate D2E/DX2                !
 ! A60   A(22,27,34)           119.0142         estimate D2E/DX2                !
 ! A61   A(26,27,34)           123.2291         estimate D2E/DX2                !
 ! A62   A(25,30,31)           111.4258         estimate D2E/DX2                !
 ! A63   A(25,30,32)           109.3536         estimate D2E/DX2                !
 ! A64   A(25,30,33)           111.2029         estimate D2E/DX2                !
 ! A65   A(31,30,32)           107.8219         estimate D2E/DX2                !
 ! A66   A(31,30,33)           109.7954         estimate D2E/DX2                !
 ! A67   A(32,30,33)           107.0853         estimate D2E/DX2                !
 ! A68   A(27,34,35)           110.8071         estimate D2E/DX2                !
 ! A69   A(27,34,36)           110.6647         estimate D2E/DX2                !
 ! A70   A(27,34,37)           110.3778         estimate D2E/DX2                !
 ! A71   A(35,34,36)           106.8394         estimate D2E/DX2                !
 ! A72   A(35,34,37)           109.0707         estimate D2E/DX2                !
 ! A73   A(36,34,37)           108.9915         estimate D2E/DX2                !
 ! A74   A(22,38,39)           108.2933         estimate D2E/DX2                !
 ! A75   A(11,40,17)           107.5165         estimate D2E/DX2                !
 ! A76   A(11,40,42)           120.9748         estimate D2E/DX2                !
 ! A77   A(17,40,42)           131.5082         estimate D2E/DX2                !
 ! A78   A(12,41,17)           106.8193         estimate D2E/DX2                !
 ! A79   A(1,43,7)             107.329          estimate D2E/DX2                !
 ! A80   A(1,43,44)            122.5621         estimate D2E/DX2                !
 ! A81   A(7,43,44)            130.0958         estimate D2E/DX2                !
 ! A82   A(6,45,46)            124.0562         estimate D2E/DX2                !
 ! A83   A(6,45,47)            123.8762         estimate D2E/DX2                !
 ! A84   A(46,45,47)           112.0672         estimate D2E/DX2                !
 ! A85   A(45,46,52)           105.4736         estimate D2E/DX2                !
 ! A86   A(45,47,53)           107.4266         estimate D2E/DX2                !
 ! A87   A(45,47,57)           130.5847         estimate D2E/DX2                !
 ! A88   A(53,47,57)           121.9267         estimate D2E/DX2                !
 ! A89   A(49,48,53)           115.7541         estimate D2E/DX2                !
 ! A90   A(49,48,58)           122.3216         estimate D2E/DX2                !
 ! A91   A(53,48,58)           121.9126         estimate D2E/DX2                !
 ! A92   A(48,49,50)           121.7931         estimate D2E/DX2                !
 ! A93   A(48,49,54)           118.6938         estimate D2E/DX2                !
 ! A94   A(50,49,54)           119.5122         estimate D2E/DX2                !
 ! A95   A(49,50,51)           121.6874         estimate D2E/DX2                !
 ! A96   A(49,50,55)           118.9458         estimate D2E/DX2                !
 ! A97   A(51,50,55)           119.3667         estimate D2E/DX2                !
 ! A98   A(50,51,52)           117.888          estimate D2E/DX2                !
 ! A99   A(50,51,56)           121.3148         estimate D2E/DX2                !
 ! A100  A(52,51,56)           120.7958         estimate D2E/DX2                !
 ! A101  A(46,52,51)           131.0228         estimate D2E/DX2                !
 ! A102  A(46,52,53)           109.4007         estimate D2E/DX2                !
 ! A103  A(51,52,53)           119.5761         estimate D2E/DX2                !
 ! A104  A(47,53,48)           131.0687         estimate D2E/DX2                !
 ! A105  A(47,53,52)           105.6307         estimate D2E/DX2                !
 ! A106  A(48,53,52)           123.2981         estimate D2E/DX2                !
 ! A107  A(48,58,59)           115.4786         estimate D2E/DX2                !
 ! A108  A(48,58,60)           121.4422         estimate D2E/DX2                !
 ! A109  A(59,58,60)           123.0751         estimate D2E/DX2                !
 ! A110  A(58,60,61)           120.3425         estimate D2E/DX2                !
 ! A111  A(60,61,62)           117.2482         estimate D2E/DX2                !
 ! A112  A(60,61,63)           108.441          estimate D2E/DX2                !
 ! A113  A(60,61,64)           105.3398         estimate D2E/DX2                !
 ! A114  A(62,61,63)           110.6742         estimate D2E/DX2                !
 ! A115  A(62,61,64)           107.7292         estimate D2E/DX2                !
 ! A116  A(63,61,64)           106.8099         estimate D2E/DX2                !
 ! A117  A(61,62,65)           110.9768         estimate D2E/DX2                !
 ! A118  A(61,62,66)           109.1059         estimate D2E/DX2                !
 ! A119  A(61,62,67)           110.199          estimate D2E/DX2                !
 ! A120  A(65,62,66)           109.3894         estimate D2E/DX2                !
 ! A121  A(65,62,67)           110.1155         estimate D2E/DX2                !
 ! A122  A(66,62,67)           106.9598         estimate D2E/DX2                !
 ! A123  A(61,63,68)           111.3436         estimate D2E/DX2                !
 ! A124  A(61,63,69)           108.286          estimate D2E/DX2                !
 ! A125  A(61,63,70)           109.1475         estimate D2E/DX2                !
 ! A126  A(68,63,69)           109.8309         estimate D2E/DX2                !
 ! A127  A(68,63,70)           110.9613         estimate D2E/DX2                !
 ! A128  A(69,63,70)           107.1432         estimate D2E/DX2                !
 ! A129  A(62,65,71)           111.5776         estimate D2E/DX2                !
 ! A130  A(62,65,72)           109.7603         estimate D2E/DX2                !
 ! A131  A(62,65,73)           109.1683         estimate D2E/DX2                !
 ! A132  A(71,65,72)           110.4111         estimate D2E/DX2                !
 ! A133  A(71,65,73)           109.1214         estimate D2E/DX2                !
 ! A134  A(72,65,73)           106.6685         estimate D2E/DX2                !
 ! A135  A(63,68,71)           111.4746         estimate D2E/DX2                !
 ! A136  A(63,68,74)           110.0087         estimate D2E/DX2                !
 ! A137  A(63,68,75)           109.0178         estimate D2E/DX2                !
 ! A138  A(71,68,74)           110.3744         estimate D2E/DX2                !
 ! A139  A(71,68,75)           109.0501         estimate D2E/DX2                !
 ! A140  A(74,68,75)           106.7868         estimate D2E/DX2                !
 ! A141  A(65,71,68)           111.1331         estimate D2E/DX2                !
 ! A142  A(65,71,76)           110.1617         estimate D2E/DX2                !
 ! A143  A(65,71,77)           109.077          estimate D2E/DX2                !
 ! A144  A(68,71,76)           110.1832         estimate D2E/DX2                !
 ! A145  A(68,71,77)           109.2017         estimate D2E/DX2                !
 ! A146  A(76,71,77)           106.9812         estimate D2E/DX2                !
 ! D1    D(6,1,2,3)              0.2244         estimate D2E/DX2                !
 ! D2    D(6,1,2,21)          -179.5561         estimate D2E/DX2                !
 ! D3    D(43,1,2,3)           179.9734         estimate D2E/DX2                !
 ! D4    D(43,1,2,21)            0.1928         estimate D2E/DX2                !
 ! D5    D(2,1,6,5)             -0.2235         estimate D2E/DX2                !
 ! D6    D(2,1,6,45)           179.5332         estimate D2E/DX2                !
 ! D7    D(43,1,6,5)          -179.9011         estimate D2E/DX2                !
 ! D8    D(43,1,6,45)           -0.1444         estimate D2E/DX2                !
 ! D9    D(2,1,43,7)            -0.1635         estimate D2E/DX2                !
 ! D10   D(2,1,43,44)          178.6396         estimate D2E/DX2                !
 ! D11   D(6,1,43,7)           179.5557         estimate D2E/DX2                !
 ! D12   D(6,1,43,44)           -1.6412         estimate D2E/DX2                !
 ! D13   D(1,2,3,4)             -0.0036         estimate D2E/DX2                !
 ! D14   D(1,2,3,8)            179.8568         estimate D2E/DX2                !
 ! D15   D(21,2,3,4)           179.7228         estimate D2E/DX2                !
 ! D16   D(21,2,3,8)            -0.4168         estimate D2E/DX2                !
 ! D17   D(1,2,21,7)            -0.1441         estimate D2E/DX2                !
 ! D18   D(3,2,21,7)          -179.8926         estimate D2E/DX2                !
 ! D19   D(2,3,4,5)             -0.2037         estimate D2E/DX2                !
 ! D20   D(2,3,4,9)            179.7119         estimate D2E/DX2                !
 ! D21   D(8,3,4,5)            179.9367         estimate D2E/DX2                !
 ! D22   D(8,3,4,9)             -0.1477         estimate D2E/DX2                !
 ! D23   D(3,4,5,6)              0.2039         estimate D2E/DX2                !
 ! D24   D(3,4,5,10)           179.4925         estimate D2E/DX2                !
 ! D25   D(9,4,5,6)           -179.7122         estimate D2E/DX2                !
 ! D26   D(9,4,5,10)            -0.4236         estimate D2E/DX2                !
 ! D27   D(4,5,6,1)              0.0123         estimate D2E/DX2                !
 ! D28   D(4,5,6,45)          -179.7335         estimate D2E/DX2                !
 ! D29   D(10,5,6,1)          -179.2744         estimate D2E/DX2                !
 ! D30   D(10,5,6,45)            0.9799         estimate D2E/DX2                !
 ! D31   D(1,6,45,46)            5.4831         estimate D2E/DX2                !
 ! D32   D(1,6,45,47)         -174.7982         estimate D2E/DX2                !
 ! D33   D(5,6,45,46)         -174.781          estimate D2E/DX2                !
 ! D34   D(5,6,45,47)            4.9376         estimate D2E/DX2                !
 ! D35   D(21,7,16,11)           0.5076         estimate D2E/DX2                !
 ! D36   D(21,7,16,15)        -179.4311         estimate D2E/DX2                !
 ! D37   D(43,7,16,11)         179.9708         estimate D2E/DX2                !
 ! D38   D(43,7,16,15)           0.0321         estimate D2E/DX2                !
 ! D39   D(16,7,21,2)          179.5627         estimate D2E/DX2                !
 ! D40   D(43,7,21,2)            0.0399         estimate D2E/DX2                !
 ! D41   D(16,7,43,1)         -179.4336         estimate D2E/DX2                !
 ! D42   D(16,7,43,44)           1.8852         estimate D2E/DX2                !
 ! D43   D(21,7,43,1)            0.0814         estimate D2E/DX2                !
 ! D44   D(21,7,43,44)        -178.5998         estimate D2E/DX2                !
 ! D45   D(16,11,12,13)         -0.0229         estimate D2E/DX2                !
 ! D46   D(16,11,12,41)       -179.6934         estimate D2E/DX2                !
 ! D47   D(40,11,12,13)        179.667          estimate D2E/DX2                !
 ! D48   D(40,11,12,41)         -0.0035         estimate D2E/DX2                !
 ! D49   D(12,11,16,7)        -179.7146         estimate D2E/DX2                !
 ! D50   D(12,11,16,15)          0.2298         estimate D2E/DX2                !
 ! D51   D(40,11,16,7)           0.6785         estimate D2E/DX2                !
 ! D52   D(40,11,16,15)       -179.3772         estimate D2E/DX2                !
 ! D53   D(12,11,40,17)         -0.091          estimate D2E/DX2                !
 ! D54   D(12,11,40,42)       -179.8579         estimate D2E/DX2                !
 ! D55   D(16,11,40,17)        179.5652         estimate D2E/DX2                !
 ! D56   D(16,11,40,42)         -0.2017         estimate D2E/DX2                !
 ! D57   D(11,12,13,14)         -0.0993         estimate D2E/DX2                !
 ! D58   D(11,12,13,18)        179.9287         estimate D2E/DX2                !
 ! D59   D(41,12,13,14)        179.4829         estimate D2E/DX2                !
 ! D60   D(41,12,13,18)         -0.4892         estimate D2E/DX2                !
 ! D61   D(11,12,41,17)          0.0981         estimate D2E/DX2                !
 ! D62   D(13,12,41,17)       -179.5217         estimate D2E/DX2                !
 ! D63   D(12,13,14,15)          0.0073         estimate D2E/DX2                !
 ! D64   D(12,13,14,19)        179.9817         estimate D2E/DX2                !
 ! D65   D(18,13,14,15)        179.979          estimate D2E/DX2                !
 ! D66   D(18,13,14,19)         -0.0466         estimate D2E/DX2                !
 ! D67   D(13,14,15,16)          0.216          estimate D2E/DX2                !
 ! D68   D(13,14,15,20)       -179.9375         estimate D2E/DX2                !
 ! D69   D(19,14,15,16)       -179.7587         estimate D2E/DX2                !
 ! D70   D(19,14,15,20)          0.0879         estimate D2E/DX2                !
 ! D71   D(14,15,16,7)         179.6193         estimate D2E/DX2                !
 ! D72   D(14,15,16,11)         -0.3215         estimate D2E/DX2                !
 ! D73   D(20,15,16,7)          -0.2261         estimate D2E/DX2                !
 ! D74   D(20,15,16,11)        179.8332         estimate D2E/DX2                !
 ! D75   D(40,17,23,22)        178.3398         estimate D2E/DX2                !
 ! D76   D(40,17,23,24)         -1.4867         estimate D2E/DX2                !
 ! D77   D(41,17,23,22)         -0.7332         estimate D2E/DX2                !
 ! D78   D(41,17,23,24)        179.4403         estimate D2E/DX2                !
 ! D79   D(23,17,40,11)       -178.9952         estimate D2E/DX2                !
 ! D80   D(23,17,40,42)          0.7379         estimate D2E/DX2                !
 ! D81   D(41,17,40,11)          0.1594         estimate D2E/DX2                !
 ! D82   D(41,17,40,42)        179.8925         estimate D2E/DX2                !
 ! D83   D(23,17,41,12)        179.049          estimate D2E/DX2                !
 ! D84   D(40,17,41,12)         -0.1598         estimate D2E/DX2                !
 ! D85   D(27,22,23,17)       -179.6118         estimate D2E/DX2                !
 ! D86   D(27,22,23,24)          0.2236         estimate D2E/DX2                !
 ! D87   D(38,22,23,17)          0.4607         estimate D2E/DX2                !
 ! D88   D(38,22,23,24)       -179.7039         estimate D2E/DX2                !
 ! D89   D(23,22,27,26)          0.1931         estimate D2E/DX2                !
 ! D90   D(23,22,27,34)       -179.7171         estimate D2E/DX2                !
 ! D91   D(38,22,27,26)       -179.877          estimate D2E/DX2                !
 ! D92   D(38,22,27,34)          0.2128         estimate D2E/DX2                !
 ! D93   D(23,22,38,39)         -0.0985         estimate D2E/DX2                !
 ! D94   D(27,22,38,39)        179.9723         estimate D2E/DX2                !
 ! D95   D(17,23,24,25)        179.1159         estimate D2E/DX2                !
 ! D96   D(17,23,24,28)         -0.7233         estimate D2E/DX2                !
 ! D97   D(22,23,24,25)         -0.7087         estimate D2E/DX2                !
 ! D98   D(22,23,24,28)        179.4522         estimate D2E/DX2                !
 ! D99   D(23,24,25,26)          0.7716         estimate D2E/DX2                !
 ! D100  D(23,24,25,30)       -177.6463         estimate D2E/DX2                !
 ! D101  D(28,24,25,26)       -179.3876         estimate D2E/DX2                !
 ! D102  D(28,24,25,30)          2.1946         estimate D2E/DX2                !
 ! D103  D(24,25,26,27)         -0.3366         estimate D2E/DX2                !
 ! D104  D(24,25,26,29)        179.675          estimate D2E/DX2                !
 ! D105  D(30,25,26,27)        178.097          estimate D2E/DX2                !
 ! D106  D(30,25,26,29)         -1.8915         estimate D2E/DX2                !
 ! D107  D(24,25,30,31)        -23.3992         estimate D2E/DX2                !
 ! D108  D(24,25,30,32)         95.6989         estimate D2E/DX2                !
 ! D109  D(24,25,30,33)       -146.2498         estimate D2E/DX2                !
 ! D110  D(26,25,30,31)        158.1881         estimate D2E/DX2                !
 ! D111  D(26,25,30,32)        -82.7138         estimate D2E/DX2                !
 ! D112  D(26,25,30,33)         35.3375         estimate D2E/DX2                !
 ! D113  D(25,26,27,22)         -0.137          estimate D2E/DX2                !
 ! D114  D(25,26,27,34)        179.7691         estimate D2E/DX2                !
 ! D115  D(29,26,27,22)        179.8513         estimate D2E/DX2                !
 ! D116  D(29,26,27,34)         -0.2425         estimate D2E/DX2                !
 ! D117  D(22,27,34,35)        -60.1425         estimate D2E/DX2                !
 ! D118  D(22,27,34,36)         58.1867         estimate D2E/DX2                !
 ! D119  D(22,27,34,37)        178.9255         estimate D2E/DX2                !
 ! D120  D(26,27,34,35)        119.9525         estimate D2E/DX2                !
 ! D121  D(26,27,34,36)       -121.7183         estimate D2E/DX2                !
 ! D122  D(26,27,34,37)         -0.9795         estimate D2E/DX2                !
 ! D123  D(6,45,46,52)         179.6135         estimate D2E/DX2                !
 ! D124  D(47,45,46,52)         -0.1344         estimate D2E/DX2                !
 ! D125  D(6,45,47,53)        -179.8329         estimate D2E/DX2                !
 ! D126  D(6,45,47,57)           3.0493         estimate D2E/DX2                !
 ! D127  D(46,45,47,53)         -0.0844         estimate D2E/DX2                !
 ! D128  D(46,45,47,57)       -177.2022         estimate D2E/DX2                !
 ! D129  D(45,46,52,51)       -179.9229         estimate D2E/DX2                !
 ! D130  D(45,46,52,53)          0.2991         estimate D2E/DX2                !
 ! D131  D(45,47,53,48)       -179.1592         estimate D2E/DX2                !
 ! D132  D(45,47,53,52)          0.261          estimate D2E/DX2                !
 ! D133  D(57,47,53,48)         -1.738          estimate D2E/DX2                !
 ! D134  D(57,47,53,52)        177.6822         estimate D2E/DX2                !
 ! D135  D(53,48,49,50)         -0.2845         estimate D2E/DX2                !
 ! D136  D(53,48,49,54)       -179.9354         estimate D2E/DX2                !
 ! D137  D(58,48,49,50)        178.4944         estimate D2E/DX2                !
 ! D138  D(58,48,49,54)         -1.1565         estimate D2E/DX2                !
 ! D139  D(49,48,53,47)        179.9942         estimate D2E/DX2                !
 ! D140  D(49,48,53,52)          0.6623         estimate D2E/DX2                !
 ! D141  D(58,48,53,47)          1.2099         estimate D2E/DX2                !
 ! D142  D(58,48,53,52)       -178.1221         estimate D2E/DX2                !
 ! D143  D(49,48,58,59)          2.3797         estimate D2E/DX2                !
 ! D144  D(49,48,58,60)       -176.9005         estimate D2E/DX2                !
 ! D145  D(53,48,58,59)       -178.916          estimate D2E/DX2                !
 ! D146  D(53,48,58,60)          1.8038         estimate D2E/DX2                !
 ! D147  D(48,49,50,51)         -0.0704         estimate D2E/DX2                !
 ! D148  D(48,49,50,55)       -179.9207         estimate D2E/DX2                !
 ! D149  D(54,49,50,51)        179.5777         estimate D2E/DX2                !
 ! D150  D(54,49,50,55)         -0.2725         estimate D2E/DX2                !
 ! D151  D(49,50,51,52)          0.0731         estimate D2E/DX2                !
 ! D152  D(49,50,51,56)       -179.4969         estimate D2E/DX2                !
 ! D153  D(55,50,51,52)        179.9227         estimate D2E/DX2                !
 ! D154  D(55,50,51,56)          0.3527         estimate D2E/DX2                !
 ! D155  D(50,51,52,46)       -179.4753         estimate D2E/DX2                !
 ! D156  D(50,51,52,53)          0.2838         estimate D2E/DX2                !
 ! D157  D(56,51,52,46)          0.097          estimate D2E/DX2                !
 ! D158  D(56,51,52,53)        179.8562         estimate D2E/DX2                !
 ! D159  D(46,52,53,47)         -0.3507         estimate D2E/DX2                !
 ! D160  D(46,52,53,48)        179.1263         estimate D2E/DX2                !
 ! D161  D(51,52,53,47)        179.8419         estimate D2E/DX2                !
 ! D162  D(51,52,53,48)         -0.6811         estimate D2E/DX2                !
 ! D163  D(48,58,60,61)        179.4031         estimate D2E/DX2                !
 ! D164  D(59,58,60,61)          0.1785         estimate D2E/DX2                !
 ! D165  D(58,60,61,62)         -0.6044         estimate D2E/DX2                !
 ! D166  D(58,60,61,63)        125.5769         estimate D2E/DX2                !
 ! D167  D(58,60,61,64)       -120.37           estimate D2E/DX2                !
 ! D168  D(60,61,62,65)       -178.7709         estimate D2E/DX2                !
 ! D169  D(60,61,62,66)         60.6261         estimate D2E/DX2                !
 ! D170  D(60,61,62,67)        -56.5275         estimate D2E/DX2                !
 ! D171  D(63,61,62,65)         56.155          estimate D2E/DX2                !
 ! D172  D(63,61,62,66)        -64.448          estimate D2E/DX2                !
 ! D173  D(63,61,62,67)        178.3983         estimate D2E/DX2                !
 ! D174  D(64,61,62,65)        -60.2783         estimate D2E/DX2                !
 ! D175  D(64,61,62,66)        179.1187         estimate D2E/DX2                !
 ! D176  D(64,61,62,67)         61.9651         estimate D2E/DX2                !
 ! D177  D(60,61,63,68)        174.1163         estimate D2E/DX2                !
 ! D178  D(60,61,63,69)        -65.0383         estimate D2E/DX2                !
 ! D179  D(60,61,63,70)         51.2796         estimate D2E/DX2                !
 ! D180  D(62,61,63,68)        -55.9667         estimate D2E/DX2                !
 ! D181  D(62,61,63,69)         64.8786         estimate D2E/DX2                !
 ! D182  D(62,61,63,70)       -178.8035         estimate D2E/DX2                !
 ! D183  D(64,61,63,68)         61.0344         estimate D2E/DX2                !
 ! D184  D(64,61,63,69)       -178.1203         estimate D2E/DX2                !
 ! D185  D(64,61,63,70)        -61.8024         estimate D2E/DX2                !
 ! D186  D(61,62,65,71)        -56.0339         estimate D2E/DX2                !
 ! D187  D(61,62,65,72)       -178.7565         estimate D2E/DX2                !
 ! D188  D(61,62,65,73)         64.6571         estimate D2E/DX2                !
 ! D189  D(66,62,65,71)         64.4011         estimate D2E/DX2                !
 ! D190  D(66,62,65,72)        -58.3214         estimate D2E/DX2                !
 ! D191  D(66,62,65,73)       -174.9079         estimate D2E/DX2                !
 ! D192  D(67,62,65,71)       -178.3259         estimate D2E/DX2                !
 ! D193  D(67,62,65,72)         58.9516         estimate D2E/DX2                !
 ! D194  D(67,62,65,73)        -57.6349         estimate D2E/DX2                !
 ! D195  D(61,63,68,71)         55.2927         estimate D2E/DX2                !
 ! D196  D(61,63,68,74)        178.0724         estimate D2E/DX2                !
 ! D197  D(61,63,68,75)        -65.1441         estimate D2E/DX2                !
 ! D198  D(69,63,68,71)        -64.6426         estimate D2E/DX2                !
 ! D199  D(69,63,68,74)         58.1371         estimate D2E/DX2                !
 ! D200  D(69,63,68,75)        174.9206         estimate D2E/DX2                !
 ! D201  D(70,63,68,71)        177.0826         estimate D2E/DX2                !
 ! D202  D(70,63,68,74)        -60.1377         estimate D2E/DX2                !
 ! D203  D(70,63,68,75)         56.6457         estimate D2E/DX2                !
 ! D204  D(62,65,71,68)         54.9978         estimate D2E/DX2                !
 ! D205  D(62,65,71,76)        177.4075         estimate D2E/DX2                !
 ! D206  D(62,65,71,77)        -65.4515         estimate D2E/DX2                !
 ! D207  D(72,65,71,68)        177.3473         estimate D2E/DX2                !
 ! D208  D(72,65,71,76)        -60.243          estimate D2E/DX2                !
 ! D209  D(72,65,71,77)         56.898          estimate D2E/DX2                !
 ! D210  D(73,65,71,68)        -65.7206         estimate D2E/DX2                !
 ! D211  D(73,65,71,76)         56.6891         estimate D2E/DX2                !
 ! D212  D(73,65,71,77)        173.8301         estimate D2E/DX2                !
 ! D213  D(63,68,71,65)        -54.5433         estimate D2E/DX2                !
 ! D214  D(63,68,71,76)       -176.9406         estimate D2E/DX2                !
 ! D215  D(63,68,71,77)         65.8322         estimate D2E/DX2                !
 ! D216  D(74,68,71,65)       -177.1133         estimate D2E/DX2                !
 ! D217  D(74,68,71,76)         60.4894         estimate D2E/DX2                !
 ! D218  D(74,68,71,77)        -56.7378         estimate D2E/DX2                !
 ! D219  D(75,68,71,65)         65.8746         estimate D2E/DX2                !
 ! D220  D(75,68,71,76)        -56.5227         estimate D2E/DX2                !
 ! D221  D(75,68,71,77)       -173.7499         estimate D2E/DX2                !
 --------------------------------------------------------------------------------
 Trust Radius=3.00D-01 FncErr=1.00D-07 GrdErr=1.00D-07 EigMax=2.50D+02 EigMin=1.00D-04
 Number of steps in this run=    461 maximum allowed number of steps=    462.
 GradGradGradGradGradGradGradGradGradGradGradGradGradGradGradGradGradGrad

 Leave Link  103 at Sun Dec 16 14:43:25 2018, MaxMem=  1342177280 cpu:               0.7 elap:               0.1
 (Enter /gpfs/apps/hpc/Apps/Restricted/Gaussian/Rev_A.03/g16/l202.exe)
 Symmetry turned off by external request.
 Stoichiometry    C36H33N7O(1+,2)
 Framework group  C1[X(C36H33N7O)]
 Deg. of freedom   225
 Full point group                 C1      NOp   1
                          Input orientation:                          
 ---------------------------------------------------------------------
 Center     Atomic      Atomic             Coordinates (Angstroms)
 Number     Number       Type             X           Y           Z
 ---------------------------------------------------------------------
      1          6           0        1.679093    0.392516    0.951704
      2          6           0        0.583138    1.239020    0.662460
      3          6           0        0.785084    2.617408    0.521563
      4          6           0        2.082175    3.100512    0.676029
      5          6           0        3.161904    2.249613    0.967544
      6          6           0        2.989619    0.867853    1.114017
      7          6           0       -0.190301   -0.777162    0.793914
      8          1           0       -0.041688    3.280139    0.297933
      9          1           0        2.270411    4.162112    0.568099
     10          1           0        4.153565    2.674439    1.069845
     11          6           0       -2.476903   -1.672090    0.544911
     12          6           0       -3.444403   -2.712401    0.535354
     13          6           0       -3.058054   -4.038958    0.783708
     14          6           0       -1.712933   -4.268819    1.030112
     15          6           0       -0.756916   -3.227339    1.035657
     16          6           0       -1.112074   -1.900105    0.796896
     17          6           0       -4.469938   -0.841212    0.093306
     18          1           0       -3.784443   -4.841559    0.780738
     19          1           0       -1.373544   -5.278116    1.226608
     20          1           0        0.278962   -3.474016    1.234157
     21          7           0       -0.571698    0.479469    0.571814
     22          6           0       -6.874604   -0.531138   -0.406558
     23          6           0       -5.550051    0.050128   -0.235386
     24          6           0       -5.396360    1.419798   -0.399483
     25          6           0       -6.486925    2.231631   -0.737984
     26          6           0       -7.774862    1.643283   -0.899728
     27          6           0       -7.997861    0.298611   -0.743528
     28          1           0       -4.423547    1.875690   -0.268655
     29          1           0       -8.608121    2.287418   -1.156460
     30          6           0       -6.307026    3.696629   -0.964649
     31          1           0       -5.418532    4.072108   -0.456473
     32          1           0       -6.184999    3.886168   -2.038590
     33          1           0       -7.184685    4.257440   -0.637686
     34          6           0       -9.344172   -0.333262   -0.904914
     35          1           0       -9.329156   -1.081283   -1.702661
     36          1           0       -9.638885   -0.852807    0.010969
     37          1           0      -10.092203    0.422694   -1.139948
     38          8           0       -7.079924   -1.807151   -0.259669
     39          1           0       -6.164981   -2.262578   -0.017879
     40          7           0       -3.152785   -0.516324    0.266169
     41          7           0       -4.667327   -2.159371    0.253390
     42          1           0       -2.665299    0.377074    0.215405
     43          7           0        1.157208   -0.875798    1.026136
     44          1           0        1.731256   -1.692664    1.204316
     45          6           0        4.066303   -0.058482    1.420333
     46          7           0        3.922424   -1.382233    1.461635
     47          7           0        5.354775    0.329406    1.696127
     48          6           0        7.435098   -0.982999    2.269366
     49          6           0        7.853135   -2.308182    2.437224
     50          6           0        6.968089   -3.389711    2.280750
     51          6           0        5.627296   -3.196965    1.951499
     52          6           0        5.177973   -1.881367    1.776546
     53          6           0        6.084890   -0.807952    1.930807
     54          1           0        8.888097   -2.498431    2.700623
     55          1           0        7.340823   -4.397142    2.422858
     56          1           0        4.948789   -4.034253    1.840316
     57          1           0        5.762279    1.254391    1.776811
     58          6           0        8.337090    0.151230    2.460613
     59          1           0        9.371245   -0.106199    2.704127
     60          7           0        7.922440    1.359214    2.359876
     61          6           0        8.843572    2.476804    2.568957
     62          6           0       10.295143    2.133293    2.921334
     63          6           0        8.786536    3.391781    1.334166
     64          1           0        8.421471    3.048639    3.408346
     65          6           0       11.123033    3.405197    3.137920
     66          1           0       10.734085    1.547820    2.104138
     67          1           0       10.328123    1.505600    3.817289
     68          6           0        9.617645    4.661828    1.542403
     69          1           0        9.171712    2.831995    0.472857
     70          1           0        7.742556    3.638202    1.117971
     71          6           0       11.066225    4.329340    1.916860
     72          1           0       12.159418    3.137691    3.366255
     73          1           0       10.736374    3.942052    4.013305
     74          1           0        9.589721    5.279750    0.639743
     75          1           0        9.167089    5.255978    2.347193
     76          1           0       11.626082    5.249087    2.113462
     77          1           0       11.553417    3.832807    1.068352
 ---------------------------------------------------------------------
 Rotational constants (GHZ):           0.1709926           0.0229883           0.0203326
 Leave Link  202 at Sun Dec 16 14:43:25 2018, MaxMem=  1342177280 cpu:               0.5 elap:               0.1
 (Enter /gpfs/apps/hpc/Apps/Restricted/Gaussian/Rev_A.03/g16/l716.exe)
 Electric field and nuclear coordinate derivatives read from checkpoint file.
 Dipole        =-6.14437642D+00 1.07099427D+00 2.37416405D-01
 Polarizability= 1.22008076D+03-1.85164813D+02 9.90144348D+02
                 2.09634480D+02-1.25262663D+02 3.00001809D+02
 Full mass-weighted force constant matrix:
 Low frequencies ---  -12.4172   -0.0034    0.0010    0.0033    5.6275   10.0925
 Low frequencies ---   18.2098   25.2321   31.8855
 Diagonal vibrational polarizability:
      400.2916219     132.1735441     317.4327825
 Harmonic frequencies (cm**-1), IR intensities (KM/Mole), Raman scattering
 activities (A**4/AMU), depolarization ratios for plane and unpolarized
 incident light, reduced masses (AMU), force constants (mDyne/A),
 and normal coordinates:
                      1                      2                      3
                      A                      A                      A
 Frequencies --     10.1604                24.8221                28.5043
 Red. masses --      7.0191                 5.2792                 5.8302
 Frc consts  --      0.0004                 0.0019                 0.0028
 IR Inten    --      0.8819                 1.1702                 0.1038
  Atom  AN      X      Y      Z        X      Y      Z        X      Y      Z
     1   6    -0.04   0.01   0.16    -0.01   0.07  -0.01    -0.01  -0.00   0.01
     2   6    -0.04   0.01   0.18    -0.01   0.07  -0.02    -0.02  -0.00   0.02
     3   6    -0.05   0.02   0.22    -0.01   0.07  -0.02    -0.02  -0.01  -0.01
     4   6    -0.05   0.02   0.24    -0.01   0.07  -0.02    -0.01  -0.01  -0.03
     5   6    -0.05   0.02   0.21    -0.01   0.07  -0.01    -0.01  -0.01  -0.04
     6   6    -0.04   0.02   0.17    -0.01   0.07  -0.01    -0.01  -0.00  -0.02
     7   6    -0.02   0.00   0.10    -0.01   0.07  -0.02    -0.02  -0.00   0.07
     8   1    -0.05   0.02   0.24    -0.01   0.07  -0.03    -0.02  -0.01  -0.00
     9   1    -0.06   0.03   0.27    -0.01   0.07  -0.02    -0.01  -0.01  -0.05
    10   1    -0.05   0.02   0.23    -0.01   0.07  -0.01    -0.01  -0.01  -0.07
    11   6    -0.01  -0.01  -0.01     0.00   0.03  -0.01    -0.02   0.00   0.08
    12   6    -0.00  -0.01  -0.05     0.02   0.01  -0.00    -0.03   0.01   0.11
    13   6    -0.01  -0.01  -0.05     0.05   0.02  -0.01    -0.04   0.02   0.18
    14   6    -0.01  -0.01   0.00     0.05   0.04  -0.02    -0.05   0.02   0.20
    15   6    -0.02  -0.00   0.05     0.03   0.06  -0.02    -0.04   0.01   0.16
    16   6    -0.02  -0.00   0.05     0.01   0.06  -0.02    -0.02   0.00   0.10
    17   6     0.01  -0.01  -0.06    -0.02  -0.01   0.00    -0.01   0.00   0.03
    18   1    -0.00  -0.02  -0.08     0.06   0.00  -0.01    -0.05   0.02   0.20
    19   1    -0.02  -0.01   0.01     0.08   0.05  -0.02    -0.05   0.02   0.24
    20   1    -0.03  -0.00   0.09     0.04   0.08  -0.03    -0.04   0.01   0.17
    21   7    -0.03   0.01   0.15    -0.01   0.07  -0.02    -0.02  -0.00   0.05
    22   6     0.01  -0.01  -0.09    -0.03  -0.07   0.00    -0.00  -0.00  -0.02
    23   6     0.01  -0.01  -0.07    -0.04  -0.04   0.01    -0.00  -0.00  -0.02
    24   6     0.01  -0.01  -0.06    -0.08  -0.03   0.01     0.01  -0.01  -0.06
    25   6     0.02  -0.00  -0.06    -0.10  -0.06   0.00     0.02  -0.01  -0.10
    26   6     0.02  -0.00  -0.07    -0.08  -0.09  -0.00     0.02  -0.01  -0.10
    27   6     0.01  -0.00  -0.09    -0.05  -0.10   0.00     0.01  -0.01  -0.06
    28   1     0.01  -0.01  -0.04    -0.09  -0.01   0.02     0.01  -0.01  -0.06
    29   1     0.02   0.00  -0.08    -0.10  -0.12  -0.01     0.02  -0.02  -0.13
    30   6     0.02  -0.00  -0.05    -0.13  -0.06  -0.00     0.02  -0.02  -0.13
    31   1     0.02  -0.01  -0.05    -0.16  -0.03   0.02     0.03  -0.01  -0.15
    32   1     0.02   0.00  -0.05    -0.11  -0.06   0.00     0.01  -0.04  -0.14
    33   1     0.02  -0.00  -0.05    -0.16  -0.08  -0.03     0.03  -0.01  -0.13
    34   6     0.01  -0.00  -0.09    -0.03  -0.13  -0.00     0.01  -0.01  -0.06
    35   1     0.02   0.00  -0.10    -0.01  -0.14   0.01     0.02  -0.03  -0.04
    36   1     0.01  -0.01  -0.10    -0.03  -0.13   0.00    -0.01   0.02  -0.05
    37   1     0.02   0.00  -0.09    -0.05  -0.15  -0.02     0.01  -0.01  -0.10
    38   8     0.01  -0.01  -0.10     0.00  -0.08   0.00    -0.01   0.00   0.02
    39   1     0.01  -0.01  -0.10     0.02  -0.05   0.01    -0.01   0.01   0.06
    40   7    -0.00  -0.01  -0.02    -0.03   0.02  -0.00    -0.01  -0.00   0.03
    41   7     0.01  -0.01  -0.08     0.01  -0.01   0.00    -0.02   0.01   0.08
    42   1    -0.00  -0.00   0.02    -0.05   0.03  -0.01    -0.00  -0.01   0.00
    43   7    -0.03   0.01   0.12    -0.01   0.07  -0.01    -0.01  -0.00   0.04
    44   1    -0.02   0.00   0.09    -0.00   0.08  -0.00    -0.01  -0.00   0.04
    45   6    -0.03   0.01   0.12    -0.02   0.07  -0.00     0.00  -0.00  -0.04
    46   7    -0.03   0.01   0.12    -0.04   0.07   0.02     0.01  -0.00  -0.07
    47   7    -0.01   0.01   0.06    -0.01   0.05  -0.02     0.00   0.00  -0.05
    48   6     0.02   0.00  -0.07    -0.03   0.01  -0.01     0.02   0.00  -0.13
    49   6     0.03  -0.00  -0.10    -0.06   0.00   0.00     0.04   0.00  -0.18
    50   6     0.01   0.00  -0.06    -0.08   0.02   0.03     0.05  -0.00  -0.20
    51   6    -0.00   0.01   0.02    -0.08   0.05   0.03     0.04  -0.00  -0.16
    52   6    -0.01   0.01   0.05    -0.05   0.05   0.02     0.02  -0.00  -0.11
    53   6    -0.00   0.01   0.01    -0.03   0.04  -0.01     0.02   0.00  -0.10
    54   1     0.04  -0.00  -0.17    -0.06  -0.02  -0.00     0.05   0.01  -0.20
    55   1     0.02   0.00  -0.08    -0.11   0.01   0.04     0.06  -0.00  -0.24
    56   1    -0.01   0.01   0.05    -0.10   0.06   0.05     0.04  -0.00  -0.17
    57   1    -0.01   0.01   0.04     0.00   0.05  -0.04    -0.01   0.01  -0.03
    58   6     0.03  -0.00  -0.11     0.01  -0.02  -0.02     0.01   0.00  -0.09
    59   1     0.04  -0.00  -0.16    -0.00  -0.06  -0.02     0.02   0.00  -0.12
    60   7     0.03   0.00  -0.08     0.05  -0.01  -0.02     0.00   0.01  -0.01
    61   6     0.03  -0.00  -0.10     0.09  -0.04  -0.01    -0.00  -0.00   0.04
    62   6     0.04  -0.01  -0.10     0.08  -0.10   0.01    -0.01  -0.02   0.07
    63   6     0.03  -0.01  -0.10     0.14  -0.02   0.01     0.03   0.04   0.07
    64   1     0.04   0.00  -0.10     0.11  -0.04  -0.00    -0.02  -0.03   0.05
    65   6     0.04  -0.01  -0.10     0.12  -0.13   0.04    -0.01  -0.03   0.12
    66   1     0.03  -0.01  -0.10     0.07  -0.10  -0.00     0.01   0.01   0.06
    67   1     0.04  -0.01  -0.10     0.05  -0.12  -0.01    -0.03  -0.04   0.05
    68   6     0.03  -0.01  -0.10     0.18  -0.05   0.05     0.03   0.02   0.12
    69   1     0.03  -0.01  -0.10     0.14  -0.02   0.00     0.04   0.06   0.06
    70   1     0.03  -0.01  -0.10     0.16   0.02  -0.01     0.03   0.05   0.06
    71   6     0.03  -0.01  -0.10     0.16  -0.10   0.06     0.02   0.01   0.14
    72   1     0.04  -0.01  -0.10     0.10  -0.17   0.05    -0.01  -0.04   0.13
    73   1     0.04  -0.01  -0.10     0.12  -0.14   0.05    -0.02  -0.05   0.13
    74   1     0.03  -0.01  -0.10     0.21  -0.03   0.06     0.06   0.05   0.14
    75   1     0.03  -0.01  -0.10     0.19  -0.05   0.05     0.02   0.01   0.13
    76   1     0.03  -0.01  -0.10     0.19  -0.12   0.09     0.02  -0.00   0.18
    77   1     0.03  -0.01  -0.10     0.16  -0.10   0.06     0.04   0.03   0.14
                      4                      5                      6
                      A                      A                      A
 Frequencies --     42.8287                55.3813                58.2150
 Red. masses --      5.5404                 6.0104                 5.0196
 Frc consts  --      0.0060                 0.0109                 0.0100
 IR Inten    --      0.2846                10.2173                 2.8732
  Atom  AN      X      Y      Z        X      Y      Z        X      Y      Z
     1   6    -0.05  -0.05  -0.02    -0.03   0.07  -0.02    -0.00   0.03   0.02
     2   6    -0.07  -0.08  -0.03    -0.05   0.05   0.02    -0.00   0.02  -0.02
     3   6    -0.10  -0.07  -0.05    -0.09   0.06   0.06     0.01   0.01  -0.09
     4   6    -0.11  -0.04  -0.04    -0.09   0.08   0.05     0.01   0.01  -0.12
     5   6    -0.10  -0.02  -0.03    -0.06   0.10   0.00     0.01   0.01  -0.09
     6   6    -0.06  -0.02  -0.01    -0.03   0.09  -0.03     0.00   0.02  -0.02
     7   6    -0.03  -0.09  -0.02     0.01   0.02  -0.00     0.00   0.02   0.06
     8   1    -0.11  -0.10  -0.06    -0.10   0.05   0.09     0.01   0.00  -0.13
     9   1    -0.13  -0.04  -0.06    -0.12   0.09   0.07     0.02   0.00  -0.18
    10   1    -0.11   0.01  -0.03    -0.07   0.11   0.00     0.02   0.01  -0.12
    11   6    -0.03  -0.08  -0.02     0.05  -0.04   0.02     0.02  -0.01   0.02
    12   6    -0.05  -0.06  -0.03     0.06  -0.05   0.03     0.03  -0.02  -0.01
    13   6    -0.06  -0.07  -0.03     0.08  -0.04   0.03     0.04  -0.01  -0.00
    14   6    -0.06  -0.08  -0.02     0.09  -0.02   0.00     0.03   0.01   0.05
    15   6    -0.05  -0.10  -0.02     0.08  -0.01  -0.01     0.02   0.01   0.08
    16   6    -0.03  -0.09  -0.02     0.05  -0.01   0.00     0.02   0.01   0.07
    17   6    -0.01  -0.05  -0.02     0.05  -0.06   0.03     0.03  -0.02  -0.02
    18   1    -0.07  -0.06  -0.03     0.10  -0.06   0.04     0.05  -0.02  -0.03
    19   1    -0.08  -0.09  -0.02     0.11  -0.02  -0.00     0.04   0.01   0.07
    20   1    -0.05  -0.11  -0.01     0.09   0.01  -0.02     0.02   0.03   0.12
    21   7    -0.05  -0.10  -0.03    -0.03   0.01   0.03    -0.00   0.01   0.01
    22   6    -0.01   0.03   0.01     0.06  -0.01   0.03     0.04  -0.01  -0.05
    23   6     0.01  -0.01  -0.01     0.07  -0.04   0.02     0.04  -0.01  -0.01
    24   6     0.06  -0.02  -0.00     0.12  -0.05  -0.01     0.04  -0.00   0.06
    25   6     0.08   0.02   0.03     0.15  -0.03  -0.02     0.04   0.01   0.09
    26   6     0.06   0.07   0.05     0.13   0.01  -0.00     0.05   0.01   0.04
    27   6     0.01   0.07   0.04     0.09   0.02   0.02     0.05   0.00  -0.03
    28   1     0.08  -0.05  -0.02     0.14  -0.09  -0.04     0.03  -0.01   0.10
    29   1     0.07   0.10   0.07     0.15   0.03  -0.01     0.05   0.02   0.06
    30   6     0.13   0.02   0.04     0.19  -0.03  -0.05     0.04   0.02   0.17
    31   1     0.16  -0.02   0.01     0.24  -0.07  -0.11     0.04  -0.00   0.20
    32   1     0.09   0.03   0.04     0.13  -0.05  -0.06     0.07   0.08   0.18
    33   1     0.16   0.05   0.09     0.23   0.00  -0.01     0.04   0.01   0.18
    34   6    -0.01   0.12   0.05     0.07   0.06   0.03     0.05   0.01  -0.06
    35   1    -0.05   0.14   0.02     0.04   0.05   0.03     0.05   0.04  -0.09
    36   1    -0.01   0.11   0.04     0.06   0.07   0.03     0.04  -0.02  -0.08
    37   1     0.01   0.15   0.08     0.09   0.08   0.03     0.05   0.02  -0.03
    38   8    -0.05   0.04   0.00     0.03  -0.00   0.06     0.05  -0.02  -0.11
    39   1    -0.07   0.00  -0.02     0.01  -0.02   0.05     0.04  -0.02  -0.10
    40   7    -0.01  -0.07  -0.02     0.05  -0.05   0.02     0.02  -0.01   0.02
    41   7    -0.04  -0.04  -0.03     0.05  -0.06   0.04     0.04  -0.02  -0.05
    42   1     0.01  -0.08  -0.01     0.05  -0.05   0.03     0.03  -0.01   0.03
    43   7    -0.03  -0.06  -0.01     0.02   0.05  -0.04    -0.00   0.03   0.07
    44   1    -0.02  -0.05   0.01     0.05   0.07  -0.06     0.00   0.04   0.11
    45   6    -0.04   0.01   0.00    -0.04   0.08  -0.05    -0.02   0.02   0.01
    46   7    -0.01   0.01   0.04    -0.06   0.08  -0.10    -0.06   0.02   0.11
    47   7    -0.04   0.05  -0.02    -0.04   0.05  -0.00     0.01  -0.01  -0.09
    48   6    -0.01   0.08  -0.01    -0.09  -0.01   0.04    -0.01  -0.04  -0.11
    49   6     0.01   0.09   0.01    -0.12  -0.02   0.02    -0.03  -0.04  -0.06
    50   6     0.02   0.08   0.04    -0.14  -0.00  -0.05    -0.08  -0.02   0.08
    51   6     0.01   0.05   0.06    -0.12   0.04  -0.10    -0.10  -0.00   0.15
    52   6    -0.00   0.05   0.03    -0.08   0.05  -0.08    -0.06   0.00   0.08
    53   6    -0.02   0.06  -0.00    -0.07   0.03  -0.01    -0.02  -0.02  -0.05
    54   1     0.01   0.11  -0.00    -0.14  -0.05   0.06    -0.03  -0.06  -0.10
    55   1     0.03   0.08   0.06    -0.16  -0.01  -0.06    -0.11  -0.03   0.13
    56   1     0.02   0.05   0.08    -0.13   0.05  -0.15    -0.13   0.01   0.25
    57   1    -0.07   0.06  -0.05    -0.03   0.04   0.03     0.05  -0.02  -0.14
    58   6    -0.00   0.08  -0.03    -0.07  -0.03   0.07     0.01  -0.04  -0.15
    59   1    -0.01   0.06  -0.02    -0.08  -0.04   0.08     0.01  -0.04  -0.18
    60   7     0.03   0.09  -0.05    -0.06  -0.02   0.05    -0.01  -0.04  -0.12
    61   6     0.07   0.06  -0.02    -0.04  -0.03   0.03    -0.03  -0.04  -0.06
    62   6     0.05   0.00   0.01    -0.04  -0.04   0.01    -0.03  -0.03  -0.06
    63   6     0.14   0.07  -0.01    -0.06  -0.05   0.01    -0.04   0.04  -0.01
    64   1     0.07   0.06  -0.03    -0.02  -0.02   0.02    -0.05  -0.09  -0.03
    65   6     0.09  -0.03   0.05    -0.02  -0.05  -0.04    -0.06  -0.02   0.03
    66   1     0.05   0.00   0.01    -0.07  -0.07   0.01    -0.01   0.03  -0.09
    67   1     0.01  -0.02  -0.00    -0.03  -0.03   0.02    -0.04  -0.08  -0.10
    68   6     0.17   0.04   0.03    -0.04  -0.06  -0.03    -0.07   0.04   0.09
    69   1     0.15   0.07  -0.01    -0.08  -0.07   0.01    -0.03   0.10  -0.04
    70   1     0.15   0.11  -0.04    -0.06  -0.05   0.02    -0.05   0.03   0.00
    71   6     0.15  -0.01   0.07    -0.04  -0.08  -0.06    -0.07   0.06   0.09
    72   1     0.07  -0.07   0.08    -0.02  -0.06  -0.05    -0.06  -0.01   0.02
    73   1     0.08  -0.03   0.05    -0.00  -0.03  -0.04    -0.08  -0.08   0.06
    74   1     0.22   0.06   0.04    -0.05  -0.08  -0.04    -0.07   0.10   0.13
    75   1     0.17   0.04   0.03    -0.01  -0.04  -0.03    -0.10  -0.02   0.12
    76   1     0.17  -0.03   0.11    -0.01  -0.08  -0.09    -0.10   0.06   0.16
    77   1     0.16  -0.00   0.08    -0.06  -0.11  -0.06    -0.04   0.13   0.07
                      7                      8                      9
                      A                      A                      A
 Frequencies --     62.8342                70.7651                74.4283
 Red. masses --      4.9446                 4.8961                 2.9978
 Frc consts  --      0.0115                 0.0144                 0.0098
 IR Inten    --      0.8467                 0.2833                 0.3945
  Atom  AN      X      Y      Z        X      Y      Z        X      Y      Z
     1   6     0.01   0.01   0.01    -0.01   0.01   0.02     0.00   0.01   0.01
     2   6     0.02   0.01  -0.04     0.00  -0.00  -0.05     0.00   0.01   0.01
     3   6     0.03   0.01  -0.03     0.01  -0.01  -0.11     0.01   0.01   0.00
     4   6     0.02   0.01   0.04     0.00   0.00  -0.08     0.01   0.01   0.00
     5   6     0.01   0.01   0.08    -0.01   0.01  -0.01     0.01   0.00  -0.00
     6   6     0.00   0.01   0.07    -0.01   0.02   0.04     0.01   0.00   0.00
     7   6     0.02   0.01  -0.07    -0.00   0.01   0.01     0.00   0.01   0.01
     8   1     0.04   0.01  -0.07     0.01  -0.02  -0.17     0.01   0.01   0.00
     9   1     0.02   0.01   0.05     0.00  -0.00  -0.12     0.02   0.00  -0.00
    10   1     0.00   0.01   0.13    -0.01   0.02  -0.00     0.01  -0.00  -0.00
    11   6     0.02   0.00  -0.08     0.01  -0.01  -0.07     0.01   0.00  -0.02
    12   6     0.02   0.00  -0.03     0.01  -0.01  -0.06     0.02  -0.00  -0.03
    13   6     0.02   0.01  -0.00    -0.01   0.01   0.05     0.01   0.00  -0.00
    14   6     0.02   0.01  -0.02    -0.02   0.02   0.16     0.01   0.01   0.03
    15   6     0.02   0.01  -0.05    -0.02   0.02   0.14     0.01   0.01   0.04
    16   6     0.02   0.01  -0.08    -0.00   0.00   0.02     0.01   0.01   0.01
    17   6     0.01  -0.00  -0.04     0.03  -0.03  -0.15     0.01  -0.01  -0.05
    18   1     0.02   0.01   0.03    -0.01   0.01   0.07     0.02   0.00  -0.01
    19   1     0.02   0.01  -0.01    -0.04   0.04   0.26     0.01   0.02   0.06
    20   1     0.02   0.01  -0.05    -0.03   0.03   0.23     0.00   0.02   0.07
    21   7     0.03   0.01  -0.10     0.01  -0.00  -0.06     0.00   0.01   0.01
    22   6    -0.02   0.01   0.09     0.00  -0.01  -0.05     0.01  -0.00  -0.00
    23   6     0.01  -0.01  -0.03     0.02  -0.02  -0.11     0.01  -0.01  -0.03
    24   6     0.02  -0.02  -0.13     0.01  -0.02  -0.07     0.01  -0.00  -0.02
    25   6     0.01  -0.02  -0.09    -0.02   0.00   0.04    -0.01   0.00   0.03
    26   6    -0.01  -0.00   0.04    -0.03   0.01   0.11    -0.01   0.00   0.06
    27   6    -0.02   0.01   0.12    -0.02   0.00   0.06    -0.00  -0.00   0.04
    28   1     0.05  -0.03  -0.24     0.02  -0.02  -0.11     0.01  -0.01  -0.04
    29   1    -0.02   0.00   0.07    -0.04   0.02   0.20    -0.02   0.01   0.09
    30   6     0.03  -0.04  -0.20    -0.02   0.01   0.11    -0.01   0.00   0.04
    31   1     0.06  -0.02  -0.28    -0.03  -0.01   0.13    -0.01   0.00   0.05
    32   1    -0.03  -0.11  -0.22    -0.01   0.05   0.12    -0.00   0.01   0.05
    33   1     0.06  -0.00  -0.18    -0.03  -0.01   0.12    -0.01  -0.00   0.05
    34   6    -0.04   0.02   0.22    -0.03   0.01   0.11    -0.01   0.00   0.06
    35   1    -0.09   0.00   0.23    -0.08   0.06   0.07    -0.03   0.02   0.05
    36   1    -0.00   0.05   0.24     0.03  -0.04   0.10     0.02  -0.02   0.06
    37   1    -0.04   0.03   0.23    -0.04   0.03   0.20    -0.01   0.01   0.10
    38   8    -0.03   0.02   0.17     0.01  -0.02  -0.07     0.01  -0.01  -0.02
    39   1    -0.02   0.01   0.11     0.02  -0.02  -0.10     0.01  -0.01  -0.04
    40   7     0.02  -0.01  -0.09     0.02  -0.02  -0.14     0.01  -0.00  -0.04
    41   7     0.01   0.00  -0.00     0.02  -0.02  -0.13     0.02  -0.01  -0.05
    42   1     0.01  -0.00  -0.11     0.02  -0.02  -0.14     0.01   0.00  -0.03
    43   7     0.01   0.01  -0.01    -0.01   0.02   0.06     0.00   0.01   0.01
    44   1     0.00   0.01   0.02    -0.01   0.02   0.09     0.00   0.01   0.01
    45   6    -0.01   0.00   0.08    -0.01   0.02   0.07     0.00  -0.00  -0.01
    46   7    -0.03   0.01   0.12    -0.00   0.02   0.01    -0.00  -0.00  -0.01
    47   7     0.01  -0.01   0.02    -0.02   0.03   0.11     0.00  -0.01  -0.01
    48   6     0.02  -0.03  -0.08    -0.01   0.01   0.04    -0.00  -0.00  -0.01
    49   6     0.01  -0.03  -0.09     0.01   0.00  -0.04     0.00  -0.00  -0.01
    50   6    -0.01  -0.02  -0.00     0.02   0.00  -0.11     0.00  -0.00  -0.02
    51   6    -0.03  -0.01   0.08     0.01   0.01  -0.09     0.00  -0.01  -0.02
    52   6    -0.02  -0.01   0.07     0.00   0.02  -0.00    -0.00  -0.01  -0.02
    53   6     0.00  -0.02  -0.00    -0.01   0.02   0.06     0.00  -0.01  -0.02
    54   1     0.03  -0.04  -0.15     0.01  -0.00  -0.07     0.00  -0.00  -0.01
    55   1    -0.02  -0.02  -0.01     0.03  -0.00  -0.18     0.01  -0.00  -0.02
    56   1    -0.05  -0.00   0.14     0.02   0.01  -0.14     0.01  -0.01  -0.02
    57   1     0.03  -0.02  -0.01    -0.03   0.03   0.15     0.01  -0.01  -0.01
[...]
 ! R34   R(24,25)               -0.0453                  2.9                    !
 ! R35   R(24,28)                1.0825                 70.1                    !
 ! R39   R(26,29)                0.0366                  2.4                    !
 ! A48   A(17,23,24)             0.0298                  1.9                    !
 ! A49   A(22,23,24)            -0.0277                  1.8                    !
 ! A50   A(23,24,25)             0.0571                  3.7                    !
 ! A51   A(23,24,28)            -0.0306                  2.0                    !
 ! A52   A(25,24,28)            -0.0266                  1.7                    !
 ! A53   A(24,25,26)            -0.0283                  1.8                    !
 ! A54   A(24,25,30)             0.0291                  1.9                    !
 --------------------------------------------------------------------------------
                           ----------------------------
                           ! Normal Mode   222        !
 --------------------------                            --------------------------
 ! Name  Definition              Value          Relative Weight (%)             !
 --------------------------------------------------------------------------------
 ! R19   R(12,13)                0.0464                  2.5                    !
 ! R21   R(13,14)                0.061                   3.2                    !
 ! R22   R(13,18)               -1.0292                 54.6                    !
 ! R24   R(14,19)               -0.3121                 16.6                    !
 ! R26   R(15,20)               -0.1429                  7.6                    !
 ! A25   A(11,12,13)             0.0261                  1.4                    !
 ! A27   A(13,12,41)            -0.0283                  1.5                    !
 ! A28   A(12,13,14)            -0.046                   2.4                    !
 ! A29   A(12,13,18)             0.0247                  1.3                    !
 --------------------------------------------------------------------------------
                           ----------------------------
                           ! Normal Mode   223        !
 --------------------------                            --------------------------
 ! Name  Definition              Value          Relative Weight (%)             !
 --------------------------------------------------------------------------------
 ! R18   R(11,40)               -0.0426                  2.9                    !
 ! R28   R(17,40)               -0.0502                  3.4                    !
 ! R48   R(40,42)                1.0718                 73.6                    !
 ! R49   R(43,44)                0.0186                  1.3                    !
 ! A23   A(12,11,40)            -0.0246                  1.7                    !
 ! A24   A(16,11,40)             0.025                   1.7                    !
 ! A40   A(23,17,40)             0.0243                  1.7                    !
 ! A42   A(40,17,41)            -0.0232                  1.6                    !
 ! A75   A(11,40,17)             0.0483                  3.3                    !
 ! A77   A(17,40,42)            -0.0547                  3.8                    !
 --------------------------------------------------------------------------------
                           ----------------------------
                           ! Normal Mode   224        !
 --------------------------                            --------------------------
 ! Name  Definition              Value          Relative Weight (%)             !
 --------------------------------------------------------------------------------
 ! R49   R(43,44)                0.2546                 14.8                    !
 ! R51   R(45,47)               -0.047                   2.7                    !
 ! R53   R(47,53)               -0.0422                  2.5                    !
 ! R54   R(47,57)                1.0408                 60.4                    !
 ! A83   A(6,45,47)              0.023                   1.3                    !
 ! A84   A(46,45,47)            -0.022                   1.3                    !
 ! A86   A(45,47,53)             0.0458                  2.7                    !
 ! A87   A(45,47,57)            -0.0485                  2.8                    !
 ! A104  A(47,53,48)             0.0238                  1.4                    !
 ! A105  A(47,53,52)            -0.0231                  1.3                    !
 --------------------------------------------------------------------------------
                           ----------------------------
                           ! Normal Mode   225        !
 --------------------------                            --------------------------
 ! Name  Definition              Value          Relative Weight (%)             !
 --------------------------------------------------------------------------------
 ! R3    R(1,43)                 0.0429                  2.5                    !
 ! R15   R(7,43)                 0.0467                  2.7                    !
 ! R49   R(43,44)               -1.041                  60.5                    !
 ! R54   R(47,57)                0.2547                 14.8                    !
 ! A2    A(2,1,43)               0.0229                  1.3                    !
 ! A3    A(6,1,43)              -0.0237                  1.4                    !
 ! A20   A(16,7,43)             -0.0233                  1.4                    !
 ! A21   A(21,7,43)              0.0224                  1.3                    !
 ! A79   A(1,43,7)              -0.046                   2.7                    !
 ! A81   A(7,43,44)              0.0463                  2.7                    !
 --------------------------------------------------------------------------------
 -------------------------------------------------------------------
 Center     Atomic                   Forces (Hartrees/Bohr)
 Number     Number              X              Y              Z
 -------------------------------------------------------------------
      1        6           0.000001130    0.000001146   -0.000000258
      2        6           0.000000005   -0.000000011    0.000000840
      3        6          -0.000000587    0.000001125    0.000002858
      4        6           0.000000303    0.000000608    0.000003922
      5        6           0.000000113    0.000000056    0.000003064
      6        6          -0.000000960    0.000000115    0.000000565
      7        6           0.000000022    0.000000066   -0.000002687
      8        1           0.000000456    0.000000706    0.000003731
      9        1          -0.000000022    0.000000550    0.000005619
     10        1          -0.000000192   -0.000000010    0.000003920
     11        6           0.000000913   -0.000000207   -0.000004286
     12        6           0.000000242    0.000000866   -0.000006372
     13        6          -0.000000643   -0.000000785   -0.000008102
     14        6           0.000000926    0.000000302   -0.000008185
     15        6          -0.000000019   -0.000000004   -0.000006208
     16        6          -0.000000219    0.000000210   -0.000004490
     17        6           0.000000324    0.000001060   -0.000003699
     18        1           0.000000713    0.000000710   -0.000009627
     19        1           0.000000126   -0.000000585   -0.000009551
     20        1          -0.000000044   -0.000000415   -0.000006472
     21        7           0.000000138    0.000000550   -0.000000619
     22        6           0.000000171    0.000002033   -0.000003867
     23        6           0.000000664    0.000001573   -0.000002749
     24        6           0.000000616    0.000001839   -0.000000628
     25        6           0.000000714    0.000002978    0.000000396
     26        6          -0.000000238    0.000002766   -0.000001218
     27        6           0.000000348    0.000001548   -0.000003121
     28        1          -0.000000054    0.000001497    0.000000304
     29        1           0.000000837    0.000002719   -0.000000119
     30        6           0.000000125    0.000002493    0.000002341
     31        1           0.000000413    0.000001934    0.000003488
     32        1           0.000000673    0.000004249    0.000002976
     33        1           0.000000502    0.000002005    0.000003048
     34        6           0.000000498    0.000002988   -0.000004554
     35        1           0.000000928    0.000003586   -0.000005388
     36        1           0.000000351    0.000000931   -0.000005111
     37        1           0.000000698    0.000002707   -0.000003350
     38        8           0.000000689    0.000001510   -0.000005923
     39        1           0.000000396    0.000001258   -0.000006373
     40        7           0.000000245    0.000001745   -0.000003087
     41        7           0.000000029    0.000000888   -0.000005849
     42        1           0.000000178    0.000000773   -0.000001375
     43        7          -0.000000620   -0.000000595   -0.000002141
     44        1           0.000000114   -0.000000321   -0.000003219
     45        6           0.000000652   -0.000001167   -0.000000396
     46        7          -0.000000047   -0.000000053   -0.000001881
     47        7          -0.000000789   -0.000000381    0.000000741
     48        6          -0.000000079   -0.000001764   -0.000000489
     49        6          -0.000000279   -0.000001070   -0.000002686
     50        6          -0.000000706   -0.000002176   -0.000004533
     51        6           0.000000064   -0.000000607   -0.000004523
     52        6          -0.000000066   -0.000001722   -0.000002864
     53        6           0.000000139   -0.000001351   -0.000000649
     54        1          -0.000000371   -0.000002302   -0.000002522
     55        1          -0.000000129   -0.000002079   -0.000005770
     56        1          -0.000000105   -0.000001347   -0.000005923
     57        1          -0.000000314   -0.000001164    0.000002227
     58        6          -0.000000134   -0.000003154    0.000001180
     59        1          -0.000000436   -0.000002179    0.000001209
     60        7          -0.000000560   -0.000000785    0.000002855
     61        6          -0.000000599   -0.000001743    0.000004971
     62        6          -0.000000996   -0.000003029    0.000005305
     63        6           0.000000394   -0.000000649    0.000006320
     64        1          -0.000000663   -0.000003424    0.000005605
     65        6          -0.000000807   -0.000002372    0.000007179
     66        1          -0.000000210   -0.000001479    0.000003754
     67        1          -0.000000835   -0.000003686    0.000003575
     68        6          -0.000000036   -0.000001198    0.000008262
     69        1          -0.000000037    0.000001312    0.000005690
     70        1          -0.000000509    0.000000191    0.000006269
     71        6          -0.000000547   -0.000000470    0.000008562
     72        1          -0.000000733   -0.000003172    0.000006793
     73        1          -0.000000826   -0.000004284    0.000007332
     74        1          -0.000000102    0.000001015    0.000009081
     75        1          -0.000000709   -0.000001490    0.000009514
     76        1          -0.000000560   -0.000001576    0.000009779
     77        1          -0.000000070    0.000000201    0.000007587
 -------------------------------------------------------------------
 Cartesian Forces:  Max     0.000009779 RMS     0.000003047
 FormGI is forming the generalized inverse of G from B-inverse, IUseBI=4.
 GSVD:  received Info=                   1 from GESDD.
 Leave Link  716 at Sun Dec 16 14:43:26 2018, MaxMem=  1342177280 cpu:               8.3 elap:               0.5
 (Enter /gpfs/apps/hpc/Apps/Restricted/Gaussian/Rev_A.03/g16/l9999.exe)

 ----------------------------------------------------------------------

 Electric dipole moment (input orientation):
 (Debye = 10**-18 statcoulomb cm , SI units = C m)
                  (au)            (Debye)         (10**-30 SI)
   Tot        0.624153D+01      0.158644D+02      0.529179D+02
   x         -0.614438D+01     -0.156174D+02     -0.520942D+02
   y          0.107099D+01      0.272220D+01      0.908027D+01
   z          0.237416D+00      0.603452D+00      0.201290D+01

 Dipole polarizability, Alpha (input orientation).
 (esu units = cm**3 , SI units = C**2 m**2 J**-1)
 Alpha(0;0):
               (au)            (10**-24 esu)      (10**-40 SI)
   iso        0.836742D+03      0.123992D+03      0.137960D+03
   aniso      0.984696D+03      0.145917D+03      0.162354D+03
   xx         0.122008D+04      0.180797D+03      0.201164D+03
   yx        -0.185165D+03     -0.274386D+02     -0.305296D+02
   yy         0.990144D+03      0.146724D+03      0.163253D+03
   zx         0.209634D+03      0.310646D+02      0.345641D+02
   zy        -0.125263D+03     -0.185620D+02     -0.206530D+02
   zz         0.300002D+03      0.444557D+02      0.494636D+02

 ----------------------------------------------------------------------

 Dipole orientation:
     6          2.10186721          0.92845584         -2.92794555
     6          1.68657335          2.23950949         -0.63543286
     6          1.87367847          4.87819064         -0.57428553
     6          2.47235841          6.11401873         -2.81952166
     6          2.88848942          4.78916916         -5.08311085
     6          2.71444240          2.15160975         -5.20012942
     6          1.21405670         -1.74292216          0.15908342
     1          1.55771178          5.91331619          1.16258942
     1          2.62165461          8.15613168         -2.83322174
     1          3.33387855          5.84098204         -6.78279953
     6          0.18869918         -4.00854625          4.10478269
     6         -0.27039707         -6.21310965          5.56661329
     6         -0.16783888         -8.61055661          4.43558594
     6          0.38865305         -8.69886300          1.87642110
     6          0.83920429         -6.49438344          0.43604312
     6          0.75861419         -4.08921234          1.50995462
     6         -0.64601016         -2.94940301          8.04940446
     1         -0.51132626        -10.30664524          5.52642892
     1          0.48640912        -10.51140649          0.93190129
     1          1.26260394         -6.69312989         -1.55673012
     7          1.13945711          0.51914161          1.26011142
     6         -1.78230452         -2.95745542         12.58744210
     6         -1.11891383         -1.53836176         10.32414910
     6         -0.98370401          1.07699573         10.47057112
     6         -1.50061669          2.34201874         12.73827362
     6         -2.14405151          0.91812452         14.93183080
     6         -2.29496190         -1.67008615         14.92188136
     1         -0.47805764          2.17080340          8.81806962
     1         -2.52813076          1.92784432         16.67236420
     6         -1.44919919          5.16075804         12.86235428
     1         -0.27687752          5.95862878         11.36776186
     1         -3.37346359          5.89453762         12.61960967
     1         -0.77861980          5.81456141         14.70042370
     6         -2.95844032         -3.19196472         17.20994455
     1         -4.67064108         -4.30212865         16.88211276
     1         -1.45136409         -4.53352811         17.65556910
     1         -3.25707313         -1.95775447         18.82974633
     8         -1.92720409         -5.41114384         12.56619839
     1         -1.50264090         -6.04440800         10.73382402
     7         -0.05924260         -2.00387525          5.71686594
     7         -0.77832830         -5.48231645          8.00068881
     1          0.18222611         -0.19711466          5.09603599
     7          1.78481915         -1.58495009         -2.36299212
     1          1.93712317         -2.96606572         -3.68296911
     6          3.13452797          0.68251451         -7.48145100
     7          2.78623348         -1.80569500         -7.64006334
     7          3.92855361          1.70152175         -9.73280668
     6          4.85241579         -0.25436376        -13.98720831
     6          4.80962532         -2.61344161        -15.18252580
     6          4.07488933         -4.82069103        -13.89801123
     6          3.35340595         -4.77233742        -11.36488793
     6          3.37612411         -2.43817915        -10.11498683
     6          4.10699250         -0.23838477        -11.44297837
     1          5.37099479         -2.72990511        -17.15063255
     1          4.07622493         -6.60191828        -14.90786750
     1          2.80395044         -6.48230198        -10.38214648
     1          4.41423344          3.49906081        -10.18515419
     6          5.67017286          2.04358506        -15.28365961
     1          6.17378989          1.80997048        -17.27347830
     7          5.80221364          4.16674778        -14.12782127
     6          6.65043247          6.43424831        -15.46399233
     6          7.38247550          6.13563853        -18.25042189
     6          4.62755163          8.49711509        -15.14995526
     1          8.33483792          7.08222477        -14.43299326
     6          8.28040967          8.65537181        -19.36255648
     1          5.73727526          5.46060356        -19.31557745
     1          8.86034220          4.70273465        -18.45090848
     6          5.50978695         11.01713584        -16.26928047
     1          2.90143998          7.86701487        -16.10993102
     1          4.17013840          8.69863779        -13.14346475
     6          6.28592005         10.73068619        -19.04498437
     1          8.75297004          8.40886232        -21.36088233
     1         10.02546930          9.23834751        -18.40624570
     1          4.01707658         12.43582792        -16.08184994
     1          7.13311914         11.70855415        -15.18059743
     1          7.00475025         12.52787094        -19.77412177
     1          4.61587483         10.24394706        -20.17331087

 Electric dipole moment (dipole orientation):
 (Debye = 10**-18 statcoulomb cm , SI units = C m)
                  (au)            (Debye)         (10**-30 SI)
   Tot        0.624153D+01      0.158644D+02      0.529179D+02
   x          0.000000D+00      0.000000D+00      0.000000D+00
   y          0.000000D+00      0.000000D+00      0.000000D+00
   z          0.624153D+01      0.158644D+02      0.529179D+02

 Dipole polarizability, Alpha (dipole orientation).
 (esu units = cm**3 , SI units = C**2 m**2 J**-1)
 Alpha(0;0):
               (au)            (10**-24 esu)      (10**-40 SI)
   iso        0.836742D+03      0.123992D+03      0.137960D+03
   aniso      0.984696D+03      0.145917D+03      0.162354D+03
   xx         0.305607D+03      0.452862D+02      0.503877D+02
   yx         0.170907D+02      0.253258D+01      0.281787D+01
   yy         0.947420D+03      0.140393D+03      0.156208D+03
   zx        -0.237885D+03     -0.352509D+02     -0.392219D+02
   zy         0.175379D+03      0.259885D+02      0.289161D+02
   zz         0.125720D+04      0.186298D+03      0.207284D+03

 ----------------------------------------------------------------------

 This type of calculation cannot be archived.


 ARTHROPOD AXIOM: A COMPUTER SYSTEM IS LIKE A SPIDER'S WEB.
 YOU CANNOT PULL ON ONE END WITHOUT MAKING THE OTHER END MOVE.
     -- GREG WETTSTEIN
 Job cpu time:       0 days  0 hours  0 minutes 25.5 seconds.
 Elapsed time:       0 days  0 hours  0 minutes  1.8 seconds.
 File lengths (MBytes):  RWF=     72 Int=      0 D2E=      0 Chk=    104 Scr=      8
 Normal termination of Gaussian 16 at Sun Dec 16 14:43:26 2018.
