 Entering Gaussian System, Link 0=g16
 Input=cyclohexyl-triBIP-neutral.com
 Output=cyclohexyl-triBIP-neutral.log
 Initial command:
 /gpfs/apps/hpc/Apps/Restricted/Gaussian/Rev_A.03/g16/l1.exe "/gpfs/scratch60/fas/hammes_schiffer/jg2487/c43n04/Gau-87219.inp" -scrdir="/gpfs/scratch60/fas/hammes_schiffer/jg2487/c43n04/"
 Entering Link 1 = /gpfs/apps/hpc/Apps/Restricted/Gaussian/Rev_A.03/g16/l1.exe PID=     87220.
  
 Copyright (c) 1988,1990,1992,1993,1995,1998,2003,2009,2016,
            Gaussian, Inc.  All Rights Reserved.
  
 This is part of the Gaussian(R) 16 program.  It is based on
 the Gaussian(R) 09 system (copyright 2009, Gaussian, Inc.),
 the Gaussian(R) 03 system (copyright 2003, Gaussian, Inc.),
 the Gaussian(R) 98 system (copyright 1998, Gaussian, Inc.),
 the Gaussian(R) 94 system (copyright 1995, Gaussian, Inc.),
 the Gaussian 92(TM) system (copyright 1992, Gaussian, Inc.),
 the Gaussian 90(TM) system (copyright 1990, Gaussian, Inc.),
 the Gaussian 88(TM) system (copyright 1988, Gaussian, Inc.),
 the Gaussian 86(TM) system (copyright 1986, Carnegie Mellon
 University), and the Gaussian 82(TM) system (copyright 1983,
 Carnegie Mellon University). Gaussian is a federally registered
 trademark of Gaussian, Inc.
  
 This software contains proprietary and confidential information,
 including trade secrets, belonging to Gaussian, Inc.
  
 This software is provided under written license and may be
 used, copied, transmitted, or stored only in accord with that
 written license.
  
 The following legend is applicable only to US Government
 contracts under FAR:
  
                    RESTRICTED RIGHTS LEGEND
  
 Use, reproduction and disclosure by the US Government is
 subject to restrictions as set forth in subparagraphs (a)
 and (c) of the Commercial Computer Software - Restricted
 Rights clause in FAR 52.227-19.
  
 Gaussian, Inc.
 340 Quinnipiac St., Bldg. 40, Wallingford CT 06492
  
  
 ---------------------------------------------------------------
 Warning -- This program may not be used in any manner that
 competes with the business of Gaussian, Inc. or will provide
 assistance to any competitor of Gaussian, Inc.  The licensee
 of this program is prohibited from giving any competitor of
 Gaussian, Inc. access to this program.  By using this program,
 the user acknowledges that Gaussian, Inc. is engaged in the
 business of creating and licensing software in the field of
 computational chemistry and represents and warrants to the
 licensee that it is not a competitor of Gaussian, Inc. and that
 it will not use this program in any manner prohibited above.
 ---------------------------------------------------------------
  

 Cite this work as:
 Gaussian 16, Revision A.03,
 M. J. Frisch, G. W. Trucks, H. B. Schlegel, G. E. Scuseria, 
 M. A. Robb, J. R. Cheeseman, G. Scalmani, V. Barone, 
 G. A. Petersson, H. Nakatsuji, X. Li, M. Caricato, A. V. Marenich, 
 J. Bloino, B. G. Janesko, R. Gomperts, B. Mennucci, H. P. Hratchian, 
 J. V. Ortiz, A. F. Izmaylov, J. L. Sonnenberg, D. Williams-Young, 
 F. Ding, F. Lipparini, F. Egidi, J. Goings, B. Peng, A. Petrone, 
 T. Henderson, D. Ranasinghe, V. G. Zakrzewski, J. Gao, N. Rega, 
 G. Zheng, W. Liang, M. Hada, M. Ehara, K. Toyota, R. Fukuda, 
 J. Hasegawa, M. Ishida, T. Nakajima, Y. Honda, O. Kitao, H. Nakai, 
 T. Vreven, K. Throssell, J. A. Montgomery, Jr., J. E. Peralta, 
 F. Ogliaro, M. J. Bearpark, J. J. Heyd, E. N. Brothers, K. N. Kudin, 
 V. N. Staroverov, T. A. Keith, R. Kobayashi, J. Normand, 
 K. Raghavachari, A. P. Rendell, J. C. Burant, S. S. Iyengar, 
 J. Tomasi, M. Cossi, J. M. Millam, M. Klene, C. Adamo, R. Cammi, 
 J. W. Ochterski, R. L. Martin, K. Morokuma, O. Farkas, 
 J. B. Foresman, and D. J. Fox, Gaussian, Inc., Wallingford CT, 2016.
 
 ******************************************
 Gaussian 16:  ES64L-G16RevA.03 25-Dec-2016
                16-Dec-2018 
 ******************************************
 %chk=cyclohexyl-triBIP-neutral.chk
 %mem=10GB
 %nprocshared=16
 Will use up to   16 processors via shared memory.
 ----------------------------------------------------------------
 #p freq(ReadFC,InternalModes) Geom(AllCheck) NoSymm scale=0.9649
 ----------------------------------------------------------------
 1/18=20,29=7,38=1,114=964900/1,3;
 2/9=110,12=2,15=1,40=1/2;
 7/8=21,25=11,30=1/16;
 99/5=2/99;
 Leave Link    1 at Sun Dec 16 14:43:07 2018, MaxMem=  1342177280 cpu:               7.4 elap:               0.5
 (Enter /gpfs/apps/hpc/Apps/Restricted/Gaussian/Rev_A.03/g16/l101.exe)
 Structure from the checkpoint file:  "cyclohexyl-triBIP-neutral.chk"
 -------------------------------------------
 cyclohexylimine triBIP neutral optimization
 -------------------------------------------
 Charge =  0 Multiplicity = 1
 Redundant internal coordinates found in file.  (old form).
 C,0,1.6684334658,0.3951627553,0.9128033675
 C,0,0.57132407,1.2395785751,0.619985215
 C,0,0.7740808788,2.6169117315,0.4775030116
 C,0,2.0714699921,3.1029062257,0.6333808144
 C,0,3.1506968394,2.2547948159,0.9289505743
 C,0,2.9776730551,0.8721394396,1.0777562106
 C,0,-0.2047032454,-0.776218495,0.7571417947
 H,0,-0.0528217793,3.279200957,0.2523629341
 H,0,2.2577182182,4.1648168445,0.5237669345
 H,0,4.1418767721,2.6803418513,1.0336680825
 C,0,-2.4828234956,-1.7079760928,0.530667455
 C,0,-3.4231427889,-2.7637763619,0.5326329982
 C,0,-3.0033108263,-4.0745461647,0.7774565035
 C,0,-1.6452644067,-4.2857663942,1.0137314887
 C,0,-0.7190065018,-3.2318112219,1.0088981901
 C,0,-1.1148615962,-1.9083983538,0.7683921793
 C,0,-4.515495495,-0.9318281484,0.0945067445
 H,0,-3.7123725081,-4.8936015998,0.7825250256
 H,0,-1.2889372394,-5.2902861353,1.2079067363
 H,0,0.325009038,-3.450329163,1.1974389201
 N,0,-0.5845375879,0.479857245,0.5303269696
 C,0,-6.906752144,-0.5429390044,-0.3879691555
 C,0,-5.6000811975,-0.0234340862,-0.2307157089
 C,0,-5.3814552982,1.3566861046,-0.396455646
 C,0,-6.4192987667,2.2210495396,-0.7191367186
 C,0,-7.7075045256,1.6765378006,-0.8661339342
 C,0,-7.9718977148,0.3203326522,-0.7102450602
 H,0,-4.3777314839,1.7506276662,-0.273546815
 H,0,-8.5341046787,2.3371366399,-1.1119188372
 C,0,-6.1759737812,3.693324704,-0.9355726717
 H,0,-5.260482132,4.0163507558,-0.4355399585
 H,0,-6.070495129,3.9250960087,-2.0010404855
 H,0,-7.0066332169,4.2927835495,-0.5548020546
 C,0,-9.3541948791,-0.2481141892,-0.8715526445
 H,0,-9.3916193473,-0.9726556643,-1.6912373691
 H,0,-9.6689365371,-0.7815627634,0.0303126127
 H,0,-10.0745744444,0.5448631271,-1.0761997936
 O,0,-7.1890954326,-1.8551103669,-0.2397844996
 H,0,-6.334528046,-2.3244009079,-0.0180273894
 N,0,-3.2018781324,-0.5687015678,0.2539311143
 N,0,-4.6787984926,-2.2466237596,0.2601560296
 H,0,-2.7685673508,0.3456611682,0.1908396416
 N,0,1.1460524709,-0.8720026706,0.9906941311
 H,0,1.7196138691,-1.687688818,1.1714613908
 C,0,4.0535394005,-0.051884663,1.394055471
 N,0,3.9126239759,-1.3758158506,1.4384933194
 N,0,5.3393186969,0.3391446026,1.6825939464
 C,0,7.4147786907,-0.9695322367,2.2867652404
 C,0,7.8319500647,-2.2941388322,2.4644202023
 C,0,6.9504964744,-3.3768489865,2.3001441655
 C,0,5.6135269369,-3.1856747932,1.9538416861
 C,0,5.1651896115,-1.8712862786,1.7695796904
 C,0,6.068770043,-0.7958974801,1.9311679397
 H,0,8.863718871,-2.4822892081,2.7416631566
 H,0,7.3219340586,-4.3836236929,2.4504482557
 H,0,4.936590802,-4.0234690884,1.8371998979
 H,0,5.7418040744,1.2658712125,1.7634963218
 C,0,8.3163852028,0.1638294901,2.4824044709
 H,0,9.3471305535,-0.0950469003,2.7390168981
 N,0,7.9071176171,1.3724589806,2.3687153218
 C,0,8.830537706,2.4880734851,2.577196384
 C,0,10.2811408833,2.1418394431,2.9314631289
 C,0,8.7771152741,3.4001275291,1.3401160836
 H,0,8.4090485678,3.0630034229,3.4148123541
 C,0,11.1122522067,3.4120827547,3.1452126364
 H,0,10.7186044367,1.5527323611,2.1160029024
 H,0,10.3123511861,1.5165228214,3.8291318669
 C,0,9.6111162088,4.6686238493,1.5457275979
 H,0,9.1617831493,2.8373311912,0.4805291586
 H,0,7.7339504699,3.6483770582,1.1223052325
 C,0,11.0586437061,4.3332128541,1.921738868
 H,0,12.1478202858,3.1425842953,3.3750921433
 H,0,10.7261784816,3.9521167002,4.0188944432
 H,0,9.5852924873,5.2844065314,0.6415097876
 H,0,9.1615777394,5.2658451057,2.3488258254
 H,0,11.6211931303,5.2518634207,2.1159609879
 H,0,11.5446135386,3.8328606734,1.0747202873
 Recover connectivity data from disk.
 ITRead=  0  0  0  0  0  0  0  0  0  0  0  0  0  0  0  0  0  0  0  0
 ITRead=  0  0  0  0  0  0  0  0  0  0  0  0  0  0  0  0  0  0  0  0
 ITRead=  0  0  0  0  0  0  0  0  0  0  0  0  0  0  0  0  0  0  0  0
 ITRead=  0  0  0  0  0  0  0  0  0  0  0  0  0  0  0  0  0
 MicOpt= -1 -1 -1 -1 -1 -1 -1 -1 -1 -1 -1 -1 -1 -1 -1 -1 -1 -1 -1 -1
 MicOpt= -1 -1 -1 -1 -1 -1 -1 -1 -1 -1 -1 -1 -1 -1 -1 -1 -1 -1 -1 -1
 MicOpt= -1 -1 -1 -1 -1 -1 -1 -1 -1 -1 -1 -1 -1 -1 -1 -1 -1 -1 -1 -1
 MicOpt= -1 -1 -1 -1 -1 -1 -1 -1 -1 -1 -1 -1 -1 -1 -1 -1 -1
 NAtoms=     77 NQM=       77 NQMF=       0 NMMI=      0 NMMIF=      0
                NMic=       0 NMicF=      0.
                    Isotopes and Nuclear Properties:
 (Nuclear quadrupole moments (NQMom) in fm**2, nuclear magnetic moments (NMagM)
  in nuclear magnetons)

  Atom         1           2           3           4           5           6           7           8           9          10
 IAtWgt=          12          12          12          12          12          12          12           1           1           1
 AtmWgt=  12.0000000  12.0000000  12.0000000  12.0000000  12.0000000  12.0000000  12.0000000   1.0078250   1.0078250   1.0078250
 NucSpn=           0           0           0           0           0           0           0           1           1           1
 AtZEff=   3.6000000   3.6000000   3.6000000   3.6000000   3.6000000   3.6000000   3.6000000   1.0000000   1.0000000   1.0000000
 NQMom=    0.0000000   0.0000000   0.0000000   0.0000000   0.0000000   0.0000000   0.0000000   0.0000000   0.0000000   0.0000000
 NMagM=    0.0000000   0.0000000   0.0000000   0.0000000   0.0000000   0.0000000   0.0000000   2.7928460   2.7928460   2.7928460
 AtZNuc=   6.0000000   6.0000000   6.0000000   6.0000000   6.0000000   6.0000000   6.0000000   1.0000000   1.0000000   1.0000000

  Atom        11          12          13          14          15          16          17          18          19          20
 IAtWgt=          12          12          12          12          12          12          12           1           1           1
 AtmWgt=  12.0000000  12.0000000  12.0000000  12.0000000  12.0000000  12.0000000  12.0000000   1.0078250   1.0078250   1.0078250
 NucSpn=           0           0           0           0           0           0           0           1           1           1
 AtZEff=   3.6000000   3.6000000   3.6000000   3.6000000   3.6000000   3.6000000   3.6000000   1.0000000   1.0000000   1.0000000
 NQMom=    0.0000000   0.0000000   0.0000000   0.0000000   0.0000000   0.0000000   0.0000000   0.0000000   0.0000000   0.0000000
 NMagM=    0.0000000   0.0000000   0.0000000   0.0000000   0.0000000   0.0000000   0.0000000   2.7928460   2.7928460   2.7928460
 AtZNuc=   6.0000000   6.0000000   6.0000000   6.0000000   6.0000000   6.0000000   6.0000000   1.0000000   1.0000000   1.0000000

  Atom        21          22          23          24          25          26          27          28          29          30
 IAtWgt=          14          12          12          12          12          12          12           1           1          12
 AtmWgt=  14.0030740  12.0000000  12.0000000  12.0000000  12.0000000  12.0000000  12.0000000   1.0078250   1.0078250  12.0000000
 NucSpn=           2           0           0           0           0           0           0           1           1           0
 AtZEff=   4.5500000   3.6000000   3.6000000   3.6000000   3.6000000   3.6000000   3.6000000   1.0000000   1.0000000   3.6000000
 NQMom=    2.0440000   0.0000000   0.0000000   0.0000000   0.0000000   0.0000000   0.0000000   0.0000000   0.0000000   0.0000000
 NMagM=    0.4037610   0.0000000   0.0000000   0.0000000   0.0000000   0.0000000   0.0000000   2.7928460   2.7928460   0.0000000
 AtZNuc=   7.0000000   6.0000000   6.0000000   6.0000000   6.0000000   6.0000000   6.0000000   1.0000000   1.0000000   6.0000000

  Atom        31          32          33          34          35          36          37          38          39          40
 IAtWgt=           1           1           1          12           1           1           1          16           1          14
 AtmWgt=   1.0078250   1.0078250   1.0078250  12.0000000   1.0078250   1.0078250   1.0078250  15.9949146   1.0078250  14.0030740
 NucSpn=           1           1           1           0           1           1           1           0           1           2
 AtZEff=   1.0000000   1.0000000   1.0000000   3.6000000   1.0000000   1.0000000   1.0000000   5.6000000   1.0000000   4.5500000
 NQMom=    0.0000000   0.0000000   0.0000000   0.0000000   0.0000000   0.0000000   0.0000000   0.0000000   0.0000000   2.0440000
 NMagM=    2.7928460   2.7928460   2.7928460   0.0000000   2.7928460   2.7928460   2.7928460   0.0000000   2.7928460   0.4037610
 AtZNuc=   1.0000000   1.0000000   1.0000000   6.0000000   1.0000000   1.0000000   1.0000000   8.0000000   1.0000000   7.0000000

  Atom        41          42          43          44          45          46          47          48          49          50
 IAtWgt=          14           1          14           1          12          14          14          12          12          12
 AtmWgt=  14.0030740   1.0078250  14.0030740   1.0078250  12.0000000  14.0030740  14.0030740  12.0000000  12.0000000  12.0000000
 NucSpn=           2           1           2           1           0           2           2           0           0           0
 AtZEff=   4.5500000   1.0000000   4.5500000   1.0000000   3.6000000   4.5500000   4.5500000   3.6000000   3.6000000   3.6000000
 NQMom=    2.0440000   0.0000000   2.0440000   0.0000000   0.0000000   2.0440000   2.0440000   0.0000000   0.0000000   0.0000000
 NMagM=    0.4037610   2.7928460   0.4037610   2.7928460   0.0000000   0.4037610   0.4037610   0.0000000   0.0000000   0.0000000
 AtZNuc=   7.0000000   1.0000000   7.0000000   1.0000000   6.0000000   7.0000000   7.0000000   6.0000000   6.0000000   6.0000000

  Atom        51          52          53          54          55          56          57          58          59          60
 IAtWgt=          12          12          12           1           1           1           1          12           1          14
 AtmWgt=  12.0000000  12.0000000  12.0000000   1.0078250   1.0078250   1.0078250   1.0078250  12.0000000   1.0078250  14.0030740
 NucSpn=           0           0           0           1           1           1           1           0           1           2
 AtZEff=   3.6000000   3.6000000   3.6000000   1.0000000   1.0000000   1.0000000   1.0000000   3.6000000   1.0000000   4.5500000
 NQMom=    0.0000000   0.0000000   0.0000000   0.0000000   0.0000000   0.0000000   0.0000000   0.0000000   0.0000000   2.0440000
 NMagM=    0.0000000   0.0000000   0.0000000   2.7928460   2.7928460   2.7928460   2.7928460   0.0000000   2.7928460   0.4037610
 AtZNuc=   6.0000000   6.0000000   6.0000000   1.0000000   1.0000000   1.0000000   1.0000000   6.0000000   1.0000000   7.0000000

  Atom        61          62          63          64          65          66          67          68          69          70
 IAtWgt=          12          12          12           1          12           1           1          12           1           1
 AtmWgt=  12.0000000  12.0000000  12.0000000   1.0078250  12.0000000   1.0078250   1.0078250  12.0000000   1.0078250   1.0078250
 NucSpn=           0           0           0           1           0           1           1           0           1           1
 AtZEff=   3.6000000   3.6000000   3.6000000   1.0000000   3.6000000   1.0000000   1.0000000   3.6000000   1.0000000   1.0000000
 NQMom=    0.0000000   0.0000000   0.0000000   0.0000000   0.0000000   0.0000000   0.0000000   0.0000000   0.0000000   0.0000000
 NMagM=    0.0000000   0.0000000   0.0000000   2.7928460   0.0000000   2.7928460   2.7928460   0.0000000   2.7928460   2.7928460
 AtZNuc=   6.0000000   6.0000000   6.0000000   1.0000000   6.0000000   1.0000000   1.0000000   6.0000000   1.0000000   1.0000000

  Atom        71          72          73          74          75          76          77
 IAtWgt=          12           1           1           1           1           1           1
 AtmWgt=  12.0000000   1.0078250   1.0078250   1.0078250   1.0078250   1.0078250   1.0078250
 NucSpn=           0           1           1           1           1           1           1
 AtZEff=   3.6000000   1.0000000   1.0000000   1.0000000   1.0000000   1.0000000   1.0000000
 NQMom=    0.0000000   0.0000000   0.0000000   0.0000000   0.0000000   0.0000000   0.0000000
 NMagM=    0.0000000   2.7928460   2.7928460   2.7928460   2.7928460   2.7928460   2.7928460
 AtZNuc=   6.0000000   1.0000000   1.0000000   1.0000000   1.0000000   1.0000000   1.0000000
 Leave Link  101 at Sun Dec 16 14:43:07 2018, MaxMem=  1342177280 cpu:               5.7 elap:               0.4
 (Enter /gpfs/apps/hpc/Apps/Restricted/Gaussian/Rev_A.03/g16/l103.exe)

 GradGradGradGradGradGradGradGradGradGradGradGradGradGradGradGradGradGrad
 Berny optimization.
 Initialization pass.
                           ----------------------------
                           !    Initial Parameters    !
                           ! (Angstroms and Degrees)  !
 --------------------------                            --------------------------
 ! Name  Definition              Value          Derivative Info.                !
 --------------------------------------------------------------------------------
 ! R1    R(1,2)                  1.4151         estimate D2E/DX2                !
 ! R2    R(1,6)                  1.4031         estimate D2E/DX2                !
 ! R3    R(1,43)                 1.3728         estimate D2E/DX2                !
 ! R4    R(2,3)                  1.3994         estimate D2E/DX2                !
 ! R5    R(2,21)                 1.3861         estimate D2E/DX2                !
 ! R6    R(3,4)                  1.3942         estimate D2E/DX2                !
 ! R7    R(3,8)                  1.0831         estimate D2E/DX2                !
 ! R8    R(4,5)                  1.4041         estimate D2E/DX2                !
 ! R9    R(4,9)                  1.0837         estimate D2E/DX2                !
 ! R10   R(5,6)                  1.4014         estimate D2E/DX2                !
 ! R11   R(5,10)                 1.0837         estimate D2E/DX2                !
 ! R12   R(6,45)                 1.453          estimate D2E/DX2                !
 ! R13   R(7,16)                 1.4527         estimate D2E/DX2                !
 ! R14   R(7,21)                 1.3317         estimate D2E/DX2                !
 ! R15   R(7,43)                 1.3741         estimate D2E/DX2                !
 ! R16   R(11,12)                1.4138         estimate D2E/DX2                !
 ! R17   R(11,16)                1.4029         estimate D2E/DX2                !
 ! R18   R(11,40)                1.3753         estimate D2E/DX2                !
 ! R19   R(12,13)                1.398          estimate D2E/DX2                !
 ! R20   R(12,41)                1.385          estimate D2E/DX2                !
 ! R21   R(13,14)                1.3945         estimate D2E/DX2                !
 ! R22   R(13,18)                1.0833         estimate D2E/DX2                !
 ! R23   R(14,15)                1.4031         estimate D2E/DX2                !
 ! R24   R(14,19)                1.0834         estimate D2E/DX2                !
 ! R25   R(15,16)                1.4021         estimate D2E/DX2                !
 ! R26   R(15,20)                1.0832         estimate D2E/DX2                !
 ! R27   R(17,23)                1.4516         estimate D2E/DX2                !
 ! R28   R(17,40)                1.3722         estimate D2E/DX2                !
 ! R29   R(17,41)                1.3352         estimate D2E/DX2                !
 ! R30   R(22,23)                1.4149         estimate D2E/DX2                !
 ! R31   R(22,27)                1.4084         estimate D2E/DX2                !
 ! R32   R(22,38)                1.3504         estimate D2E/DX2                !
 ! R33   R(23,24)                1.4071         estimate D2E/DX2                !
 ! R34   R(24,25)                1.3887         estimate D2E/DX2                !
 ! R35   R(24,28)                1.0852         estimate D2E/DX2                !
 ! R36   R(25,26)                1.4063         estimate D2E/DX2                !
 ! R37   R(25,30)                1.5079         estimate D2E/DX2                !
 ! R38   R(26,27)                1.3905         estimate D2E/DX2                !
 ! R39   R(26,29)                1.0863         estimate D2E/DX2                !
 ! R40   R(27,34)                1.5033         estimate D2E/DX2                !
 ! R41   R(30,31)                1.092          estimate D2E/DX2                !
 ! R42   R(30,32)                1.0955         estimate D2E/DX2                !
 ! R43   R(30,33)                1.0929         estimate D2E/DX2                !
 ! R44   R(34,35)                1.0946         estimate D2E/DX2                !
 ! R45   R(34,36)                1.0941         estimate D2E/DX2                !
 ! R46   R(34,37)                1.0907         estimate D2E/DX2                !
 ! R47   R(38,39)                0.9998         estimate D2E/DX2                !
 ! R48   R(40,42)                1.0138         estimate D2E/DX2                !
 ! R49   R(43,44)                1.0134         estimate D2E/DX2                !
 ! R50   R(45,46)                1.3322         estimate D2E/DX2                !
 ! R51   R(45,47)                1.3745         estimate D2E/DX2                !
 ! R52   R(46,52)                1.3871         estimate D2E/DX2                !
 ! R53   R(47,53)                1.3719         estimate D2E/DX2                !
 ! R54   R(47,57)                1.0136         estimate D2E/DX2                !
 ! R55   R(48,49)                1.4001         estimate D2E/DX2                !
 ! R56   R(48,53)                1.403          estimate D2E/DX2                !
 ! R57   R(48,58)                1.4614         estimate D2E/DX2                !
 ! R58   R(49,50)                1.4058         estimate D2E/DX2                !
 ! R59   R(49,54)                1.0848         estimate D2E/DX2                !
 ! R60   R(50,51)                1.3943         estimate D2E/DX2                !
 ! R61   R(50,55)                1.0836         estimate D2E/DX2                !
 ! R62   R(51,52)                1.4009         estimate D2E/DX2                !
 ! R63   R(51,56)                1.0834         estimate D2E/DX2                !
 ! R64   R(52,53)                1.4139         estimate D2E/DX2                !
 ! R65   R(58,59)                1.0933         estimate D2E/DX2                !
 ! R66   R(58,60)                1.2811         estimate D2E/DX2                !
 ! R67   R(60,61)                1.4631         estimate D2E/DX2                !
 ! R68   R(61,62)                1.5329         estimate D2E/DX2                !
 ! R69   R(61,63)                1.5379         estimate D2E/DX2                !
 ! R70   R(61,64)                1.0999         estimate D2E/DX2                !
 ! R71   R(62,65)                1.533          estimate D2E/DX2                !
 ! R72   R(62,66)                1.097          estimate D2E/DX2                !
 ! R73   R(62,67)                1.0944         estimate D2E/DX2                !
 ! R74   R(63,68)                1.532          estimate D2E/DX2                !
 ! R75   R(63,69)                1.0971         estimate D2E/DX2                !
 ! R76   R(63,70)                1.0942         estimate D2E/DX2                !
 ! R77   R(65,71)                1.5324         estimate D2E/DX2                !
 ! R78   R(65,72)                1.0945         estimate D2E/DX2                !
 ! R79   R(65,73)                1.0973         estimate D2E/DX2                !
 ! R80   R(68,71)                1.5327         estimate D2E/DX2                !
 ! R81   R(68,74)                1.0943         estimate D2E/DX2                !
 ! R82   R(68,75)                1.0971         estimate D2E/DX2                !
 ! R83   R(71,76)                1.0946         estimate D2E/DX2                !
 ! R84   R(71,77)                1.0973         estimate D2E/DX2                !
 ! A1    A(2,1,6)              123.0173         estimate D2E/DX2                !
 ! A2    A(2,1,43)             105.5172         estimate D2E/DX2                !
 ! A3    A(6,1,43)             131.4638         estimate D2E/DX2                !
 ! A4    A(1,2,3)              119.7383         estimate D2E/DX2                !
 ! A5    A(1,2,21)             109.4414         estimate D2E/DX2                !
 ! A6    A(3,2,21)             130.8194         estimate D2E/DX2                !
 ! A7    A(2,3,4)              117.8089         estimate D2E/DX2                !
 ! A8    A(2,3,8)              120.8217         estimate D2E/DX2                !
 ! A9    A(4,3,8)              121.3693         estimate D2E/DX2                !
 ! A10   A(3,4,5)              121.8881         estimate D2E/DX2                !
 ! A11   A(3,4,9)              119.3548         estimate D2E/DX2                !
 ! A12   A(5,4,9)              118.7571         estimate D2E/DX2                !
 ! A13   A(4,5,6)              121.5625         estimate D2E/DX2                !
 ! A14   A(4,5,10)             119.088          estimate D2E/DX2                !
 ! A15   A(6,5,10)             119.3462         estimate D2E/DX2                !
 ! A16   A(1,6,5)              115.9838         estimate D2E/DX2                !
 ! A17   A(1,6,45)             120.0189         estimate D2E/DX2                !
 ! A18   A(5,6,45)             123.9955         estimate D2E/DX2                !
 ! A19   A(16,7,21)            123.8981         estimate D2E/DX2                !
 ! A20   A(16,7,43)            124.0713         estimate D2E/DX2                !
 ! A21   A(21,7,43)            112.0282         estimate D2E/DX2                !
 ! A22   A(12,11,16)           122.7939         estimate D2E/DX2                !
 ! A23   A(12,11,40)           105.7326         estimate D2E/DX2                !
 ! A24   A(16,11,40)           131.4722         estimate D2E/DX2                !
 ! A25   A(11,12,13)           120.0459         estimate D2E/DX2                !
 ! A26   A(11,12,41)           108.8959         estimate D2E/DX2                !
 ! A27   A(13,12,41)           131.0566         estimate D2E/DX2                !
 ! A28   A(12,13,14)           117.6549         estimate D2E/DX2                !
 ! A29   A(12,13,18)           120.8733         estimate D2E/DX2                !
 ! A30   A(14,13,18)           121.4718         estimate D2E/DX2                !
 ! A31   A(13,14,15)           121.9046         estimate D2E/DX2                !
 ! A32   A(13,14,19)           119.4127         estimate D2E/DX2                !
 ! A33   A(15,14,19)           118.6827         estimate D2E/DX2                !
 ! A34   A(14,15,16)           121.5465         estimate D2E/DX2                !
 ! A35   A(14,15,20)           118.9558         estimate D2E/DX2                !
 ! A36   A(16,15,20)           119.4976         estimate D2E/DX2                !
 ! A37   A(7,16,11)            119.8867         estimate D2E/DX2                !
 ! A38   A(7,16,15)            124.0594         estimate D2E/DX2                !
 ! A39   A(11,16,15)           116.0539         estimate D2E/DX2                !
 ! A40   A(23,17,40)           125.1477         estimate D2E/DX2                !
 ! A41   A(23,17,41)           123.5466         estimate D2E/DX2                !
 ! A42   A(40,17,41)           111.3005         estimate D2E/DX2                !
 ! A43   A(2,21,7)             105.5519         estimate D2E/DX2                !
 ! A44   A(23,22,27)           119.9204         estimate D2E/DX2                !
 ! A45   A(23,22,38)           122.5254         estimate D2E/DX2                !
 ! A46   A(27,22,38)           117.5542         estimate D2E/DX2                !
 ! A47   A(17,23,22)           119.0205         estimate D2E/DX2                !
 ! A48   A(17,23,24)           121.6052         estimate D2E/DX2                !
 ! A49   A(22,23,24)           119.374          estimate D2E/DX2                !
 ! A50   A(23,24,25)           121.4498         estimate D2E/DX2                !
 ! A51   A(23,24,28)           119.1037         estimate D2E/DX2                !
 ! A52   A(25,24,28)           119.4459         estimate D2E/DX2                !
 ! A53   A(24,25,26)           117.8984         estimate D2E/DX2                !
 ! A54   A(24,25,30)           121.3662         estimate D2E/DX2                !
 ! A55   A(26,25,30)           120.7229         estimate D2E/DX2                !
 ! A56   A(25,26,27)           122.6915         estimate D2E/DX2                !
 ! A57   A(25,26,29)           119.0276         estimate D2E/DX2                !
 ! A58   A(27,26,29)           118.2809         estimate D2E/DX2                !
 ! A59   A(22,27,26)           118.6641         estimate D2E/DX2                !
 ! A60   A(22,27,34)           119.2211         estimate D2E/DX2                !
 ! A61   A(26,27,34)           122.1146         estimate D2E/DX2                !
 ! A62   A(25,30,31)           111.001          estimate D2E/DX2                !
 ! A63   A(25,30,32)           111.206          estimate D2E/DX2                !
 ! A64   A(25,30,33)           111.2792         estimate D2E/DX2                !
 ! A65   A(31,30,32)           107.5808         estimate D2E/DX2                !
 ! A66   A(31,30,33)           108.3859         estimate D2E/DX2                !
 ! A67   A(32,30,33)           107.2179         estimate D2E/DX2                !
 ! A68   A(27,34,35)           111.2275         estimate D2E/DX2                !
 ! A69   A(27,34,36)           111.1274         estimate D2E/DX2                !
 ! A70   A(27,34,37)           110.642          estimate D2E/DX2                !
 ! A71   A(35,34,36)           106.5409         estimate D2E/DX2                !
 ! A72   A(35,34,37)           108.5505         estimate D2E/DX2                !
 ! A73   A(36,34,37)           108.6115         estimate D2E/DX2                !
 ! A74   A(22,38,39)           107.561          estimate D2E/DX2                !
 ! A75   A(11,40,17)           107.7384         estimate D2E/DX2                !
 ! A76   A(11,40,42)           122.4232         estimate D2E/DX2                !
 ! A77   A(17,40,42)           129.838          estimate D2E/DX2                !
 ! A78   A(12,41,17)           106.3318         estimate D2E/DX2                !
 ! A79   A(1,43,7)             107.461          estimate D2E/DX2                !
 ! A80   A(1,43,44)            122.5275         estimate D2E/DX2                !
 ! A81   A(7,43,44)            129.9982         estimate D2E/DX2                !
 ! A82   A(6,45,46)            124.1206         estimate D2E/DX2                !
 ! A83   A(6,45,47)            123.8755         estimate D2E/DX2                !
 ! A84   A(46,45,47)           112.0039         estimate D2E/DX2                !
 ! A85   A(45,46,52)           105.5118         estimate D2E/DX2                !
 ! A86   A(45,47,53)           107.4596         estimate D2E/DX2                !
 ! A87   A(45,47,57)           130.4135         estimate D2E/DX2                !
 ! A88   A(53,47,57)           122.062          estimate D2E/DX2                !
 ! A89   A(49,48,53)           115.793          estimate D2E/DX2                !
 ! A90   A(49,48,58)           122.2029         estimate D2E/DX2                !
 ! A91   A(53,48,58)           121.9952         estimate D2E/DX2                !
 ! A92   A(48,49,50)           121.8042         estimate D2E/DX2                !
 ! A93   A(48,49,54)           118.6802         estimate D2E/DX2                !
 ! A94   A(50,49,54)           119.5148         estimate D2E/DX2                !
 ! A95   A(49,50,51)           121.6466         estimate D2E/DX2                !
 ! A96   A(49,50,55)           118.9763         estimate D2E/DX2                !
 ! A97   A(51,50,55)           119.3767         estimate D2E/DX2                !
 ! A98   A(50,51,52)           117.9172         estimate D2E/DX2                !
 ! A99   A(50,51,56)           121.3231         estimate D2E/DX2                !
 ! A100  A(52,51,56)           120.758          estimate D2E/DX2                !
 ! A101  A(46,52,51)           130.9594         estimate D2E/DX2                !
 ! A102  A(46,52,53)           109.4324         estimate D2E/DX2                !
 ! A103  A(51,52,53)           119.6078         estimate D2E/DX2                !
 ! A104  A(47,53,48)           131.1795         estimate D2E/DX2                !
 ! A105  A(47,53,52)           105.5906         estimate D2E/DX2                !
 ! A106  A(48,53,52)           123.2277         estimate D2E/DX2                !
 ! A107  A(48,58,59)           115.4318         estimate D2E/DX2                !
 ! A108  A(48,58,60)           121.5128         estimate D2E/DX2                !
 ! A109  A(59,58,60)           123.0525         estimate D2E/DX2                !
 ! A110  A(58,60,61)           120.3368         estimate D2E/DX2                !
 ! A111  A(60,61,62)           117.2559         estimate D2E/DX2                !
 ! A112  A(60,61,63)           108.4003         estimate D2E/DX2                !
 ! A113  A(60,61,64)           105.3798         estimate D2E/DX2                !
 ! A114  A(62,61,63)           110.6552         estimate D2E/DX2                !
 ! A115  A(62,61,64)           107.7405         estimate D2E/DX2                !
 ! A116  A(63,61,64)           106.8145         estimate D2E/DX2                !
 ! A117  A(61,62,65)           110.9855         estimate D2E/DX2                !
 ! A118  A(61,62,66)           109.0797         estimate D2E/DX2                !
 ! A119  A(61,62,67)           110.2188         estimate D2E/DX2                !
 ! A120  A(65,62,66)           109.4165         estimate D2E/DX2                !
 ! A121  A(65,62,67)           110.0971         estimate D2E/DX2                !
 ! A122  A(66,62,67)           106.9481         estimate D2E/DX2                !
 ! A123  A(61,63,68)           111.3578         estimate D2E/DX2                !
 ! A124  A(61,63,69)           108.2916         estimate D2E/DX2                !
 ! A125  A(61,63,70)           109.1351         estimate D2E/DX2                !
 ! A126  A(68,63,69)           109.8187         estimate D2E/DX2                !
 ! A127  A(68,63,70)           110.9693         estimate D2E/DX2                !
 ! A128  A(69,63,70)           107.1392         estimate D2E/DX2                !
 ! A129  A(62,65,71)           111.5797         estimate D2E/DX2                !
 ! A130  A(62,65,72)           109.7692         estimate D2E/DX2                !
 ! A131  A(62,65,73)           109.1523         estimate D2E/DX2                !
 ! A132  A(71,65,72)           110.4144         estimate D2E/DX2                !
 ! A133  A(71,65,73)           109.1211         estimate D2E/DX2                !
 ! A134  A(72,65,73)           106.6701         estimate D2E/DX2                !
 ! A135  A(63,68,71)           111.461          estimate D2E/DX2                !
 ! A136  A(63,68,74)           110.0108         estimate D2E/DX2                !
 ! A137  A(63,68,75)           109.0207         estimate D2E/DX2                !
 ! A138  A(71,68,74)           110.3738         estimate D2E/DX2                !
 ! A139  A(71,68,75)           109.057          estimate D2E/DX2                !
 ! A140  A(74,68,75)           106.79           estimate D2E/DX2                !
 ! A141  A(65,71,68)           111.1277         estimate D2E/DX2                !
 ! A142  A(65,71,76)           110.1721         estimate D2E/DX2                !
 ! A143  A(65,71,77)           109.0701         estimate D2E/DX2                !
 ! A144  A(68,71,76)           110.1967         estimate D2E/DX2                !
 ! A145  A(68,71,77)           109.1895         estimate D2E/DX2                !
 ! A146  A(76,71,77)           106.9815         estimate D2E/DX2                !
 ! D1    D(6,1,2,3)              0.2796         estimate D2E/DX2                !
 ! D2    D(6,1,2,21)          -179.4042         estimate D2E/DX2                !
 ! D3    D(43,1,2,3)           179.8602         estimate D2E/DX2                !
 ! D4    D(43,1,2,21)            0.1764         estimate D2E/DX2                !
 ! D5    D(2,1,6,5)             -0.295          estimate D2E/DX2                !
 ! D6    D(2,1,6,45)           179.2324         estimate D2E/DX2                !
 ! D7    D(43,1,6,5)          -179.7557         estimate D2E/DX2                !
 ! D8    D(43,1,6,45)           -0.2283         estimate D2E/DX2                !
 ! D9    D(2,1,43,7)            -0.1747         estimate D2E/DX2                !
 ! D10   D(2,1,43,44)          178.6198         estimate D2E/DX2                !
 ! D11   D(6,1,43,7)           179.356          estimate D2E/DX2                !
 ! D12   D(6,1,43,44)           -1.8496         estimate D2E/DX2                !
 ! D13   D(1,2,3,4)              0.0026         estimate D2E/DX2                !
 ! D14   D(1,2,3,8)            179.9321         estimate D2E/DX2                !
 ! D15   D(21,2,3,4)           179.6085         estimate D2E/DX2                !
 ! D16   D(21,2,3,8)            -0.462          estimate D2E/DX2                !
 ! D17   D(1,2,21,7)            -0.1063         estimate D2E/DX2                !
 ! D18   D(3,2,21,7)          -179.7434         estimate D2E/DX2                !
 ! D19   D(2,3,4,5)             -0.2512         estimate D2E/DX2                !
 ! D20   D(2,3,4,9)            179.7155         estimate D2E/DX2                !
 ! D21   D(8,3,4,5)            179.8197         estimate D2E/DX2                !
 ! D22   D(8,3,4,9)             -0.2136         estimate D2E/DX2                !
 ! D23   D(3,4,5,6)              0.2336         estimate D2E/DX2                !
 ! D24   D(3,4,5,10)           179.5752         estimate D2E/DX2                !
 ! D25   D(9,4,5,6)           -179.7332         estimate D2E/DX2                !
 ! D26   D(9,4,5,10)            -0.3917         estimate D2E/DX2                !
 ! D27   D(4,5,6,1)              0.0413         estimate D2E/DX2                !
 ! D28   D(4,5,6,45)          -179.4652         estimate D2E/DX2                !
 ! D29   D(10,5,6,1)          -179.2986         estimate D2E/DX2                !
 ! D30   D(10,5,6,45)            1.1949         estimate D2E/DX2                !
 ! D31   D(1,6,45,46)            5.7188         estimate D2E/DX2                !
 ! D32   D(1,6,45,47)         -174.3111         estimate D2E/DX2                !
 ! D33   D(5,6,45,46)         -174.7935         estimate D2E/DX2                !
 ! D34   D(5,6,45,47)            5.1766         estimate D2E/DX2                !
 ! D35   D(21,7,16,11)          -0.0053         estimate D2E/DX2                !
 ! D36   D(21,7,16,15)        -179.8936         estimate D2E/DX2                !
 ! D37   D(43,7,16,11)         179.3841         estimate D2E/DX2                !
 ! D38   D(43,7,16,15)          -0.5042         estimate D2E/DX2                !
 ! D39   D(16,7,21,2)          179.4481         estimate D2E/DX2                !
 ! D40   D(43,7,21,2)           -0.0062         estimate D2E/DX2                !
 ! D41   D(16,7,43,1)         -179.3347         estimate D2E/DX2                !
 ! D42   D(16,7,43,44)           1.9921         estimate D2E/DX2                !
 ! D43   D(21,7,43,1)            0.1185         estimate D2E/DX2                !
 ! D44   D(21,7,43,44)        -178.5546         estimate D2E/DX2                !
 ! D45   D(16,11,12,13)         -0.0568         estimate D2E/DX2                !
 ! D46   D(16,11,12,41)       -179.653          estimate D2E/DX2                !
 ! D47   D(40,11,12,13)        179.5819         estimate D2E/DX2                !
 ! D48   D(40,11,12,41)         -0.0143         estimate D2E/DX2                !
 ! D49   D(12,11,16,7)        -179.736          estimate D2E/DX2                !
 ! D50   D(12,11,16,15)          0.161          estimate D2E/DX2                !
 ! D51   D(40,11,16,7)           0.7281         estimate D2E/DX2                !
 ! D52   D(40,11,16,15)       -179.3749         estimate D2E/DX2                !
 ! D53   D(12,11,40,17)         -0.1395         estimate D2E/DX2                !
 ! D54   D(12,11,40,42)       -179.9323         estimate D2E/DX2                !
 ! D55   D(16,11,40,17)        179.4551         estimate D2E/DX2                !
 ! D56   D(16,11,40,42)         -0.3376         estimate D2E/DX2                !
 ! D57   D(11,12,13,14)         -0.0104         estimate D2E/DX2                !
 ! D58   D(11,12,13,18)        179.9742         estimate D2E/DX2                !
 ! D59   D(41,12,13,14)        179.4828         estimate D2E/DX2                !
 ! D60   D(41,12,13,18)         -0.5325         estimate D2E/DX2                !
 ! D61   D(11,12,41,17)          0.1655         estimate D2E/DX2                !
 ! D62   D(13,12,41,17)       -179.3709         estimate D2E/DX2                !
 ! D63   D(12,13,14,15)         -0.0353         estimate D2E/DX2                !
 ! D64   D(12,13,14,19)        179.924          estimate D2E/DX2                !
 ! D65   D(18,13,14,15)        179.9801         estimate D2E/DX2                !
 ! D66   D(18,13,14,19)         -0.0605         estimate D2E/DX2                !
 ! D67   D(13,14,15,16)          0.15           estimate D2E/DX2                !
 ! D68   D(13,14,15,20)       -179.9481         estimate D2E/DX2                !
 ! D69   D(19,14,15,16)       -179.8097         estimate D2E/DX2                !
 ! D70   D(19,14,15,20)          0.0923         estimate D2E/DX2                !
 ! D71   D(14,15,16,7)         179.6874         estimate D2E/DX2                !
 ! D72   D(14,15,16,11)         -0.2048         estimate D2E/DX2                !
 ! D73   D(20,15,16,7)          -0.214          estimate D2E/DX2                !
 ! D74   D(20,15,16,11)        179.8938         estimate D2E/DX2                !
 ! D75   D(40,17,23,22)        178.9153         estimate D2E/DX2                !
 ! D76   D(40,17,23,24)         -0.8937         estimate D2E/DX2                !
 ! D77   D(41,17,23,22)         -0.183          estimate D2E/DX2                !
 ! D78   D(41,17,23,24)       -179.9921         estimate D2E/DX2                !
 ! D79   D(23,17,40,11)       -178.9375         estimate D2E/DX2                !
 ! D80   D(23,17,40,42)          0.8347         estimate D2E/DX2                !
 ! D81   D(41,17,40,11)          0.2559         estimate D2E/DX2                !
 ! D82   D(41,17,40,42)       -179.9719         estimate D2E/DX2                !
 ! D83   D(23,17,41,12)        178.9491         estimate D2E/DX2                !
 ! D84   D(40,17,41,12)         -0.2595         estimate D2E/DX2                !
 ! D85   D(27,22,23,17)       -179.6764         estimate D2E/DX2                !
 ! D86   D(27,22,23,24)          0.137          estimate D2E/DX2                !
 ! D87   D(38,22,23,17)          0.381          estimate D2E/DX2                !
 ! D88   D(38,22,23,24)       -179.8056         estimate D2E/DX2                !
 ! D89   D(23,22,27,26)         -0.0458         estimate D2E/DX2                !
 ! D90   D(23,22,27,34)       -179.9065         estimate D2E/DX2                !
 ! D91   D(38,22,27,26)        179.8996         estimate D2E/DX2                !
 ! D92   D(38,22,27,34)          0.0389         estimate D2E/DX2                !
 ! D93   D(23,22,38,39)         -0.2288         estimate D2E/DX2                !
 ! D94   D(27,22,38,39)        179.8273         estimate D2E/DX2                !
 ! D95   D(17,23,24,25)        179.4251         estimate D2E/DX2                !
 ! D96   D(17,23,24,28)         -0.2713         estimate D2E/DX2                !
 ! D97   D(22,23,24,25)         -0.3833         estimate D2E/DX2                !
 ! D98   D(22,23,24,28)        179.9203         estimate D2E/DX2                !
 ! D99   D(23,24,25,26)          0.5181         estimate D2E/DX2                !
 ! D100  D(23,24,25,30)       -178.203          estimate D2E/DX2                !
 ! D101  D(28,24,25,26)       -179.7865         estimate D2E/DX2                !
 ! D102  D(28,24,25,30)          1.4924         estimate D2E/DX2                !
 ! D103  D(24,25,26,27)         -0.429          estimate D2E/DX2                !
 ! D104  D(24,25,26,29)        179.5978         estimate D2E/DX2                !
 ! D105  D(30,25,26,27)        178.3007         estimate D2E/DX2                !
 ! D106  D(30,25,26,29)         -1.6725         estimate D2E/DX2                !
 ! D107  D(24,25,30,31)        -22.7027         estimate D2E/DX2                !
 ! D108  D(24,25,30,32)         97.0321         estimate D2E/DX2                !
 ! D109  D(24,25,30,33)       -143.5057         estimate D2E/DX2                !
 ! D110  D(26,25,30,31)        158.6121         estimate D2E/DX2                !
 ! D111  D(26,25,30,32)        -81.6531         estimate D2E/DX2                !
 ! D112  D(26,25,30,33)         37.8091         estimate D2E/DX2                !
 ! D113  D(25,26,27,22)          0.1964         estimate D2E/DX2                !
 ! D114  D(25,26,27,34)       -179.9471         estimate D2E/DX2                !
 ! D115  D(29,26,27,22)       -179.8302         estimate D2E/DX2                !
 ! D116  D(29,26,27,34)          0.0262         estimate D2E/DX2                !
 ! D117  D(22,27,34,35)        -61.734          estimate D2E/DX2                !
 ! D118  D(22,27,34,36)         56.79           estimate D2E/DX2                !
 ! D119  D(22,27,34,37)        177.5331         estimate D2E/DX2                !
 ! D120  D(26,27,34,35)        118.4104         estimate D2E/DX2                !
 ! D121  D(26,27,34,36)       -123.0656         estimate D2E/DX2                !
 ! D122  D(26,27,34,37)         -2.3226         estimate D2E/DX2                !
 ! D123  D(6,45,46,52)         179.8887         estimate D2E/DX2                !
 ! D124  D(47,45,46,52)         -0.0845         estimate D2E/DX2                !
 ! D125  D(6,45,47,53)         179.8433         estimate D2E/DX2                !
 ! D126  D(6,45,47,57)           2.7892         estimate D2E/DX2                !
 ! D127  D(46,45,47,53)         -0.1834         estimate D2E/DX2                !
 ! D128  D(46,45,47,57)       -177.2375         estimate D2E/DX2                !
 ! D129  D(45,46,52,51)       -179.9177         estimate D2E/DX2                !
 ! D130  D(45,46,52,53)          0.3161         estimate D2E/DX2                !
 ! D131  D(45,47,53,48)       -179.1014         estimate D2E/DX2                !
 ! D132  D(45,47,53,52)          0.3631         estimate D2E/DX2                !
 ! D133  D(57,47,53,48)         -1.7479         estimate D2E/DX2                !
 ! D134  D(57,47,53,52)        177.7166         estimate D2E/DX2                !
 ! D135  D(53,48,49,50)         -0.2363         estimate D2E/DX2                !
 ! D136  D(53,48,49,54)       -179.8986         estimate D2E/DX2                !
 ! D137  D(58,48,49,50)        178.6984         estimate D2E/DX2                !
 ! D138  D(58,48,49,54)         -0.9638         estimate D2E/DX2                !
 ! D139  D(49,48,53,47)       -179.9669         estimate D2E/DX2                !
 ! D140  D(49,48,53,52)          0.6497         estimate D2E/DX2                !
 ! D141  D(58,48,53,47)          1.096          estimate D2E/DX2                !
 ! D142  D(58,48,53,52)       -178.2875         estimate D2E/DX2                !
 ! D143  D(49,48,58,59)          2.2528         estimate D2E/DX2                !
 ! D144  D(49,48,58,60)       -177.154          estimate D2E/DX2                !
 ! D145  D(53,48,58,59)       -178.8781         estimate D2E/DX2                !
 ! D146  D(53,48,58,60)          1.7151         estimate D2E/DX2                !
 ! D147  D(48,49,50,51)         -0.1205         estimate D2E/DX2                !
 ! D148  D(48,49,50,55)       -179.9115         estimate D2E/DX2                !
 ! D149  D(54,49,50,51)        179.539          estimate D2E/DX2                !
 ! D150  D(54,49,50,55)         -0.252          estimate D2E/DX2                !
 ! D151  D(49,50,51,52)          0.0849         estimate D2E/DX2                !
 ! D152  D(49,50,51,56)       -179.4493         estimate D2E/DX2                !
 ! D153  D(55,50,51,52)        179.8751         estimate D2E/DX2                !
 ! D154  D(55,50,51,56)          0.3409         estimate D2E/DX2                !
 ! D155  D(50,51,52,46)       -179.4388         estimate D2E/DX2                !
 ! D156  D(50,51,52,53)          0.3076         estimate D2E/DX2                !
 ! D157  D(56,51,52,46)          0.0982         estimate D2E/DX2                !
 ! D158  D(56,51,52,53)        179.8446         estimate D2E/DX2                !
 ! D159  D(46,52,53,47)         -0.4258         estimate D2E/DX2                !
 ! D160  D(46,52,53,48)        179.0924         estimate D2E/DX2                !
 ! D161  D(51,52,53,47)        179.7773         estimate D2E/DX2                !
 ! D162  D(51,52,53,48)         -0.7045         estimate D2E/DX2                !
 ! D163  D(48,58,60,61)        179.6707         estimate D2E/DX2                !
 ! D164  D(59,58,60,61)          0.3099         estimate D2E/DX2                !
 ! D165  D(58,60,61,62)         -0.0216         estimate D2E/DX2                !
 ! D166  D(58,60,61,63)        126.1039         estimate D2E/DX2                !
 ! D167  D(58,60,61,64)       -119.8365         estimate D2E/DX2                !
 ! D168  D(60,61,62,65)       -178.8519         estimate D2E/DX2                !
 ! D169  D(60,61,62,66)         60.5231         estimate D2E/DX2                !
 ! D170  D(60,61,62,67)        -56.6124         estimate D2E/DX2                !
 ! D171  D(63,61,62,65)         56.1411         estimate D2E/DX2                !
 ! D172  D(63,61,62,66)        -64.4839         estimate D2E/DX2                !
 ! D173  D(63,61,62,67)        178.3807         estimate D2E/DX2                !
 ! D174  D(64,61,62,65)        -60.2939         estimate D2E/DX2                !
 ! D175  D(64,61,62,66)        179.081          estimate D2E/DX2                !
 ! D176  D(64,61,62,67)         61.9456         estimate D2E/DX2                !
 ! D177  D(60,61,63,68)        174.1448         estimate D2E/DX2                !
 ! D178  D(60,61,63,69)        -65.0126         estimate D2E/DX2                !
 ! D179  D(60,61,63,70)         51.297          estimate D2E/DX2                !
 ! D180  D(62,61,63,68)        -55.9737         estimate D2E/DX2                !
 ! D181  D(62,61,63,69)         64.8689         estimate D2E/DX2                !
 ! D182  D(62,61,63,70)       -178.8215         estimate D2E/DX2                !
 ! D183  D(64,61,63,68)         61.0335         estimate D2E/DX2                !
 ! D184  D(64,61,63,69)       -178.1238         estimate D2E/DX2                !
 ! D185  D(64,61,63,70)        -61.8143         estimate D2E/DX2                !
 ! D186  D(61,62,65,71)        -56.0304         estimate D2E/DX2                !
 ! D187  D(61,62,65,72)       -178.7649         estimate D2E/DX2                !
 ! D188  D(61,62,65,73)         64.6509         estimate D2E/DX2                !
 ! D189  D(66,62,65,71)         64.3953         estimate D2E/DX2                !
 ! D190  D(66,62,65,72)        -58.3392         estimate D2E/DX2                !
 ! D191  D(66,62,65,73)       -174.9235         estimate D2E/DX2                !
 ! D192  D(67,62,65,71)       -178.3406         estimate D2E/DX2                !
 ! D193  D(67,62,65,72)         58.9249         estimate D2E/DX2                !
 ! D194  D(67,62,65,73)        -57.6594         estimate D2E/DX2                !
 ! D195  D(61,63,68,71)         55.32           estimate D2E/DX2                !
 ! D196  D(61,63,68,74)        178.0911         estimate D2E/DX2                !
 ! D197  D(61,63,68,75)        -65.1187         estimate D2E/DX2                !
 ! D198  D(69,63,68,71)        -64.6233         estimate D2E/DX2                !
 ! D199  D(69,63,68,74)         58.1478         estimate D2E/DX2                !
 ! D200  D(69,63,68,75)        174.938          estimate D2E/DX2                !
 ! D201  D(70,63,68,71)        177.1095         estimate D2E/DX2                !
 ! D202  D(70,63,68,74)        -60.1194         estimate D2E/DX2                !
 ! D203  D(70,63,68,75)         56.6708         estimate D2E/DX2                !
 ! D204  D(62,65,71,68)         55.0034         estimate D2E/DX2                !
 ! D205  D(62,65,71,76)        177.4339         estimate D2E/DX2                !
 ! D206  D(62,65,71,77)        -65.4228         estimate D2E/DX2                !
 ! D207  D(72,65,71,68)        177.3682         estimate D2E/DX2                !
 ! D208  D(72,65,71,76)        -60.2014         estimate D2E/DX2                !
 ! D209  D(72,65,71,77)         56.942          estimate D2E/DX2                !
 ! D210  D(73,65,71,68)        -65.696          estimate D2E/DX2                !
 ! D211  D(73,65,71,76)         56.7344         estimate D2E/DX2                !
 ! D212  D(73,65,71,77)        173.8777         estimate D2E/DX2                !
 ! D213  D(63,68,71,65)        -54.5577         estimate D2E/DX2                !
 ! D214  D(63,68,71,76)       -176.9739         estimate D2E/DX2                !
 ! D215  D(63,68,71,77)         65.7979         estimate D2E/DX2                !
 ! D216  D(74,68,71,65)       -177.1206         estimate D2E/DX2                !
 ! D217  D(74,68,71,76)         60.4632         estimate D2E/DX2                !
 ! D218  D(74,68,71,77)        -56.765          estimate D2E/DX2                !
 ! D219  D(75,68,71,65)         65.8597         estimate D2E/DX2                !
 ! D220  D(75,68,71,76)        -56.5565         estimate D2E/DX2                !
 ! D221  D(75,68,71,77)       -173.7847         estimate D2E/DX2                !
 --------------------------------------------------------------------------------
 Trust Radius=3.00D-01 FncErr=1.00D-07 GrdErr=1.00D-07 EigMax=2.50D+02 EigMin=1.00D-04
 Number of steps in this run=    461 maximum allowed number of steps=    462.
 GradGradGradGradGradGradGradGradGradGradGradGradGradGradGradGradGradGrad

 Leave Link  103 at Sun Dec 16 14:43:07 2018, MaxMem=  1342177280 cpu:               0.5 elap:               0.1
 (Enter /gpfs/apps/hpc/Apps/Restricted/Gaussian/Rev_A.03/g16/l202.exe)
 Symmetry turned off by external request.
 Stoichiometry    C36H33N7O
 Framework group  C1[X(C36H33N7O)]
 Deg. of freedom   225
 Full point group                 C1      NOp   1
                          Input orientation:                          
 ---------------------------------------------------------------------
 Center     Atomic      Atomic             Coordinates (Angstroms)
 Number     Number       Type             X           Y           Z
 ---------------------------------------------------------------------
      1          6           0        1.668433    0.395163    0.912803
      2          6           0        0.571324    1.239579    0.619985
      3          6           0        0.774081    2.616912    0.477503
      4          6           0        2.071470    3.102906    0.633381
      5          6           0        3.150697    2.254795    0.928951
      6          6           0        2.977673    0.872139    1.077756
      7          6           0       -0.204703   -0.776218    0.757142
      8          1           0       -0.052822    3.279201    0.252363
      9          1           0        2.257718    4.164817    0.523767
     10          1           0        4.141877    2.680342    1.033668
     11          6           0       -2.482823   -1.707976    0.530667
     12          6           0       -3.423143   -2.763776    0.532633
     13          6           0       -3.003311   -4.074546    0.777457
     14          6           0       -1.645264   -4.285766    1.013731
     15          6           0       -0.719007   -3.231811    1.008898
     16          6           0       -1.114862   -1.908398    0.768392
     17          6           0       -4.515495   -0.931828    0.094507
     18          1           0       -3.712373   -4.893602    0.782525
     19          1           0       -1.288937   -5.290286    1.207907
     20          1           0        0.325009   -3.450329    1.197439
     21          7           0       -0.584538    0.479857    0.530327
     22          6           0       -6.906752   -0.542939   -0.387969
     23          6           0       -5.600081   -0.023434   -0.230716
     24          6           0       -5.381455    1.356686   -0.396456
     25          6           0       -6.419299    2.221050   -0.719137
     26          6           0       -7.707505    1.676538   -0.866134
     27          6           0       -7.971898    0.320333   -0.710245
     28          1           0       -4.377731    1.750628   -0.273547
     29          1           0       -8.534105    2.337137   -1.111919
     30          6           0       -6.175974    3.693325   -0.935573
     31          1           0       -5.260482    4.016351   -0.435540
     32          1           0       -6.070495    3.925096   -2.001040
     33          1           0       -7.006633    4.292784   -0.554802
     34          6           0       -9.354195   -0.248114   -0.871553
     35          1           0       -9.391619   -0.972656   -1.691237
     36          1           0       -9.668937   -0.781563    0.030313
     37          1           0      -10.074574    0.544863   -1.076200
     38          8           0       -7.189095   -1.855110   -0.239784
     39          1           0       -6.334528   -2.324401   -0.018027
     40          7           0       -3.201878   -0.568702    0.253931
     41          7           0       -4.678798   -2.246624    0.260156
     42          1           0       -2.768567    0.345661    0.190840
     43          7           0        1.146052   -0.872003    0.990694
     44          1           0        1.719614   -1.687689    1.171461
     45          6           0        4.053539   -0.051885    1.394055
     46          7           0        3.912624   -1.375816    1.438493
     47          7           0        5.339319    0.339145    1.682594
     48          6           0        7.414779   -0.969532    2.286765
     49          6           0        7.831950   -2.294139    2.464420
     50          6           0        6.950496   -3.376849    2.300144
     51          6           0        5.613527   -3.185675    1.953842
     52          6           0        5.165190   -1.871286    1.769580
     53          6           0        6.068770   -0.795897    1.931168
     54          1           0        8.863719   -2.482289    2.741663
     55          1           0        7.321934   -4.383624    2.450448
     56          1           0        4.936591   -4.023469    1.837200
     57          1           0        5.741804    1.265871    1.763496
     58          6           0        8.316385    0.163829    2.482404
     59          1           0        9.347131   -0.095047    2.739017
     60          7           0        7.907118    1.372459    2.368715
     61          6           0        8.830538    2.488073    2.577196
     62          6           0       10.281141    2.141839    2.931463
     63          6           0        8.777115    3.400128    1.340116
     64          1           0        8.409049    3.063003    3.414812
     65          6           0       11.112252    3.412083    3.145213
     66          1           0       10.718604    1.552732    2.116003
     67          1           0       10.312351    1.516523    3.829132
     68          6           0        9.611116    4.668624    1.545728
     69          1           0        9.161783    2.837331    0.480529
     70          1           0        7.733950    3.648377    1.122305
     71          6           0       11.058644    4.333213    1.921739
     72          1           0       12.147820    3.142584    3.375092
     73          1           0       10.726178    3.952117    4.018894
     74          1           0        9.585292    5.284407    0.641510
     75          1           0        9.161578    5.265845    2.348826
     76          1           0       11.621193    5.251863    2.115961
     77          1           0       11.544614    3.832861    1.074720
 ---------------------------------------------------------------------
 Rotational constants (GHZ):           0.1703460           0.0230377           0.0203641
 Leave Link  202 at Sun Dec 16 14:43:07 2018, MaxMem=  1342177280 cpu:               1.3 elap:               0.1
 (Enter /gpfs/apps/hpc/Apps/Restricted/Gaussian/Rev_A.03/g16/l716.exe)
 Electric field and nuclear coordinate derivatives read from checkpoint file.
 Dipole        = 3.95947292D+00 1.48498135D+00 6.20968424D-01
 Polarizability= 9.14041868D+02-1.65674565D+01 8.41292251D+02
                 1.28561236D+02-7.28480165D+01 2.79821741D+02
 Full mass-weighted force constant matrix:
 Low frequencies ---   -8.7186   -0.0035   -0.0008    0.0033    5.7566   10.3564
 Low frequencies ---   18.8529   22.8917   31.6292
 Diagonal vibrational polarizability:
      107.0833552      31.4202416     100.9407661
 Harmonic frequencies (cm**-1), IR intensities (KM/Mole), Raman scattering
 activities (A**4/AMU), depolarization ratios for plane and unpolarized
 incident light, reduced masses (AMU), force constants (mDyne/A),
 and normal coordinates:
                      1                      2                      3
                      A                      A                      A
 Frequencies --     16.1500                22.6936                27.9786
 Red. masses --      6.9772                 5.4117                 5.8128
 Frc consts  --      0.0011                 0.0016                 0.0027
 IR Inten    --      0.0659                 0.0901                 0.0519
  Atom  AN      X      Y      Z        X      Y      Z        X      Y      Z
     1   6    -0.04   0.02   0.16    -0.00   0.08  -0.03    -0.01   0.01  -0.00
     2   6    -0.04   0.02   0.18     0.00   0.07  -0.04    -0.01   0.01   0.00
     3   6    -0.05   0.03   0.21     0.01   0.07  -0.05    -0.01   0.00  -0.02
     4   6    -0.05   0.03   0.22     0.01   0.07  -0.05    -0.01   0.00  -0.05
     5   6    -0.05   0.03   0.20     0.01   0.07  -0.04    -0.00   0.00  -0.05
     6   6    -0.04   0.03   0.16     0.00   0.07  -0.03    -0.00   0.01  -0.03
     7   6    -0.03   0.01   0.11     0.00   0.07  -0.03    -0.02   0.01   0.06
     8   1    -0.05   0.03   0.23     0.01   0.07  -0.06    -0.01   0.00  -0.02
     9   1    -0.06   0.04   0.25     0.01   0.07  -0.05    -0.00  -0.00  -0.07
    10   1    -0.05   0.03   0.20     0.01   0.07  -0.03     0.00   0.00  -0.08
    11   6    -0.01  -0.00   0.01     0.01   0.04  -0.01    -0.02   0.01   0.09
    12   6    -0.00  -0.01  -0.04     0.03   0.02  -0.01    -0.02   0.01   0.12
    13   6    -0.00  -0.01  -0.03     0.06   0.03  -0.02    -0.03   0.02   0.18
    14   6    -0.01   0.00   0.02     0.06   0.05  -0.03    -0.03   0.03   0.19
    15   6    -0.02   0.01   0.06     0.04   0.07  -0.03    -0.03   0.02   0.15
    16   6    -0.02   0.01   0.06     0.01   0.06  -0.03    -0.02   0.02   0.10
    17   6    -0.00  -0.01  -0.05    -0.02  -0.01   0.01    -0.01   0.00   0.04
    18   1     0.00  -0.01  -0.06     0.07   0.01  -0.02    -0.03   0.03   0.21
    19   1    -0.01   0.00   0.03     0.09   0.06  -0.04    -0.04   0.03   0.23
    20   1    -0.02   0.01   0.10     0.04   0.09  -0.04    -0.03   0.02   0.15
    21   7    -0.04   0.02   0.15    -0.00   0.07  -0.04    -0.02   0.01   0.04
    22   6     0.01  -0.02  -0.10    -0.03  -0.07   0.01    -0.00  -0.01  -0.01
    23   6     0.00  -0.01  -0.07    -0.04  -0.04   0.02    -0.01  -0.01  -0.01
    24   6    -0.00  -0.01  -0.04    -0.09  -0.03   0.02    -0.00  -0.01  -0.05
    25   6    -0.00  -0.01  -0.05    -0.11  -0.06   0.03     0.00  -0.02  -0.09
    26   6     0.00  -0.02  -0.08    -0.09  -0.09   0.02     0.01  -0.03  -0.09
    27   6     0.01  -0.02  -0.10    -0.05  -0.10   0.01     0.00  -0.02  -0.06
    28   1    -0.01  -0.01  -0.01    -0.10   0.00   0.03    -0.00  -0.01  -0.04
    29   1     0.00  -0.02  -0.09    -0.11  -0.12   0.02     0.01  -0.03  -0.13
    30   6    -0.01  -0.01  -0.03    -0.15  -0.05   0.03     0.00  -0.03  -0.12
    31   1    -0.01  -0.01  -0.02    -0.17  -0.02   0.04     0.00  -0.02  -0.12
    32   1    -0.00   0.01  -0.03    -0.14  -0.05   0.03     0.01  -0.05  -0.13
    33   1    -0.01  -0.02  -0.02    -0.18  -0.07   0.02     0.00  -0.02  -0.14
    34   6     0.01  -0.03  -0.13    -0.04  -0.14   0.01     0.00  -0.02  -0.07
    35   1     0.03  -0.02  -0.13    -0.01  -0.15   0.01     0.01  -0.03  -0.06
    36   1     0.00  -0.03  -0.13    -0.03  -0.14   0.01    -0.01  -0.01  -0.06
    37   1     0.01  -0.03  -0.13    -0.06  -0.16  -0.00     0.01  -0.03  -0.08
    38   8     0.01  -0.02  -0.12     0.01  -0.08  -0.00    -0.01  -0.01   0.03
    39   1     0.01  -0.02  -0.11     0.02  -0.06  -0.00    -0.01   0.00   0.06
    40   7    -0.01  -0.00  -0.01    -0.02   0.02  -0.00    -0.01   0.00   0.03
    41   7     0.00  -0.01  -0.07     0.02  -0.01   0.00    -0.02   0.01   0.09
    42   1    -0.01   0.00   0.03    -0.05   0.04  -0.01    -0.01  -0.00   0.00
    43   7    -0.03   0.02   0.12    -0.00   0.08  -0.03    -0.01   0.01   0.03
    44   1    -0.02   0.02   0.09     0.00   0.08  -0.02    -0.01   0.01   0.03
    45   6    -0.03   0.02   0.11    -0.01   0.06  -0.01     0.00   0.01  -0.05
    46   7    -0.03   0.02   0.11    -0.04   0.07   0.01     0.01   0.00  -0.08
    47   7    -0.01   0.02   0.05    -0.00   0.04  -0.02     0.00   0.01  -0.06
    48   6     0.02   0.00  -0.08    -0.03   0.00   0.01     0.02  -0.00  -0.13
    49   6     0.02   0.00  -0.11    -0.06  -0.01   0.03     0.03  -0.00  -0.17
    50   6     0.01   0.01  -0.06    -0.09   0.01   0.05     0.03  -0.00  -0.19
    51   6    -0.01   0.01   0.01    -0.08   0.04   0.05     0.03  -0.00  -0.16
    52   6    -0.02   0.02   0.04    -0.05   0.05   0.02     0.02   0.00  -0.11
    53   6    -0.00   0.01  -0.00    -0.03   0.03   0.00     0.01   0.00  -0.10
    54   1     0.04  -0.00  -0.17    -0.07  -0.03   0.04     0.04  -0.00  -0.19
    55   1     0.01   0.00  -0.08    -0.11   0.01   0.07     0.04  -0.01  -0.22
    56   1    -0.02   0.02   0.05    -0.10   0.06   0.06     0.03  -0.00  -0.17
    57   1    -0.01   0.02   0.03     0.01   0.04  -0.04    -0.00   0.01  -0.03
    58   6     0.03  -0.00  -0.11     0.00  -0.02   0.00     0.01  -0.00  -0.09
    59   1     0.04  -0.01  -0.17    -0.01  -0.06   0.02     0.02  -0.01  -0.12
    60   7     0.04   0.00  -0.08     0.05  -0.01  -0.01     0.00   0.00  -0.01
    61   6     0.05  -0.01  -0.09     0.08  -0.04   0.00     0.00  -0.01   0.05
    62   6     0.05  -0.02  -0.09     0.07  -0.09   0.01    -0.01  -0.03   0.07
    63   6     0.06  -0.01  -0.09     0.13  -0.03   0.01     0.04   0.03   0.08
    64   1     0.06  -0.00  -0.09     0.10  -0.04   0.00    -0.01  -0.03   0.06
    65   6     0.06  -0.03  -0.09     0.10  -0.12   0.04    -0.00  -0.04   0.13
    66   1     0.05  -0.02  -0.10     0.06  -0.10   0.00     0.01  -0.00   0.07
    67   1     0.05  -0.03  -0.10     0.04  -0.11  -0.00    -0.03  -0.05   0.06
    68   6     0.07  -0.02  -0.09     0.16  -0.06   0.04     0.04   0.02   0.13
    69   1     0.06  -0.01  -0.09     0.12  -0.03   0.01     0.05   0.05   0.07
    70   1     0.06  -0.00  -0.09     0.14   0.00  -0.00     0.04   0.05   0.06
    71   6     0.06  -0.02  -0.09     0.15  -0.10   0.05     0.03  -0.00   0.16
    72   1     0.06  -0.04  -0.09     0.09  -0.16   0.05    -0.01  -0.05   0.15
    73   1     0.06  -0.03  -0.09     0.11  -0.13   0.04    -0.02  -0.06   0.14
    74   1     0.07  -0.01  -0.09     0.19  -0.04   0.05     0.07   0.05   0.15
    75   1     0.07  -0.01  -0.09     0.16  -0.06   0.04     0.03  -0.00   0.14
    76   1     0.07  -0.03  -0.08     0.17  -0.12   0.08     0.03  -0.01   0.20
    77   1     0.06  -0.02  -0.09     0.14  -0.10   0.05     0.05   0.02   0.15
                      4                      5                      6
                      A                      A                      A
 Frequencies --     41.9622                51.0660                56.7834
 Red. masses --      5.4365                 4.7925                 5.8555
 Frc consts  --      0.0056                 0.0074                 0.0111
 IR Inten    --      0.1369                 0.4933                 0.9492
  Atom  AN      X      Y      Z        X      Y      Z        X      Y      Z
     1   6    -0.05  -0.04  -0.01    -0.01  -0.04  -0.01    -0.03   0.05  -0.04
     2   6    -0.06  -0.06  -0.02    -0.00  -0.04  -0.03    -0.06   0.03   0.02
     3   6    -0.10  -0.06  -0.02     0.00  -0.05  -0.08    -0.09   0.03   0.04
     4   6    -0.11  -0.03  -0.01     0.01  -0.05  -0.11    -0.10   0.06   0.01
     5   6    -0.10  -0.00   0.00     0.00  -0.05  -0.10    -0.07   0.08  -0.04
     6   6    -0.06  -0.01   0.00    -0.00  -0.04  -0.05    -0.04   0.07  -0.06
     7   6    -0.03  -0.08  -0.04    -0.02  -0.03   0.04     0.00   0.00   0.02
     8   1    -0.11  -0.08  -0.03     0.00  -0.05  -0.09    -0.11   0.03   0.09
     9   1    -0.13  -0.02  -0.00     0.01  -0.06  -0.15    -0.12   0.06   0.02
    10   1    -0.11   0.02   0.02     0.01  -0.05  -0.12    -0.07   0.09  -0.07
    11   6    -0.02  -0.07  -0.04    -0.03  -0.01   0.05     0.03  -0.05   0.06
    12   6    -0.04  -0.06  -0.03    -0.04  -0.00   0.01     0.04  -0.05   0.05
    13   6    -0.05  -0.06  -0.03    -0.05  -0.01   0.00     0.06  -0.05   0.04
    14   6    -0.05  -0.07  -0.04    -0.05  -0.02   0.03     0.07  -0.03   0.02
    15   6    -0.04  -0.08  -0.04    -0.05  -0.03   0.05     0.06  -0.02   0.02
    16   6    -0.03  -0.08  -0.04    -0.03  -0.02   0.06     0.04  -0.03   0.04
    17   6    -0.01  -0.04  -0.03    -0.02   0.01   0.02     0.04  -0.05   0.06
    18   1    -0.05  -0.06  -0.03    -0.05  -0.01  -0.02     0.08  -0.06   0.03
    19   1    -0.06  -0.08  -0.04    -0.06  -0.02   0.02     0.08  -0.03   0.00
    20   1    -0.04  -0.09  -0.04    -0.05  -0.04   0.05     0.07  -0.01  -0.00
    21   7    -0.05  -0.08  -0.04    -0.01  -0.04   0.01    -0.04  -0.00   0.05
    22   6    -0.02   0.03   0.05     0.00   0.01  -0.09     0.07  -0.01  -0.02
    23   6     0.01  -0.01  -0.01    -0.01   0.01   0.02     0.07  -0.03   0.04
    24   6     0.05  -0.03  -0.04    -0.03   0.03   0.13     0.10  -0.03   0.07
    25   6     0.07   0.01  -0.02    -0.02   0.04   0.12     0.13  -0.01   0.05
    26   6     0.04   0.05   0.04    -0.00   0.02   0.01     0.12   0.01  -0.02
    27   6     0.00   0.06   0.07     0.01   0.01  -0.09     0.10   0.02  -0.05
    28   1     0.07  -0.06  -0.09    -0.04   0.04   0.22     0.10  -0.05   0.12
    29   1     0.06   0.08   0.05    -0.00   0.03   0.01     0.15   0.03  -0.04
    30   6     0.12  -0.01  -0.06    -0.03   0.06   0.26     0.16  -0.01   0.10
    31   1     0.14  -0.03  -0.08    -0.03   0.02   0.27     0.19  -0.06   0.09
    32   1     0.10  -0.03  -0.06    -0.04   0.15   0.28     0.14   0.04   0.11
    33   1     0.15   0.03  -0.05    -0.03   0.02   0.32     0.19   0.00   0.15
    34   6    -0.02   0.10   0.11     0.02   0.00  -0.19     0.09   0.04  -0.11
    35   1    -0.07   0.10   0.12     0.07   0.04  -0.22     0.11   0.06  -0.13
    36   1    -0.01   0.12   0.13    -0.02  -0.04  -0.23     0.06   0.03  -0.14
    37   1    -0.01   0.12   0.13     0.03   0.00  -0.19     0.11   0.06  -0.12
    38   8    -0.06   0.04   0.08     0.01  -0.01  -0.18     0.05  -0.01  -0.05
    39   1    -0.07   0.01   0.04     0.00  -0.00  -0.13     0.03  -0.02  -0.01
    40   7    -0.01  -0.06  -0.04    -0.02   0.00   0.06     0.04  -0.05   0.07
    41   7    -0.04  -0.04  -0.02    -0.03   0.00  -0.01     0.04  -0.05   0.05
    42   1     0.01  -0.07  -0.04    -0.02  -0.00   0.07     0.05  -0.05   0.08
    43   7    -0.03  -0.05  -0.02    -0.02  -0.04   0.03     0.01   0.03  -0.04
    44   1    -0.02  -0.04  -0.01    -0.02  -0.04   0.05     0.04   0.05  -0.06
    45   6    -0.04   0.02   0.01     0.00  -0.03  -0.02    -0.04   0.07  -0.08
    46   7    -0.02   0.02   0.03     0.01  -0.03   0.04    -0.05   0.07  -0.12
    47   7    -0.04   0.05  -0.01     0.01  -0.01  -0.06    -0.04   0.05  -0.02
    48   6    -0.01   0.08  -0.02     0.02   0.02  -0.02    -0.09   0.01   0.05
    49   6     0.00   0.09  -0.00     0.03   0.03   0.02    -0.12   0.00   0.06
    50   6     0.01   0.07   0.02     0.03   0.02   0.07    -0.12   0.01  -0.02
    51   6     0.01   0.06   0.04     0.02   0.00   0.09    -0.10   0.04  -0.09
    52   6    -0.01   0.05   0.03     0.02  -0.01   0.04    -0.07   0.05  -0.08
    53   6    -0.02   0.06  -0.00     0.02   0.00  -0.02    -0.07   0.04  -0.01
    54   1     0.01   0.10  -0.02     0.03   0.05   0.01    -0.14  -0.02   0.11
    55   1     0.03   0.08   0.04     0.04   0.03   0.11    -0.14   0.01  -0.02
    56   1     0.01   0.05   0.06     0.03  -0.00   0.13    -0.10   0.05  -0.15
    57   1    -0.07   0.06  -0.04    -0.00  -0.00  -0.09    -0.04   0.05   0.01
    58   6     0.00   0.07  -0.03     0.02   0.03  -0.05    -0.08  -0.01   0.09
    59   1    -0.01   0.05  -0.03     0.02   0.03  -0.03    -0.09  -0.02   0.13
    60   7     0.03   0.08  -0.04     0.02   0.03  -0.06    -0.05  -0.00   0.04
    61   6     0.07   0.05  -0.01     0.02   0.03  -0.04    -0.03  -0.02   0.02
    62   6     0.05  -0.01   0.02     0.02   0.02  -0.02    -0.03  -0.04   0.01
    63   6     0.14   0.06  -0.01     0.05   0.05  -0.02    -0.03  -0.05  -0.01
    64   1     0.07   0.06  -0.02     0.01   0.01  -0.03    -0.01   0.01   0.01
    65   6     0.09  -0.04   0.06     0.02   0.01   0.03    -0.01  -0.05  -0.04
    66   1     0.06  -0.01   0.02     0.03   0.03  -0.02    -0.06  -0.07   0.01
    67   1     0.01  -0.03   0.01     0.00  -0.00  -0.03    -0.03  -0.01   0.02
    68   6     0.18   0.03   0.04     0.05   0.04   0.02    -0.00  -0.06  -0.05
    69   1     0.16   0.06  -0.00     0.06   0.07  -0.02    -0.05  -0.08   0.00
    70   1     0.16   0.10  -0.04     0.05   0.06  -0.03    -0.03  -0.03  -0.00
    71   6     0.16  -0.02   0.08     0.04   0.04   0.05    -0.00  -0.08  -0.06
    72   1     0.08  -0.08   0.09     0.01   0.00   0.04    -0.01  -0.06  -0.04
    73   1     0.09  -0.04   0.06     0.01  -0.01   0.03     0.01  -0.02  -0.05
    74   1     0.23   0.05   0.05     0.06   0.06   0.04    -0.00  -0.08  -0.07
    75   1     0.17   0.03   0.04     0.03   0.03   0.03     0.02  -0.03  -0.06
    76   1     0.18  -0.04   0.12     0.03   0.04   0.08     0.02  -0.09  -0.10
    77   1     0.17  -0.01   0.09     0.06   0.06   0.04    -0.03  -0.12  -0.06
                      7                      8                      9
                      A                      A                      A
 Frequencies --     59.1593                71.1666                73.1950
 Red. masses --      5.0593                 5.2244                 2.9289
 Frc consts  --      0.0104                 0.0156                 0.0092
 IR Inten    --      1.0588                 0.8993                 0.2007
  Atom  AN      X      Y      Z        X      Y      Z        X      Y      Z
     1   6     0.01  -0.04  -0.02    -0.01   0.01   0.03     0.00   0.01   0.01
     2   6     0.00  -0.03   0.02    -0.00  -0.00  -0.03     0.00   0.01   0.02
     3   6    -0.00  -0.02   0.07     0.00  -0.01  -0.09     0.01   0.01   0.02
     4   6    -0.01  -0.02   0.07    -0.00  -0.00  -0.09     0.01   0.00   0.01
     5   6    -0.00  -0.03   0.03    -0.01   0.01  -0.04     0.01  -0.00  -0.00
     6   6     0.01  -0.04  -0.01    -0.01   0.02   0.02     0.01   0.00  -0.00
     7   6    -0.01  -0.02  -0.02    -0.01   0.01   0.04     0.00   0.01   0.02
     8   1    -0.01  -0.02   0.10     0.01  -0.02  -0.14     0.01   0.02   0.03
     9   1    -0.01  -0.02   0.10     0.00  -0.01  -0.14     0.02   0.00   0.01
    10   1    -0.01  -0.03   0.04    -0.01   0.01  -0.05     0.02  -0.01  -0.01
    11   6    -0.04   0.01   0.02     0.01  -0.01  -0.06     0.01   0.00  -0.01
    12   6    -0.05   0.02   0.03     0.01  -0.02  -0.07     0.01   0.00  -0.02
    13   6    -0.06   0.01   0.01    -0.00   0.00   0.05     0.02   0.00  -0.02
    14   6    -0.06  -0.01  -0.03    -0.02   0.02   0.18     0.01   0.01  -0.01
    15   6    -0.04  -0.02  -0.04    -0.02   0.02   0.18     0.01   0.01   0.01
    16   6    -0.03  -0.01  -0.02    -0.01   0.00   0.05     0.01   0.01   0.01
    17   6    -0.04   0.03   0.04     0.03  -0.03  -0.17     0.01  -0.00  -0.02
    18   1    -0.07   0.02   0.02    -0.00   0.00   0.05     0.02  -0.00  -0.03
    19   1    -0.06  -0.01  -0.05    -0.04   0.04   0.28     0.02   0.01  -0.01
    20   1    -0.04  -0.03  -0.07    -0.04   0.03   0.27     0.01   0.01   0.02
    21   7    -0.00  -0.01   0.02    -0.00  -0.00  -0.02     0.00   0.01   0.02
    22   6    -0.04   0.00  -0.01     0.01  -0.01  -0.07     0.01  -0.00   0.00
    23   6    -0.05   0.02   0.03     0.02  -0.02  -0.13     0.01  -0.00  -0.01
    24   6    -0.06   0.02   0.02     0.01  -0.01  -0.07     0.00   0.00   0.00
    25   6    -0.06   0.00  -0.01    -0.01   0.01   0.06    -0.00   0.00   0.02
    26   6    -0.05  -0.01  -0.05    -0.02   0.02   0.13    -0.00   0.00   0.03
    27   6    -0.04  -0.01  -0.05    -0.01   0.01   0.07     0.00  -0.00   0.02
    28   1    -0.07   0.03   0.05     0.02  -0.02  -0.11     0.00   0.00  -0.01
    29   1    -0.05  -0.03  -0.08    -0.04   0.04   0.24    -0.01   0.00   0.05
    30   6    -0.08   0.01  -0.01    -0.02   0.02   0.12    -0.00   0.00   0.02
    31   1    -0.09   0.02   0.00    -0.01  -0.01   0.12    -0.00   0.00   0.02
    32   1    -0.07   0.01  -0.01    -0.03   0.06   0.13    -0.00   0.00   0.02
    33   1    -0.09  -0.00  -0.02    -0.01  -0.00   0.16    -0.00  -0.00   0.02
    34   6    -0.03  -0.03  -0.09    -0.02   0.02   0.15     0.00  -0.00   0.04
    35   1     0.00  -0.03  -0.09    -0.08   0.03   0.15    -0.01  -0.00   0.04
    36   1    -0.05  -0.03  -0.09     0.03   0.00   0.17     0.01  -0.00   0.04
    37   1    -0.03  -0.04  -0.11    -0.04   0.02   0.22    -0.00  -0.00   0.05
    38   8    -0.03  -0.00  -0.01     0.02  -0.02  -0.12     0.01  -0.00  -0.01
    39   1    -0.03   0.01   0.02     0.02  -0.03  -0.16     0.01  -0.00  -0.02
    40   7    -0.04   0.02   0.03     0.03  -0.03  -0.15     0.01   0.00  -0.01
    41   7    -0.05   0.03   0.05     0.03  -0.03  -0.16     0.01  -0.00  -0.03
    42   1    -0.04   0.02   0.02     0.02  -0.02  -0.12     0.00   0.01   0.01
    43   7    -0.00  -0.04  -0.05    -0.01   0.02   0.08     0.00   0.01   0.01
    44   1    -0.01  -0.05  -0.09    -0.01   0.02   0.10     0.00   0.01   0.00
    45   6     0.03  -0.03  -0.04    -0.01   0.02   0.04     0.00  -0.01  -0.01
    46   7     0.08  -0.03  -0.14     0.00   0.02  -0.01    -0.00  -0.01   0.00
    47   7    -0.01   0.01   0.07    -0.02   0.02   0.08     0.01  -0.01  -0.04
[...]
 ! A4    A(1,2,3)               -0.0167                  0.7                    !
 ! A6    A(3,2,21)               0.0183                  0.7                    !
 ! A8    A(2,3,8)               -0.0177                  0.7                    !
 --------------------------------------------------------------------------------
                           ----------------------------
                           ! Normal Mode   222        !
 --------------------------                            --------------------------
 ! Name  Definition              Value          Relative Weight (%)             !
 --------------------------------------------------------------------------------
 ! R19   R(12,13)                0.0412                  1.9                    !
 ! R21   R(13,14)                0.061                   2.8                    !
 ! R22   R(13,18)               -0.9094                 42.1                    !
 ! R23   R(14,15)                0.0331                  1.5                    !
 ! R24   R(14,19)               -0.4796                 22.2                    !
 ! R25   R(15,16)                0.0137                  0.6                    !
 ! R26   R(15,20)               -0.3468                 16.1                    !
 ! R63   R(51,56)               -0.022                   1.0                    !
 ! A25   A(11,12,13)             0.023                   1.1                    !
 ! A27   A(13,12,41)            -0.025                   1.2                    !
 ! A28   A(12,13,14)            -0.035                   1.6                    !
 ! A29   A(12,13,18)             0.021                   1.0                    !
 ! A30   A(14,13,18)             0.0139                  0.6                    !
 --------------------------------------------------------------------------------
                           ----------------------------
                           ! Normal Mode   223        !
 --------------------------                            --------------------------
 ! Name  Definition              Value          Relative Weight (%)             !
 --------------------------------------------------------------------------------
 ! R18   R(11,40)               -0.0437                  2.9                    !
 ! R28   R(17,40)               -0.0476                  3.1                    !
 ! R48   R(40,42)                1.0695                 70.3                    !
 ! R49   R(43,44)                0.0616                  4.1                    !
 ! R54   R(47,57)                0.0308                  2.0                    !
 ! A23   A(12,11,40)            -0.0236                  1.6                    !
 ! A24   A(16,11,40)             0.0244                  1.6                    !
 ! A40   A(23,17,40)             0.0239                  1.6                    !
 ! A42   A(40,17,41)            -0.0232                  1.5                    !
 ! A75   A(11,40,17)             0.0473                  3.1                    !
 ! A77   A(17,40,42)            -0.0483                  3.2                    !
 --------------------------------------------------------------------------------
                           ----------------------------
                           ! Normal Mode   224        !
 --------------------------                            --------------------------
 ! Name  Definition              Value          Relative Weight (%)             !
 --------------------------------------------------------------------------------
 ! R48   R(40,42)               -0.0347                  2.2                    !
 ! R49   R(43,44)                0.0687                  4.4                    !
 ! R51   R(45,47)               -0.0481                  3.1                    !
 ! R53   R(47,53)               -0.0435                  2.8                    !
 ! R54   R(47,57)                1.0687                 68.7                    !
 ! A83   A(6,45,47)              0.0236                  1.5                    !
 ! A84   A(46,45,47)            -0.0227                  1.5                    !
 ! A86   A(45,47,53)             0.047                   3.0                    !
 ! A87   A(45,47,57)            -0.0492                  3.2                    !
 ! A104  A(47,53,48)             0.0245                  1.6                    !
 ! A105  A(47,53,52)            -0.0236                  1.5                    !
 --------------------------------------------------------------------------------
                           ----------------------------
                           ! Normal Mode   225        !
 --------------------------                            --------------------------
 ! Name  Definition              Value          Relative Weight (%)             !
 --------------------------------------------------------------------------------
 ! R3    R(1,43)                 0.0439                  2.8                    !
 ! R15   R(7,43)                 0.0474                  3.0                    !
 ! R48   R(40,42)                0.0595                  3.8                    !
 ! R49   R(43,44)               -1.0674                 68.0                    !
 ! R54   R(47,57)                0.0706                  4.5                    !
 ! A2    A(2,1,43)               0.0234                  1.5                    !
 ! A3    A(6,1,43)              -0.0242                  1.5                    !
 ! A20   A(16,7,43)             -0.0237                  1.5                    !
 ! A21   A(21,7,43)              0.0229                  1.5                    !
 ! A79   A(1,43,7)              -0.0469                  3.0                    !
 ! A81   A(7,43,44)              0.0487                  3.1                    !
 --------------------------------------------------------------------------------
 -------------------------------------------------------------------
 Center     Atomic                   Forces (Hartrees/Bohr)
 Number     Number              X              Y              Z
 -------------------------------------------------------------------
      1        6          -0.000000022    0.000000140   -0.000000475
      2        6          -0.000000738    0.000000368    0.000002857
      3        6          -0.000001888    0.000000911    0.000007351
      4        6          -0.000002272    0.000001592    0.000008635
      5        6          -0.000001524    0.000001485    0.000005598
      6        6          -0.000000262    0.000000851    0.000000803
      7        6           0.000001217   -0.000000754   -0.000003860
      8        1          -0.000002569    0.000001047    0.000009743
      9        1          -0.000003240    0.000002066    0.000012209
     10        1          -0.000001822    0.000001959    0.000006786
     11        6           0.000001909   -0.000002006   -0.000006711
     12        6           0.000002567   -0.000002771   -0.000009860
     13        6           0.000003881   -0.000003361   -0.000014467
     14        6           0.000004148   -0.000003049   -0.000015503
     15        6           0.000003327   -0.000002138   -0.000012092
     16        6           0.000002031   -0.000001578   -0.000007611
     17        6           0.000000840   -0.000002174   -0.000003589
     18        1           0.000004594   -0.000003904   -0.000017093
     19        1           0.000005024   -0.000003229   -0.000019009
     20        1           0.000003376   -0.000001831   -0.000013133
     21        7          -0.000000195   -0.000000327    0.000000203
     22        6           0.000000669   -0.000002618   -0.000001604
     23        6           0.000000300   -0.000001935   -0.000000151
     24        6          -0.000001024   -0.000001565    0.000004518
     25        6          -0.000001880   -0.000001182    0.000007607
     26        6          -0.000001398   -0.000001808    0.000006137
     27        6          -0.000000244   -0.000002446    0.000001505
     28        1          -0.000001346   -0.000000947    0.000005603
     29        1          -0.000002089   -0.000001590    0.000008496
     30        6          -0.000003179   -0.000000155    0.000012568
     31        1          -0.000003330   -0.000001092    0.000013433
     32        1          -0.000003590    0.000003505    0.000013336
     33        1          -0.000003568   -0.000002194    0.000014766
     34        6           0.000000238   -0.000003105   -0.000000095
     35        1           0.000000645   -0.000000406   -0.000002516
     36        1           0.000000862   -0.000006469   -0.000001764
     37        1          -0.000000473   -0.000003092    0.000002792
     38        8           0.000001626   -0.000003367   -0.000006058
     39        1           0.000002241   -0.000003663   -0.000007697
     40        7           0.000000788   -0.000001659   -0.000002484
     41        7           0.000002330   -0.000002797   -0.000007984
     42        1          -0.000000094   -0.000001091    0.000000472
     43        7           0.000001114   -0.000000444   -0.000004569
     44        1           0.000001973   -0.000000564   -0.000007468
     45        6           0.000000605    0.000000857   -0.000002501
     46        7           0.000001704    0.000000295   -0.000006937
     47        7           0.000000346    0.000000806   -0.000001395
     48        6           0.000001577    0.000000491   -0.000006291
     49        6           0.000002813    0.000000445   -0.000010871
     50        6           0.000003724    0.000000046   -0.000014394
     51        6           0.000003325    0.000000198   -0.000013492
     52        6           0.000002297    0.000000268   -0.000008890
     53        6           0.000001508    0.000000560   -0.000005421
     54        1           0.000002877    0.000000274   -0.000011833
     55        1           0.000004525   -0.000000057   -0.000017907
     56        1           0.000004056   -0.000000086   -0.000016138
     57        1          -0.000000526    0.000000909    0.000001558
     58        6           0.000000631    0.000000441   -0.000002918
     59        1           0.000000937    0.000000597   -0.000003795
     60        7          -0.000000432    0.000000761    0.000001460
     61        6          -0.000001348    0.000000843    0.000005062
     62        6          -0.000000932    0.000000907    0.000003476
     63        6          -0.000002358    0.000004813    0.000008098
     64        1          -0.000001681   -0.000002516    0.000007060
     65        6          -0.000001950    0.000000868    0.000007738
     66        1          -0.000000586    0.000003901    0.000001373
     67        1          -0.000000166   -0.000002203    0.000001459
     68        6          -0.000003423    0.000004863    0.000012185
     69        1          -0.000002150    0.000008216    0.000006142
     70        1          -0.000002623    0.000004788    0.000009243
     71        6          -0.000003050    0.000004896    0.000010767
     72        1          -0.000001783    0.000000945    0.000006496
     73        1          -0.000002288   -0.000002527    0.000009550
     74        1          -0.000004126    0.000008006    0.000014300
     75        1          -0.000003826    0.000001877    0.000014419
     76        1          -0.000003767    0.000004731    0.000013789
     77        1          -0.000002866    0.000008175    0.000008985
 -------------------------------------------------------------------
 Cartesian Forces:  Max     0.000019009 RMS     0.000005596
 FormGI is forming the generalized inverse of G from B-inverse, IUseBI=4.
 GSVD:  received Info=                   1 from GESDD.
 Leave Link  716 at Sun Dec 16 14:43:08 2018, MaxMem=  1342177280 cpu:               7.5 elap:               0.5
 (Enter /gpfs/apps/hpc/Apps/Restricted/Gaussian/Rev_A.03/g16/l9999.exe)

 ----------------------------------------------------------------------

 Electric dipole moment (input orientation):
 (Debye = 10**-18 statcoulomb cm , SI units = C m)
                  (au)            (Debye)         (10**-30 SI)
   Tot        0.427413D+01      0.108638D+02      0.362376D+02
   x          0.395947D+01      0.100640D+02      0.335698D+02
   y          0.148498D+01      0.377445D+01      0.125902D+02
   z          0.620968D+00      0.157834D+01      0.526479D+01

 Dipole polarizability, Alpha (input orientation).
 (esu units = cm**3 , SI units = C**2 m**2 J**-1)
 Alpha(0;0):
               (au)            (10**-24 esu)      (10**-40 SI)
   iso        0.678385D+03      0.100526D+03      0.111851D+03
   aniso      0.654000D+03      0.969128D+02      0.107830D+03
   xx         0.914042D+03      0.135447D+03      0.150705D+03
   yx        -0.165675D+02     -0.245504D+01     -0.273160D+01
   yy         0.841292D+03      0.124667D+03      0.138710D+03
   zx         0.128561D+03      0.190508D+02      0.211969D+02
   zy        -0.728480D+02     -0.107950D+02     -0.120110D+02
   zz         0.279822D+03      0.414653D+02      0.461364D+02

 ----------------------------------------------------------------------

 Dipole orientation:
     6         -1.01744107         -0.81731043          3.43082581
     6         -1.47299759          1.38510726          1.98423311
     6         -1.85897060          3.69943199          3.20435884
     6         -1.77534306          3.72969046          5.83745488
     6         -1.33111229          1.52871540          7.25107137
     6         -0.93929745         -0.81454869          6.08123820
     6         -1.01020689         -1.70063373         -0.66011307
     1         -2.20828055          5.40602320          2.12979627
     1         -2.05916611          5.49796400          6.83061189
     1         -1.27087999          1.65299092          9.29438260
     6         -1.19811322         -1.91729539         -5.32213371
     6         -1.08630608         -3.20410094         -7.66091501
     6         -0.61990728         -5.80372490         -7.71933280
     6         -0.27802227         -7.03714290         -5.41573750
     6         -0.39049044         -5.74410622         -3.10357090
     6         -0.85980337         -3.13867646         -2.99369281
     6         -1.80967614          0.76066910         -8.49070419
     1         -0.52970716         -6.81515101         -9.49698490
     1          0.08431923         -9.05205638         -5.39816218
     1         -0.10992962         -6.79175028         -1.36761669
     7         -1.46013788          0.77346197         -0.56264068
     6         -2.30436949          3.00479256        -12.55398812
     6         -2.23654936          3.08586972         -9.88226409
     6         -2.57576980          5.41174857         -8.63891338
     6         -2.96156597          7.63602136         -9.97685691
     6         -3.02531309          7.49612884        -12.62985822
     6         -2.70322878          5.24145283        -13.94033244
     1         -2.52465644          5.46398813         -6.58939912
     1         -3.33744107          9.21325621        -13.71066908
     6         -3.24927744         10.13786101         -8.64368146
     1         -3.86249623          9.86946811         -6.69164783
     1         -1.45718118         11.17320625         -8.59938255
     1         -4.62771089         11.34241472         -9.59971993
     6         -2.77378623          5.12046099        -16.77769437
     1         -0.97179133          4.45362955        -17.54395616
     1         -4.21840125          3.79366106        -17.43131546
     1         -3.17791269          6.97796183        -17.57434656
     8         -2.00068633          0.83914890        -13.86909042
     1         -1.73484362         -0.55363854        -12.62031208
     7         -1.65931867          0.57226611         -5.90889488
     7         -1.47878090         -1.48409566         -9.59434191
     1         -1.82918738          1.92935128         -4.56732950
     7         -0.72831344         -2.73324159          1.70576186
     1         -0.33987396         -4.53548439          2.22392746
     6         -0.49263323         -3.15568359          7.44482208
     7          0.06591257         -5.34819965          6.34109963
     7         -0.59630935         -3.36690248         10.03166579
     6          0.02421048         -7.07816674         12.97163315
     6          0.61428278         -9.65566964         12.88103200
     6          1.05929036        -10.91008233         10.58199196
     6          0.93065049         -9.64950716          8.27192463
     6          0.34280694         -7.06838942          8.29944378
     6         -0.08312527         -5.83633997         10.63167438
     1          0.71763225        -10.70370993         14.63983817
     1          1.50678865        -12.90802868         10.61249435
     1          1.25908757        -10.62976338          6.50479309
     1         -1.03942327         -2.06708531         11.36691905
     6         -0.49305408         -5.76941912         15.34781937
     1         -0.31651340         -6.92293683         17.05273416
     7         -1.12976970         -3.43417620         15.39367321
     6         -1.64975672         -2.17544702         17.79992008
     6         -1.39888139         -3.76373489         20.20929618
     6          0.00621578          0.20701212         17.96557366
     1         -3.62108657         -1.52960156         17.66949959
     6         -2.05393814         -2.19803462         22.55691575
     1          0.54875891         -4.45657751         20.36445633
     1         -2.62347667         -5.42681041         20.09983195
     6         -0.63229791          1.77356749         20.31487052
     1          1.99212131         -0.38434118         18.03346891
     1         -0.23849099          1.32368468         16.24259312
     6         -0.42669344          0.19093343         22.73193821
     1         -1.82267300         -3.35451901         24.25595974
     1         -4.05309592         -1.65366983         22.47548436
     1          0.61137710          3.42196459         20.42570693
     1         -2.56832655          2.49465646         20.14050539
     1         -0.98807067          1.31769237         24.37321003
     1          1.55203701         -0.35690451         23.02162201

 Electric dipole moment (dipole orientation):
 (Debye = 10**-18 statcoulomb cm , SI units = C m)
                  (au)            (Debye)         (10**-30 SI)
   Tot        0.427413D+01      0.108638D+02      0.362376D+02
   x          0.000000D+00      0.000000D+00      0.000000D+00
   y          0.000000D+00      0.000000D+00      0.000000D+00
   z          0.427413D+01      0.108638D+02      0.362376D+02

 Dipole polarizability, Alpha (dipole orientation).
 (esu units = cm**3 , SI units = C**2 m**2 J**-1)
 Alpha(0;0):
               (au)            (10**-24 esu)      (10**-40 SI)
   iso        0.678385D+03      0.100526D+03      0.111851D+03
   aniso      0.654000D+03      0.969128D+02      0.107830D+03
   xx         0.268713D+03      0.398192D+02      0.443049D+02
   yx        -0.115330D+03     -0.170902D+02     -0.190154D+02
   yy         0.857982D+03      0.127140D+03      0.141462D+03
   zx         0.161071D+02      0.238683D+01      0.265571D+01
   zy        -0.500127D+02     -0.741111D+01     -0.824598D+01
   zz         0.908460D+03      0.134620D+03      0.149785D+03

 ----------------------------------------------------------------------

 This type of calculation cannot be archived.


 ERROR IS THE FORCE THAT WELDS MEN TOGETHER....
 TRUTH IS COMMUNICATED TO MEN ONLY BY DEEDS OF TRUTH.
           TOLSTOI,MY RELIGION
 Job cpu time:       0 days  0 hours  0 minutes 23.0 seconds.
 Elapsed time:       0 days  0 hours  0 minutes  1.6 seconds.
 File lengths (MBytes):  RWF=     72 Int=      0 D2E=      0 Chk=     84 Scr=      8
 Normal termination of Gaussian 16 at Sun Dec 16 14:43:08 2018.
