 Entering Gaussian System, Link 0=g16
 Input=cyclohexyl-triBIP-neutral.com
 Output=cyclohexyl-triBIP-neutral.log
 Initial command:
 /gpfs/apps/hpc/Apps/Restricted/Gaussian/Rev_A.03/g16/l1.exe "/gpfs/scratch60/fas/hammes_schiffer/jg2487/c42n01/Gau-73499.inp" -scrdir="/gpfs/scratch60/fas/hammes_schiffer/jg2487/c42n01/"
 Entering Link 1 = /gpfs/apps/hpc/Apps/Restricted/Gaussian/Rev_A.03/g16/l1.exe PID=     73500.
  
 Copyright (c) 1988,1990,1992,1993,1995,1998,2003,2009,2016,
            Gaussian, Inc.  All Rights Reserved.
  
 This is part of the Gaussian(R) 16 program.  It is based on
 the Gaussian(R) 09 system (copyright 2009, Gaussian, Inc.),
 the Gaussian(R) 03 system (copyright 2003, Gaussian, Inc.),
 the Gaussian(R) 98 system (copyright 1998, Gaussian, Inc.),
 the Gaussian(R) 94 system (copyright 1995, Gaussian, Inc.),
 the Gaussian 92(TM) system (copyright 1992, Gaussian, Inc.),
 the Gaussian 90(TM) system (copyright 1990, Gaussian, Inc.),
 the Gaussian 88(TM) system (copyright 1988, Gaussian, Inc.),
 the Gaussian 86(TM) system (copyright 1986, Carnegie Mellon
 University), and the Gaussian 82(TM) system (copyright 1983,
 Carnegie Mellon University). Gaussian is a federally registered
 trademark of Gaussian, Inc.
  
 This software contains proprietary and confidential information,
 including trade secrets, belonging to Gaussian, Inc.
  
 This software is provided under written license and may be
 used, copied, transmitted, or stored only in accord with that
 written license.
  
 The following legend is applicable only to US Government
 contracts under FAR:
  
                    RESTRICTED RIGHTS LEGEND
  
 Use, reproduction and disclosure by the US Government is
 subject to restrictions as set forth in subparagraphs (a)
 and (c) of the Commercial Computer Software - Restricted
 Rights clause in FAR 52.227-19.
  
 Gaussian, Inc.
 340 Quinnipiac St., Bldg. 40, Wallingford CT 06492
  
  
 ---------------------------------------------------------------
 Warning -- This program may not be used in any manner that
 competes with the business of Gaussian, Inc. or will provide
 assistance to any competitor of Gaussian, Inc.  The licensee
 of this program is prohibited from giving any competitor of
 Gaussian, Inc. access to this program.  By using this program,
 the user acknowledges that Gaussian, Inc. is engaged in the
 business of creating and licensing software in the field of
 computational chemistry and represents and warrants to the
 licensee that it is not a competitor of Gaussian, Inc. and that
 it will not use this program in any manner prohibited above.
 ---------------------------------------------------------------
  

 Cite this work as:
 Gaussian 16, Revision A.03,
 M. J. Frisch, G. W. Trucks, H. B. Schlegel, G. E. Scuseria, 
 M. A. Robb, J. R. Cheeseman, G. Scalmani, V. Barone, 
 G. A. Petersson, H. Nakatsuji, X. Li, M. Caricato, A. V. Marenich, 
 J. Bloino, B. G. Janesko, R. Gomperts, B. Mennucci, H. P. Hratchian, 
 J. V. Ortiz, A. F. Izmaylov, J. L. Sonnenberg, D. Williams-Young, 
 F. Ding, F. Lipparini, F. Egidi, J. Goings, B. Peng, A. Petrone, 
 T. Henderson, D. Ranasinghe, V. G. Zakrzewski, J. Gao, N. Rega, 
 G. Zheng, W. Liang, M. Hada, M. Ehara, K. Toyota, R. Fukuda, 
 J. Hasegawa, M. Ishida, T. Nakajima, Y. Honda, O. Kitao, H. Nakai, 
 T. Vreven, K. Throssell, J. A. Montgomery, Jr., J. E. Peralta, 
 F. Ogliaro, M. J. Bearpark, J. J. Heyd, E. N. Brothers, K. N. Kudin, 
 V. N. Staroverov, T. A. Keith, R. Kobayashi, J. Normand, 
 K. Raghavachari, A. P. Rendell, J. C. Burant, S. S. Iyengar, 
 J. Tomasi, M. Cossi, J. M. Millam, M. Klene, C. Adamo, R. Cammi, 
 J. W. Ochterski, R. L. Martin, K. Morokuma, O. Farkas, 
 J. B. Foresman, and D. J. Fox, Gaussian, Inc., Wallingford CT, 2016.
 
 ******************************************
 Gaussian 16:  ES64L-G16RevA.03 25-Dec-2016
                21-Dec-2018 
 ******************************************
 %chk=cyclohexyl-triBIP-neutral.chk
 %mem=10GB
 %nprocshared=16
 Will use up to   16 processors via shared memory.
 ----------------------------------------------------------------
 #p freq(ReadFC,InternalModes) Geom(AllCheck) NoSymm scale=0.9631
 ----------------------------------------------------------------
 1/18=20,29=7,38=1,114=963100/1,3;
 2/9=110,12=2,15=1,40=1/2;
 7/8=21,25=11,30=1/16;
 99/5=2/99;
 Leave Link    1 at Fri Dec 21 18:13:05 2018, MaxMem=  1342177280 cpu:               9.4 elap:               0.6
 (Enter /gpfs/apps/hpc/Apps/Restricted/Gaussian/Rev_A.03/g16/l101.exe)
 Structure from the checkpoint file:  "cyclohexyl-triBIP-neutral.chk"
 -------------------------------------------
 cyclohexylimine triBIP neutral optimization
 -------------------------------------------
 Charge =  0 Multiplicity = 1
 Redundant internal coordinates found in file.  (old form).
 C,0,1.6833273643,0.3251288987,0.8117658103
 C,0,0.5823433875,1.1596057187,0.5052697545
 C,0,0.7755329166,2.5354477543,0.3393546073
 C,0,2.0692721053,3.0321184792,0.4900902377
 C,0,3.1522895064,2.1952365833,0.803194155
 C,0,2.9885324835,0.8138562722,0.9744421863
 C,0,-0.1865347725,-0.8555562441,0.6863375567
 H,0,-0.0570173961,3.1867001702,0.1018689913
 H,0,2.2496930109,4.0932365553,0.3647267197
 H,0,4.1391272893,2.6305051139,0.9072163249
 C,0,-2.4688072333,-1.7789974423,0.5061679485
 C,0,-3.4152228948,-2.8285627427,0.5221276517
 C,0,-2.9979562449,-4.1413621874,0.7604974969
 C,0,-1.6372136048,-4.3592681988,0.9767512283
 C,0,-0.7049639364,-3.3105701234,0.9580204609
 C,0,-1.0981370026,-1.9859470984,0.7209474968
 C,0,-4.5021318692,-0.9873988109,0.0985891598
 H,0,-3.7101078952,-4.9576751525,0.7751348031
 H,0,-1.2838374718,-5.3658405585,1.1655911857
 H,0,0.341020315,-3.5332088546,1.1307540556
 N,0,-0.5702147056,0.3945825747,0.4349755805
 C,0,-6.8927295084,-0.5647985802,-0.3898049061
 C,0,-5.578919571,-0.0646023967,-0.2169378345
 C,0,-5.3243319049,1.3118172237,-0.3581839666
 C,0,-6.3371276835,2.2006540619,-0.6802545855
 C,0,-7.6291643924,1.670527627,-0.860188815
 C,0,-7.9467898796,0.3218200308,-0.7238272831
 H,0,-4.3141923338,1.6706646653,-0.2107032595
 H,0,-8.4228105138,2.3581552374,-1.1186028713
 C,0,-6.1102197759,3.7069585163,-0.8446103913
 C,0,-9.3822292465,-0.1896129529,-0.9187607194
 O,0,-7.1568565514,-1.8816037783,-0.2451649384
 H,0,-6.2988741851,-2.3466604197,-0.0168566648
 N,0,-3.1835605721,-0.6349553807,0.2409297831
 N,0,-4.6711729688,-2.3014994901,0.2673023951
 H,0,-2.7364586747,0.271427124,0.1585587332
 N,0,1.1655058022,-0.9425721096,0.9167560656
 H,0,1.7406995006,-1.7531236079,1.1143789152
 C,0,4.0680038248,-0.0937544927,1.3254945178
 N,0,3.9440150072,-1.4189264521,1.3867350629
 N,0,5.3375899276,0.3204131837,1.6502514588
 C,0,7.4063714297,-0.942680326,2.3568882838
 C,0,7.8388479385,-2.2570367686,2.5696944442
 C,0,6.983715487,-3.3573364083,2.3808117199
 C,0,5.6566409305,-3.1940345891,1.9851140261
 C,0,5.1921993666,-1.8901951834,1.7686108979
 C,0,6.0728092216,-0.7987613846,1.945649226
 H,0,8.8616841643,-2.4246631998,2.8899665373
 H,0,7.3668976962,-4.3557665163,2.5560586801
 H,0,4.9990591037,-4.0449331046,1.8538040158
 H,0,5.7326955512,1.2516786953,1.7189586741
 C,0,8.2750155826,0.2146427939,2.5634789636
 H,0,9.2895213189,-0.0085710767,2.9037322474
 N,0,7.8534507795,1.4068528288,2.3568207965
 C,0,8.7420286913,2.551721979,2.5484304921
 C,0,10.1251513196,2.2793069173,3.1498711676
 C,0,8.8756160218,3.2891963302,1.2045030819
 H,0,8.2070780032,3.2266658733,3.2317508137
 C,0,10.9068894011,3.5871532525,3.3225312563
 H,0,10.6863141217,1.6090682619,2.4867515433
 H,0,10.0234415607,1.7672692169,4.1122315226
 C,0,9.6726022717,4.5884895135,1.3579017662
 H,0,9.3816582893,2.6214691693,0.4965516311
 H,0,7.8783998109,3.4889548792,0.8013318569
 C,0,11.0443089679,4.3358609151,1.9928967743
 H,0,11.8933800445,3.3767819489,3.7472001044
 H,0,10.3839391907,4.2270275445,4.0442512684
 H,0,9.7873811349,5.0727826024,0.383281006
 H,0,9.1052321275,5.2811704507,1.9919487206
 H,0,11.5713512004,5.2830911568,2.144516527
 H,0,11.6552168265,3.7369362889,1.3058252639
 C,0,-9.4250316073,-1.2153285816,-2.0711005716
 H,0,-8.7593568488,-2.0558271275,-1.879648332
 H,0,-10.4444064712,-1.5951800303,-2.189531504
 H,0,-9.1304203833,-0.7425319563,-3.0124082239
 C,0,-6.4641974138,4.117945064,-2.2885482072
 H,0,-7.5008378892,3.8692183957,-2.5290123158
 H,0,-6.3353539821,5.1966774244,-2.4183232976
 H,0,-5.8164998845,3.607916433,-3.0066932417
 C,0,-9.887828663,-0.8419232832,0.385550961
 H,0,-10.9090693855,-1.2080072428,0.2438958148
 H,0,-9.257404143,-1.6787517504,0.6830529588
 H,0,-9.8991341474,-0.1096271329,1.1979581866
 C,0,-10.3488944413,0.9507641388,-1.2750305517
 H,0,-10.3922006509,1.7073045462,-0.4865688552
 H,0,-10.0670650006,1.4455747988,-2.2082912236
 H,0,-11.3540595946,0.5416101978,-1.402317487
 C,0,-7.0187231539,4.4751763839,0.1368326064
 H,0,-6.875626571,5.5529707477,0.0159811025
 H,0,-8.0751035554,4.2563097025,-0.03650107
 H,0,-6.7827264968,4.2119493899,1.1712943601
 C,0,-4.6541372562,4.1028361698,-0.562846589
 H,0,-4.3612921959,3.8485838551,0.4597061658
 H,0,-3.9611948032,3.6089683437,-1.2491384797
 H,0,-4.5370806674,5.1822117368,-0.6874956228
 Recover connectivity data from disk.
 ITRead=  0  0  0  0  0  0  0  0  0  0  0  0  0  0  0  0  0  0  0  0
 ITRead=  0  0  0  0  0  0  0  0  0  0  0  0  0  0  0  0  0  0  0  0
 ITRead=  0  0  0  0  0  0  0  0  0  0  0  0  0  0  0  0  0  0  0  0
 ITRead=  0  0  0  0  0  0  0  0  0  0  0  0  0  0  0  0  0  0  0  0
 ITRead=  0  0  0  0  0  0  0  0  0  0  0  0  0  0  0
 MicOpt= -1 -1 -1 -1 -1 -1 -1 -1 -1 -1 -1 -1 -1 -1 -1 -1 -1 -1 -1 -1
 MicOpt= -1 -1 -1 -1 -1 -1 -1 -1 -1 -1 -1 -1 -1 -1 -1 -1 -1 -1 -1 -1
 MicOpt= -1 -1 -1 -1 -1 -1 -1 -1 -1 -1 -1 -1 -1 -1 -1 -1 -1 -1 -1 -1
 MicOpt= -1 -1 -1 -1 -1 -1 -1 -1 -1 -1 -1 -1 -1 -1 -1 -1 -1 -1 -1 -1
 MicOpt= -1 -1 -1 -1 -1 -1 -1 -1 -1 -1 -1 -1 -1 -1 -1
 NAtoms=     95 NQM=       95 NQMF=       0 NMMI=      0 NMMIF=      0
                NMic=       0 NMicF=      0.
                    Isotopes and Nuclear Properties:
 (Nuclear quadrupole moments (NQMom) in fm**2, nuclear magnetic moments (NMagM)
  in nuclear magnetons)

  Atom         1           2           3           4           5           6           7           8           9          10
 IAtWgt=          12          12          12          12          12          12          12           1           1           1
 AtmWgt=  12.0000000  12.0000000  12.0000000  12.0000000  12.0000000  12.0000000  12.0000000   1.0078250   1.0078250   1.0078250
 NucSpn=           0           0           0           0           0           0           0           1           1           1
 AtZEff=   3.6000000   3.6000000   3.6000000   3.6000000   3.6000000   3.6000000   3.6000000   1.0000000   1.0000000   1.0000000
 NQMom=    0.0000000   0.0000000   0.0000000   0.0000000   0.0000000   0.0000000   0.0000000   0.0000000   0.0000000   0.0000000
 NMagM=    0.0000000   0.0000000   0.0000000   0.0000000   0.0000000   0.0000000   0.0000000   2.7928460   2.7928460   2.7928460
 AtZNuc=   6.0000000   6.0000000   6.0000000   6.0000000   6.0000000   6.0000000   6.0000000   1.0000000   1.0000000   1.0000000

  Atom        11          12          13          14          15          16          17          18          19          20
 IAtWgt=          12          12          12          12          12          12          12           1           1           1
 AtmWgt=  12.0000000  12.0000000  12.0000000  12.0000000  12.0000000  12.0000000  12.0000000   1.0078250   1.0078250   1.0078250
 NucSpn=           0           0           0           0           0           0           0           1           1           1
 AtZEff=   3.6000000   3.6000000   3.6000000   3.6000000   3.6000000   3.6000000   3.6000000   1.0000000   1.0000000   1.0000000
 NQMom=    0.0000000   0.0000000   0.0000000   0.0000000   0.0000000   0.0000000   0.0000000   0.0000000   0.0000000   0.0000000
 NMagM=    0.0000000   0.0000000   0.0000000   0.0000000   0.0000000   0.0000000   0.0000000   2.7928460   2.7928460   2.7928460
 AtZNuc=   6.0000000   6.0000000   6.0000000   6.0000000   6.0000000   6.0000000   6.0000000   1.0000000   1.0000000   1.0000000

  Atom        21          22          23          24          25          26          27          28          29          30
 IAtWgt=          14          12          12          12          12          12          12           1           1          12
 AtmWgt=  14.0030740  12.0000000  12.0000000  12.0000000  12.0000000  12.0000000  12.0000000   1.0078250   1.0078250  12.0000000
 NucSpn=           2           0           0           0           0           0           0           1           1           0
 AtZEff=   4.5500000   3.6000000   3.6000000   3.6000000   3.6000000   3.6000000   3.6000000   1.0000000   1.0000000   3.6000000
 NQMom=    2.0440000   0.0000000   0.0000000   0.0000000   0.0000000   0.0000000   0.0000000   0.0000000   0.0000000   0.0000000
 NMagM=    0.4037610   0.0000000   0.0000000   0.0000000   0.0000000   0.0000000   0.0000000   2.7928460   2.7928460   0.0000000
 AtZNuc=   7.0000000   6.0000000   6.0000000   6.0000000   6.0000000   6.0000000   6.0000000   1.0000000   1.0000000   6.0000000

  Atom        31          32          33          34          35          36          37          38          39          40
 IAtWgt=          12          16           1          14          14           1          14           1          12          14
 AtmWgt=  12.0000000  15.9949146   1.0078250  14.0030740  14.0030740   1.0078250  14.0030740   1.0078250  12.0000000  14.0030740
 NucSpn=           0           0           1           2           2           1           2           1           0           2
 AtZEff=   3.6000000   5.6000000   1.0000000   4.5500000   4.5500000   1.0000000   4.5500000   1.0000000   3.6000000   4.5500000
 NQMom=    0.0000000   0.0000000   0.0000000   2.0440000   2.0440000   0.0000000   2.0440000   0.0000000   0.0000000   2.0440000
 NMagM=    0.0000000   0.0000000   2.7928460   0.4037610   0.4037610   2.7928460   0.4037610   2.7928460   0.0000000   0.4037610
 AtZNuc=   6.0000000   8.0000000   1.0000000   7.0000000   7.0000000   1.0000000   7.0000000   1.0000000   6.0000000   7.0000000

  Atom        41          42          43          44          45          46          47          48          49          50
 IAtWgt=          14          12          12          12          12          12          12           1           1           1
 AtmWgt=  14.0030740  12.0000000  12.0000000  12.0000000  12.0000000  12.0000000  12.0000000   1.0078250   1.0078250   1.0078250
 NucSpn=           2           0           0           0           0           0           0           1           1           1
 AtZEff=   4.5500000   3.6000000   3.6000000   3.6000000   3.6000000   3.6000000   3.6000000   1.0000000   1.0000000   1.0000000
 NQMom=    2.0440000   0.0000000   0.0000000   0.0000000   0.0000000   0.0000000   0.0000000   0.0000000   0.0000000   0.0000000
 NMagM=    0.4037610   0.0000000   0.0000000   0.0000000   0.0000000   0.0000000   0.0000000   2.7928460   2.7928460   2.7928460
 AtZNuc=   7.0000000   6.0000000   6.0000000   6.0000000   6.0000000   6.0000000   6.0000000   1.0000000   1.0000000   1.0000000

  Atom        51          52          53          54          55          56          57          58          59          60
 IAtWgt=           1          12           1          14          12          12          12           1          12           1
 AtmWgt=   1.0078250  12.0000000   1.0078250  14.0030740  12.0000000  12.0000000  12.0000000   1.0078250  12.0000000   1.0078250
 NucSpn=           1           0           1           2           0           0           0           1           0           1
 AtZEff=   1.0000000   3.6000000   1.0000000   4.5500000   3.6000000   3.6000000   3.6000000   1.0000000   3.6000000   1.0000000
 NQMom=    0.0000000   0.0000000   0.0000000   2.0440000   0.0000000   0.0000000   0.0000000   0.0000000   0.0000000   0.0000000
 NMagM=    2.7928460   0.0000000   2.7928460   0.4037610   0.0000000   0.0000000   0.0000000   2.7928460   0.0000000   2.7928460
 AtZNuc=   1.0000000   6.0000000   1.0000000   7.0000000   6.0000000   6.0000000   6.0000000   1.0000000   6.0000000   1.0000000

  Atom        61          62          63          64          65          66          67          68          69          70
 IAtWgt=           1          12           1           1          12           1           1           1           1           1
 AtmWgt=   1.0078250  12.0000000   1.0078250   1.0078250  12.0000000   1.0078250   1.0078250   1.0078250   1.0078250   1.0078250
 NucSpn=           1           0           1           1           0           1           1           1           1           1
 AtZEff=   1.0000000   3.6000000   1.0000000   1.0000000   3.6000000   1.0000000   1.0000000   1.0000000   1.0000000   1.0000000
 NQMom=    0.0000000   0.0000000   0.0000000   0.0000000   0.0000000   0.0000000   0.0000000   0.0000000   0.0000000   0.0000000
 NMagM=    2.7928460   0.0000000   2.7928460   2.7928460   0.0000000   2.7928460   2.7928460   2.7928460   2.7928460   2.7928460
 AtZNuc=   1.0000000   6.0000000   1.0000000   1.0000000   6.0000000   1.0000000   1.0000000   1.0000000   1.0000000   1.0000000

  Atom        71          72          73          74          75          76          77          78          79          80
 IAtWgt=           1          12           1           1           1          12           1           1           1          12
 AtmWgt=   1.0078250  12.0000000   1.0078250   1.0078250   1.0078250  12.0000000   1.0078250   1.0078250   1.0078250  12.0000000
 NucSpn=           1           0           1           1           1           0           1           1           1           0
 AtZEff=   1.0000000   3.6000000   1.0000000   1.0000000   1.0000000   3.6000000   1.0000000   1.0000000   1.0000000   3.6000000
 NQMom=    0.0000000   0.0000000   0.0000000   0.0000000   0.0000000   0.0000000   0.0000000   0.0000000   0.0000000   0.0000000
 NMagM=    2.7928460   0.0000000   2.7928460   2.7928460   2.7928460   0.0000000   2.7928460   2.7928460   2.7928460   0.0000000
 AtZNuc=   1.0000000   6.0000000   1.0000000   1.0000000   1.0000000   6.0000000   1.0000000   1.0000000   1.0000000   6.0000000

  Atom        81          82          83          84          85          86          87          88          89          90
 IAtWgt=           1           1           1          12           1           1           1          12           1           1
 AtmWgt=   1.0078250   1.0078250   1.0078250  12.0000000   1.0078250   1.0078250   1.0078250  12.0000000   1.0078250   1.0078250
 NucSpn=           1           1           1           0           1           1           1           0           1           1
 AtZEff=   1.0000000   1.0000000   1.0000000   3.6000000   1.0000000   1.0000000   1.0000000   3.6000000   1.0000000   1.0000000
 NQMom=    0.0000000   0.0000000   0.0000000   0.0000000   0.0000000   0.0000000   0.0000000   0.0000000   0.0000000   0.0000000
 NMagM=    2.7928460   2.7928460   2.7928460   0.0000000   2.7928460   2.7928460   2.7928460   0.0000000   2.7928460   2.7928460
 AtZNuc=   1.0000000   1.0000000   1.0000000   6.0000000   1.0000000   1.0000000   1.0000000   6.0000000   1.0000000   1.0000000

  Atom        91          92          93          94          95
 IAtWgt=           1          12           1           1           1
 AtmWgt=   1.0078250  12.0000000   1.0078250   1.0078250   1.0078250
 NucSpn=           1           0           1           1           1
 AtZEff=   1.0000000   3.6000000   1.0000000   1.0000000   1.0000000
 NQMom=    0.0000000   0.0000000   0.0000000   0.0000000   0.0000000
 NMagM=    2.7928460   0.0000000   2.7928460   2.7928460   2.7928460
 AtZNuc=   1.0000000   6.0000000   1.0000000   1.0000000   1.0000000
 Leave Link  101 at Fri Dec 21 18:13:05 2018, MaxMem=  1342177280 cpu:               4.9 elap:               0.3
 (Enter /gpfs/apps/hpc/Apps/Restricted/Gaussian/Rev_A.03/g16/l103.exe)

 GradGradGradGradGradGradGradGradGradGradGradGradGradGradGradGradGradGrad
 Berny optimization.
 Initialization pass.
                           ----------------------------
                           !    Initial Parameters    !
                           ! (Angstroms and Degrees)  !
 --------------------------                            --------------------------
 ! Name  Definition              Value          Derivative Info.                !
 --------------------------------------------------------------------------------
 ! R1    R(1,2)                  1.4151         estimate D2E/DX2                !
 ! R2    R(1,6)                  1.4032         estimate D2E/DX2                !
 ! R3    R(1,37)                 1.3734         estimate D2E/DX2                !
 ! R4    R(2,3)                  1.3992         estimate D2E/DX2                !
 ! R5    R(2,21)                 1.3851         estimate D2E/DX2                !
 ! R6    R(3,4)                  1.394          estimate D2E/DX2                !
 ! R7    R(3,8)                  1.0834         estimate D2E/DX2                !
 ! R8    R(4,5)                  1.404          estimate D2E/DX2                !
 ! R9    R(4,9)                  1.0836         estimate D2E/DX2                !
 ! R10   R(5,6)                  1.4016         estimate D2E/DX2                !
 ! R11   R(5,10)                 1.0836         estimate D2E/DX2                !
 ! R12   R(6,39)                 1.4534         estimate D2E/DX2                !
 ! R13   R(7,16)                 1.4526         estimate D2E/DX2                !
 ! R14   R(7,21)                 1.3316         estimate D2E/DX2                !
 ! R15   R(7,37)                 1.3743         estimate D2E/DX2                !
 ! R16   R(11,12)                1.4133         estimate D2E/DX2                !
 ! R17   R(11,16)                1.4027         estimate D2E/DX2                !
 ! R18   R(11,34)                1.3748         estimate D2E/DX2                !
 ! R19   R(12,13)                1.398          estimate D2E/DX2                !
 ! R20   R(12,35)                1.3857         estimate D2E/DX2                !
 ! R21   R(13,14)                1.3949         estimate D2E/DX2                !
 ! R22   R(13,18)                1.0834         estimate D2E/DX2                !
 ! R23   R(14,15)                1.4033         estimate D2E/DX2                !
 ! R24   R(14,19)                1.0834         estimate D2E/DX2                !
 ! R25   R(15,16)                1.4019         estimate D2E/DX2                !
 ! R26   R(15,20)                1.0833         estimate D2E/DX2                !
 ! R27   R(17,23)                1.4528         estimate D2E/DX2                !
 ! R28   R(17,34)                1.3723         estimate D2E/DX2                !
 ! R29   R(17,35)                1.3356         estimate D2E/DX2                !
 ! R30   R(22,23)                1.4164         estimate D2E/DX2                !
 ! R31   R(22,27)                1.4173         estimate D2E/DX2                !
 ! R32   R(22,32)                1.3508         estimate D2E/DX2                !
 ! R33   R(23,24)                1.4069         estimate D2E/DX2                !
 ! R34   R(24,25)                1.3855         estimate D2E/DX2                !
 ! R35   R(24,28)                1.0821         estimate D2E/DX2                !
 ! R36   R(25,26)                1.4081         estimate D2E/DX2                !
 ! R37   R(25,30)                1.5321         estimate D2E/DX2                !
 ! R38   R(26,27)                1.3923         estimate D2E/DX2                !
 ! R39   R(26,29)                1.0814         estimate D2E/DX2                !
 ! R40   R(27,31)                1.5362         estimate D2E/DX2                !
 ! R41   R(30,76)                1.5425         estimate D2E/DX2                !
 ! R42   R(30,88)                1.5423         estimate D2E/DX2                !
 ! R43   R(30,92)                1.535          estimate D2E/DX2                !
 ! R44   R(31,72)                1.5433         estimate D2E/DX2                !
 ! R45   R(31,80)                1.5435         estimate D2E/DX2                !
 ! R46   R(31,84)                1.5368         estimate D2E/DX2                !
 ! R47   R(32,33)                1.0023         estimate D2E/DX2                !
 ! R48   R(34,36)                1.014          estimate D2E/DX2                !
 ! R49   R(37,38)                1.0134         estimate D2E/DX2                !
 ! R50   R(39,40)                1.3324         estimate D2E/DX2                !
 ! R51   R(39,41)                1.3744         estimate D2E/DX2                !
 ! R52   R(40,46)                1.3878         estimate D2E/DX2                !
 ! R53   R(41,47)                1.3713         estimate D2E/DX2                !
 ! R54   R(41,51)                1.0139         estimate D2E/DX2                !
 ! R55   R(42,43)                1.3999         estimate D2E/DX2                !
 ! R56   R(42,47)                1.4029         estimate D2E/DX2                !
 ! R57   R(42,52)                1.4617         estimate D2E/DX2                !
 ! R58   R(43,44)                1.4063         estimate D2E/DX2                !
 ! R59   R(43,48)                1.0848         estimate D2E/DX2                !
 ! R60   R(44,45)                1.3944         estimate D2E/DX2                !
 ! R61   R(44,49)                1.0837         estimate D2E/DX2                !
 ! R62   R(45,46)                1.4009         estimate D2E/DX2                !
 ! R63   R(45,50)                1.0834         estimate D2E/DX2                !
 ! R64   R(46,47)                1.4135         estimate D2E/DX2                !
 ! R65   R(52,53)                1.0931         estimate D2E/DX2                !
 ! R66   R(52,54)                1.2813         estimate D2E/DX2                !
 ! R67   R(54,55)                1.4619         estimate D2E/DX2                !
 ! R68   R(55,56)                1.5326         estimate D2E/DX2                !
 ! R69   R(55,57)                1.5388         estimate D2E/DX2                !
 ! R70   R(55,58)                1.0994         estimate D2E/DX2                !
 ! R71   R(56,59)                1.5334         estimate D2E/DX2                !
 ! R72   R(56,60)                1.0972         estimate D2E/DX2                !
 ! R73   R(56,61)                1.0948         estimate D2E/DX2                !
 ! R74   R(57,62)                1.532          estimate D2E/DX2                !
 ! R75   R(57,63)                1.0969         estimate D2E/DX2                !
 ! R76   R(57,64)                1.094          estimate D2E/DX2                !
 ! R77   R(59,65)                1.5321         estimate D2E/DX2                !
 ! R78   R(59,66)                1.0944         estimate D2E/DX2                !
 ! R79   R(59,67)                1.0972         estimate D2E/DX2                !
 ! R80   R(62,65)                1.5325         estimate D2E/DX2                !
 ! R81   R(62,68)                1.0943         estimate D2E/DX2                !
 ! R82   R(62,69)                1.0971         estimate D2E/DX2                !
 ! R83   R(65,70)                1.0945         estimate D2E/DX2                !
 ! R84   R(65,71)                1.0973         estimate D2E/DX2                !
 ! R85   R(72,73)                1.0891         estimate D2E/DX2                !
 ! R86   R(72,74)                1.0943         estimate D2E/DX2                !
 ! R87   R(72,75)                1.0938         estimate D2E/DX2                !
 ! R88   R(76,77)                1.0928         estimate D2E/DX2                !
 ! R89   R(76,78)                1.0941         estimate D2E/DX2                !
 ! R90   R(76,79)                1.0933         estimate D2E/DX2                !
 ! R91   R(80,81)                1.0941         estimate D2E/DX2                !
 ! R92   R(80,82)                1.0891         estimate D2E/DX2                !
 ! R93   R(80,83)                1.0938         estimate D2E/DX2                !
 ! R94   R(84,85)                1.0936         estimate D2E/DX2                !
 ! R95   R(84,86)                1.0933         estimate D2E/DX2                !
 ! R96   R(84,87)                1.0927         estimate D2E/DX2                !
 ! R97   R(88,89)                1.0939         estimate D2E/DX2                !
 ! R98   R(88,90)                1.0927         estimate D2E/DX2                !
 ! R99   R(88,91)                1.0932         estimate D2E/DX2                !
 ! R100  R(92,93)                1.0936         estimate D2E/DX2                !
 ! R101  R(92,94)                1.0932         estimate D2E/DX2                !
 ! R102  R(92,95)                1.0928         estimate D2E/DX2                !
 ! A1    A(2,1,6)              122.9176         estimate D2E/DX2                !
 ! A2    A(2,1,37)             105.5172         estimate D2E/DX2                !
 ! A3    A(6,1,37)             131.5557         estimate D2E/DX2                !
 ! A4    A(1,2,3)              119.8752         estimate D2E/DX2                !
 ! A5    A(1,2,21)             109.4322         estimate D2E/DX2                !
 ! A6    A(3,2,21)             130.6892         estimate D2E/DX2                !
 ! A7    A(2,3,4)              117.7534         estimate D2E/DX2                !
 ! A8    A(2,3,8)              120.7298         estimate D2E/DX2                !
 ! A9    A(4,3,8)              121.5168         estimate D2E/DX2                !
 ! A10   A(3,4,5)              121.8457         estimate D2E/DX2                !
 ! A11   A(3,4,9)              119.4007         estimate D2E/DX2                !
 ! A12   A(5,4,9)              118.7535         estimate D2E/DX2                !
 ! A13   A(4,5,6)              121.641          estimate D2E/DX2                !
 ! A14   A(4,5,10)             118.9778         estimate D2E/DX2                !
 ! A15   A(6,5,10)             119.3797         estimate D2E/DX2                !
 ! A16   A(1,6,5)              115.964          estimate D2E/DX2                !
 ! A17   A(1,6,39)             120.0913         estimate D2E/DX2                !
 ! A18   A(5,6,39)             123.9338         estimate D2E/DX2                !
 ! A19   A(16,7,21)            123.6588         estimate D2E/DX2                !
 ! A20   A(16,7,37)            124.3429         estimate D2E/DX2                !
 ! A21   A(21,7,37)            111.9967         estimate D2E/DX2                !
 ! A22   A(12,11,16)           122.89           estimate D2E/DX2                !
 ! A23   A(12,11,34)           105.7838         estimate D2E/DX2                !
 ! A24   A(16,11,34)           131.3243         estimate D2E/DX2                !
 ! A25   A(11,12,13)           119.9613         estimate D2E/DX2                !
 ! A26   A(11,12,35)           108.8078         estimate D2E/DX2                !
 ! A27   A(13,12,35)           131.2289         estimate D2E/DX2                !
 ! A28   A(12,13,14)           117.6639         estimate D2E/DX2                !
 ! A29   A(12,13,18)           120.9085         estimate D2E/DX2                !
 ! A30   A(14,13,18)           121.4276         estimate D2E/DX2                !
 ! A31   A(13,14,15)           121.9539         estimate D2E/DX2                !
 ! A32   A(13,14,19)           119.3628         estimate D2E/DX2                !
 ! A33   A(15,14,19)           118.6833         estimate D2E/DX2                !
 ! A34   A(14,15,16)           121.4699         estimate D2E/DX2                !
 ! A35   A(14,15,20)           119.0613         estimate D2E/DX2                !
 ! A36   A(16,15,20)           119.4689         estimate D2E/DX2                !
 ! A37   A(7,16,11)            119.6543         estimate D2E/DX2                !
 ! A38   A(7,16,15)            124.2847         estimate D2E/DX2                !
 ! A39   A(11,16,15)           116.0609         estimate D2E/DX2                !
 ! A40   A(23,17,34)           124.8604         estimate D2E/DX2                !
 ! A41   A(23,17,35)           123.9578         estimate D2E/DX2                !
 ! A42   A(34,17,35)           111.1741         estimate D2E/DX2                !
 ! A43   A(2,21,7)             105.6156         estimate D2E/DX2                !
 ! A44   A(23,22,27)           119.8476         estimate D2E/DX2                !
 ! A45   A(23,22,32)           120.8347         estimate D2E/DX2                !
 ! A46   A(27,22,32)           119.3172         estimate D2E/DX2                !
 ! A47   A(17,23,22)           119.3207         estimate D2E/DX2                !
 ! A48   A(17,23,24)           120.6053         estimate D2E/DX2                !
 ! A49   A(22,23,24)           120.073          estimate D2E/DX2                !
 ! A50   A(23,24,25)           121.2458         estimate D2E/DX2                !
 ! A51   A(23,24,28)           118.6653         estimate D2E/DX2                !
 ! A52   A(25,24,28)           120.0889         estimate D2E/DX2                !
 ! A53   A(24,25,26)           117.3182         estimate D2E/DX2                !
 ! A54   A(24,25,30)           123.1888         estimate D2E/DX2                !
 ! A55   A(26,25,30)           119.4929         estimate D2E/DX2                !
 ! A56   A(25,26,27)           124.1599         estimate D2E/DX2                !
 ! A57   A(25,26,29)           117.6805         estimate D2E/DX2                !
 ! A58   A(27,26,29)           118.1594         estimate D2E/DX2                !
 ! A59   A(22,27,26)           117.3488         estimate D2E/DX2                !
 ! A60   A(22,27,31)           121.1017         estimate D2E/DX2                !
 ! A61   A(26,27,31)           121.5486         estimate D2E/DX2                !
 ! A62   A(25,30,76)           109.1711         estimate D2E/DX2                !
 ! A63   A(25,30,88)           109.5235         estimate D2E/DX2                !
 ! A64   A(25,30,92)           111.9836         estimate D2E/DX2                !
 ! A65   A(76,30,88)           109.1353         estimate D2E/DX2                !
 ! A66   A(76,30,92)           108.7116         estimate D2E/DX2                !
 ! A67   A(88,30,92)           108.27           estimate D2E/DX2                !
 ! A68   A(27,31,72)           109.9938         estimate D2E/DX2                !
 ! A69   A(27,31,80)           109.849          estimate D2E/DX2                !
 ! A70   A(27,31,84)           111.7225         estimate D2E/DX2                !
 ! A71   A(72,31,80)           109.9376         estimate D2E/DX2                !
 ! A72   A(72,31,84)           107.6158         estimate D2E/DX2                !
 ! A73   A(80,31,84)           107.6653         estimate D2E/DX2                !
 ! A74   A(22,32,33)           108.0191         estimate D2E/DX2                !
 ! A75   A(11,34,17)           107.8089         estimate D2E/DX2                !
 ! A76   A(11,34,36)           122.0235         estimate D2E/DX2                !
 ! A77   A(17,34,36)           130.1522         estimate D2E/DX2                !
 ! A78   A(12,35,17)           106.4242         estimate D2E/DX2                !
 ! A79   A(1,37,7)             107.4378         estimate D2E/DX2                !
 ! A80   A(1,37,38)            122.6296         estimate D2E/DX2                !
 ! A81   A(7,37,38)            129.9234         estimate D2E/DX2                !
 ! A82   A(6,39,40)            124.2706         estimate D2E/DX2                !
 ! A83   A(6,39,41)            123.7111         estimate D2E/DX2                !
 ! A84   A(40,39,41)           112.0138         estimate D2E/DX2                !
 ! A85   A(39,40,46)           105.4682         estimate D2E/DX2                !
 ! A86   A(39,41,47)           107.472          estimate D2E/DX2                !
 ! A87   A(39,41,51)           130.75           estimate D2E/DX2                !
 ! A88   A(47,41,51)           121.7415         estimate D2E/DX2                !
 ! A89   A(43,42,47)           115.7547         estimate D2E/DX2                !
 ! A90   A(43,42,52)           122.5668         estimate D2E/DX2                !
 ! A91   A(47,42,52)           121.674          estimate D2E/DX2                !
 ! A92   A(42,43,44)           121.7571         estimate D2E/DX2                !
 ! A93   A(42,43,48)           118.7649         estimate D2E/DX2                !
 ! A94   A(44,43,48)           119.478          estimate D2E/DX2                !
 ! A95   A(43,44,45)           121.6822         estimate D2E/DX2                !
 ! A96   A(43,44,49)           118.9555         estimate D2E/DX2                !
 ! A97   A(45,44,49)           119.3603         estimate D2E/DX2                !
 ! A98   A(44,45,46)           117.9285         estimate D2E/DX2                !
 ! A99   A(44,45,50)           121.3378         estimate D2E/DX2                !
 ! A100  A(46,45,50)           120.7325         estimate D2E/DX2                !
 ! A101  A(40,46,45)           131.0535         estimate D2E/DX2                !
 ! A102  A(40,46,47)           109.4258         estimate D2E/DX2                !
 ! A103  A(45,46,47)           119.5206         estimate D2E/DX2                !
 ! A104  A(41,47,42)           131.0352         estimate D2E/DX2                !
 ! A105  A(41,47,46)           105.6159         estimate D2E/DX2                !
 ! A106  A(42,47,46)           123.3457         estimate D2E/DX2                !
 ! A107  A(42,52,53)           115.7127         estimate D2E/DX2                !
 ! A108  A(42,52,54)           121.2236         estimate D2E/DX2                !
 ! A109  A(53,52,54)           123.0634         estimate D2E/DX2                !
 ! A110  A(52,54,55)           120.5022         estimate D2E/DX2                !
 ! A111  A(54,55,56)           117.4376         estimate D2E/DX2                !
 ! A112  A(54,55,57)           108.2782         estimate D2E/DX2                !
 ! A113  A(54,55,58)           105.4563         estimate D2E/DX2                !
 ! A114  A(56,55,57)           110.461          estimate D2E/DX2                !
 ! A115  A(56,55,58)           107.7181         estimate D2E/DX2                !
 ! A116  A(57,55,58)           106.9091         estimate D2E/DX2                !
 ! A117  A(55,56,59)           110.6499         estimate D2E/DX2                !
 ! A118  A(55,56,60)           109.4487         estimate D2E/DX2                !
 ! A119  A(55,56,61)           110.1348         estimate D2E/DX2                !
 ! A120  A(59,56,60)           109.1665         estimate D2E/DX2                !
 ! A121  A(59,56,61)           110.3205         estimate D2E/DX2                !
 ! A122  A(60,56,61)           107.0417         estimate D2E/DX2                !
 ! A123  A(55,57,62)           111.3573         estimate D2E/DX2                !
 ! A124  A(55,57,63)           108.1796         estimate D2E/DX2                !
 ! A125  A(55,57,64)           109.2828         estimate D2E/DX2                !
 ! A126  A(62,57,63)           109.9328         estimate D2E/DX2                !
 ! A127  A(62,57,64)           110.8699         estimate D2E/DX2                !
 ! A128  A(63,57,64)           107.0871         estimate D2E/DX2                !
 ! A129  A(56,59,65)           111.3951         estimate D2E/DX2                !
 ! A130  A(56,59,66)           109.8324         estimate D2E/DX2                !
 ! A131  A(56,59,67)           109.177          estimate D2E/DX2                !
 ! A132  A(65,59,66)           110.4772         estimate D2E/DX2                !
 ! A133  A(65,59,67)           109.185          estimate D2E/DX2                !
 ! A134  A(66,59,67)           106.6477         estimate D2E/DX2                !
 ! A135  A(57,62,65)           111.5511         estimate D2E/DX2                !
 ! A136  A(57,62,68)           109.9206         estimate D2E/DX2                !
 ! A137  A(57,62,69)           108.923          estimate D2E/DX2                !
 ! A138  A(65,62,68)           110.3704         estimate D2E/DX2                !
 ! A139  A(65,62,69)           109.1164         estimate D2E/DX2                !
 ! A140  A(68,62,69)           106.8293         estimate D2E/DX2                !
 ! A141  A(59,65,62)           111.0918         estimate D2E/DX2                !
 ! A142  A(59,65,70)           110.2356         estimate D2E/DX2                !
 ! A143  A(59,65,71)           109.0635         estimate D2E/DX2                !
 ! A144  A(62,65,70)           110.2264         estimate D2E/DX2                !
 ! A145  A(62,65,71)           109.1996         estimate D2E/DX2                !
 ! A146  A(70,65,71)           106.9193         estimate D2E/DX2                !
 ! A147  A(31,72,73)           111.3886         estimate D2E/DX2                !
 ! A148  A(31,72,74)           109.7157         estimate D2E/DX2                !
 ! A149  A(31,72,75)           110.3539         estimate D2E/DX2                !
 ! A150  A(73,72,74)           108.6934         estimate D2E/DX2                !
 ! A151  A(73,72,75)           108.6767         estimate D2E/DX2                !
 ! A152  A(74,72,75)           107.9278         estimate D2E/DX2                !
 ! A153  A(30,76,77)           111.2861         estimate D2E/DX2                !
 ! A154  A(30,76,78)           110.2864         estimate D2E/DX2                !
 ! A155  A(30,76,79)           110.7714         estimate D2E/DX2                !
 ! A156  A(77,76,78)           108.0591         estimate D2E/DX2                !
 ! A157  A(77,76,79)           108.134          estimate D2E/DX2                !
 ! A158  A(78,76,79)           108.1954         estimate D2E/DX2                !
 ! A159  A(31,80,81)           109.7404         estimate D2E/DX2                !
 ! A160  A(31,80,82)           111.4651         estimate D2E/DX2                !
 ! A161  A(31,80,83)           110.3704         estimate D2E/DX2                !
 ! A162  A(81,80,82)           108.5764         estimate D2E/DX2                !
 ! A163  A(81,80,83)           108.0915         estimate D2E/DX2                !
 ! A164  A(82,80,83)           108.512          estimate D2E/DX2                !
 ! A165  A(31,84,85)           111.7841         estimate D2E/DX2                !
 ! A166  A(31,84,86)           111.8136         estimate D2E/DX2                !
 ! A167  A(31,84,87)           109.1336         estimate D2E/DX2                !
 ! A168  A(85,84,86)           108.2143         estimate D2E/DX2                !
 ! A169  A(85,84,87)           107.8548         estimate D2E/DX2                !
 ! A170  A(86,84,87)           107.8888         estimate D2E/DX2                !
 ! A171  A(30,88,89)           110.0833         estimate D2E/DX2                !
 ! A172  A(30,88,90)           111.6402         estimate D2E/DX2                !
 ! A173  A(30,88,91)           110.7967         estimate D2E/DX2                !
 ! A174  A(89,88,90)           107.8358         estimate D2E/DX2                !
 ! A175  A(89,88,91)           108.272          estimate D2E/DX2                !
 ! A176  A(90,88,91)           108.0948         estimate D2E/DX2                !
 ! A177  A(30,92,93)           111.4491         estimate D2E/DX2                !
 ! A178  A(30,92,94)           111.6866         estimate D2E/DX2                !
 ! A179  A(30,92,95)           109.5962         estimate D2E/DX2                !
 ! A180  A(93,92,94)           108.1933         estimate D2E/DX2                !
 ! A181  A(93,92,95)           107.9139         estimate D2E/DX2                !
 ! A182  A(94,92,95)           107.8605         estimate D2E/DX2                !
 ! D1    D(6,1,2,3)              0.5999         estimate D2E/DX2                !
 ! D2    D(6,1,2,21)          -178.7973         estimate D2E/DX2                !
 ! D3    D(37,1,2,3)           179.5966         estimate D2E/DX2                !
 ! D4    D(37,1,2,21)            0.1993         estimate D2E/DX2                !
 ! D5    D(2,1,6,5)             -0.5517         estimate D2E/DX2                !
 ! D6    D(2,1,6,39)           178.2916         estimate D2E/DX2                !
 ! D7    D(37,1,6,5)          -179.2598         estimate D2E/DX2                !
 ! D8    D(37,1,6,39)           -0.4165         estimate D2E/DX2                !
 ! D9    D(2,1,37,7)            -0.2235         estimate D2E/DX2                !
 ! D10   D(2,1,37,38)          178.7734         estimate D2E/DX2                !
 ! D11   D(6,1,37,7)           178.651          estimate D2E/DX2                !
 ! D12   D(6,1,37,38)           -2.3521         estimate D2E/DX2                !
 ! D13   D(1,2,3,4)             -0.1713         estimate D2E/DX2                !
 ! D14   D(1,2,3,8)            179.832          estimate D2E/DX2                !
 ! D15   D(21,2,3,4)           179.0791         estimate D2E/DX2                !
 ! D16   D(21,2,3,8)            -0.9176         estimate D2E/DX2                !
 ! D17   D(1,2,21,7)            -0.0934         estimate D2E/DX2                !
 ! D18   D(3,2,21,7)          -179.4041         estimate D2E/DX2                !
 ! D19   D(2,3,4,5)             -0.2621         estimate D2E/DX2                !
 ! D20   D(2,3,4,9)            179.8337         estimate D2E/DX2                !
 ! D21   D(8,3,4,5)            179.7346         estimate D2E/DX2                !
 ! D22   D(8,3,4,9)             -0.1696         estimate D2E/DX2                !
 ! D23   D(3,4,5,6)              0.3005         estimate D2E/DX2                !
 ! D24   D(3,4,5,10)           179.8505         estimate D2E/DX2                !
 ! D25   D(9,4,5,6)           -179.7947         estimate D2E/DX2                !
 ! D26   D(9,4,5,10)            -0.2446         estimate D2E/DX2                !
 ! D27   D(4,5,6,1)              0.1057         estimate D2E/DX2                !
 ! D28   D(4,5,6,39)          -178.688          estimate D2E/DX2                !
 ! D29   D(10,5,6,1)          -179.4425         estimate D2E/DX2                !
 ! D30   D(10,5,6,39)            1.7637         estimate D2E/DX2                !
 ! D31   D(1,6,39,40)            6.8005         estimate D2E/DX2                !
 ! D32   D(1,6,39,41)         -172.3707         estimate D2E/DX2                !
 ! D33   D(5,6,39,40)         -174.453          estimate D2E/DX2                !
 ! D34   D(5,6,39,41)            6.3758         estimate D2E/DX2                !
 ! D35   D(21,7,16,11)          -1.2379         estimate D2E/DX2                !
 ! D36   D(21,7,16,15)         178.6842         estimate D2E/DX2                !
 ! D37   D(37,7,16,11)         178.2676         estimate D2E/DX2                !
 ! D38   D(37,7,16,15)          -1.8102         estimate D2E/DX2                !
 ! D39   D(16,7,21,2)          179.5081         estimate D2E/DX2                !
 ! D40   D(37,7,21,2)           -0.0516         estimate D2E/DX2                !
 ! D41   D(16,7,37,1)         -179.3766         estimate D2E/DX2                !
 ! D42   D(16,7,37,38)           1.725          estimate D2E/DX2                !
 ! D43   D(21,7,37,1)            0.1796         estimate D2E/DX2                !
 ! D44   D(21,7,37,38)        -178.7189         estimate D2E/DX2                !
 ! D45   D(16,11,12,13)          0.0384         estimate D2E/DX2                !
 ! D46   D(16,11,12,35)       -179.5051         estimate D2E/DX2                !
 ! D47   D(34,11,12,13)        179.5914         estimate D2E/DX2                !
 ! D48   D(34,11,12,35)          0.0479         estimate D2E/DX2                !
 ! D49   D(12,11,16,7)         179.8759         estimate D2E/DX2                !
 ! D50   D(12,11,16,15)         -0.0525         estimate D2E/DX2                !
 ! D51   D(34,11,16,7)           0.4487         estimate D2E/DX2                !
 ! D52   D(34,11,16,15)       -179.4797         estimate D2E/DX2                !
 ! D53   D(12,11,34,17)         -0.2438         estimate D2E/DX2                !
 ! D54   D(12,11,34,36)       -178.9514         estimate D2E/DX2                !
 ! D55   D(16,11,34,17)        179.2563         estimate D2E/DX2                !
 ! D56   D(16,11,34,36)          0.5488         estimate D2E/DX2                !
 ! D57   D(11,12,13,14)          0.0232         estimate D2E/DX2                !
 ! D58   D(11,12,13,18)       -179.937          estimate D2E/DX2                !
 ! D59   D(35,12,13,14)        179.4486         estimate D2E/DX2                !
 ! D60   D(35,12,13,18)         -0.5116         estimate D2E/DX2                !
 ! D61   D(11,12,35,17)          0.1708         estimate D2E/DX2                !
 ! D62   D(13,12,35,17)       -179.3033         estimate D2E/DX2                !
 ! D63   D(12,13,14,15)         -0.0689         estimate D2E/DX2                !
 ! D64   D(12,13,14,19)        179.9108         estimate D2E/DX2                !
 ! D65   D(18,13,14,15)        179.8911         estimate D2E/DX2                !
 ! D66   D(18,13,14,19)         -0.1292         estimate D2E/DX2                !
 ! D67   D(13,14,15,16)          0.055          estimate D2E/DX2                !
 ! D68   D(13,14,15,20)       -179.93           estimate D2E/DX2                !
 ! D69   D(19,14,15,16)       -179.9248         estimate D2E/DX2                !
 ! D70   D(19,14,15,20)          0.0902         estimate D2E/DX2                !
 ! D71   D(14,15,16,7)        -179.9181         estimate D2E/DX2                !
 ! D72   D(14,15,16,11)          0.0066         estimate D2E/DX2                !
 ! D73   D(20,15,16,7)           0.0668         estimate D2E/DX2                !
 ! D74   D(20,15,16,11)        179.9915         estimate D2E/DX2                !
 ! D75   D(34,17,23,22)        177.4832         estimate D2E/DX2                !
 ! D76   D(34,17,23,24)         -2.1545         estimate D2E/DX2                !
 ! D77   D(35,17,23,22)         -1.4103         estimate D2E/DX2                !
 ! D78   D(35,17,23,24)        178.952          estimate D2E/DX2                !
 ! D79   D(23,17,34,11)       -178.6459         estimate D2E/DX2                !
 ! D80   D(23,17,34,36)         -0.0796         estimate D2E/DX2                !
 ! D81   D(35,17,34,11)          0.3699         estimate D2E/DX2                !
 ! D82   D(35,17,34,36)        178.9362         estimate D2E/DX2                !
 ! D83   D(23,17,35,12)        178.694          estimate D2E/DX2                !
 ! D84   D(34,17,35,12)         -0.3323         estimate D2E/DX2                !
 ! D85   D(27,22,23,17)       -178.7565         estimate D2E/DX2                !
 ! D86   D(27,22,23,24)          0.8832         estimate D2E/DX2                !
 ! D87   D(32,22,23,17)          1.0001         estimate D2E/DX2                !
 ! D88   D(32,22,23,24)       -179.3602         estimate D2E/DX2                !
 ! D89   D(23,22,27,26)         -0.3628         estimate D2E/DX2                !
 ! D90   D(23,22,27,31)        179.9685         estimate D2E/DX2                !
 ! D91   D(32,22,27,26)        179.8768         estimate D2E/DX2                !
 ! D92   D(32,22,27,31)          0.2081         estimate D2E/DX2                !
 ! D93   D(23,22,32,33)         -0.0794         estimate D2E/DX2                !
 ! D94   D(27,22,32,33)        179.6786         estimate D2E/DX2                !
 ! D95   D(17,23,24,25)        178.9391         estimate D2E/DX2                !
 ! D96   D(17,23,24,28)         -1.0153         estimate D2E/DX2                !
 ! D97   D(22,23,24,25)         -0.6959         estimate D2E/DX2                !
 ! D98   D(22,23,24,28)        179.3497         estimate D2E/DX2                !
 ! D99   D(23,24,25,26)         -0.0082         estimate D2E/DX2                !
 ! D100  D(23,24,25,30)        179.9844         estimate D2E/DX2                !
 ! D101  D(28,24,25,26)        179.9456         estimate D2E/DX2                !
 ! D102  D(28,24,25,30)         -0.0618         estimate D2E/DX2                !
 ! D103  D(24,25,26,27)          0.5564         estimate D2E/DX2                !
 ! D104  D(24,25,26,29)       -179.5773         estimate D2E/DX2                !
 ! D105  D(30,25,26,27)       -179.4365         estimate D2E/DX2                !
 ! D106  D(30,25,26,29)          0.4298         estimate D2E/DX2                !
 ! D107  D(24,25,30,76)        118.4489         estimate D2E/DX2                !
 ! D108  D(24,25,30,88)       -122.1123         estimate D2E/DX2                !
 ! D109  D(24,25,30,92)         -1.9904         estimate D2E/DX2                !
 ! D110  D(26,25,30,76)        -61.5587         estimate D2E/DX2                !
 ! D111  D(26,25,30,88)         57.8802         estimate D2E/DX2                !
 ! D112  D(26,25,30,92)        178.0021         estimate D2E/DX2                !
 ! D113  D(25,26,27,22)         -0.3663         estimate D2E/DX2                !
 ! D114  D(25,26,27,31)        179.3008         estimate D2E/DX2                !
 ! D115  D(29,26,27,22)        179.768          estimate D2E/DX2                !
 ! D116  D(29,26,27,31)         -0.5649         estimate D2E/DX2                !
 ! D117  D(22,27,31,72)        -60.5356         estimate D2E/DX2                !
 ! D118  D(22,27,31,80)         60.6043         estimate D2E/DX2                !
 ! D119  D(22,27,31,84)       -179.9825         estimate D2E/DX2                !
 ! D120  D(26,27,31,72)        119.8097         estimate D2E/DX2                !
 ! D121  D(26,27,31,80)       -119.0504         estimate D2E/DX2                !
 ! D122  D(26,27,31,84)          0.3628         estimate D2E/DX2                !
 ! D123  D(25,30,76,77)         58.5003         estimate D2E/DX2                !
 ! D124  D(25,30,76,78)        178.415          estimate D2E/DX2                !
 ! D125  D(25,30,76,79)        -61.8326         estimate D2E/DX2                !
 ! D126  D(88,30,76,77)        -61.1787         estimate D2E/DX2                !
 ! D127  D(88,30,76,78)         58.736          estimate D2E/DX2                !
 ! D128  D(88,30,76,79)        178.4884         estimate D2E/DX2                !
 ! D129  D(92,30,76,77)       -179.0747         estimate D2E/DX2                !
 ! D130  D(92,30,76,78)        -59.16           estimate D2E/DX2                !
 ! D131  D(92,30,76,79)         60.5923         estimate D2E/DX2                !
 ! D132  D(25,30,88,89)       -179.1005         estimate D2E/DX2                !
 ! D133  D(25,30,88,90)        -59.3712         estimate D2E/DX2                !
 ! D134  D(25,30,88,91)         61.1669         estimate D2E/DX2                !
 ! D135  D(76,30,88,89)        -59.6396         estimate D2E/DX2                !
 ! D136  D(76,30,88,90)         60.0897         estimate D2E/DX2                !
 ! D137  D(76,30,88,91)       -179.3722         estimate D2E/DX2                !
 ! D138  D(92,30,88,89)         58.5338         estimate D2E/DX2                !
 ! D139  D(92,30,88,90)        178.2631         estimate D2E/DX2                !
 ! D140  D(92,30,88,91)        -61.1988         estimate D2E/DX2                !
 ! D141  D(25,30,92,93)        -60.416          estimate D2E/DX2                !
 ! D142  D(25,30,92,94)         60.732          estimate D2E/DX2                !
 ! D143  D(25,30,92,95)       -179.8003         estimate D2E/DX2                !
 ! D144  D(76,30,92,93)        178.8778         estimate D2E/DX2                !
 ! D145  D(76,30,92,94)        -59.9741         estimate D2E/DX2                !
 ! D146  D(76,30,92,95)         59.4936         estimate D2E/DX2                !
 ! D147  D(88,30,92,93)         60.4347         estimate D2E/DX2                !
 ! D148  D(88,30,92,94)       -178.4172         estimate D2E/DX2                !
 ! D149  D(88,30,92,95)        -58.9495         estimate D2E/DX2                !
 ! D150  D(27,31,72,73)         58.1932         estimate D2E/DX2                !
 ! D151  D(27,31,72,74)        178.5912         estimate D2E/DX2                !
 ! D152  D(27,31,72,75)        -62.6118         estimate D2E/DX2                !
 ! D153  D(80,31,72,73)        -62.8936         estimate D2E/DX2                !
 ! D154  D(80,31,72,74)         57.5044         estimate D2E/DX2                !
 ! D155  D(80,31,72,75)        176.3014         estimate D2E/DX2                !
 ! D156  D(84,31,72,73)       -179.8853         estimate D2E/DX2                !
 ! D157  D(84,31,72,74)        -59.4873         estimate D2E/DX2                !
 ! D158  D(84,31,72,75)         59.3096         estimate D2E/DX2                !
 ! D159  D(27,31,80,81)       -179.8403         estimate D2E/DX2                !
 ! D160  D(27,31,80,82)        -59.5233         estimate D2E/DX2                !
 ! D161  D(27,31,80,83)         61.1357         estimate D2E/DX2                !
 ! D162  D(72,31,80,81)        -58.6667         estimate D2E/DX2                !
 ! D163  D(72,31,80,82)         61.6504         estimate D2E/DX2                !
 ! D164  D(72,31,80,83)       -177.6906         estimate D2E/DX2                !
 ! D165  D(84,31,80,81)         58.2942         estimate D2E/DX2                !
 ! D166  D(84,31,80,82)        178.6112         estimate D2E/DX2                !
 ! D167  D(84,31,80,83)        -60.7298         estimate D2E/DX2                !
 ! D168  D(27,31,84,85)        -60.7013         estimate D2E/DX2                !
 ! D169  D(27,31,84,86)         60.8007         estimate D2E/DX2                !
 ! D170  D(27,31,84,87)       -179.92           estimate D2E/DX2                !
 ! D171  D(72,31,84,85)        178.4572         estimate D2E/DX2                !
 ! D172  D(72,31,84,86)        -60.0408         estimate D2E/DX2                !
 ! D173  D(72,31,84,87)         59.2385         estimate D2E/DX2                !
 ! D174  D(80,31,84,85)         59.9936         estimate D2E/DX2                !
 ! D175  D(80,31,84,86)       -178.5045         estimate D2E/DX2                !
 ! D176  D(80,31,84,87)        -59.2251         estimate D2E/DX2                !
 ! D177  D(6,39,40,46)        -179.2962         estimate D2E/DX2                !
 ! D178  D(41,39,40,46)         -0.0398         estimate D2E/DX2                !
 ! D179  D(6,39,41,47)         178.8825         estimate D2E/DX2                !
 ! D180  D(6,39,41,51)           1.1031         estimate D2E/DX2                !
 ! D181  D(40,39,41,47)         -0.3787         estimate D2E/DX2                !
 ! D182  D(40,39,41,51)       -178.1581         estimate D2E/DX2                !
 ! D183  D(39,40,46,45)       -179.6267         estimate D2E/DX2                !
 ! D184  D(39,40,46,47)          0.4357         estimate D2E/DX2                !
 ! D185  D(39,41,47,42)       -178.7323         estimate D2E/DX2                !
 ! D186  D(39,41,47,46)          0.6177         estimate D2E/DX2                !
 ! D187  D(51,41,47,42)         -0.7103         estimate D2E/DX2                !
 ! D188  D(51,41,47,46)        178.6397         estimate D2E/DX2                !
 ! D189  D(47,42,43,44)         -0.0039         estimate D2E/DX2                !
 ! D190  D(47,42,43,48)       -179.9271         estimate D2E/DX2                !
 ! D191  D(52,42,43,44)        179.2351         estimate D2E/DX2                !
 ! D192  D(52,42,43,48)         -0.6881         estimate D2E/DX2                !
 ! D193  D(43,42,47,41)       -179.8141         estimate D2E/DX2                !
 ! D194  D(43,42,47,46)          0.9353         estimate D2E/DX2                !
 ! D195  D(52,42,47,41)          0.9395         estimate D2E/DX2                !
 ! D196  D(52,42,47,46)       -178.311          estimate D2E/DX2                !
 ! D197  D(43,42,52,53)         -0.409          estimate D2E/DX2                !
 ! D198  D(43,42,52,54)        179.7811         estimate D2E/DX2                !
 ! D199  D(47,42,52,53)        178.7856         estimate D2E/DX2                !
 ! D200  D(47,42,52,54)         -1.0243         estimate D2E/DX2                !
 ! D201  D(42,43,44,45)         -0.6788         estimate D2E/DX2                !
 ! D202  D(42,43,44,49)        179.8331         estimate D2E/DX2                !
 ! D203  D(48,43,44,45)        179.2438         estimate D2E/DX2                !
 ! D204  D(48,43,44,49)         -0.2442         estimate D2E/DX2                !
 ! D205  D(43,44,45,46)          0.4291         estimate D2E/DX2                !
 ! D206  D(43,44,45,50)       -179.1882         estimate D2E/DX2                !
 ! D207  D(49,44,45,46)        179.9151         estimate D2E/DX2                !
 ! D208  D(49,44,45,50)          0.2979         estimate D2E/DX2                !
 ! D209  D(44,45,46,40)       -179.4658         estimate D2E/DX2                !
 ! D210  D(44,45,46,47)          0.4667         estimate D2E/DX2                !
 ! D211  D(50,45,46,40)          0.1539         estimate D2E/DX2                !
 ! D212  D(50,45,46,47)       -179.9137         estimate D2E/DX2                !
 ! D213  D(40,46,47,41)         -0.6611         estimate D2E/DX2                !
 ! D214  D(40,46,47,42)        178.7519         estimate D2E/DX2                !
 ! D215  D(45,46,47,41)        179.3929         estimate D2E/DX2                !
 ! D216  D(45,46,47,42)         -1.1941         estimate D2E/DX2                !
 ! D217  D(42,52,54,55)       -179.0442         estimate D2E/DX2                !
 ! D218  D(53,52,54,55)          1.1601         estimate D2E/DX2                !
 ! D219  D(52,54,55,56)         -6.7022         estimate D2E/DX2                !
 ! D220  D(52,54,55,57)        119.1919         estimate D2E/DX2                !
 ! D221  D(52,54,55,58)       -126.6579         estimate D2E/DX2                !
 ! D222  D(54,55,56,59)       -178.2234         estimate D2E/DX2                !
 ! D223  D(54,55,56,60)         61.4343         estimate D2E/DX2                !
 ! D224  D(54,55,56,61)        -55.9848         estimate D2E/DX2                !
 ! D225  D(57,55,56,59)         56.9643         estimate D2E/DX2                !
 ! D226  D(57,55,56,60)        -63.378          estimate D2E/DX2                !
 ! D227  D(57,55,56,61)        179.2029         estimate D2E/DX2                !
 ! D228  D(58,55,56,59)        -59.4656         estimate D2E/DX2                !
 ! D229  D(58,55,56,60)       -179.8079         estimate D2E/DX2                !
 ! D230  D(58,55,56,61)         62.773          estimate D2E/DX2                !
 ! D231  D(54,55,57,62)        173.9152         estimate D2E/DX2                !
 ! D232  D(54,55,57,63)        -65.1742         estimate D2E/DX2                !
 ! D233  D(54,55,57,64)         51.0914         estimate D2E/DX2                !
 ! D234  D(56,55,57,62)        -56.2049         estimate D2E/DX2                !
 ! D235  D(56,55,57,63)         64.7056         estimate D2E/DX2                !
 ! D236  D(56,55,57,64)       -179.0288         estimate D2E/DX2                !
 ! D237  D(58,55,57,62)         60.7269         estimate D2E/DX2                !
 ! D238  D(58,55,57,63)       -178.3626         estimate D2E/DX2                !
 ! D239  D(58,55,57,64)        -62.097          estimate D2E/DX2                !
 ! D240  D(55,56,59,65)        -56.953          estimate D2E/DX2                !
 ! D241  D(55,56,59,66)       -179.6859         estimate D2E/DX2                !
 ! D242  D(55,56,59,67)         63.7067         estimate D2E/DX2                !
 ! D243  D(60,56,59,65)         63.5576         estimate D2E/DX2                !
 ! D244  D(60,56,59,66)        -59.1753         estimate D2E/DX2                !
 ! D245  D(60,56,59,67)       -175.7827         estimate D2E/DX2                !
 ! D246  D(61,56,59,65)       -179.0829         estimate D2E/DX2                !
 ! D247  D(61,56,59,66)         58.1842         estimate D2E/DX2                !
 ! D248  D(61,56,59,67)        -58.4231         estimate D2E/DX2                !
 ! D249  D(55,57,62,65)         54.9911         estimate D2E/DX2                !
 ! D250  D(55,57,62,68)        177.7562         estimate D2E/DX2                !
 ! D251  D(55,57,62,69)        -65.5141         estimate D2E/DX2                !
 ! D252  D(63,57,62,65)        -64.887          estimate D2E/DX2                !
 ! D253  D(63,57,62,68)         57.8781         estimate D2E/DX2                !
 ! D254  D(63,57,62,69)        174.6078         estimate D2E/DX2                !
 ! D255  D(64,57,62,65)        176.8997         estimate D2E/DX2                !
 ! D256  D(64,57,62,68)        -60.3352         estimate D2E/DX2                !
 ! D257  D(64,57,62,69)         56.3945         estimate D2E/DX2                !
 ! D258  D(56,59,65,62)         55.3721         estimate D2E/DX2                !
 ! D259  D(56,59,65,70)        177.8595         estimate D2E/DX2                !
 ! D260  D(56,59,65,71)        -65.0399         estimate D2E/DX2                !
 ! D261  D(66,59,65,62)        177.7341         estimate D2E/DX2                !
 ! D262  D(66,59,65,70)        -59.7785         estimate D2E/DX2                !
 ! D263  D(66,59,65,71)         57.3221         estimate D2E/DX2                !
 ! D264  D(67,59,65,62)        -65.283          estimate D2E/DX2                !
 ! D265  D(67,59,65,70)         57.2044         estimate D2E/DX2                !
 ! D266  D(67,59,65,71)        174.305          estimate D2E/DX2                !
 ! D267  D(57,62,65,59)        -54.2979         estimate D2E/DX2                !
 ! D268  D(57,62,65,70)       -176.7906         estimate D2E/DX2                !
 ! D269  D(57,62,65,71)         66.0335         estimate D2E/DX2                !
 ! D270  D(68,62,65,59)       -176.8054         estimate D2E/DX2                !
 ! D271  D(68,62,65,70)         60.7019         estimate D2E/DX2                !
 ! D272  D(68,62,65,71)        -56.474          estimate D2E/DX2                !
 ! D273  D(69,62,65,59)         66.0939         estimate D2E/DX2                !
 ! D274  D(69,62,65,70)        -56.3989         estimate D2E/DX2                !
 ! D275  D(69,62,65,71)       -173.5747         estimate D2E/DX2                !
 --------------------------------------------------------------------------------
 Trust Radius=3.00D-01 FncErr=1.00D-07 GrdErr=1.00D-07 EigMax=2.50D+02 EigMin=1.00D-04
 Number of steps in this run=    569 maximum allowed number of steps=    570.
 GradGradGradGradGradGradGradGradGradGradGradGradGradGradGradGradGradGrad

 Leave Link  103 at Fri Dec 21 18:13:05 2018, MaxMem=  1342177280 cpu:               0.6 elap:               0.1
 (Enter /gpfs/apps/hpc/Apps/Restricted/Gaussian/Rev_A.03/g16/l202.exe)
 Symmetry turned off by external request.
 Stoichiometry    C42H45N7O
 Framework group  C1[X(C42H45N7O)]
 Deg. of freedom   279
 Full point group                 C1      NOp   1
                          Input orientation:                          
 ---------------------------------------------------------------------
 Center     Atomic      Atomic             Coordinates (Angstroms)
 Number     Number       Type             X           Y           Z
 ---------------------------------------------------------------------
      1          6           0        1.683327    0.325129    0.811766
      2          6           0        0.582343    1.159606    0.505270
      3          6           0        0.775533    2.535448    0.339355
      4          6           0        2.069272    3.032118    0.490090
      5          6           0        3.152290    2.195237    0.803194
      6          6           0        2.988532    0.813856    0.974442
      7          6           0       -0.186535   -0.855556    0.686338
      8          1           0       -0.057017    3.186700    0.101869
      9          1           0        2.249693    4.093237    0.364727
     10          1           0        4.139127    2.630505    0.907216
     11          6           0       -2.468807   -1.778997    0.506168
     12          6           0       -3.415223   -2.828563    0.522128
     13          6           0       -2.997956   -4.141362    0.760497
     14          6           0       -1.637214   -4.359268    0.976751
     15          6           0       -0.704964   -3.310570    0.958020
     16          6           0       -1.098137   -1.985947    0.720947
     17          6           0       -4.502132   -0.987399    0.098589
     18          1           0       -3.710108   -4.957675    0.775135
     19          1           0       -1.283837   -5.365841    1.165591
     20          1           0        0.341020   -3.533209    1.130754
     21          7           0       -0.570215    0.394583    0.434976
     22          6           0       -6.892730   -0.564799   -0.389805
     23          6           0       -5.578920   -0.064602   -0.216938
     24          6           0       -5.324332    1.311817   -0.358184
     25          6           0       -6.337128    2.200654   -0.680255
     26          6           0       -7.629164    1.670528   -0.860189
     27          6           0       -7.946790    0.321820   -0.723827
     28          1           0       -4.314192    1.670665   -0.210703
     29          1           0       -8.422811    2.358155   -1.118603
     30          6           0       -6.110220    3.706959   -0.844610
     31          6           0       -9.382229   -0.189613   -0.918761
     32          8           0       -7.156857   -1.881604   -0.245165
     33          1           0       -6.298874   -2.346660   -0.016857
     34          7           0       -3.183561   -0.634955    0.240930
     35          7           0       -4.671173   -2.301499    0.267302
     36          1           0       -2.736459    0.271427    0.158559
     37          7           0        1.165506   -0.942572    0.916756
     38          1           0        1.740700   -1.753124    1.114379
     39          6           0        4.068004   -0.093754    1.325495
     40          7           0        3.944015   -1.418926    1.386735
     41          7           0        5.337590    0.320413    1.650251
     42          6           0        7.406371   -0.942680    2.356888
     43          6           0        7.838848   -2.257037    2.569694
     44          6           0        6.983715   -3.357336    2.380812
     45          6           0        5.656641   -3.194035    1.985114
     46          6           0        5.192199   -1.890195    1.768611
     47          6           0        6.072809   -0.798761    1.945649
     48          1           0        8.861684   -2.424663    2.889967
     49          1           0        7.366898   -4.355767    2.556059
     50          1           0        4.999059   -4.044933    1.853804
     51          1           0        5.732696    1.251679    1.718959
     52          6           0        8.275016    0.214643    2.563479
     53          1           0        9.289521   -0.008571    2.903732
     54          7           0        7.853451    1.406853    2.356821
     55          6           0        8.742029    2.551722    2.548430
     56          6           0       10.125151    2.279307    3.149871
     57          6           0        8.875616    3.289196    1.204503
     58          1           0        8.207078    3.226666    3.231751
     59          6           0       10.906889    3.587153    3.322531
     60          1           0       10.686314    1.609068    2.486752
     61          1           0       10.023442    1.767269    4.112232
     62          6           0        9.672602    4.588490    1.357902
     63          1           0        9.381658    2.621469    0.496552
     64          1           0        7.878400    3.488955    0.801332
     65          6           0       11.044309    4.335861    1.992897
     66          1           0       11.893380    3.376782    3.747200
     67          1           0       10.383939    4.227028    4.044251
     68          1           0        9.787381    5.072783    0.383281
     69          1           0        9.105232    5.281170    1.991949
     70          1           0       11.571351    5.283091    2.144517
     71          1           0       11.655217    3.736936    1.305825
     72          6           0       -9.425032   -1.215329   -2.071101
     73          1           0       -8.759357   -2.055827   -1.879648
     74          1           0      -10.444406   -1.595180   -2.189532
     75          1           0       -9.130420   -0.742532   -3.012408
     76          6           0       -6.464197    4.117945   -2.288548
     77          1           0       -7.500838    3.869218   -2.529012
     78          1           0       -6.335354    5.196677   -2.418323
     79          1           0       -5.816500    3.607916   -3.006693
     80          6           0       -9.887829   -0.841923    0.385551
     81          1           0      -10.909069   -1.208007    0.243896
     82          1           0       -9.257404   -1.678752    0.683053
     83          1           0       -9.899134   -0.109627    1.197958
     84          6           0      -10.348894    0.950764   -1.275031
     85          1           0      -10.392201    1.707305   -0.486569
     86          1           0      -10.067065    1.445575   -2.208291
     87          1           0      -11.354060    0.541610   -1.402317
     88          6           0       -7.018723    4.475176    0.136833
     89          1           0       -6.875627    5.552971    0.015981
     90          1           0       -8.075104    4.256310   -0.036501
     91          1           0       -6.782726    4.211949    1.171294
     92          6           0       -4.654137    4.102836   -0.562847
     93          1           0       -4.361292    3.848584    0.459706
     94          1           0       -3.961195    3.608968   -1.249138
     95          1           0       -4.537081    5.182212   -0.687496
 ---------------------------------------------------------------------
 Rotational constants (GHZ):           0.1231726           0.0176903           0.0156341
 Leave Link  202 at Fri Dec 21 18:13:05 2018, MaxMem=  1342177280 cpu:               0.8 elap:               0.1
 (Enter /gpfs/apps/hpc/Apps/Restricted/Gaussian/Rev_A.03/g16/l716.exe)
 Electric field and nuclear coordinate derivatives read from checkpoint file.
 Dipole        = 4.02792885D+00 1.54700388D+00 7.08917785D-01
 Polarizability= 1.00677808D+03-1.33172007D+01 9.33628369D+02
                 1.33202272D+02-7.85514153D+01 3.71915977D+02
 Full mass-weighted force constant matrix:
 Low frequencies ---   -0.0040    0.0002    0.0038    0.7174    6.1942   12.1343
 Low frequencies ---   17.3104   18.3106   22.3898
 Diagonal vibrational polarizability:
      109.8324761      41.5708836      96.2764011
 Harmonic frequencies (cm**-1), IR intensities (KM/Mole), Raman scattering
 activities (A**4/AMU), depolarization ratios for plane and unpolarized
 incident light, reduced masses (AMU), force constants (mDyne/A),
 and normal coordinates:
                      1                      2                      3
                      A                      A                      A
 Frequencies --     12.0741                18.0689                19.6569
 Red. masses --      5.6230                 4.6724                 4.4732
 Frc consts  --      0.0005                 0.0009                 0.0010
 IR Inten    --      0.0947                 0.0708                 0.0254
  Atom  AN      X      Y      Z        X      Y      Z        X      Y      Z
     1   6    -0.02   0.03   0.13    -0.01  -0.05  -0.00     0.01   0.03  -0.06
     2   6    -0.02   0.04   0.15    -0.01  -0.06  -0.01     0.01   0.03  -0.07
     3   6    -0.02   0.04   0.18    -0.02  -0.06  -0.03     0.02   0.02  -0.10
     4   6    -0.02   0.03   0.19    -0.02  -0.05  -0.04     0.02   0.02  -0.12
     5   6    -0.02   0.03   0.16    -0.02  -0.05  -0.03     0.02   0.02  -0.11
     6   6    -0.02   0.02   0.13    -0.01  -0.05  -0.02     0.01   0.03  -0.07
     7   6    -0.02   0.03   0.10    -0.01  -0.06   0.02     0.00   0.04  -0.01
     8   1    -0.02   0.05   0.20    -0.02  -0.07  -0.03     0.02   0.03  -0.11
     9   1    -0.02   0.04   0.21    -0.02  -0.06  -0.05     0.03   0.02  -0.14
    10   1    -0.01   0.02   0.16    -0.02  -0.04  -0.04     0.02   0.02  -0.12
    11   6    -0.01   0.02   0.05    -0.01  -0.04   0.04     0.00   0.03   0.03
    12   6    -0.01   0.02   0.02    -0.03  -0.03   0.05     0.01   0.03   0.04
    13   6    -0.00   0.02   0.02    -0.04  -0.03   0.05     0.02   0.03   0.04
    14   6    -0.01   0.02   0.04    -0.04  -0.05   0.05     0.02   0.04   0.02
    15   6    -0.01   0.03   0.06    -0.03  -0.06   0.04     0.01   0.04   0.01
    16   6    -0.01   0.03   0.07    -0.02  -0.05   0.04     0.00   0.04   0.01
    17   6    -0.01   0.01   0.01    -0.00  -0.02   0.04    -0.01   0.02   0.05
    18   1    -0.00   0.01  -0.00    -0.04  -0.03   0.05     0.02   0.02   0.05
    19   1    -0.00   0.02   0.03    -0.05  -0.05   0.05     0.03   0.04   0.02
    20   1    -0.01   0.03   0.07    -0.03  -0.06   0.04     0.02   0.05  -0.00
    21   7    -0.02   0.04   0.13    -0.01  -0.06   0.01     0.01   0.03  -0.04
    22   6    -0.00  -0.01  -0.04     0.01   0.02  -0.01    -0.01  -0.01   0.01
    23   6    -0.01   0.00  -0.00     0.01  -0.00   0.04    -0.02   0.01   0.05
    24   6    -0.02   0.01   0.01     0.04  -0.00   0.06    -0.04   0.01   0.08
    25   6    -0.02  -0.00  -0.02     0.06   0.02   0.05    -0.05   0.00   0.06
    26   6    -0.01  -0.01  -0.05     0.06   0.04  -0.00    -0.03  -0.02   0.02
    27   6    -0.00  -0.02  -0.06     0.03   0.04  -0.03    -0.01  -0.03  -0.01
    28   1    -0.03   0.02   0.03     0.03  -0.02   0.10    -0.05   0.03   0.12
    29   1    -0.01  -0.02  -0.07     0.07   0.05  -0.02    -0.03  -0.03  -0.00
    30   6    -0.04  -0.00  -0.02     0.09   0.02   0.08    -0.06   0.01   0.09
    31   6     0.01  -0.03  -0.10     0.04   0.06  -0.09     0.01  -0.06  -0.08
    32   8     0.01  -0.01  -0.05    -0.01   0.02  -0.02     0.01  -0.02  -0.01
    33   1     0.01  -0.00  -0.03    -0.02   0.01   0.00     0.01  -0.01   0.02
    34   7    -0.01   0.02   0.04    -0.00  -0.03   0.04    -0.01   0.03   0.04
    35   7    -0.00   0.01   0.00    -0.02  -0.02   0.04     0.00   0.02   0.05
    36   1    -0.02   0.03   0.07     0.02  -0.04   0.03    -0.02   0.03   0.02
    37   7    -0.02   0.02   0.09    -0.01  -0.05   0.01     0.00   0.04  -0.02
    38   1    -0.02   0.02   0.07    -0.01  -0.05   0.02     0.00   0.04  -0.01
    39   6    -0.01   0.01   0.08    -0.01  -0.04  -0.01     0.00   0.02  -0.05
    40   7    -0.01   0.01   0.06     0.01  -0.04  -0.00    -0.01   0.03  -0.02
    41   7     0.00   0.00   0.04    -0.01  -0.02  -0.01     0.01   0.01  -0.04
    42   6     0.03  -0.02  -0.07     0.01   0.01  -0.01    -0.02  -0.00   0.02
    43   6     0.03  -0.02  -0.11     0.02   0.02  -0.00    -0.04  -0.00   0.05
    44   6     0.02  -0.01  -0.09     0.04   0.01   0.00    -0.05   0.01   0.06
    45   6     0.01  -0.00  -0.04     0.04  -0.01   0.01    -0.05   0.02   0.04
    46   6     0.00   0.00  -0.00     0.02  -0.02   0.00    -0.02   0.02   0.01
    47   6     0.01  -0.00  -0.02     0.00  -0.01  -0.01    -0.01   0.01  -0.01
    48   1     0.04  -0.03  -0.15     0.03   0.04  -0.00    -0.05  -0.01   0.07
    49   1     0.03  -0.02  -0.12     0.05   0.01   0.01    -0.07   0.00   0.09
    50   1     0.00  -0.00  -0.03     0.05  -0.02   0.01    -0.06   0.02   0.05
    51   1     0.01   0.00   0.05    -0.02  -0.02  -0.02     0.02   0.01  -0.06
[...]
 ! A40   A(23,17,34)             0.0238                  1.5                    !
 ! A42   A(34,17,35)            -0.0231                  1.4                    !
 ! A75   A(11,34,17)             0.0473                  2.9                    !
 ! A77   A(17,34,36)            -0.0503                  3.1                    !
 --------------------------------------------------------------------------------
                           ----------------------------
                           ! Normal Mode   278        !
 --------------------------                            --------------------------
 ! Name  Definition              Value          Relative Weight (%)             !
 --------------------------------------------------------------------------------
 ! R48   R(34,36)               -0.1006                  6.3                    !
 ! R49   R(37,38)                0.0343                  2.1                    !
 ! R51   R(39,41)               -0.0482                  3.0                    !
 ! R53   R(41,47)               -0.0432                  2.7                    !
 ! R54   R(41,51)                1.0661                 66.6                    !
 ! A83   A(6,39,41)              0.0236                  1.5                    !
 ! A84   A(40,39,41)            -0.0227                  1.4                    !
 ! A86   A(39,41,47)             0.047                   2.9                    !
 ! A87   A(39,41,51)            -0.0511                  3.2                    !
 ! A104  A(41,47,42)             0.0244                  1.5                    !
 ! A105  A(41,47,46)            -0.0236                  1.5                    !
 --------------------------------------------------------------------------------
                           ----------------------------
                           ! Normal Mode   279        !
 --------------------------                            --------------------------
 ! Name  Definition              Value          Relative Weight (%)             !
 --------------------------------------------------------------------------------
 ! R3    R(1,37)                 0.044                   2.9                    !
 ! R15   R(7,37)                 0.0475                  3.2                    !
 ! R48   R(34,36)                0.0453                  3.0                    !
 ! R49   R(37,38)               -1.07                   70.9                    !
 ! R54   R(41,51)                0.0386                  2.6                    !
 ! A2    A(2,1,37)               0.0234                  1.6                    !
 ! A3    A(6,1,37)              -0.0243                  1.6                    !
 ! A20   A(16,7,37)             -0.0238                  1.6                    !
 ! A21   A(21,7,37)              0.0229                  1.5                    !
 ! A79   A(1,37,7)              -0.0471                  3.1                    !
 ! A81   A(7,37,38)              0.0472                  3.1                    !
 --------------------------------------------------------------------------------
 -------------------------------------------------------------------
 Center     Atomic                   Forces (Hartrees/Bohr)
 Number     Number              X              Y              Z
 -------------------------------------------------------------------
      1        6           0.000000319    0.000000820   -0.000000229
      2        6          -0.000000117    0.000000591    0.000000546
      3        6          -0.000001052    0.000000893    0.000002567
      4        6          -0.000001324    0.000001522    0.000003493
      5        6          -0.000000808    0.000001646    0.000002551
      6        6          -0.000000129    0.000001327    0.000000617
      7        6           0.000001073   -0.000000247   -0.000002373
      8        1          -0.000001348    0.000000785    0.000003348
      9        1          -0.000001932    0.000001820    0.000005000
     10        1          -0.000001134    0.000002165    0.000003322
     11        6           0.000001583   -0.000001172   -0.000004103
     12        6           0.000002302   -0.000001810   -0.000005463
     13        6           0.000002833   -0.000001962   -0.000007368
     14        6           0.000003206   -0.000001388   -0.000007405
     15        6           0.000002353   -0.000000796   -0.000005773
     16        6           0.000001665   -0.000000745   -0.000004085
     17        6           0.000001257   -0.000001631   -0.000003084
     18        1           0.000003424   -0.000002380   -0.000008644
     19        1           0.000003606   -0.000001444   -0.000008790
     20        1           0.000002500   -0.000000425   -0.000005943
     21        7           0.000000162   -0.000000017   -0.000000510
     22        6           0.000000997   -0.000002721   -0.000003205
     23        6           0.000000703   -0.000002065   -0.000002111
     24        6          -0.000000125   -0.000001884   -0.000000196
     25        6          -0.000000620   -0.000001905    0.000000919
     26        6          -0.000000375   -0.000002549   -0.000000081
     27        6           0.000000481   -0.000002729   -0.000002183
     28        1          -0.000000351   -0.000001390    0.000000467
     29        1          -0.000000711   -0.000002567    0.000000681
     30        6          -0.000001482   -0.000001589    0.000003006
     31        6           0.000000863   -0.000003485   -0.000003000
     32        8           0.000001553   -0.000002804   -0.000005010
     33        1           0.000002095   -0.000003094   -0.000005195
     34        7           0.000000864   -0.000001397   -0.000002552
     35        7           0.000002033   -0.000002248   -0.000005466
     36        1           0.000000345   -0.000000930   -0.000001124
     37        7           0.000000954    0.000000383   -0.000002157
     38        1           0.000001369    0.000000528   -0.000003247
     39        6           0.000000467    0.000001666   -0.000000299
     40        7           0.000001184    0.000001425   -0.000002404
     41        7          -0.000000006    0.000001831    0.000000188
     42        6           0.000000640    0.000002205   -0.000000867
     43        6           0.000001624    0.000001890   -0.000002688
     44        6           0.000002098    0.000001747   -0.000004564
     45        6           0.000002166    0.000001595   -0.000004501
     46        6           0.000001484    0.000001504   -0.000002878
     47        6           0.000000446    0.000002033   -0.000001047
     48        1           0.000001550    0.000002252   -0.000002846
     49        1           0.000002753    0.000001816   -0.000005814
     50        1           0.000002699    0.000001371   -0.000005798
     51        1          -0.000000411    0.000001964    0.000001638
     52        6           0.000000136    0.000002666    0.000000147
     53        1           0.000000121    0.000002428    0.000000681
     54        7          -0.000000605    0.000002515    0.000002282
     55        6          -0.000001546    0.000002506    0.000004179
     56        6          -0.000001369    0.000002681    0.000003852
     57        6          -0.000001676    0.000004489    0.000005067
     58        1          -0.000001882    0.000001391    0.000004873
     59        6          -0.000002184    0.000002897    0.000005925
     60        1          -0.000000852    0.000003907    0.000003082
     61        1          -0.000001200    0.000001260    0.000003195
     62        6          -0.000002411    0.000004951    0.000007039
     63        1          -0.000001081    0.000005923    0.000004246
     64        1          -0.000001614    0.000004580    0.000005202
     65        6          -0.000002346    0.000004760    0.000006874
     66        1          -0.000002094    0.000002902    0.000005749
     67        1          -0.000002670    0.000001555    0.000006652
     68        1          -0.000002533    0.000006281    0.000007761
     69        1          -0.000002942    0.000003637    0.000007894
     70        1          -0.000002978    0.000004934    0.000008346
     71        1          -0.000001905    0.000006164    0.000006226
     72        6           0.000001605   -0.000001903   -0.000004496
     73        1           0.000002102   -0.000001660   -0.000005561
     74        1           0.000001929   -0.000002263   -0.000005166
     75        1           0.000001619   -0.000000348   -0.000003768
     76        6          -0.000001477    0.000000214    0.000003494
     77        1          -0.000001299   -0.000000051    0.000002957
     78        1          -0.000002105    0.000000528    0.000005029
     79        1          -0.000001023    0.000001640    0.000002895
     80        6           0.000001070   -0.000005466   -0.000003963
     81        1           0.000001271   -0.000005984   -0.000004710
     82        1           0.000001474   -0.000005580   -0.000005059
     83        1           0.000000430   -0.000006692   -0.000003014
     84        6           0.000000332   -0.000003503   -0.000001613
     85        1          -0.000000294   -0.000004620   -0.000000556
     86        1           0.000000165   -0.000002027   -0.000000858
     87        1           0.000000495   -0.000003934   -0.000002362
     88        6          -0.000002126   -0.000003470    0.000003862
     89        1          -0.000002787   -0.000003209    0.000005410
     90        1          -0.000001954   -0.000003871    0.000003426
     91        1          -0.000002136   -0.000004750    0.000003587
     92        6          -0.000001771   -0.000001089    0.000003813
     93        1          -0.000001813   -0.000002297    0.000003447
     94        1          -0.000001389    0.000000320    0.000003257
     95        1          -0.000002409   -0.000000818    0.000005335
 -------------------------------------------------------------------
 Cartesian Forces:  Max     0.000008790 RMS     0.000003101
 FormGI is forming the generalized inverse of G from B-inverse, IUseBI=4.
 Leave Link  716 at Fri Dec 21 18:13:06 2018, MaxMem=  1342177280 cpu:              11.3 elap:               0.7
 (Enter /gpfs/apps/hpc/Apps/Restricted/Gaussian/Rev_A.03/g16/l9999.exe)

 ----------------------------------------------------------------------

 Electric dipole moment (input orientation):
 (Debye = 10**-18 statcoulomb cm , SI units = C m)
                  (au)            (Debye)         (10**-30 SI)
   Tot        0.437264D+01      0.111141D+02      0.370728D+02
   x          0.402793D+01      0.102380D+02      0.341502D+02
   y          0.154700D+01      0.393209D+01      0.131160D+02
   z          0.708918D+00      0.180189D+01      0.601046D+01

 Dipole polarizability, Alpha (input orientation).
 (esu units = cm**3 , SI units = C**2 m**2 J**-1)
 Alpha(0;0):
               (au)            (10**-24 esu)      (10**-40 SI)
   iso        0.770774D+03      0.114217D+03      0.127083D+03
   aniso      0.658963D+03      0.976483D+02      0.108648D+03
   xx         0.100678D+04      0.149189D+03      0.165995D+03
   yx        -0.133172D+02     -0.197341D+01     -0.219571D+01
   yy         0.933628D+03      0.138349D+03      0.153935D+03
   zx         0.133202D+03      0.197385D+02      0.219621D+02
   zy        -0.785514D+02     -0.116401D+02     -0.129514D+02
   zz         0.371916D+03      0.551123D+02      0.613207D+02

 ----------------------------------------------------------------------

 Dipole orientation:
     6         -0.72703925         -0.88656402          3.39632898
     6         -1.19713462          1.30889797          1.94379288
     6         -1.53892969          3.63737539          3.14910148
     6         -1.40484204          3.68846843          5.77941991
     6         -0.95413607          1.49405451          7.20109719
     6         -0.60368135         -0.86292452          6.04495440
     6         -0.83646073         -1.80264159         -0.68643376
     1         -1.89517941          5.33549272          2.06248641
     1         -1.65695173          5.46591645          6.76451070
     1         -0.86268389          1.63548394          9.24181319
     6         -1.19720811         -2.02980356         -5.33188626
     6         -1.15136355         -3.30869198         -7.67617807
     6         -0.65782613         -5.90281702         -7.75448770
     6         -0.22493688         -7.13594794         -5.46520392
     6         -0.27272149         -5.84916198         -3.14700036
     6         -0.76249678         -3.24873547         -3.01844758
     6         -1.94402939          0.65502810         -8.46703177
     1         -0.61383727         -6.91166062         -9.53544392
     1          0.15995778         -9.14674318         -5.46517168
     1          0.07793544         -6.89437218         -1.42213024
     7         -1.25704920          0.67671272         -0.59553142
     6         -2.53679907          2.96102402        -12.49556136
     6         -2.43287081          2.99262885         -9.82116725
     6         -2.78660712          5.27304958         -8.50103567
     6         -3.21343094          7.52385066         -9.76848624
     6         -3.27809327          7.43496398        -12.42715421
     6         -2.96268350          5.23794330        -13.83998806
     1         -2.71842465          5.24421478         -6.45753530
     1         -3.59735105          9.18779183        -13.42813932
     6         -3.60988509         10.05340112         -8.41678143
     6         -3.08426476          5.26660093        -16.74038190
     8         -2.22542719          0.78391088        -13.79140247
     1         -1.93890756         -0.60758684        -12.53884345
     7         -1.70623341          0.45537945         -5.89248474
     7         -1.62751114         -1.58400971         -9.58816832
     1         -1.81519785          1.80184403         -4.53344833
     7         -0.50203073         -2.81992532          1.67955072
     1         -0.12319849         -4.62361525          2.19945655
     6         -0.18335986         -3.20009270          7.42479810
     7          0.34908136         -5.40982111          6.34175769
     7         -0.32079382         -3.39166098         10.01122849
     6          0.17338808         -7.09025395         12.98449201
     6          0.72000629         -9.67797369         12.92378598
     6          1.19586316        -10.95383364         10.64171789
     6          1.12144615         -9.71064732          8.31955836
     6          0.57053762         -7.12124989          8.31645716
     6          0.13298847         -5.86592228         10.63331884
     1          0.77287847        -10.71679519         14.69034251
     1          1.61530329        -12.95760723         10.69491422
     1          1.46564709        -10.70915189          6.56575745
     1         -0.73244797         -2.07668999         11.34267466
     6         -0.35662353         -5.73724102         15.33363000
     1         -0.31332312         -6.87873762         17.05464287
     7         -0.84364896         -3.36537634         15.33355085
     6         -1.33081808         -2.03391115         17.70447245
     6         -1.52814497         -3.62833901         20.11428213
     6          0.68592170          0.03732547         18.01832402
     1         -3.15076849         -1.06917953         17.43385405
     6         -2.12317513         -1.95277486         22.40237801
     1          0.26751333         -4.61253325         20.43986403
     1         -2.98388581         -5.08123591         19.88973955
     6          0.13672874          1.70326426         20.32134362
     1          2.53018365         -0.88344987         18.23589861
     1          0.77339191          1.17217443         16.29245003
     6         -0.13531474          0.12581658         22.73478977
     1         -2.24791225         -3.11420763         24.10907239
     1         -3.98526573         -1.07920971         22.14096764
     1          1.63517908          3.11064949         20.54633081
     1         -1.62337963          2.74802711         19.99105340
     1         -0.63248377          1.34235516         24.33198048
     1          1.68961074         -0.74847732         23.18730560
     6         -0.55657955          4.33015098        -17.85369815
     1         -0.10499840          2.43214009        -17.19819947
     1         -0.66890864          4.30904144        -19.91841743
     1          0.98167159          5.60057753        -17.31314746
     6         -1.49464512         11.89936385         -9.20057947
     1         -1.47283765         12.19009311        -11.24507560
     1         -1.77470978         13.73679560         -8.29484747
     1          0.35602101         11.17624382         -8.63410894
     6         -5.26686800          3.56259901        -17.65701319
     1         -5.34701694          3.58121988        -19.72289123
     1         -5.01981246          1.61855567        -17.02793191
     1         -7.07490877          4.26023056        -16.93820274
     6         -3.56133645          7.93996460        -17.76983624
     1         -5.35685961          8.71144446        -17.09785840
     1         -2.05527689          9.24890469        -17.23435218
     1         -3.63547506          7.86783596        -19.83212394
     6         -6.18870097         11.17405731         -9.18396529
     1         -6.47653448         12.99638799         -8.25131526
     1         -6.30964063         11.48071593        -11.22229329
     1         -7.72960897          9.91353188         -8.63220783
     6         -3.56768976          9.76090335         -5.53110723
     1         -5.06363573          8.49334637         -4.87803924
     1         -1.75796559          9.01976013         -4.86531297
     1         -3.86302870         11.60223892         -4.64389267

 Electric dipole moment (dipole orientation):
 (Debye = 10**-18 statcoulomb cm , SI units = C m)
                  (au)            (Debye)         (10**-30 SI)
   Tot        0.437264D+01      0.111141D+02      0.370728D+02
   x          0.000000D+00      0.000000D+00      0.000000D+00
   y          0.000000D+00      0.000000D+00      0.000000D+00
   z          0.437264D+01      0.111141D+02      0.370728D+02

 Dipole polarizability, Alpha (dipole orientation).
 (esu units = cm**3 , SI units = C**2 m**2 J**-1)
 Alpha(0;0):
               (au)            (10**-24 esu)      (10**-40 SI)
   iso        0.770774D+03      0.114217D+03      0.127083D+03
   aniso      0.658963D+03      0.976483D+02      0.108648D+03
   xx         0.357529D+03      0.529803D+02      0.589486D+02
   yx        -0.114386D+03     -0.169502D+02     -0.188597D+02
   yy         0.951764D+03      0.141037D+03      0.156925D+03
   zx         0.262099D+02      0.388391D+01      0.432144D+01
   zy        -0.473005D+02     -0.700921D+01     -0.779880D+01
   zz         0.100303D+04      0.148634D+03      0.165377D+03

 ----------------------------------------------------------------------

 This type of calculation cannot be archived.


 CHARLIE BROWN.."I CAN'T GET THAT STUPID KITE IN THE
 AIR... I CAN'T... I C A N N O T..."
 LUCY.."OH COME NOW CHARLIE BROWN...THAT'S NO WAY TO TALK...
 THE TROUBLE WITH YOU IS YOU DON'T BELIEVE IN YOURSELF... YOU
 DON'T BELIEVE IN YOUR OWN ABILITIES...  YOU'VE GOT TO SAY TO
 YOURSELF...'I BELIEVE I CAN FLY THIS KITE.'... GO AHEAD SAY
 IT...."
 CHARLIE BROWN.."I BELIEVE THAT I CAN FLY THIS STUPID
 KITE.....I BELIEVE THAT I CAN FLY THIS KITE........
 I  A C T U A L L Y  B E L I E V E  T H A T  I  C A N ******"
 LUCY.."I'LL BET YOU TEN-TO-ONE YOU'RE WRONG......."    SCHULZ
 Job cpu time:       0 days  0 hours  0 minutes 27.5 seconds.
 Elapsed time:       0 days  0 hours  0 minutes  1.9 seconds.
 File lengths (MBytes):  RWF=     80 Int=      0 D2E=      0 Chk=    112 Scr=      8
 Normal termination of Gaussian 16 at Fri Dec 21 18:13:06 2018.
