 Entering Gaussian System, Link 0=g16
 Initial command:
 /gpfs/apps/hpc/Apps/Restricted/Gaussian/Rev_A.03/g16/l1.exe "/gpfs/scratch60/fas/hammes_schiffer/jg2487/c01n07/Gau-9509.inp" -scrdir="/gpfs/scratch60/fas/hammes_schiffer/jg2487/c01n07/"
 Entering Link 1 = /gpfs/apps/hpc/Apps/Restricted/Gaussian/Rev_A.03/g16/l1.exe PID=      9510.
  
 Copyright (c) 1988,1990,1992,1993,1995,1998,2003,2009,2016,
            Gaussian, Inc.  All Rights Reserved.
  
 This is part of the Gaussian(R) 16 program.  It is based on
 the Gaussian(R) 09 system (copyright 2009, Gaussian, Inc.),
 the Gaussian(R) 03 system (copyright 2003, Gaussian, Inc.),
 the Gaussian(R) 98 system (copyright 1998, Gaussian, Inc.),
 the Gaussian(R) 94 system (copyright 1995, Gaussian, Inc.),
 the Gaussian 92(TM) system (copyright 1992, Gaussian, Inc.),
 the Gaussian 90(TM) system (copyright 1990, Gaussian, Inc.),
 the Gaussian 88(TM) system (copyright 1988, Gaussian, Inc.),
 the Gaussian 86(TM) system (copyright 1986, Carnegie Mellon
 University), and the Gaussian 82(TM) system (copyright 1983,
 Carnegie Mellon University). Gaussian is a federally registered
 trademark of Gaussian, Inc.
  
 This software contains proprietary and confidential information,
 including trade secrets, belonging to Gaussian, Inc.
  
 This software is provided under written license and may be
 used, copied, transmitted, or stored only in accord with that
 written license.
  
 The following legend is applicable only to US Government
 contracts under FAR:
  
                    RESTRICTED RIGHTS LEGEND
  
 Use, reproduction and disclosure by the US Government is
 subject to restrictions as set forth in subparagraphs (a)
 and (c) of the Commercial Computer Software - Restricted
 Rights clause in FAR 52.227-19.
  
 Gaussian, Inc.
 340 Quinnipiac St., Bldg. 40, Wallingford CT 06492
  
  
 ---------------------------------------------------------------
 Warning -- This program may not be used in any manner that
 competes with the business of Gaussian, Inc. or will provide
 assistance to any competitor of Gaussian, Inc.  The licensee
 of this program is prohibited from giving any competitor of
 Gaussian, Inc. access to this program.  By using this program,
 the user acknowledges that Gaussian, Inc. is engaged in the
 business of creating and licensing software in the field of
 computational chemistry and represents and warrants to the
 licensee that it is not a competitor of Gaussian, Inc. and that
 it will not use this program in any manner prohibited above.
 ---------------------------------------------------------------
  

 Cite this work as:
 Gaussian 16, Revision A.03,
 M. J. Frisch, G. W. Trucks, H. B. Schlegel, G. E. Scuseria, 
 M. A. Robb, J. R. Cheeseman, G. Scalmani, V. Barone, 
 G. A. Petersson, H. Nakatsuji, X. Li, M. Caricato, A. V. Marenich, 
 J. Bloino, B. G. Janesko, R. Gomperts, B. Mennucci, H. P. Hratchian, 
 J. V. Ortiz, A. F. Izmaylov, J. L. Sonnenberg, D. Williams-Young, 
 F. Ding, F. Lipparini, F. Egidi, J. Goings, B. Peng, A. Petrone, 
 T. Henderson, D. Ranasinghe, V. G. Zakrzewski, J. Gao, N. Rega, 
 G. Zheng, W. Liang, M. Hada, M. Ehara, K. Toyota, R. Fukuda, 
 J. Hasegawa, M. Ishida, T. Nakajima, Y. Honda, O. Kitao, H. Nakai, 
 T. Vreven, K. Throssell, J. A. Montgomery, Jr., J. E. Peralta, 
 F. Ogliaro, M. J. Bearpark, J. J. Heyd, E. N. Brothers, K. N. Kudin, 
 V. N. Staroverov, T. A. Keith, R. Kobayashi, J. Normand, 
 K. Raghavachari, A. P. Rendell, J. C. Burant, S. S. Iyengar, 
 J. Tomasi, M. Cossi, J. M. Millam, M. Klene, C. Adamo, R. Cammi, 
 J. W. Ochterski, R. L. Martin, K. Morokuma, O. Farkas, 
 J. B. Foresman, and D. J. Fox, Gaussian, Inc., Wallingford CT, 2016.
 
 ******************************************
 Gaussian 16:  ES64L-G16RevA.03 25-Dec-2016
                14-Dec-2018 
 ******************************************
 %chk=cyclohexyl-monoBIP-E2PT.chk
 %mem=10GB
 %nprocshared=16
 Will use up to   16 processors via shared memory.
 ----------------------------------------------------------------------
 #p opt=tight freq=internalmodes b3lyp/6-31g(d,p) scrf=(cpcm,solvent=di
 chloromethane,read) nosymm empiricaldispersion=gd3bj int=grid=ultrafin
 e
 ----------------------------------------------------------------------
 1/7=10,18=20,19=15,26=6,38=1,40=2/1,3;
 2/9=110,12=2,15=1,17=6,18=5,40=1/2;
 3/5=1,6=6,7=101,11=2,25=1,30=1,70=2103,71=1,72=9,74=-5,75=-5,124=41/1,2,3;
 4//1;
 5/5=2,38=5,53=9/2;
 6/7=2,8=2,9=2,10=2,28=1/1;
 7/30=1/1,2,3,16;
 1/7=10,18=20,19=15,26=6/3(2);
 2/9=110,15=1/2;
 99//99;
 2/9=110,15=1/2;
 3/5=1,6=6,7=101,11=2,25=1,30=1,70=2105,71=1,72=9,74=-5,75=-5,124=41/1,2,3;
 4/5=5,16=3,69=1/1;
 5/5=2,38=5,53=9/2;
 7/30=1/1,2,3,16;
 1/7=10,18=20,19=15,26=6/3(-5);
 2/9=110,15=1/2;
 6/7=2,8=2,9=2,10=2,19=2,28=1/1;
 99/9=1/99;
 Leave Link    1 at Fri Dec 14 10:26:29 2018, MaxMem=  1342177280 cpu:               8.2 elap:               0.5
 (Enter /gpfs/apps/hpc/Apps/Restricted/Gaussian/Rev_A.03/g16/l101.exe)
 ----------------------------------------------------------------------
 cyclohexylimine monoBIP oxidized, with both protons transferred optimi
 zation
 ----------------------------------------------------------------------
 Symbolic Z-matrix:
 Charge =  1 Multiplicity = 2
 C                    -0.52249   2.72092   0.33407 
 C                    -1.92037   2.94681   0.27176 
 C                    -2.46318   4.22888   0.21239 
 C                    -1.5704    5.30478   0.22296 
 C                    -0.18611   5.1094    0.28415 
 C                     0.37071   3.81949   0.33404 
 C                    -1.45275   0.78026   0.35285 
 H                    -3.5328    4.38713   0.16009 
 H                    -1.96041   6.31388   0.18208 
 H                     0.47728   5.96643   0.29019 
 N                    -2.47101   1.68795   0.28383 
 C                    -3.03159  -1.19658   0.29644 
 C                    -1.67158  -0.65247   0.39144 
 C                    -0.59527  -1.51004   0.52076 
 C                    -0.76828  -2.90789   0.57347 
 C                    -2.07158  -3.44604   0.47261 
 C                    -3.1862   -2.64923   0.33507 
 H                     0.40258  -1.09378   0.59202 
 H                    -2.19169  -4.52362   0.51264 
 C                     0.42057  -3.80108   0.75021 
 H                     1.15243  -3.6371   -0.04659 
 H                     0.92753  -3.57593   1.69417 
 H                     0.13403  -4.85271   0.75157 
 C                    -4.56946  -3.20657   0.23426 
 H                    -5.21068  -2.7883    1.01511 
 H                    -5.02937  -2.9368   -0.72114 
 H                    -4.55888  -4.29253   0.32609 
 O                    -4.04375  -0.45717   0.18862 
 N                    -0.25165   1.38069   0.38343 
 C                     1.78916   3.64288   0.36613 
 H                     2.42742   4.51992   0.36827 
 N                     2.35762   2.47525   0.39038 
 C                     3.81496   2.23979   0.40237 
 C                     4.44186   2.62113  -0.94626 
 C                     4.49321   2.9728    1.56535 
 H                     3.92241   1.16341   0.55083 
 C                     5.94769   2.33168  -0.92899 
 H                     4.26968   3.68929  -1.12204 
 H                     3.94744   2.07107  -1.75099 
 C                     5.99683   2.6741    1.57442 
 H                     4.34164   4.05163   1.4472 
 H                     4.02544   2.67642   2.50739 
 C                     6.64425   3.04413   0.23518 
 H                     6.39102   2.6285   -1.88348 
 H                     6.09972   1.24989  -0.83273 
 H                     6.46974   3.21879   2.3961 
 H                     6.15056   1.60592   1.76974 
 H                     7.70846   2.79267   0.24793 
 H                     6.57367   4.12915   0.08952 
 H                    -3.44181   1.38842   0.24228 
 H                     1.72612   1.6651    0.38123 
 
 ITRead=  0  0  0  0  0  0  0  0  0  0  0  0  0  0  0  0  0  0  0  0
 ITRead=  0  0  0  0  0  0  0  0  0  0  0  0  0  0  0  0  0  0  0  0
 ITRead=  0  0  0  0  0  0  0  0  0  0  0
 MicOpt= -1 -1 -1 -1 -1 -1 -1 -1 -1 -1 -1 -1 -1 -1 -1 -1 -1 -1 -1 -1
 MicOpt= -1 -1 -1 -1 -1 -1 -1 -1 -1 -1 -1 -1 -1 -1 -1 -1 -1 -1 -1 -1
 MicOpt= -1 -1 -1 -1 -1 -1 -1 -1 -1 -1 -1
 NAtoms=     51 NQM=       51 NQMF=       0 NMMI=      0 NMMIF=      0
                NMic=       0 NMicF=      0.
                    Isotopes and Nuclear Properties:
 (Nuclear quadrupole moments (NQMom) in fm**2, nuclear magnetic moments (NMagM)
  in nuclear magnetons)

  Atom         1           2           3           4           5           6           7           8           9          10
 IAtWgt=          12          12          12          12          12          12          12           1           1           1
 AtmWgt=  12.0000000  12.0000000  12.0000000  12.0000000  12.0000000  12.0000000  12.0000000   1.0078250   1.0078250   1.0078250
 NucSpn=           0           0           0           0           0           0           0           1           1           1
 AtZEff=  -0.0000000  -0.0000000  -0.0000000  -0.0000000  -0.0000000  -0.0000000  -0.0000000  -0.0000000  -0.0000000  -0.0000000
 NQMom=    0.0000000   0.0000000   0.0000000   0.0000000   0.0000000   0.0000000   0.0000000   0.0000000   0.0000000   0.0000000
 NMagM=    0.0000000   0.0000000   0.0000000   0.0000000   0.0000000   0.0000000   0.0000000   2.7928460   2.7928460   2.7928460
 AtZNuc=   6.0000000   6.0000000   6.0000000   6.0000000   6.0000000   6.0000000   6.0000000   1.0000000   1.0000000   1.0000000

  Atom        11          12          13          14          15          16          17          18          19          20
 IAtWgt=          14          12          12          12          12          12          12           1           1          12
 AtmWgt=  14.0030740  12.0000000  12.0000000  12.0000000  12.0000000  12.0000000  12.0000000   1.0078250   1.0078250  12.0000000
 NucSpn=           2           0           0           0           0           0           0           1           1           0
 AtZEff=  -0.0000000  -0.0000000  -0.0000000  -0.0000000  -0.0000000  -0.0000000  -0.0000000  -0.0000000  -0.0000000  -0.0000000
 NQMom=    2.0440000   0.0000000   0.0000000   0.0000000   0.0000000   0.0000000   0.0000000   0.0000000   0.0000000   0.0000000
 NMagM=    0.4037610   0.0000000   0.0000000   0.0000000   0.0000000   0.0000000   0.0000000   2.7928460   2.7928460   0.0000000
 AtZNuc=   7.0000000   6.0000000   6.0000000   6.0000000   6.0000000   6.0000000   6.0000000   1.0000000   1.0000000   6.0000000

  Atom        21          22          23          24          25          26          27          28          29          30
 IAtWgt=           1           1           1          12           1           1           1          16          14          12
 AtmWgt=   1.0078250   1.0078250   1.0078250  12.0000000   1.0078250   1.0078250   1.0078250  15.9949146  14.0030740  12.0000000
 NucSpn=           1           1           1           0           1           1           1           0           2           0
 AtZEff=  -0.0000000  -0.0000000  -0.0000000  -0.0000000  -0.0000000  -0.0000000  -0.0000000  -0.0000000  -0.0000000  -0.0000000
 NQMom=    0.0000000   0.0000000   0.0000000   0.0000000   0.0000000   0.0000000   0.0000000   0.0000000   2.0440000   0.0000000
 NMagM=    2.7928460   2.7928460   2.7928460   0.0000000   2.7928460   2.7928460   2.7928460   0.0000000   0.4037610   0.0000000
 AtZNuc=   1.0000000   1.0000000   1.0000000   6.0000000   1.0000000   1.0000000   1.0000000   8.0000000   7.0000000   6.0000000

  Atom        31          32          33          34          35          36          37          38          39          40
 IAtWgt=           1          14          12          12          12           1          12           1           1          12
 AtmWgt=   1.0078250  14.0030740  12.0000000  12.0000000  12.0000000   1.0078250  12.0000000   1.0078250   1.0078250  12.0000000
 NucSpn=           1           2           0           0           0           1           0           1           1           0
 AtZEff=  -0.0000000  -0.0000000  -0.0000000  -0.0000000  -0.0000000  -0.0000000  -0.0000000  -0.0000000  -0.0000000  -0.0000000
 NQMom=    0.0000000   2.0440000   0.0000000   0.0000000   0.0000000   0.0000000   0.0000000   0.0000000   0.0000000   0.0000000
 NMagM=    2.7928460   0.4037610   0.0000000   0.0000000   0.0000000   2.7928460   0.0000000   2.7928460   2.7928460   0.0000000
 AtZNuc=   1.0000000   7.0000000   6.0000000   6.0000000   6.0000000   1.0000000   6.0000000   1.0000000   1.0000000   6.0000000

  Atom        41          42          43          44          45          46          47          48          49          50
 IAtWgt=           1           1          12           1           1           1           1           1           1           1
 AtmWgt=   1.0078250   1.0078250  12.0000000   1.0078250   1.0078250   1.0078250   1.0078250   1.0078250   1.0078250   1.0078250
 NucSpn=           1           1           0           1           1           1           1           1           1           1
 AtZEff=  -0.0000000  -0.0000000  -0.0000000  -0.0000000  -0.0000000  -0.0000000  -0.0000000  -0.0000000  -0.0000000  -0.0000000
 NQMom=    0.0000000   0.0000000   0.0000000   0.0000000   0.0000000   0.0000000   0.0000000   0.0000000   0.0000000   0.0000000
 NMagM=    2.7928460   2.7928460   0.0000000   2.7928460   2.7928460   2.7928460   2.7928460   2.7928460   2.7928460   2.7928460
 AtZNuc=   1.0000000   1.0000000   6.0000000   1.0000000   1.0000000   1.0000000   1.0000000   1.0000000   1.0000000   1.0000000

  Atom        51
 IAtWgt=           1
 AtmWgt=   1.0078250
 NucSpn=           1
 AtZEff=  -0.0000000
 NQMom=    0.0000000
 NMagM=    2.7928460
 AtZNuc=   1.0000000
 Leave Link  101 at Fri Dec 14 10:26:29 2018, MaxMem=  1342177280 cpu:               7.2 elap:               0.5
 (Enter /gpfs/apps/hpc/Apps/Restricted/Gaussian/Rev_A.03/g16/l103.exe)

 GradGradGradGradGradGradGradGradGradGradGradGradGradGradGradGradGradGrad
 Berny optimization.
 Initialization pass.
                           ----------------------------
                           !    Initial Parameters    !
                           ! (Angstroms and Degrees)  !
 --------------------------                            --------------------------
 ! Name  Definition              Value          Derivative Info.                !
 --------------------------------------------------------------------------------
 ! R1    R(1,2)                  1.4174         estimate D2E/DX2                !
 ! R2    R(1,6)                  1.4159         estimate D2E/DX2                !
 ! R3    R(1,29)                 1.3682         estimate D2E/DX2                !
 ! R4    R(2,3)                  1.3935         estimate D2E/DX2                !
 ! R5    R(2,11)                 1.3741         estimate D2E/DX2                !
 ! R6    R(3,4)                  1.3981         estimate D2E/DX2                !
 ! R7    R(3,8)                  1.0825         estimate D2E/DX2                !
 ! R8    R(4,5)                  1.3993         estimate D2E/DX2                !
 ! R9    R(4,9)                  1.0826         estimate D2E/DX2                !
 ! R10   R(5,6)                  1.4058         estimate D2E/DX2                !
 ! R11   R(5,10)                 1.0838         estimate D2E/DX2                !
 ! R12   R(6,30)                 1.4298         estimate D2E/DX2                !
 ! R13   R(7,11)                 1.3658         estimate D2E/DX2                !
 ! R14   R(7,13)                 1.4499         estimate D2E/DX2                !
 ! R15   R(7,29)                 1.3432         estimate D2E/DX2                !
 ! R16   R(11,50)                1.0168         estimate D2E/DX2                !
 ! R17   R(12,13)                1.4679         estimate D2E/DX2                !
 ! R18   R(12,17)                1.4614         estimate D2E/DX2                !
 ! R19   R(12,28)                1.2581         estimate D2E/DX2                !
 ! R20   R(13,14)                1.3822         estimate D2E/DX2                !
 ! R21   R(14,15)                1.4095         estimate D2E/DX2                !
 ! R22   R(14,18)                1.0835         estimate D2E/DX2                !
 ! R23   R(15,16)                1.4136         estimate D2E/DX2                !
 ! R24   R(15,20)                1.4975         estimate D2E/DX2                !
 ! R25   R(16,17)                1.377          estimate D2E/DX2                !
 ! R26   R(16,19)                1.085          estimate D2E/DX2                !
 ! R27   R(17,24)                1.4947         estimate D2E/DX2                !
 ! R28   R(20,21)                1.0943         estimate D2E/DX2                !
 ! R29   R(20,22)                1.0949         estimate D2E/DX2                !
 ! R30   R(20,23)                1.09           estimate D2E/DX2                !
 ! R31   R(24,25)                1.0935         estimate D2E/DX2                !
 ! R32   R(24,26)                1.0941         estimate D2E/DX2                !
 ! R33   R(24,27)                1.0899         estimate D2E/DX2                !
 ! R34   R(30,31)                1.0847         estimate D2E/DX2                !
 ! R35   R(30,32)                1.2989         estimate D2E/DX2                !
 ! R36   R(32,33)                1.4763         estimate D2E/DX2                !
 ! R37   R(32,51)                1.0272         estimate D2E/DX2                !
 ! R38   R(33,34)                1.5353         estimate D2E/DX2                !
 ! R39   R(33,35)                1.5329         estimate D2E/DX2                !
 ! R40   R(33,36)                1.0919         estimate D2E/DX2                !
 ! R41   R(34,37)                1.5335         estimate D2E/DX2                !
 ! R42   R(34,38)                1.0961         estimate D2E/DX2                !
 ! R43   R(34,39)                1.093          estimate D2E/DX2                !
 ! R44   R(35,40)                1.533          estimate D2E/DX2                !
 ! R45   R(35,41)                1.0958         estimate D2E/DX2                !
 ! R46   R(35,42)                1.0927         estimate D2E/DX2                !
 ! R47   R(37,43)                1.5323         estimate D2E/DX2                !
 ! R48   R(37,44)                1.0935         estimate D2E/DX2                !
 ! R49   R(37,45)                1.0967         estimate D2E/DX2                !
 ! R50   R(40,43)                1.5329         estimate D2E/DX2                !
 ! R51   R(40,46)                1.0934         estimate D2E/DX2                !
 ! R52   R(40,47)                1.0967         estimate D2E/DX2                !
 ! R53   R(43,48)                1.0936         estimate D2E/DX2                !
 ! R54   R(43,49)                1.097          estimate D2E/DX2                !
 ! A1    A(2,1,6)              119.902          estimate D2E/DX2                !
 ! A2    A(2,1,29)             110.6666         estimate D2E/DX2                !
 ! A3    A(6,1,29)             129.4312         estimate D2E/DX2                !
 ! A4    A(1,2,3)              122.1856         estimate D2E/DX2                !
 ! A5    A(1,2,11)             104.4079         estimate D2E/DX2                !
 ! A6    A(3,2,11)             133.4063         estimate D2E/DX2                !
 ! A7    A(2,3,4)              117.3186         estimate D2E/DX2                !
 ! A8    A(2,3,8)              121.4289         estimate D2E/DX2                !
 ! A9    A(4,3,8)              121.2525         estimate D2E/DX2                !
 ! A10   A(3,4,5)              121.6397         estimate D2E/DX2                !
 ! A11   A(3,4,9)              119.1403         estimate D2E/DX2                !
 ! A12   A(5,4,9)              119.22           estimate D2E/DX2                !
 ! A13   A(4,5,6)              121.431          estimate D2E/DX2                !
 ! A14   A(4,5,10)             119.6923         estimate D2E/DX2                !
 ! A15   A(6,5,10)             118.8764         estimate D2E/DX2                !
 ! A16   A(1,6,5)              117.5194         estimate D2E/DX2                !
 ! A17   A(1,6,30)             122.0066         estimate D2E/DX2                !
 ! A18   A(5,6,30)             120.4694         estimate D2E/DX2                !
 ! A19   A(11,7,13)            123.0616         estimate D2E/DX2                !
 ! A20   A(11,7,29)            111.7607         estimate D2E/DX2                !
 ! A21   A(13,7,29)            125.1775         estimate D2E/DX2                !
 ! A22   A(2,11,7)             108.0917         estimate D2E/DX2                !
 ! A23   A(2,11,50)            130.7019         estimate D2E/DX2                !
 ! A24   A(7,11,50)            121.2034         estimate D2E/DX2                !
 ! A25   A(13,12,17)           117.6958         estimate D2E/DX2                !
 ! A26   A(13,12,28)           122.2136         estimate D2E/DX2                !
 ! A27   A(17,12,28)           120.0903         estimate D2E/DX2                !
 ! A28   A(7,13,12)            120.2924         estimate D2E/DX2                !
 ! A29   A(7,13,14)            119.8713         estimate D2E/DX2                !
 ! A30   A(12,13,14)           119.8362         estimate D2E/DX2                !
 ! A31   A(13,14,15)           121.5478         estimate D2E/DX2                !
 ! A32   A(13,14,18)           119.0059         estimate D2E/DX2                !
 ! A33   A(15,14,18)           119.4439         estimate D2E/DX2                !
 ! A34   A(14,15,16)           119.2117         estimate D2E/DX2                !
 ! A35   A(14,15,20)           119.9008         estimate D2E/DX2                !
 ! A36   A(16,15,20)           120.8838         estimate D2E/DX2                !
 ! A37   A(15,16,17)           122.2155         estimate D2E/DX2                !
 ! A38   A(15,16,19)           118.5232         estimate D2E/DX2                !
 ! A39   A(17,16,19)           119.2599         estimate D2E/DX2                !
 ! A40   A(12,17,16)           119.4851         estimate D2E/DX2                !
 ! A41   A(12,17,24)           117.8252         estimate D2E/DX2                !
 ! A42   A(16,17,24)           122.6874         estimate D2E/DX2                !
 ! A43   A(15,20,21)           110.8331         estimate D2E/DX2                !
 ! A44   A(15,20,22)           110.2861         estimate D2E/DX2                !
 ! A45   A(15,20,23)           111.526          estimate D2E/DX2                !
 ! A46   A(21,20,22)           106.6963         estimate D2E/DX2                !
 ! A47   A(21,20,23)           108.7427         estimate D2E/DX2                !
 ! A48   A(22,20,23)           108.606          estimate D2E/DX2                !
 ! A49   A(17,24,25)           110.6012         estimate D2E/DX2                !
 ! A50   A(17,24,26)           110.852          estimate D2E/DX2                !
 ! A51   A(17,24,27)           110.9075         estimate D2E/DX2                !
 ! A52   A(25,24,26)           106.4234         estimate D2E/DX2                !
 ! A53   A(25,24,27)           109.0656         estimate D2E/DX2                !
 ! A54   A(26,24,27)           108.8647         estimate D2E/DX2                !
 ! A55   A(1,29,7)             105.0729         estimate D2E/DX2                !
 ! A56   A(6,30,31)            118.9425         estimate D2E/DX2                !
 ! A57   A(6,30,32)            123.0694         estimate D2E/DX2                !
 ! A58   A(31,30,32)           117.988          estimate D2E/DX2                !
 ! A59   A(30,32,33)           125.1394         estimate D2E/DX2                !
 ! A60   A(30,32,51)           116.0886         estimate D2E/DX2                !
 ! A61   A(33,32,51)           118.76           estimate D2E/DX2                !
 ! A62   A(32,33,34)           110.8744         estimate D2E/DX2                !
 ! A63   A(32,33,35)           111.5105         estimate D2E/DX2                !
 ! A64   A(32,33,36)           104.8023         estimate D2E/DX2                !
 ! A65   A(34,33,35)           111.5298         estimate D2E/DX2                !
 ! A66   A(34,33,36)           108.9113         estimate D2E/DX2                !
 ! A67   A(35,33,36)           108.9476         estimate D2E/DX2                !
 ! A68   A(33,34,37)           110.1312         estimate D2E/DX2                !
 ! A69   A(33,34,38)           108.5881         estimate D2E/DX2                !
 ! A70   A(33,34,39)           109.6966         estimate D2E/DX2                !
 ! A71   A(37,34,38)           109.876          estimate D2E/DX2                !
 ! A72   A(37,34,39)           110.9468         estimate D2E/DX2                !
 ! A73   A(38,34,39)           107.5355         estimate D2E/DX2                !
 ! A74   A(33,35,40)           110.1995         estimate D2E/DX2                !
 ! A75   A(33,35,41)           109.1338         estimate D2E/DX2                !
 ! A76   A(33,35,42)           109.5694         estimate D2E/DX2                !
 ! A77   A(40,35,41)           109.1545         estimate D2E/DX2                !
 ! A78   A(40,35,42)           111.2174         estimate D2E/DX2                !
 ! A79   A(41,35,42)           107.5032         estimate D2E/DX2                !
 ! A80   A(34,37,43)           111.5414         estimate D2E/DX2                !
 ! A81   A(34,37,44)           109.6973         estimate D2E/DX2                !
 ! A82   A(34,37,45)           108.8635         estimate D2E/DX2                !
 ! A83   A(43,37,44)           110.6498         estimate D2E/DX2                !
 ! A84   A(43,37,45)           109.2041         estimate D2E/DX2                !
 ! A85   A(44,37,45)           106.7491         estimate D2E/DX2                !
 ! A86   A(35,40,43)           111.2264         estimate D2E/DX2                !
 ! A87   A(35,40,46)           109.3661         estimate D2E/DX2                !
 ! A88   A(35,40,47)           109.1659         estimate D2E/DX2                !
 ! A89   A(43,40,46)           110.7104         estimate D2E/DX2                !
 ! A90   A(43,40,47)           109.3609         estimate D2E/DX2                !
 ! A91   A(46,40,47)           106.9024         estimate D2E/DX2                !
 ! A92   A(37,43,40)           111.072          estimate D2E/DX2                !
 ! A93   A(37,43,48)           110.1398         estimate D2E/DX2                !
 ! A94   A(37,43,49)           109.2524         estimate D2E/DX2                !
 ! A95   A(40,43,48)           110.2018         estimate D2E/DX2                !
 ! A96   A(40,43,49)           109.1225         estimate D2E/DX2                !
 ! A97   A(48,43,49)           106.9522         estimate D2E/DX2                !
 ! D1    D(6,1,2,3)             -0.1505         estimate D2E/DX2                !
 ! D2    D(6,1,2,11)           179.7165         estimate D2E/DX2                !
 ! D3    D(29,1,2,3)          -179.9601         estimate D2E/DX2                !
 ! D4    D(29,1,2,11)           -0.0932         estimate D2E/DX2                !
 ! D5    D(2,1,6,5)              0.6147         estimate D2E/DX2                !
 ! D6    D(2,1,6,30)          -178.6103         estimate D2E/DX2                !
 ! D7    D(29,1,6,5)          -179.6159         estimate D2E/DX2                !
 ! D8    D(29,1,6,30)            1.1591         estimate D2E/DX2                !
 ! D9    D(2,1,29,7)            -0.004          estimate D2E/DX2                !
 ! D10   D(6,1,29,7)          -179.7904         estimate D2E/DX2                !
 ! D11   D(1,2,3,4)             -0.3095         estimate D2E/DX2                !
 ! D12   D(1,2,3,8)            179.6865         estimate D2E/DX2                !
 ! D13   D(11,2,3,4)           179.8679         estimate D2E/DX2                !
 ! D14   D(11,2,3,8)            -0.1361         estimate D2E/DX2                !
 ! D15   D(1,2,11,7)             0.1522         estimate D2E/DX2                !
 ! D16   D(1,2,11,50)         -179.2072         estimate D2E/DX2                !
 ! D17   D(3,2,11,7)           179.9972         estimate D2E/DX2                !
 ! D18   D(3,2,11,50)            0.6378         estimate D2E/DX2                !
 ! D19   D(2,3,4,5)              0.2956         estimate D2E/DX2                !
 ! D20   D(2,3,4,9)           -179.7472         estimate D2E/DX2                !
 ! D21   D(8,3,4,5)           -179.7005         estimate D2E/DX2                !
 ! D22   D(8,3,4,9)              0.2567         estimate D2E/DX2                !
 ! D23   D(3,4,5,6)              0.1839         estimate D2E/DX2                !
 ! D24   D(3,4,5,10)           179.9734         estimate D2E/DX2                !
 ! D25   D(9,4,5,6)           -179.7733         estimate D2E/DX2                !
 ! D26   D(9,4,5,10)             0.0162         estimate D2E/DX2                !
 ! D27   D(4,5,6,1)             -0.6366         estimate D2E/DX2                !
 ! D28   D(4,5,6,30)           178.6009         estimate D2E/DX2                !
 ! D29   D(10,5,6,1)           179.5722         estimate D2E/DX2                !
 ! D30   D(10,5,6,30)           -1.1903         estimate D2E/DX2                !
 ! D31   D(1,6,30,31)         -179.7764         estimate D2E/DX2                !
 ! D32   D(1,6,30,32)            0.366          estimate D2E/DX2                !
 ! D33   D(5,6,30,31)            1.021          estimate D2E/DX2                !
 ! D34   D(5,6,30,32)         -178.8366         estimate D2E/DX2                !
 ! D35   D(13,7,11,2)          179.6479         estimate D2E/DX2                !
 ! D36   D(13,7,11,50)          -0.9199         estimate D2E/DX2                !
 ! D37   D(29,7,11,2)           -0.1678         estimate D2E/DX2                !
 ! D38   D(29,7,11,50)         179.2645         estimate D2E/DX2                !
 ! D39   D(11,7,13,12)           2.7304         estimate D2E/DX2                !
 ! D40   D(11,7,13,14)        -177.1479         estimate D2E/DX2                !
 ! D41   D(29,7,13,12)        -177.479          estimate D2E/DX2                !
 ! D42   D(29,7,13,14)           2.6427         estimate D2E/DX2                !
 ! D43   D(11,7,29,1)            0.1044         estimate D2E/DX2                !
 ! D44   D(13,7,29,1)         -179.7066         estimate D2E/DX2                !
 ! D45   D(17,12,13,7)         179.7233         estimate D2E/DX2                !
 ! D46   D(17,12,13,14)         -0.3983         estimate D2E/DX2                !
 ! D47   D(28,12,13,7)          -0.4664         estimate D2E/DX2                !
 ! D48   D(28,12,13,14)        179.4119         estimate D2E/DX2                !
 ! D49   D(13,12,17,16)          0.7391         estimate D2E/DX2                !
 ! D50   D(13,12,17,24)       -179.8131         estimate D2E/DX2                !
 ! D51   D(28,12,17,16)       -179.0753         estimate D2E/DX2                !
 ! D52   D(28,12,17,24)          0.3725         estimate D2E/DX2                !
 ! D53   D(7,13,14,15)         179.4545         estimate D2E/DX2                !
 ! D54   D(7,13,14,18)           0.0158         estimate D2E/DX2                !
 ! D55   D(12,13,14,15)         -0.4244         estimate D2E/DX2                !
 ! D56   D(12,13,14,18)       -179.8631         estimate D2E/DX2                !
 ! D57   D(13,14,15,16)          0.9108         estimate D2E/DX2                !
 ! D58   D(13,14,15,20)       -178.3966         estimate D2E/DX2                !
 ! D59   D(18,14,15,16)       -179.6529         estimate D2E/DX2                !
 ! D60   D(18,14,15,20)          1.0396         estimate D2E/DX2                !
 ! D61   D(14,15,16,17)         -0.5546         estimate D2E/DX2                !
 ! D62   D(14,15,16,19)        179.8866         estimate D2E/DX2                !
 ! D63   D(20,15,16,17)        178.7458         estimate D2E/DX2                !
 ! D64   D(20,15,16,19)         -0.813          estimate D2E/DX2                !
 ! D65   D(14,15,20,21)        -57.508          estimate D2E/DX2                !
 ! D66   D(14,15,20,22)         60.4212         estimate D2E/DX2                !
 ! D67   D(14,15,20,23)       -178.8178         estimate D2E/DX2                !
 ! D68   D(16,15,20,21)        123.1964         estimate D2E/DX2                !
 ! D69   D(16,15,20,22)       -118.8745         estimate D2E/DX2                !
 ! D70   D(16,15,20,23)          1.8865         estimate D2E/DX2                !
 ! D71   D(15,16,17,12)         -0.2723         estimate D2E/DX2                !
 ! D72   D(15,16,17,24)       -179.692          estimate D2E/DX2                !
 ! D73   D(19,16,17,12)        179.2834         estimate D2E/DX2                !
 ! D74   D(19,16,17,24)         -0.1364         estimate D2E/DX2                !
 ! D75   D(12,17,24,25)        -55.9473         estimate D2E/DX2                !
 ! D76   D(12,17,24,26)         61.8536         estimate D2E/DX2                !
 ! D77   D(12,17,24,27)       -177.0892         estimate D2E/DX2                !
 ! D78   D(16,17,24,25)        123.4816         estimate D2E/DX2                !
 ! D79   D(16,17,24,26)       -118.7175         estimate D2E/DX2                !
 ! D80   D(16,17,24,27)          2.3396         estimate D2E/DX2                !
 ! D81   D(6,30,32,33)         178.9781         estimate D2E/DX2                !
 ! D82   D(6,30,32,51)           0.2544         estimate D2E/DX2                !
 ! D83   D(31,30,32,33)         -0.8808         estimate D2E/DX2                !
 ! D84   D(31,30,32,51)       -179.6045         estimate D2E/DX2                !
 ! D85   D(30,32,33,34)        -69.6216         estimate D2E/DX2                !
 ! D86   D(30,32,33,35)         55.3008         estimate D2E/DX2                !
 ! D87   D(30,32,33,36)        173.0202         estimate D2E/DX2                !
 ! D88   D(51,32,33,34)        109.0709         estimate D2E/DX2                !
 ! D89   D(51,32,33,35)       -126.0067         estimate D2E/DX2                !
 ! D90   D(51,32,33,36)         -8.2873         estimate D2E/DX2                !
 ! D91   D(32,33,34,37)       -178.3534         estimate D2E/DX2                !
 ! D92   D(32,33,34,38)         61.2943         estimate D2E/DX2                !
 ! D93   D(32,33,34,39)        -55.9655         estimate D2E/DX2                !
 ! D94   D(35,33,34,37)         56.7349         estimate D2E/DX2                !
 ! D95   D(35,33,34,38)        -63.6173         estimate D2E/DX2                !
 ! D96   D(35,33,34,39)        179.1229         estimate D2E/DX2                !
 ! D97   D(36,33,34,37)        -63.5389         estimate D2E/DX2                !
 ! D98   D(36,33,34,38)        176.1089         estimate D2E/DX2                !
 ! D99   D(36,33,34,39)         58.8491         estimate D2E/DX2                !
 ! D100  D(32,33,35,40)        178.2976         estimate D2E/DX2                !
 ! D101  D(32,33,35,41)        -61.8538         estimate D2E/DX2                !
 ! D102  D(32,33,35,42)         55.6103         estimate D2E/DX2                !
 ! D103  D(34,33,35,40)        -57.1466         estimate D2E/DX2                !
 ! D104  D(34,33,35,41)         62.702          estimate D2E/DX2                !
 ! D105  D(34,33,35,42)       -179.8338         estimate D2E/DX2                !
 ! D106  D(36,33,35,40)         63.106          estimate D2E/DX2                !
 ! D107  D(36,33,35,41)       -177.0455         estimate D2E/DX2                !
 ! D108  D(36,33,35,42)        -59.5813         estimate D2E/DX2                !
 ! D109  D(33,34,37,43)        -55.6611         estimate D2E/DX2                !
 ! D110  D(33,34,37,44)       -178.6188         estimate D2E/DX2                !
 ! D111  D(33,34,37,45)         64.908          estimate D2E/DX2                !
 ! D112  D(38,34,37,43)         63.9118         estimate D2E/DX2                !
 ! D113  D(38,34,37,44)        -59.0459         estimate D2E/DX2                !
 ! D114  D(38,34,37,45)       -175.5191         estimate D2E/DX2                !
 ! D115  D(39,34,37,43)       -177.3086         estimate D2E/DX2                !
 ! D116  D(39,34,37,44)         59.7337         estimate D2E/DX2                !
 ! D117  D(39,34,37,45)        -56.7395         estimate D2E/DX2                !
 ! D118  D(33,35,40,43)         56.2879         estimate D2E/DX2                !
 ! D119  D(33,35,40,46)        178.8802         estimate D2E/DX2                !
 ! D120  D(33,35,40,47)        -64.4767         estimate D2E/DX2                !
 ! D121  D(41,35,40,43)        -63.5481         estimate D2E/DX2                !
 ! D122  D(41,35,40,46)         59.0442         estimate D2E/DX2                !
 ! D123  D(41,35,40,47)        175.6872         estimate D2E/DX2                !
 ! D124  D(42,35,40,43)        178.0023         estimate D2E/DX2                !
 ! D125  D(42,35,40,46)        -59.4054         estimate D2E/DX2                !
 ! D126  D(42,35,40,47)         57.2376         estimate D2E/DX2                !
 ! D127  D(34,37,43,40)         55.5211         estimate D2E/DX2                !
 ! D128  D(34,37,43,48)        177.8977         estimate D2E/DX2                !
 ! D129  D(34,37,43,49)        -64.9056         estimate D2E/DX2                !
 ! D130  D(44,37,43,40)        177.9333         estimate D2E/DX2                !
 ! D131  D(44,37,43,48)        -59.6901         estimate D2E/DX2                !
 ! D132  D(44,37,43,49)         57.5066         estimate D2E/DX2                !
 ! D133  D(45,37,43,40)        -64.8483         estimate D2E/DX2                !
 ! D134  D(45,37,43,48)         57.5283         estimate D2E/DX2                !
 ! D135  D(45,37,43,49)        174.725          estimate D2E/DX2                !
 ! D136  D(35,40,43,37)        -55.7187         estimate D2E/DX2                !
 ! D137  D(35,40,43,48)       -178.0593         estimate D2E/DX2                !
 ! D138  D(35,40,43,49)         64.7849         estimate D2E/DX2                !
 ! D139  D(46,40,43,37)       -177.5324         estimate D2E/DX2                !
 ! D140  D(46,40,43,48)         60.1269         estimate D2E/DX2                !
 ! D141  D(46,40,43,49)        -57.0289         estimate D2E/DX2                !
 ! D142  D(47,40,43,37)         64.9313         estimate D2E/DX2                !
 ! D143  D(47,40,43,48)        -57.4094         estimate D2E/DX2                !
 ! D144  D(47,40,43,49)       -174.5652         estimate D2E/DX2                !
 --------------------------------------------------------------------------------
 Trust Radius=3.00D-01 FncErr=5.00D-06 GrdErr=5.00D-06 EigMax=2.50D+02 EigMin=1.00D-04
 Number of steps in this run=    305 maximum allowed number of steps=    306.
 GradGradGradGradGradGradGradGradGradGradGradGradGradGradGradGradGradGrad

 Leave Link  103 at Fri Dec 14 10:26:29 2018, MaxMem=  1342177280 cpu:               0.5 elap:               0.1
 (Enter /gpfs/apps/hpc/Apps/Restricted/Gaussian/Rev_A.03/g16/l202.exe)
 Symmetry turned off by external request.
 Stoichiometry    C22H25N3O(1+,2)
 Framework group  C1[X(C22H25N3O)]
 Deg. of freedom   147
 Full point group                 C1      NOp   1
                          Input orientation:                          
 ---------------------------------------------------------------------
 Center     Atomic      Atomic             Coordinates (Angstroms)
 Number     Number       Type             X           Y           Z
 ---------------------------------------------------------------------
      1          6           0       -0.522494    2.720922    0.334065
      2          6           0       -1.920373    2.946812    0.271763
      3          6           0       -2.463177    4.228876    0.212392
      4          6           0       -1.570395    5.304776    0.222961
      5          6           0       -0.186106    5.109398    0.284154
      6          6           0        0.370713    3.819494    0.334037
      7          6           0       -1.452750    0.780255    0.352846
      8          1           0       -3.532801    4.387135    0.160090
      9          1           0       -1.960409    6.313878    0.182075
     10          1           0        0.477278    5.966428    0.290185
     11          7           0       -2.471007    1.687951    0.283828
     12          6           0       -3.031591   -1.196578    0.296443
     13          6           0       -1.671580   -0.652467    0.391436
     14          6           0       -0.595272   -1.510036    0.520762
     15          6           0       -0.768284   -2.907891    0.573466
     16          6           0       -2.071581   -3.446043    0.472613
     17          6           0       -3.186202   -2.649233    0.335069
     18          1           0        0.402578   -1.093778    0.592018
     19          1           0       -2.191689   -4.523616    0.512642
     20          6           0        0.420571   -3.801081    0.750214
     21          1           0        1.152428   -3.637097   -0.046592
     22          1           0        0.927532   -3.575929    1.694173
     23          1           0        0.134030   -4.852711    0.751573
     24          6           0       -4.569462   -3.206574    0.234261
     25          1           0       -5.210679   -2.788300    1.015108
     26          1           0       -5.029370   -2.936798   -0.721138
     27          1           0       -4.558879   -4.292528    0.326086
     28          8           0       -4.043749   -0.457165    0.188619
     29          7           0       -0.251649    1.380692    0.383431
     30          6           0        1.789159    3.642879    0.366127
     31          1           0        2.427424    4.519920    0.368273
     32          7           0        2.357617    2.475252    0.390379
     33          6           0        3.814958    2.239787    0.402374
     34          6           0        4.441855    2.621128   -0.946264
     35          6           0        4.493205    2.972796    1.565347
     36          1           0        3.922406    1.163410    0.550830
     37          6           0        5.947690    2.331678   -0.928988
     38          1           0        4.269676    3.689290   -1.122042
     39          1           0        3.947441    2.071074   -1.750988
     40          6           0        5.996832    2.674097    1.574422
     41          1           0        4.341643    4.051631    1.447197
     42          1           0        4.025437    2.676423    2.507393
     43          6           0        6.644252    3.044126    0.235184
     44          1           0        6.391025    2.628503   -1.883476
     45          1           0        6.099723    1.249891   -0.832731
     46          1           0        6.469737    3.218788    2.396102
     47          1           0        6.150556    1.605923    1.769743
     48          1           0        7.708461    2.792674    0.247931
     49          1           0        6.573672    4.129155    0.089523
     50          1           0       -3.441808    1.388416    0.242278
     51          1           0        1.726118    1.665096    0.381226
 ---------------------------------------------------------------------
 Rotational constants (GHZ):           0.2788027           0.1072259           0.0800818
 Leave Link  202 at Fri Dec 14 10:26:29 2018, MaxMem=  1342177280 cpu:               0.9 elap:               0.1
 (Enter /gpfs/apps/hpc/Apps/Restricted/Gaussian/Rev_A.03/g16/l301.exe)
 Standard basis: 6-31G(d,p) (6D, 7F)
 Ernie: Thresh=  0.10000D-02 Tol=  0.10000D-05 Strict=F.
   515 basis functions,   903 primitive gaussians,   515 cartesian basis functions
    93 alpha electrons       92 beta electrons
       nuclear repulsion energy      2188.7286744963 Hartrees.
 IExCor=  402 DFT=T Ex+Corr=B3LYP ExCW=0 ScaHFX=  0.200000
 ScaDFX=  0.800000  0.720000  1.000000  0.810000 ScalE2=  1.000000  1.000000
 IRadAn=      5 IRanWt=     -1 IRanGd=            0 ICorTp=0 IEmpDi=141
 NAtoms=   51 NActive=   51 NUniq=   51 SFac= 1.00D+00 NAtFMM=   60 NAOKFM=F Big=F
 Integral buffers will be    131072 words long.
 Raffenetti 2 integral format.
 Two-electron integral symmetry is turned off.
 R6Disp:  Grimme-D3(BJ) Dispersion energy=       -0.1079623783 Hartrees.
 Nuclear repulsion after empirical dispersion term =     2188.6207121180 Hartrees.
 Using the following non-standard input for PCM:
 radii=bondi
 dis
 rep
 cav
 --- end of non-standard input.
 ------------------------------------------------------------------------------
 Polarizable Continuum Model (PCM)
 =================================
 Model                : C-PCM.
 Atomic radii         : Bondi.
 Polarization charges : Total charges.
 Charge compensation  : None.
 Solution method      : On-the-fly selection.
 Cavity type          : Scaled VdW (van der Waals Surface) (Alpha=1.100).
 Cavity algorithm     : GePol (No added spheres)
                        Default sphere list used, NSphG=   51.
                        Lebedev-Laikov grids with approx.  5.0 points / Ang**2.
                        Smoothing algorithm: York/Karplus (Gamma=1.0000).
                        Polarization charges: spherical gaussians, with
                                              point-specific exponents (IZeta= 3).
                        Self-potential: point-specific (ISelfS= 7).
                        Self-field    : sphere-specific E.n sum rule (ISelfD= 2).
 1st derivatives      : Analytical E(r).r(x)/FMM algorithm (CHGder, D1EAlg=3).
                        Cavity 1st derivative terms included.
 Solvent              : Dichloromethane, Eps=   8.930000 Eps(inf)=   2.028346
 ------------------------------------------------------------------------------
 GePol: Number of generator spheres                  =      51
 GePol: Total number of spheres                      =      51
 GePol: Number of exposed spheres                    =      51 (100.00%)
 GePol: Number of points                             =    3466
 GePol: Average weight of points                     =       0.12
 GePol: Minimum weight of points                     =   0.11D-09
 GePol: Maximum weight of points                     =    0.21770
 GePol: Number of points with low weight             =     246
 GePol: Fraction of low-weight points (<1% of avg)   =       7.10%
 GePol: Cavity surface area                          =    411.893 Ang**2
 GePol: Cavity volume                                =    387.983 Ang**3
 PCM non-electrostatic energy =         0.0153847326 Hartrees.
 Nuclear repulsion after PCM non-electrostatic terms =     2188.6360968507 Hartrees.
 Leave Link  301 at Fri Dec 14 10:26:30 2018, MaxMem=  1342177280 cpu:               3.6 elap:               0.2
 (Enter /gpfs/apps/hpc/Apps/Restricted/Gaussian/Rev_A.03/g16/l302.exe)
 NPDir=0 NMtPBC=     1 NCelOv=     1 NCel=       1 NClECP=     1 NCelD=      1
         NCelK=      1 NCelE2=     1 NClLst=     1 CellRange=     0.0.
 One-electron integrals computed using PRISM.
 NBasis=   515 RedAO= T EigKep=  3.13D-04  NBF=   515
 NBsUse=   515 1.00D-06 EigRej= -1.00D+00 NBFU=   515
 Precomputing XC quadrature grid using
 IXCGrd= 4 IRadAn=           5 IRanWt=          -1 IRanGd=           0 AccXCQ= 0.00D+00.
 Generated NRdTot=       0 NPtTot=           0 NUsed=           0 NTot=          32
 NSgBfM=   501   501   501   501   501 MxSgAt=    51 MxSgA2=    51.
 Leave Link  302 at Fri Dec 14 10:26:31 2018, MaxMem=  1342177280 cpu:              15.4 elap:               1.0
 (Enter /gpfs/apps/hpc/Apps/Restricted/Gaussian/Rev_A.03/g16/l303.exe)
 DipDrv:  MaxL=1.
 Leave Link  303 at Fri Dec 14 10:26:31 2018, MaxMem=  1342177280 cpu:               1.4 elap:               0.1
 (Enter /gpfs/apps/hpc/Apps/Restricted/Gaussian/Rev_A.03/g16/l401.exe)
 ExpMin= 1.61D-01 ExpMax= 5.48D+03 ExpMxC= 8.25D+02 IAcc=3 IRadAn=         5 AccDes= 0.00D+00
 Harris functional with IExCor=  402 and IRadAn=       5 diagonalized for initial guess.
 HarFok:  IExCor=  402 AccDes= 0.00D+00 IRadAn=         5 IDoV= 1 UseB2=F ITyADJ=14
 ICtDFT=  3500011 ScaDFX=  1.000000  1.000000  1.000000  1.000000
 FoFCou: FMM=F IPFlag=           0 FMFlag=      100000 FMFlg1=           0
         NFxFlg=           0 DoJE=T BraDBF=F KetDBF=T FulRan=T
         wScrn=  0.000000 ICntrl=       500 IOpCl=  0 I1Cent=   200000004 NGrid=           0
         NMat0=    1 NMatS0=      1 NMatT0=    0 NMatD0=    1 NMtDS0=    0 NMtDT0=    0
 Symmetry not used in FoFCou.
 Harris En= -1092.82020521488    
 JPrj=0 DoOrth=F DoCkMO=F.
 Initial guess <Sx>= 0.0000 <Sy>= 0.0000 <Sz>= 0.5000 <S**2>= 0.7500 S= 0.5000
 Leave Link  401 at Fri Dec 14 10:26:35 2018, MaxMem=  1342177280 cpu:              57.8 elap:               3.7
 (Enter /gpfs/apps/hpc/Apps/Restricted/Gaussian/Rev_A.03/g16/l502.exe)
 Two-electron integral symmetry not used.
 UHF open shell SCF:
 Using DIIS extrapolation, IDIIS=  1040.
 NGot=  1342177280 LenX=  1341634262 LenY=  1341368522
 Requested convergence on RMS density matrix=1.00D-08 within 128 cycles.
 Requested convergence on MAX density matrix=1.00D-06.
 Requested convergence on             energy=1.00D-06.
 No special actions if energy rises.
 Fock matrices will be formed incrementally for  20 cycles.

 Cycle   1  Pass 1  IDiag  1:
 FoFJK:  IHMeth= 1 ICntrl=       0 DoSepK=F KAlg= 0 I1Cent=           0 FoldK=F
 IRaf= 600000000 NMat=       1 IRICut=       1 DoRegI=T DoRafI=F ISym2E= 0 IDoP0=0 IntGTp=1.
 FoFCou: FMM=F IPFlag=           0 FMFlag=      100000 FMFlg1=           0
         NFxFlg=           0 DoJE=F BraDBF=F KetDBF=F FulRan=T
         wScrn=  0.000000 ICntrl=         0 IOpCl=  1 I1Cent=           0 NGrid=           0
         NMat0=    1 NMatS0=      1 NMatT0=    0 NMatD0=    1 NMtDS0=    0 NMtDT0=    0
 Symmetry not used in FoFCou.
 Inv3:  Mode=1 IEnd=    36039468.
 Iteration    1 A*A^-1 deviation from unit magnitude is 1.10D-14 for    428.
 Iteration    1 A*A^-1 deviation from orthogonality  is 4.50D-15 for   2294    682.
 Iteration    1 A^-1*A deviation from unit magnitude is 1.12D-14 for    428.
 Iteration    1 A^-1*A deviation from orthogonality  is 3.03D-15 for   2290    646.
 E= -1092.34805570515    
 DIIS: error= 3.06D-02 at cycle   1 NSaved=   1.
 NSaved= 1 IEnMin= 1 EnMin= -1092.34805570515     IErMin= 1 ErrMin= 3.06D-02
 ErrMax= 3.06D-02  0.00D+00 EMaxC= 1.00D-01 BMatC= 2.18D+00 BMatP= 2.18D+00
 IDIUse=3 WtCom= 6.94D-01 WtEn= 3.06D-01
 Coeff-Com:  0.100D+01
 Coeff-En:   0.100D+01
 Coeff:      0.100D+01
 Gap=     0.087 Goal=   None    Shift=    0.000
 Gap=     0.084 Goal=   None    Shift=    0.000
 GapD=    0.084 DampG=0.500 DampE=0.500 DampFc=0.2500 IDamp=-1.
 Damping current iteration by 2.50D-01
 RMSDP=3.44D-03 MaxDP=1.84D-01              OVMax= 2.71D-01

 Cycle   2  Pass 1  IDiag  1:
 RMSU=  8.38D-04    CP:  9.86D-01
 E= -1092.54790721458     Delta-E=       -0.199851509429 Rises=F Damp=T
 DIIS: error= 1.41D-02 at cycle   2 NSaved=   2.
 NSaved= 2 IEnMin= 2 EnMin= -1092.54790721458     IErMin= 2 ErrMin= 1.41D-02
 ErrMax= 1.41D-02  0.00D+00 EMaxC= 1.00D-01 BMatC= 5.86D-01 BMatP= 2.18D+00
 IDIUse=3 WtCom= 8.59D-01 WtEn= 1.41D-01
 Coeff-Com: -0.824D+00 0.182D+01
 Coeff-En:   0.000D+00 0.100D+01
 Coeff:     -0.707D+00 0.171D+01
 Gap=     0.126 Goal=   None    Shift=    0.000
 Gap=     0.131 Goal=   None    Shift=    0.000
 RMSDP=1.33D-03 MaxDP=7.62D-02 DE=-2.00D-01 OVMax= 1.49D-01

 Cycle   3  Pass 1  IDiag  1:
 RMSU=  9.66D-04    CP:  9.56D-01  1.97D+00
 E= -1092.87976793782     Delta-E=       -0.331860723240 Rises=F Damp=F
 DIIS: error= 1.18D-02 at cycle   3 NSaved=   3.
 NSaved= 3 IEnMin= 3 EnMin= -1092.87976793782     IErMin= 3 ErrMin= 1.18D-02
 ErrMax= 1.18D-02  0.00D+00 EMaxC= 1.00D-01 BMatC= 1.24D-01 BMatP= 5.86D-01
 IDIUse=3 WtCom= 8.82D-01 WtEn= 1.18D-01
 Coeff-Com: -0.403D+00 0.843D+00 0.560D+00
 Coeff-En:   0.000D+00 0.000D+00 0.100D+01
 Coeff:     -0.355D+00 0.743D+00 0.612D+00
 Gap=     0.115 Goal=   None    Shift=    0.000
 Gap=     0.086 Goal=   None    Shift=    0.000
 RMSDP=5.75D-04 MaxDP=6.58D-02 DE=-3.32D-01 OVMax= 8.14D-02

 Cycle   4  Pass 1  IDiag  1:
 RMSU=  4.38D-04    CP:  9.60D-01  2.08D+00  6.29D-01
 E= -1092.89757221972     Delta-E=       -0.017804281903 Rises=F Damp=F
 DIIS: error= 8.63D-03 at cycle   4 NSaved=   4.
 NSaved= 4 IEnMin= 4 EnMin= -1092.89757221972     IErMin= 4 ErrMin= 8.63D-03
 ErrMax= 8.63D-03  0.00D+00 EMaxC= 1.00D-01 BMatC= 5.52D-02 BMatP= 1.24D-01
 IDIUse=3 WtCom= 9.14D-01 WtEn= 8.63D-02
 Coeff-Com: -0.732D-01 0.163D+00 0.396D+00 0.514D+00
 Coeff-En:   0.000D+00 0.000D+00 0.306D+00 0.694D+00
 Coeff:     -0.669D-01 0.149D+00 0.388D+00 0.529D+00
 Gap=     0.117 Goal=   None    Shift=    0.000
 Gap=     0.085 Goal=   None    Shift=    0.000
 RMSDP=2.79D-04 MaxDP=3.08D-02 DE=-1.78D-02 OVMax= 3.19D-02

 Cycle   5  Pass 1  IDiag  1:
 RMSU=  1.40D-04    CP:  9.59D-01  2.01D+00  7.66D-01  5.60D-01
 E= -1092.90848528760     Delta-E=       -0.010913067878 Rises=F Damp=F
 DIIS: error= 1.75D-03 at cycle   5 NSaved=   5.
 NSaved= 5 IEnMin= 5 EnMin= -1092.90848528760     IErMin= 5 ErrMin= 1.75D-03
 ErrMax= 1.75D-03  0.00D+00 EMaxC= 1.00D-01 BMatC= 3.25D-03 BMatP= 5.52D-02
 IDIUse=3 WtCom= 9.83D-01 WtEn= 1.75D-02
 Coeff-Com: -0.518D-03 0.670D-02 0.164D+00 0.291D+00 0.539D+00
 Coeff-En:   0.000D+00 0.000D+00 0.000D+00 0.000D+00 0.100D+01
 Coeff:     -0.509D-03 0.658D-02 0.161D+00 0.286D+00 0.547D+00
 Gap=     0.117 Goal=   None    Shift=    0.000
 Gap=     0.087 Goal=   None    Shift=    0.000
 RMSDP=7.60D-05 MaxDP=9.75D-03 DE=-1.09D-02 OVMax= 1.42D-02

 Cycle   6  Pass 1  IDiag  1:
 RMSU=  4.94D-05    CP:  9.58D-01  2.01D+00  7.72D-01  6.22D-01  6.40D-01
 E= -1092.90925053335     Delta-E=       -0.000765245746 Rises=F Damp=F
 DIIS: error= 5.57D-04 at cycle   6 NSaved=   6.
 NSaved= 6 IEnMin= 6 EnMin= -1092.90925053335     IErMin= 6 ErrMin= 5.57D-04
 ErrMax= 5.57D-04  0.00D+00 EMaxC= 1.00D-01 BMatC= 3.70D-04 BMatP= 3.25D-03
 IDIUse=3 WtCom= 9.94D-01 WtEn= 5.57D-03
 Coeff-Com:  0.627D-02-0.107D-01 0.476D-01 0.943D-01 0.295D+00 0.567D+00
 Coeff-En:   0.000D+00 0.000D+00 0.000D+00 0.000D+00 0.000D+00 0.100D+01
 Coeff:      0.623D-02-0.106D-01 0.474D-01 0.938D-01 0.294D+00 0.570D+00
 Gap=     0.118 Goal=   None    Shift=    0.000
 Gap=     0.088 Goal=   None    Shift=    0.000
 RMSDP=2.65D-05 MaxDP=2.76D-03 DE=-7.65D-04 OVMax= 7.13D-03

 Cycle   7  Pass 1  IDiag  1:
 RMSU=  2.16D-05    CP:  9.58D-01  2.01D+00  7.75D-01  6.22D-01  7.44D-01
                    CP:  9.41D-01
 E= -1092.90936889070     Delta-E=       -0.000118357357 Rises=F Damp=F
 DIIS: error= 2.72D-04 at cycle   7 NSaved=   7.
 NSaved= 7 IEnMin= 7 EnMin= -1092.90936889070     IErMin= 7 ErrMin= 2.72D-04
 ErrMax= 2.72D-04  0.00D+00 EMaxC= 1.00D-01 BMatC= 5.97D-05 BMatP= 3.70D-04
 IDIUse=3 WtCom= 9.97D-01 WtEn= 2.72D-03
 Coeff-Com:  0.307D-02-0.642D-02-0.199D-01-0.388D-01-0.502D-02 0.236D+00
 Coeff-Com:  0.831D+00
 Coeff-En:   0.000D+00 0.000D+00 0.000D+00 0.000D+00 0.000D+00 0.000D+00
 Coeff-En:   0.100D+01
 Coeff:      0.306D-02-0.640D-02-0.199D-01-0.387D-01-0.500D-02 0.235D+00
 Coeff:      0.832D+00
 Gap=     0.119 Goal=   None    Shift=    0.000
 Gap=     0.089 Goal=   None    Shift=    0.000
 RMSDP=1.79D-05 MaxDP=2.45D-03 DE=-1.18D-04 OVMax= 6.50D-03

 Cycle   8  Pass 1  IDiag  1:
 RMSU=  1.12D-05    CP:  9.58D-01  2.01D+00  7.78D-01  6.27D-01  7.93D-01
                    CP:  1.18D+00  1.06D+00
 E= -1092.90941502959     Delta-E=       -0.000046138884 Rises=F Damp=F
 DIIS: error= 1.41D-04 at cycle   8 NSaved=   8.
 NSaved= 8 IEnMin= 8 EnMin= -1092.90941502959     IErMin= 8 ErrMin= 1.41D-04
 ErrMax= 1.41D-04  0.00D+00 EMaxC= 1.00D-01 BMatC= 1.99D-05 BMatP= 5.97D-05
 IDIUse=3 WtCom= 9.99D-01 WtEn= 1.41D-03
 Coeff-Com: -0.328D-03 0.456D-03-0.231D-01-0.505D-01-0.983D-01-0.125D+00
 Coeff-Com:  0.360D+00 0.937D+00
 Coeff-En:   0.000D+00 0.000D+00 0.000D+00 0.000D+00 0.000D+00 0.000D+00
 Coeff-En:   0.000D+00 0.100D+01
 Coeff:     -0.328D-03 0.456D-03-0.230D-01-0.504D-01-0.982D-01-0.125D+00
 Coeff:      0.359D+00 0.937D+00
 Gap=     0.119 Goal=   None    Shift=    0.000
 Gap=     0.089 Goal=   None    Shift=    0.000
 RMSDP=1.41D-05 MaxDP=1.59D-03 DE=-4.61D-05 OVMax= 4.72D-03

 Cycle   9  Pass 1  IDiag  1:
 RMSU=  5.61D-06    CP:  9.58D-01  2.01D+00  7.81D-01  6.27D-01  8.33D-01
                    CP:  1.33D+00  1.44D+00  1.24D+00
 E= -1092.90943112333     Delta-E=       -0.000016093739 Rises=F Damp=F
 DIIS: error= 5.63D-05 at cycle   9 NSaved=   9.
 NSaved= 9 IEnMin= 9 EnMin= -1092.90943112333     IErMin= 9 ErrMin= 5.63D-05
 ErrMax= 5.63D-05  0.00D+00 EMaxC= 1.00D-01 BMatC= 6.64D-06 BMatP= 1.99D-05
 IDIUse=1 WtCom= 1.00D+00 WtEn= 0.00D+00
 Coeff-Com: -0.552D-03 0.116D-02-0.968D-02-0.232D-01-0.570D-01-0.128D+00
 Coeff-Com:  0.631D-01 0.566D+00 0.588D+00
 Coeff:     -0.552D-03 0.116D-02-0.968D-02-0.232D-01-0.570D-01-0.128D+00
 Coeff:      0.631D-01 0.566D+00 0.588D+00
 Gap=     0.119 Goal=   None    Shift=    0.000
 Gap=     0.090 Goal=   None    Shift=    0.000
 RMSDP=4.77D-06 MaxDP=5.71D-04 DE=-1.61D-05 OVMax= 1.34D-03

 Cycle  10  Pass 1  IDiag  1:
 RMSU=  2.72D-06    CP:  9.58D-01  2.01D+00  7.81D-01  6.27D-01  8.44D-01
                    CP:  1.37D+00  1.53D+00  1.43D+00  8.40D-01
 E= -1092.90943390621     Delta-E=       -0.000002782881 Rises=F Damp=F
 DIIS: error= 1.82D-05 at cycle  10 NSaved=  10.
 NSaved=10 IEnMin=10 EnMin= -1092.90943390621     IErMin=10 ErrMin= 1.82D-05
 ErrMax= 1.82D-05  0.00D+00 EMaxC= 1.00D-01 BMatC= 8.83D-07 BMatP= 6.64D-06
 IDIUse=1 WtCom= 1.00D+00 WtEn= 0.00D+00
 Coeff-Com: -0.530D-04 0.232D-03 0.880D-03 0.939D-03-0.244D-02-0.330D-01
 Coeff-Com: -0.486D-01 0.443D-01 0.279D+00 0.759D+00
 Coeff:     -0.530D-04 0.232D-03 0.880D-03 0.939D-03-0.244D-02-0.330D-01
 Coeff:     -0.486D-01 0.443D-01 0.279D+00 0.759D+00
 Gap=     0.119 Goal=   None    Shift=    0.000
 Gap=     0.090 Goal=   None    Shift=    0.000
 RMSDP=2.03D-06 MaxDP=2.88D-04 DE=-2.78D-06 OVMax= 4.76D-04

 Cycle  11  Pass 1  IDiag  1:
 RMSU=  1.19D-06    CP:  9.58D-01  2.01D+00  7.81D-01  6.26D-01  8.46D-01
                    CP:  1.38D+00  1.56D+00  1.49D+00  1.02D+00  1.01D+00
 E= -1092.90943432554     Delta-E=       -0.000000419329 Rises=F Damp=F
 DIIS: error= 8.83D-06 at cycle  11 NSaved=  11.
 NSaved=11 IEnMin=11 EnMin= -1092.90943432554     IErMin=11 ErrMin= 8.83D-06
 ErrMax= 8.83D-06  0.00D+00 EMaxC= 1.00D-01 BMatC= 2.07D-07 BMatP= 8.83D-07
 IDIUse=1 WtCom= 1.00D+00 WtEn= 0.00D+00
 Coeff-Com:  0.403D-04-0.345D-04 0.234D-02 0.500D-02 0.979D-02 0.658D-02
 Coeff-Com: -0.360D-01-0.851D-01 0.375D-01 0.402D+00 0.658D+00
 Coeff:      0.403D-04-0.345D-04 0.234D-02 0.500D-02 0.979D-02 0.658D-02
 Coeff:     -0.360D-01-0.851D-01 0.375D-01 0.402D+00 0.658D+00
 Gap=     0.119 Goal=   None    Shift=    0.000
 Gap=     0.090 Goal=   None    Shift=    0.000
 RMSDP=8.64D-07 MaxDP=1.17D-04 DE=-4.19D-07 OVMax= 1.97D-04

 Cycle  12  Pass 1  IDiag  1:
 RMSU=  4.88D-07    CP:  9.58D-01  2.01D+00  7.81D-01  6.26D-01  8.47D-01
                    CP:  1.38D+00  1.57D+00  1.52D+00  1.08D+00  1.18D+00
                    CP:  9.18D-01
 E= -1092.90943442020     Delta-E=       -0.000000094658 Rises=F Damp=F
 DIIS: error= 5.91D-06 at cycle  12 NSaved=  12.
 NSaved=12 IEnMin=12 EnMin= -1092.90943442020     IErMin=12 ErrMin= 5.91D-06
 ErrMax= 5.91D-06  0.00D+00 EMaxC= 1.00D-01 BMatC= 2.59D-08 BMatP= 2.07D-07
 IDIUse=1 WtCom= 1.00D+00 WtEn= 0.00D+00
 Coeff-Com:  0.156D-04-0.561D-04 0.641D-03 0.169D-02 0.423D-02 0.999D-02
 Coeff-Com: -0.300D-02-0.413D-01-0.457D-01-0.181D-01 0.236D+00 0.856D+00
 Coeff:      0.156D-04-0.561D-04 0.641D-03 0.169D-02 0.423D-02 0.999D-02
 Coeff:     -0.300D-02-0.413D-01-0.457D-01-0.181D-01 0.236D+00 0.856D+00
 Gap=     0.119 Goal=   None    Shift=    0.000
 Gap=     0.090 Goal=   None    Shift=    0.000
 RMSDP=4.23D-07 MaxDP=5.32D-05 DE=-9.47D-08 OVMax= 1.25D-04

 Cycle  13  Pass 1  IDiag  1:
 RMSU=  2.29D-07    CP:  9.58D-01  2.01D+00  7.81D-01  6.26D-01  8.47D-01
                    CP:  1.38D+00  1.57D+00  1.53D+00  1.11D+00  1.25D+00
                    CP:  1.11D+00  9.79D-01
 E= -1092.90943443794     Delta-E=       -0.000000017744 Rises=F Damp=F
 DIIS: error= 2.45D-06 at cycle  13 NSaved=  13.
 NSaved=13 IEnMin=13 EnMin= -1092.90943443794     IErMin=13 ErrMin= 2.45D-06
 ErrMax= 2.45D-06  0.00D+00 EMaxC= 1.00D-01 BMatC= 1.09D-08 BMatP= 2.59D-08
 IDIUse=1 WtCom= 1.00D+00 WtEn= 0.00D+00
 Coeff-Com: -0.465D-05-0.178D-04 0.875D-05 0.244D-03 0.921D-03 0.509D-02
 Coeff-Com:  0.340D-02-0.108D-01-0.333D-01-0.762D-01 0.266D-01 0.490D+00
 Coeff-Com:  0.595D+00
 Coeff:     -0.465D-05-0.178D-04 0.875D-05 0.244D-03 0.921D-03 0.509D-02
 Coeff:      0.340D-02-0.108D-01-0.333D-01-0.762D-01 0.266D-01 0.490D+00
 Coeff:      0.595D+00
 Gap=     0.119 Goal=   None    Shift=    0.000
 Gap=     0.090 Goal=   None    Shift=    0.000
 RMSDP=1.83D-07 MaxDP=2.68D-05 DE=-1.77D-08 OVMax= 4.71D-05

 Cycle  14  Pass 1  IDiag  1:
 RMSU=  1.12D-07    CP:  9.58D-01  2.01D+00  7.81D-01  6.26D-01  8.47D-01
                    CP:  1.38D+00  1.57D+00  1.53D+00  1.12D+00  1.27D+00
                    CP:  1.15D+00  1.18D+00  8.69D-01
 E= -1092.90943444243     Delta-E=       -0.000000004487 Rises=F Damp=F
 DIIS: error= 1.26D-06 at cycle  14 NSaved=  14.
 NSaved=14 IEnMin=14 EnMin= -1092.90943444243     IErMin=14 ErrMin= 1.26D-06
 ErrMax= 1.26D-06  0.00D+00 EMaxC= 1.00D-01 BMatC= 1.65D-09 BMatP= 1.09D-08
 IDIUse=1 WtCom= 1.00D+00 WtEn= 0.00D+00
 Coeff-Com: -0.136D-04 0.181D-04-0.177D-03-0.341D-03-0.815D-03-0.322D-03
 Coeff-Com:  0.194D-02 0.678D-02-0.236D-02-0.287D-01-0.515D-01-0.142D-01
 Coeff-Com:  0.264D+00 0.826D+00
 Coeff:     -0.136D-04 0.181D-04-0.177D-03-0.341D-03-0.815D-03-0.322D-03
 Coeff:      0.194D-02 0.678D-02-0.236D-02-0.287D-01-0.515D-01-0.142D-01
 Coeff:      0.264D+00 0.826D+00
 Gap=     0.119 Goal=   None    Shift=    0.000
 Gap=     0.090 Goal=   None    Shift=    0.000
 RMSDP=9.33D-08 MaxDP=1.10D-05 DE=-4.49D-09 OVMax= 2.45D-05

 Cycle  15  Pass 1  IDiag  1:
 RMSU=  4.25D-08    CP:  9.58D-01  2.01D+00  7.81D-01  6.26D-01  8.47D-01
                    CP:  1.38D+00  1.57D+00  1.54D+00  1.12D+00  1.28D+00
                    CP:  1.18D+00  1.25D+00  1.11D+00  1.04D+00
 E= -1092.90943444358     Delta-E=       -0.000000001153 Rises=F Damp=F
 DIIS: error= 3.85D-07 at cycle  15 NSaved=  15.
 NSaved=15 IEnMin=15 EnMin= -1092.90943444358     IErMin=15 ErrMin= 3.85D-07
 ErrMax= 3.85D-07  0.00D+00 EMaxC= 1.00D-01 BMatC= 3.14D-10 BMatP= 1.65D-09
 IDIUse=1 WtCom= 1.00D+00 WtEn= 0.00D+00
 Coeff-Com: -0.560D-05 0.113D-04-0.752D-04-0.171D-03-0.502D-03-0.893D-03
 Coeff-Com:  0.134D-03 0.448D-02 0.433D-02 0.574D-03-0.240D-01-0.858D-01
 Coeff-Com:  0.730D-02 0.336D+00 0.759D+00
 Coeff:     -0.560D-05 0.113D-04-0.752D-04-0.171D-03-0.502D-03-0.893D-03
 Coeff:      0.134D-03 0.448D-02 0.433D-02 0.574D-03-0.240D-01-0.858D-01
 Coeff:      0.730D-02 0.336D+00 0.759D+00
 Gap=     0.119 Goal=   None    Shift=    0.000
 Gap=     0.090 Goal=   None    Shift=    0.000
 RMSDP=4.07D-08 MaxDP=3.99D-06 DE=-1.15D-09 OVMax= 9.85D-06

 Cycle  16  Pass 1  IDiag  1:
 RMSU=  2.27D-08    CP:  9.58D-01  2.01D+00  7.81D-01  6.26D-01  8.47D-01
                    CP:  1.38D+00  1.57D+00  1.54D+00  1.12D+00  1.28D+00
                    CP:  1.18D+00  1.27D+00  1.18D+00  1.23D+00  1.02D+00
 E= -1092.90943444369     Delta-E=       -0.000000000107 Rises=F Damp=F
 DIIS: error= 2.17D-07 at cycle  16 NSaved=  16.
 NSaved=16 IEnMin=16 EnMin= -1092.90943444369     IErMin=16 ErrMin= 2.17D-07
 ErrMax= 2.17D-07  0.00D+00 EMaxC= 1.00D-01 BMatC= 1.01D-10 BMatP= 3.14D-10
 IDIUse=1 WtCom= 1.00D+00 WtEn= 0.00D+00
 Coeff-Com:  0.122D-05 0.588D-08 0.211D-04 0.361D-04 0.151D-04-0.296D-03
 Coeff-Com: -0.642D-03-0.570D-04 0.285D-02 0.946D-02 0.469D-02-0.382D-01
 Coeff-Com: -0.781D-01-0.886D-01 0.402D+00 0.787D+00
 Coeff:      0.122D-05 0.588D-08 0.211D-04 0.361D-04 0.151D-04-0.296D-03
 Coeff:     -0.642D-03-0.570D-04 0.285D-02 0.946D-02 0.469D-02-0.382D-01
 Coeff:     -0.781D-01-0.886D-01 0.402D+00 0.787D+00
 Gap=     0.119 Goal=   None    Shift=    0.000
 Gap=     0.090 Goal=   None    Shift=    0.000
 RMSDP=2.37D-08 MaxDP=2.29D-06 DE=-1.07D-10 OVMax= 5.68D-06

 Cycle  17  Pass 1  IDiag  1:
 RMSU=  1.05D-08    CP:  9.58D-01  2.01D+00  7.81D-01  6.26D-01  8.47D-01
                    CP:  1.38D+00  1.57D+00  1.54D+00  1.12D+00  1.28D+00
                    CP:  1.19D+00  1.28D+00  1.23D+00  1.31D+00  1.31D+00
                    CP:  1.05D+00
 E= -1092.90943444372     Delta-E=       -0.000000000035 Rises=F Damp=F
 DIIS: error= 9.80D-08 at cycle  17 NSaved=  17.
 NSaved=17 IEnMin=17 EnMin= -1092.90943444372     IErMin=17 ErrMin= 9.80D-08
 ErrMax= 9.80D-08  0.00D+00 EMaxC= 1.00D-01 BMatC= 1.62D-11 BMatP= 1.01D-10
 IDIUse=1 WtCom= 1.00D+00 WtEn= 0.00D+00
 Coeff-Com:  0.104D-05-0.123D-05 0.195D-04 0.416D-04 0.771D-04-0.122D-06
 Coeff-Com: -0.318D-03-0.652D-03 0.658D-03 0.416D-02 0.536D-02-0.473D-02
 Coeff-Com: -0.356D-01-0.895D-01 0.854D-01 0.348D+00 0.687D+00
 Coeff:      0.104D-05-0.123D-05 0.195D-04 0.416D-04 0.771D-04-0.122D-06
 Coeff:     -0.318D-03-0.652D-03 0.658D-03 0.416D-02 0.536D-02-0.473D-02
 Coeff:     -0.356D-01-0.895D-01 0.854D-01 0.348D+00 0.687D+00
 Gap=     0.119 Goal=   None    Shift=    0.000
 Gap=     0.090 Goal=   None    Shift=    0.000
 RMSDP=8.78D-09 MaxDP=1.07D-06 DE=-3.50D-11 OVMax= 2.58D-06

 Cycle  18  Pass 1  IDiag  1:
 RMSU=  6.00D-09    CP:  9.58D-01  2.01D+00  7.81D-01  6.26D-01  8.47D-01
                    CP:  1.38D+00  1.57D+00  1.54D+00  1.12D+00  1.28D+00
                    CP:  1.19D+00  1.29D+00  1.24D+00  1.33D+00  1.39D+00
                    CP:  1.22D+00  1.05D+00
 E= -1092.90943444370     Delta-E=        0.000000000020 Rises=F Damp=F
 DIIS: error= 5.22D-08 at cycle  18 NSaved=  18.
 NSaved=18 IEnMin=17 EnMin= -1092.90943444372     IErMin=18 ErrMin= 5.22D-08
 ErrMax= 5.22D-08  0.00D+00 EMaxC= 1.00D-01 BMatC= 5.68D-12 BMatP= 1.62D-11
 IDIUse=1 WtCom= 1.00D+00 WtEn= 0.00D+00
 Coeff-Com: -0.815D-08-0.464D-06 0.348D-05 0.111D-04 0.386D-04 0.105D-03
 Coeff-Com:  0.497D-04-0.326D-03-0.665D-03-0.107D-02 0.113D-02 0.114D-01
 Coeff-Com:  0.907D-02-0.200D-01-0.976D-01-0.104D+00 0.392D+00 0.810D+00
 Coeff:     -0.815D-08-0.464D-06 0.348D-05 0.111D-04 0.386D-04 0.105D-03
 Coeff:      0.497D-04-0.326D-03-0.665D-03-0.107D-02 0.113D-02 0.114D-01
 Coeff:      0.907D-02-0.200D-01-0.976D-01-0.104D+00 0.392D+00 0.810D+00
 Gap=     0.119 Goal=   None    Shift=    0.000
 Gap=     0.090 Goal=   None    Shift=    0.000
 RMSDP=6.62D-09 MaxDP=7.31D-07 DE= 1.96D-11 OVMax= 2.00D-06

 Error on total polarization charges =  0.03813
 SCF Done:  E(UB3LYP) =  -1092.90943444     A.U. after   18 cycles
            NFock= 18  Conv=0.66D-08     -V/T= 2.0097
 <Sx>= 0.0000 <Sy>= 0.0000 <Sz>= 0.5000 <S**2>= 0.7743 S= 0.5121
 <L.S>= 0.000000000000E+00
 KE= 1.082448508830D+03 PE=-6.889310320447D+03 EE= 2.525316280323D+03
 Annihilation of the first spin contaminant:
 S**2 before annihilation     0.7743,   after     0.7504
 Leave Link  502 at Fri Dec 14 10:30:06 2018, MaxMem=  1342177280 cpu:            3322.4 elap:             211.3
 (Enter /gpfs/apps/hpc/Apps/Restricted/Gaussian/Rev_A.03/g16/l601.exe)
 Copying SCF densities to generalized density rwf, IOpCl= 1 IROHF=0.

 **********************************************************************

            Population analysis using the SCF density.

 **********************************************************************

 Alpha  occ. eigenvalues --  -19.16578 -14.42791 -14.40789 -14.35673 -10.29870
 Alpha  occ. eigenvalues --  -10.29252 -10.28593 -10.25608 -10.25042 -10.25037
 Alpha  occ. eigenvalues --  -10.24026 -10.23812 -10.23611 -10.23064 -10.22983
 Alpha  occ. eigenvalues --  -10.22836 -10.21974 -10.21758 -10.21210 -10.19804
 Alpha  occ. eigenvalues --  -10.19792 -10.19660 -10.19178 -10.18935 -10.18911
 Alpha  occ. eigenvalues --  -10.18515  -1.05925  -1.04510  -1.00968  -0.91061
 Alpha  occ. eigenvalues --   -0.88981  -0.87867  -0.84793  -0.81718  -0.80264
 Alpha  occ. eigenvalues --   -0.79796  -0.76216  -0.75627  -0.75349  -0.71181
 Alpha  occ. eigenvalues --   -0.70237  -0.69029  -0.66842  -0.65522  -0.63743
 Alpha  occ. eigenvalues --   -0.62577  -0.62106  -0.60522  -0.59347  -0.58136
 Alpha  occ. eigenvalues --   -0.56485  -0.54250  -0.52886  -0.51836  -0.51250
 Alpha  occ. eigenvalues --   -0.50274  -0.49534  -0.48256  -0.47985  -0.46740
 Alpha  occ. eigenvalues --   -0.45958  -0.45894  -0.45432  -0.44910  -0.44783
 Alpha  occ. eigenvalues --   -0.43857  -0.43560  -0.43403  -0.43389  -0.41369
 Alpha  occ. eigenvalues --   -0.41107  -0.40856  -0.40063  -0.39904  -0.39347
 Alpha  occ. eigenvalues --   -0.39294  -0.38715  -0.37973  -0.37064  -0.36479
 Alpha  occ. eigenvalues --   -0.36167  -0.35602  -0.34871  -0.33499  -0.33224
 Alpha  occ. eigenvalues --   -0.32718  -0.31341  -0.31169  -0.29898  -0.28502
 Alpha  occ. eigenvalues --   -0.26540  -0.25208  -0.22676
 Alpha virt. eigenvalues --   -0.10759  -0.05464  -0.02229  -0.00757   0.01012
 Alpha virt. eigenvalues --    0.04593   0.06726   0.07800   0.08609   0.09474
 Alpha virt. eigenvalues --    0.10051   0.11461   0.11901   0.12332   0.12490
 Alpha virt. eigenvalues --    0.12734   0.13307   0.13769   0.14452   0.14786
 Alpha virt. eigenvalues --    0.15096   0.15181   0.15626   0.16574   0.16577
 Alpha virt. eigenvalues --    0.16757   0.17153   0.17569   0.17712   0.17791
 Alpha virt. eigenvalues --    0.17813   0.18370   0.19032   0.19698   0.21010
 Alpha virt. eigenvalues --    0.21140   0.21839   0.22177   0.23054   0.23500
 Alpha virt. eigenvalues --    0.23790   0.24297   0.25394   0.26221   0.26582
 Alpha virt. eigenvalues --    0.27696   0.27736   0.28826   0.29394   0.31019
 Alpha virt. eigenvalues --    0.32286   0.32898   0.33886   0.36807   0.37728
 Alpha virt. eigenvalues --    0.38190   0.40765   0.42694   0.43723   0.46450
 Alpha virt. eigenvalues --    0.46900   0.47113   0.47770   0.47878   0.49057
 Alpha virt. eigenvalues --    0.49397   0.50746   0.50981   0.51082   0.51531
 Alpha virt. eigenvalues --    0.52239   0.52413   0.52764   0.52799   0.53599
 Alpha virt. eigenvalues --    0.53851   0.54046   0.54893   0.55448   0.55587
 Alpha virt. eigenvalues --    0.56095   0.56351   0.57676   0.58545   0.59000
 Alpha virt. eigenvalues --    0.59097   0.59939   0.59984   0.60407   0.60931
 Alpha virt. eigenvalues --    0.61760   0.62889   0.62944   0.64377   0.64807
 Alpha virt. eigenvalues --    0.65248   0.65942   0.66508   0.66849   0.67609
 Alpha virt. eigenvalues --    0.68680   0.69717   0.70650   0.70889   0.71189
 Alpha virt. eigenvalues --    0.73628   0.74153   0.74514   0.74801   0.75215
 Alpha virt. eigenvalues --    0.76035   0.77066   0.77384   0.77972   0.78267
 Alpha virt. eigenvalues --    0.79315   0.79547   0.80464   0.80836   0.81288
 Alpha virt. eigenvalues --    0.81762   0.83000   0.83720   0.83979   0.84114
 Alpha virt. eigenvalues --    0.84883   0.85871   0.86150   0.86257   0.86461
 Alpha virt. eigenvalues --    0.87766   0.87889   0.88126   0.88985   0.89048
 Alpha virt. eigenvalues --    0.89551   0.89935   0.90780   0.91285   0.92363
 Alpha virt. eigenvalues --    0.92725   0.93278   0.93401   0.94021   0.94287
 Alpha virt. eigenvalues --    0.95046   0.96828   0.97413   0.98597   0.99930
 Alpha virt. eigenvalues --    1.01697   1.03226   1.03941   1.05058   1.06508
 Alpha virt. eigenvalues --    1.07178   1.08231   1.09579   1.11557   1.11932
 Alpha virt. eigenvalues --    1.13302   1.13900   1.15342   1.15610   1.17981
 Alpha virt. eigenvalues --    1.18247   1.19440   1.20854   1.21789   1.22982
 Alpha virt. eigenvalues --    1.23968   1.25025   1.25804   1.26549   1.26745
 Alpha virt. eigenvalues --    1.27839   1.28091   1.28492   1.28977   1.32032
 Alpha virt. eigenvalues --    1.33615   1.34034   1.35604   1.36302   1.37403
 Alpha virt. eigenvalues --    1.38083   1.38611   1.38863   1.38947   1.40322
 Alpha virt. eigenvalues --    1.41094   1.42287   1.44309   1.44769   1.45405
 Alpha virt. eigenvalues --    1.46688   1.50095   1.51195   1.53268   1.54366
 Alpha virt. eigenvalues --    1.55357   1.59461   1.59869   1.60948   1.61489
 Alpha virt. eigenvalues --    1.65866   1.68490   1.68661   1.69534   1.70850
 Alpha virt. eigenvalues --    1.71131   1.71441   1.71489   1.71920   1.74215
 Alpha virt. eigenvalues --    1.74686   1.75129   1.75554   1.77153   1.77245
 Alpha virt. eigenvalues --    1.78200   1.79310   1.79473   1.81266   1.82065
 Alpha virt. eigenvalues --    1.82758   1.82947   1.83760   1.84680   1.84782
 Alpha virt. eigenvalues --    1.85675   1.86330   1.87654   1.88918   1.89646
 Alpha virt. eigenvalues --    1.90080   1.90894   1.91017   1.91528   1.92643
 Alpha virt. eigenvalues --    1.93529   1.93729   1.93962   1.96230   1.97800
 Alpha virt. eigenvalues --    1.98401   1.99019   1.99138   1.99391   2.00219
 Alpha virt. eigenvalues --    2.00901   2.02169   2.03294   2.03846   2.04181
 Alpha virt. eigenvalues --    2.07666   2.07943   2.08452   2.09283   2.10340
 Alpha virt. eigenvalues --    2.11083   2.11305   2.12568   2.12701   2.13040
 Alpha virt. eigenvalues --    2.14096   2.14698   2.15293   2.15876   2.16852
 Alpha virt. eigenvalues --    2.17200   2.17911   2.18487   2.18983   2.21186
 Alpha virt. eigenvalues --    2.22360   2.22978   2.23680   2.24130   2.24857
 Alpha virt. eigenvalues --    2.25498   2.26329   2.26441   2.27948   2.29828
 Alpha virt. eigenvalues --    2.30978   2.32231   2.33035   2.33201   2.34846
 Alpha virt. eigenvalues --    2.36166   2.36757   2.36918   2.37807   2.37962
 Alpha virt. eigenvalues --    2.38576   2.39777   2.40461   2.41862   2.42012
 Alpha virt. eigenvalues --    2.42415   2.43472   2.45047   2.47392   2.47655
 Alpha virt. eigenvalues --    2.47893   2.49233   2.49467   2.49964   2.51122
 Alpha virt. eigenvalues --    2.51389   2.53178   2.53476   2.54632   2.54796
 Alpha virt. eigenvalues --    2.55706   2.55954   2.56435   2.57671   2.59626
 Alpha virt. eigenvalues --    2.60063   2.60986   2.61667   2.62309   2.64043
 Alpha virt. eigenvalues --    2.64334   2.65908   2.66064   2.66187   2.69431
 Alpha virt. eigenvalues --    2.69942   2.70186   2.70590   2.72031   2.72965
 Alpha virt. eigenvalues --    2.73690   2.74756   2.75605   2.75975   2.76853
 Alpha virt. eigenvalues --    2.79649   2.80225   2.81649   2.82401   2.84262
 Alpha virt. eigenvalues --    2.85081   2.85166   2.86108   2.86332   2.86908
 Alpha virt. eigenvalues --    2.87080   2.87589   2.88197   2.89500   2.89856
 Alpha virt. eigenvalues --    2.91374   2.92080   2.93615   2.96055   2.99535
 Alpha virt. eigenvalues --    3.01227   3.02718   3.04432   3.05596   3.07424
 Alpha virt. eigenvalues --    3.11462   3.14348   3.17810   3.19461   3.19957
 Alpha virt. eigenvalues --    3.20199   3.22315   3.25328   3.29135   3.29483
 Alpha virt. eigenvalues --    3.30349   3.30825   3.32530   3.36968   3.39663
 Alpha virt. eigenvalues --    3.40106   3.40357   3.41481   3.42316   3.44280
 Alpha virt. eigenvalues --    3.45347   3.45796   3.46834   3.47876   3.51827
 Alpha virt. eigenvalues --    3.53265   3.56685   3.58369   3.62010   3.68275
 Alpha virt. eigenvalues --    3.79687   3.98327   4.06659   4.09944   4.10315
 Alpha virt. eigenvalues --    4.11554   4.13372   4.14224   4.22166   4.24770
 Alpha virt. eigenvalues --    4.29865   4.33565   4.37141   4.38826   4.42010
 Alpha virt. eigenvalues --    4.44359   4.47343   4.49040   4.54028   4.55826
 Alpha virt. eigenvalues --    4.62056   4.65450   4.72825   4.73783   4.76571
 Alpha virt. eigenvalues --    4.84660   4.89507
  Beta  occ. eigenvalues --  -19.15767 -14.42784 -14.40749 -14.35584 -10.29871
  Beta  occ. eigenvalues --  -10.29316 -10.28604 -10.25585 -10.25057 -10.25038
  Beta  occ. eigenvalues --  -10.23600 -10.23532 -10.23530 -10.23062 -10.22815
  Beta  occ. eigenvalues --  -10.22625 -10.22079 -10.21736 -10.21384 -10.19804
  Beta  occ. eigenvalues --  -10.19791 -10.19680 -10.19198 -10.18935 -10.18911
  Beta  occ. eigenvalues --  -10.18515  -1.05228  -1.03659  -1.00953  -0.90937
  Beta  occ. eigenvalues --   -0.88683  -0.87435  -0.84785  -0.81404  -0.80187
  Beta  occ. eigenvalues --   -0.79051  -0.76124  -0.75626  -0.75270  -0.71147
  Beta  occ. eigenvalues --   -0.70232  -0.68723  -0.66636  -0.65441  -0.63670
  Beta  occ. eigenvalues --   -0.62574  -0.62076  -0.60355  -0.58943  -0.57986
  Beta  occ. eigenvalues --   -0.56481  -0.54155  -0.52828  -0.51801  -0.51033
  Beta  occ. eigenvalues --   -0.50069  -0.49342  -0.48020  -0.47884  -0.46709
  Beta  occ. eigenvalues --   -0.45834  -0.45779  -0.44859  -0.44698  -0.44238
  Beta  occ. eigenvalues --   -0.43518  -0.43427  -0.43217  -0.42500  -0.41282
  Beta  occ. eigenvalues --   -0.41100  -0.39996  -0.39858  -0.39775  -0.39297
  Beta  occ. eigenvalues --   -0.39242  -0.38179  -0.37792  -0.36847  -0.36256
  Beta  occ. eigenvalues --   -0.35851  -0.35601  -0.33612  -0.33222  -0.32699
  Beta  occ. eigenvalues --   -0.32532  -0.31268  -0.31116  -0.29157  -0.27718
  Beta  occ. eigenvalues --   -0.26333  -0.24534
  Beta virt. eigenvalues --   -0.15576  -0.10538  -0.04711  -0.00742   0.00310
  Beta virt. eigenvalues --    0.01456   0.05357   0.06728   0.07801   0.08612
  Beta virt. eigenvalues --    0.09484   0.10049   0.11532   0.11906   0.12380
  Beta virt. eigenvalues --    0.12576   0.13349   0.13602   0.13835   0.14477
  Beta virt. eigenvalues --    0.14814   0.15156   0.15263   0.15665   0.16577
  Beta virt. eigenvalues --    0.16625   0.16777   0.17161   0.17572   0.17804
  Beta virt. eigenvalues --    0.17847   0.18077   0.18448   0.19709   0.19811
  Beta virt. eigenvalues --    0.21075   0.21211   0.21986   0.22324   0.23058
  Beta virt. eigenvalues --    0.23657   0.23843   0.24516   0.25553   0.26298
  Beta virt. eigenvalues --    0.26733   0.27739   0.27785   0.28916   0.29443
  Beta virt. eigenvalues --    0.31161   0.32376   0.33216   0.34006   0.36893
  Beta virt. eigenvalues --    0.37828   0.38265   0.40879   0.42793   0.43883
  Beta virt. eigenvalues --    0.46882   0.46930   0.47207   0.47895   0.48158
  Beta virt. eigenvalues --    0.49102   0.49461   0.50790   0.51013   0.51256
  Beta virt. eigenvalues --    0.51640   0.52248   0.52437   0.52800   0.52846
  Beta virt. eigenvalues --    0.53760   0.54090   0.54566   0.55118   0.55701
  Beta virt. eigenvalues --    0.55723   0.56151   0.56417   0.57753   0.58585
  Beta virt. eigenvalues --    0.59100   0.59249   0.60008   0.60040   0.60462
  Beta virt. eigenvalues --    0.60939   0.61792   0.63003   0.63083   0.64408
  Beta virt. eigenvalues --    0.64928   0.65333   0.66008   0.66522   0.66974
  Beta virt. eigenvalues --    0.67742   0.68795   0.69769   0.70656   0.71155
  Beta virt. eigenvalues --    0.72216   0.74052   0.74241   0.74812   0.75082
  Beta virt. eigenvalues --    0.75298   0.76115   0.77125   0.77604   0.78291
  Beta virt. eigenvalues --    0.78587   0.79445   0.79569   0.80477   0.81077
  Beta virt. eigenvalues --    0.81322   0.81770   0.83106   0.83898   0.84080
  Beta virt. eigenvalues --    0.84224   0.85013   0.85909   0.86262   0.86468
  Beta virt. eigenvalues --    0.86567   0.87797   0.87913   0.88190   0.89014
  Beta virt. eigenvalues --    0.89121   0.89635   0.89941   0.90796   0.91452
  Beta virt. eigenvalues --    0.92462   0.92812   0.93283   0.93463   0.94052
  Beta virt. eigenvalues --    0.94348   0.95057   0.96897   0.97763   0.98752
  Beta virt. eigenvalues --    1.01775   1.02232   1.03362   1.04006   1.05155
  Beta virt. eigenvalues --    1.06692   1.07276   1.08327   1.09655   1.11650
  Beta virt. eigenvalues --    1.11994   1.13379   1.13998   1.15449   1.15676
  Beta virt. eigenvalues --    1.18124   1.18389   1.19531   1.21637   1.21939
[...]
 00034136,0.00027499,-0.00003115,-0.00031966,0.00031767,0.00007289,0.06
 370059,-0.06342661,0.00141935,0.00073112,0.00038799,0.00036281,0.00022
 302,0.00090038,0.00084586,0.00044034,0.00013517,-0.00022997,-0.0001608
 2,0.00075196,-0.00067986,-0.06687586,0.06396279,0.00000064,-0.00000225
 ,0.00000147,-0.00000020,0.00000147,0.00000215,-0.00000021,-0.00000122,
 -0.00000042,0.00000215,0.00000015,0.00000359,-0.00000170,0.00000282,0.
 00000017,0.00000431,0.00000434,-0.00003687,-0.00000037,-0.00000191,0.0
 0000121,0.00000017,-0.00000008,-0.00000115,0.00000030,-0.00000009,0.00
 000004,-0.00000033,0.00000030,-0.00000161,0.00000287,0.00000023,-0.000
 00015,-0.00000015,0.00000053,-0.00000048,0.00000032,-0.00000067,0.0000
 0070,-0.00000029,0.00000140,0.00000059,-0.00000007,-0.00000105,0.00000
 009,0.00000035,0.00000002,0.00000010,-0.00000021,-0.00000004,-0.000000
 13,0.00000017,-0.00000024,-0.00000126,0.00000004,0.00000005,-0.0000001
 4,-0.00000006,0.00000002,-0.00000042,-0.00000022,0.00000023,0.00000006
 ,0.00000017,-0.00000005,0.00000012,-0.00000006,0.00000005,0.00000010,0
 .00000004,0.,0.,-0.00000006,0.00000003,0.,0.00000012,0.00000001,0.0000
 0002,0.00000004,0.00000002,-0.00000003,0.00000029,0.00000011,0.0000006
 5,0.00000583,0.00000466,0.00000025,-0.00001685,0.00000058,0.00000550,-
 0.00001313,0.00001145,-0.00000878,0.00004286,0.00007184,0.00042750,-0.
 00009187,-0.00015480,-0.00097339,-0.00143176,-0.00352378,-0.00407505,0
 .00148099,0.00235608,-0.00563028,0.00000816,0.00002404,0.00009776,-0.0
 2561509,0.00709099,-0.00062041,0.00033682,0.00001353,-0.00000211,-0.00
 186950,0.00000940,0.00008750,0.02982036,-0.00807400,0.00064372,-0.0002
 8651,-0.00007510,0.00001435,0.00207980,-0.00009883,0.00001855,-0.00359
 272,0.00151524,-0.04621792,0.00057924,0.00064662,0.00084111,0.00071869
 ,0.00012698,0.00094579,-0.00073037,-0.00051659,0.00123434,-0.00082252,
 0.00005148,0.00126669,0.00346569,-0.00032388,0.05249680,0.00000118,-0.
 00001118,0.00000029,-0.00000165,0.00000233,-0.00000009,-0.00000017,-0.
 00000727,0.00000015,0.00001058,0.00000558,0.00000017,-0.00000977,0.000
 01041,-0.00000031,0.00001886,0.00000458,0.00000034,-0.00000666,-0.0000
 0192,-0.00000016,0.00000031,0.00000010,0.00000003,0.00000035,-0.000000
 42,0.00000007,-0.00000132,0.00000115,0.00000034,0.00000561,-0.00000076
 ,0.00000025,-0.00000167,0.00000208,-0.00000019,0.00000098,-0.00000204,
 0.00000013,-0.00000116,0.00000549,-0.00000033,-0.00000055,-0.00000502,
 0.00000028,0.00000222,-0.00000025,0.00000016,-0.00000196,-0.00000019,-
 0.00000020,0.00000016,-0.00000062,0.00000002,0.00000012,0.00000035,0.,
 -0.00000063,0.,-0.00000017,-0.00000007,0.00000025,0.00000006,-0.000000
 07,0.00000026,-0.00000006,-0.00000011,0.00000034,-0.00000001,0.0000004
 0,-0.00000027,0.00000010,0.00000019,0.00000011,-0.00000001,0.00000021,
 0.00000011,0.00000002,0.00000013,0.00000026,-0.00000002,0.00000239,0.0
 0000014,0.00000022,0.00000699,0.00000900,-0.00000037,-0.00003389,-0.00
 000138,-0.00000226,-0.00000032,0.00000573,-0.00000145,-0.00000964,-0.0
 0001278,0.00000608,-0.00007140,0.00002534,-0.00001547,0.00096295,-0.00
 094711,0.00047696,0.00081709,-0.00108770,-0.00013569,0.00002809,0.0001
 4227,-0.00002162,0.00011490,-0.01536351,0.00159404,-0.00016928,-0.0000
 8283,-0.00002433,0.00017599,0.00018530,-0.00001494,0.00007757,-0.01402
 147,0.00229676,0.00000064,0.00000545,0.00005416,0.00016758,0.00016173,
 -0.00004478,-0.05193873,0.01981646,-0.00245779,0.00035621,0.00057189,0
 .00039114,-0.00056181,-0.00175437,-0.00226944,0.00033787,0.00050554,-0
 .00046598,-0.00034992,-0.00099233,0.00246633,-0.00111919,0.03111376,-0
 .00408799,0.05120062,0.00000767,0.00003086,-0.00000001,-0.00000079,0.0
 0000312,0.00000008,-0.00000318,0.00001329,-0.00000050,-0.00002185,-0.0
 0000736,-0.00000031,0.00001217,-0.00003895,0.00000061,-0.00007174,0.00
 003646,-0.00000685,0.00002311,0.00000501,0.00000104,-0.00000047,0.0000
 0018,-0.00000004,-0.00000290,0.00000190,0.,0.00000216,0.00000252,0.000
 00005,-0.00001427,0.00000681,-0.00000095,0.00000665,-0.00000400,0.0000
 0062,-0.00000174,-0.00000351,0.00000012,0.00000128,0.00000075,0.000000
 22,0.00000394,-0.00000039,0.00000047,-0.00000443,0.00000107,-0.0000004
 4,0.00000388,0.00000036,0.00000037,0.00000030,-0.00000044,-0.00000019,
 0.00000014,-0.00000033,-0.00000001,-0.00000097,0.00000012,-0.00000051,
 0.00000027,0.00000086,0.00000130,0.00000064,0.00000074,-0.00000110,-0.
 00000057,-0.00000038,0.,-0.00000079,0.00000056,-0.00000016,-0.00000045
 ,-0.00000029,0.00000022,-0.00000042,-0.00000034,-0.00000023,-0.0000001
 3,-0.00000031,0.,-0.00000715,0.00000337,-0.00000077,-0.00002365,-0.000
 02887,0.00000013,0.00007612,-0.00015434,0.00000700,0.00000969,-0.00001
 045,0.00000257,-0.00018061,0.00006259,0.00002168,0.00013749,0.00024657
 ,-0.00007678,0.00076168,0.00049917,0.00065412,0.00038687,0.00030404,-0
 .00053486,0.00012786,-0.00004596,-0.00000429,0.00128711,-0.01608207,0.
 00113143,-0.00108863,0.00011909,0.00021727,-0.00007892,0.00032028,-0.0
 0014135,0.00082632,-0.00832478,0.00171466,-0.00090503,0.00020112,-0.00
 012625,-0.00013924,0.00027916,0.00004224,0.01848087,-0.29637508,0.0330
 9821,0.00017792,0.00043427,-0.00010544,-0.00180299,-0.00049339,-0.0028
 6958,0.00004055,0.00056257,0.00038846,-0.00080498,0.00078646,0.0016840
 1,0.00107273,-0.00676012,0.00085672,-0.01828089,0.32437462,-0.00000106
 ,-0.00000280,0.00000125,0.00000030,-0.00000010,0.00000051,0.00000017,-
 0.00000107,-0.00000005,0.00000202,0.00000037,0.00000116,-0.00000126,0.
 00000451,-0.00000110,0.00000797,-0.00000291,-0.00001001,-0.00000233,-0
 .00000125,0.00000002,0.00000006,-0.00000006,-0.00000031,0.00000037,-0.
 00000018,0.00000025,-0.00000017,-0.00000008,0.00000049,0.00000202,-0.0
 0000069,0.00000008,-0.00000063,0.00000038,-0.00000031,0.00000021,0.000
 00035,0.00000027,-0.00000020,-0.00000008,0.00000043,-0.00000036,0.0000
 0006,0.,0.00000040,-0.00000008,0.00000010,-0.00000034,-0.00000004,-0.0
 0000010,0.00000002,-0.00000006,-0.00000073,0.,0.00000003,-0.00000012,0
 .00000025,-0.00000002,-0.00000055,-0.00000019,-0.00000003,-0.00000012,
 -0.00000003,-0.00000013,0.00000030,0.00000004,0.00000005,0.00000008,0.
 00000007,-0.00000004,0.00000004,-0.00000001,0.00000005,-0.00000002,0.0
 0000010,0.00000001,0.00000004,0.00000002,0.00000002,-0.00000004,0.0000
 0066,-0.00000028,0.00000033,0.00000390,0.00000359,-0.00000009,-0.00000
 863,0.00001916,0.00000741,-0.00000735,0.00000316,-0.00000268,0.0000323
 2,0.00001830,0.00014276,-0.00002648,-0.00008472,-0.00031349,0.00115953
 ,0.00005153,0.00092917,-0.00130631,0.00022345,0.00112038,-0.00002240,-
 0.00000583,-0.00007437,0.00161897,-0.02755212,0.00203443,-0.00007088,0
 .00062795,0.00015323,0.00025647,0.00023545,-0.00009919,-0.00198521,0.0
 3091019,-0.00618313,0.00032774,-0.00073839,0.00017626,-0.00024108,-0.0
 0034111,-0.00003213,-0.00234549,0.03303860,-0.05262786,0.00080184,0.00
 077239,0.00110385,-0.00324529,-0.00292174,-0.00352630,-0.00066313,-0.0
 0029299,0.00134710,0.00346286,0.00172978,-0.00501159,-0.00000880,0.000
 26900,-0.00050236,0.00225445,-0.03595363,0.06136553,0.00265925,0.00004
 772,-0.00006135,0.00392446,-0.00538449,0.00075027,0.00058615,0.0010772
 3,0.00006321,-0.00099213,-0.00008133,-0.00004207,0.00066495,-0.0000218
 5,0.00004862,0.00129707,-0.00002437,-0.00004029,-0.01823006,-0.0047107
 9,-0.00046790,-0.00020883,0.00019323,-0.00016939,0.00004874,0.00011740
 ,-0.00000755,0.00002890,0.00004080,-0.00000335,-0.40639265,-0.08763378
 ,-0.01785903,0.00502319,0.00109151,0.00045405,0.00030890,0.00046924,0.
 00019774,-0.00043806,-0.00061897,-0.00001639,0.00052975,0.00035829,0.0
 0002838,-0.00050887,0.00034181,-0.00006271,-0.00074884,0.00040177,-0.0
 0020748,-0.00008735,0.00003310,-0.00001008,-0.00012156,0.00006607,-0.0
 0000117,-0.00015604,-0.00007843,-0.00001915,-0.00000491,0.00003052,0.0
 0000093,-0.00000418,0.00002942,-0.00000093,0.00001821,-0.00002342,0.00
 000456,-0.00012439,-0.00003414,-0.00001073,-0.00002963,-0.00003242,0.0
 0002799,-0.00001824,-0.00002661,-0.00002269,0.00000391,0.00002411,0.00
 000285,-0.00970200,0.00094343,-0.00000189,0.00233652,0.00360451,-0.000
 30517,-0.00081374,0.00098528,-0.00006479,0.00011046,-0.00000765,0.0000
 0364,0.00024547,-0.00067377,0.00006153,-0.00020103,0.00008883,-0.00004
 556,0.00004951,-0.00003483,0.00008965,0.00003915,-0.00005185,-0.000057
 32,0.00003983,-0.00001773,0.00000562,-0.00000999,0.00002687,-0.0000446
 8,-0.00000247,0.00000090,-0.00000247,-0.00000684,-0.00000097,-0.000003
 63,-0.00000894,0.00002907,0.00002918,-0.00000757,-0.00000360,0.0000023
 5,-0.00000460,0.00000209,0.00000576,-0.00000219,-0.00001374,0.00000205
 ,0.00002601,-0.00000311,-0.00000350,0.00000300,-0.00000541,0.00000394,
 0.00002276,-0.00000072,0.00000393,0.00000401,-0.00000569,-0.00000268,0
 .00001108,0.00000225,-0.00000023,-0.00000184,0.00000258,-0.00000022,0.
 42091351,0.00022342,-0.00776342,0.00029445,-0.02297788,-0.00083299,-0.
 00133114,0.00078866,0.00166681,-0.00009907,-0.00071943,-0.00006433,-0.
 00002388,0.00053081,-0.00024657,0.00002131,-0.00031742,0.00126759,-0.0
 0000404,0.01671269,0.01976553,0.00016875,0.00060825,-0.00022481,-0.000
 03553,0.00002740,0.00002556,-0.00000115,0.00002693,0.00000701,0.000002
 24,-0.09421388,-0.09246867,-0.00129824,0.00985249,-0.00682203,0.000969
 31,-0.00051651,-0.00003854,0.00005041,-0.00061594,0.00024291,-0.000073
 35,0.00066486,-0.00023488,0.00011045,-0.00067161,0.00056261,-0.0000971
 5,-0.00140581,0.00058973,-0.00027016,-0.00029771,0.00015786,-0.0000497
 0,-0.00019611,0.00023507,-0.00001922,-0.00040533,-0.00009965,-0.000069
 31,-0.00004074,0.00014312,-0.00000132,-0.00004506,0.00014491,-0.000009
 43,-0.00002099,0.00005365,0.00000017,-0.00012468,-0.00000992,-0.000009
 16,-0.00002150,-0.00001342,0.00007234,0.00001752,0.00000408,-0.0000558
 7,0.00005936,0.00012665,0.00000774,-0.00636824,0.00789547,-0.00116491,
 0.01084011,-0.00022675,0.00049490,-0.00037070,-0.00008021,-0.00000908,
 -0.00008083,0.00004484,-0.00000634,0.00055121,-0.00001618,0.00000518,-
 0.00015074,0.00015497,-0.00001129,0.00004145,-0.00001805,0.00004478,0.
 00004569,-0.00003385,-0.00003517,0.00001151,-0.00001619,0.00000243,-0.
 00000746,0.00001661,-0.00002649,-0.00000120,-0.00000103,-0.00000205,-0
 .00000460,0.00000141,-0.00000246,-0.00000652,0.00002294,0.00002118,-0.
 00000393,-0.00000001,0.00000161,-0.00000349,0.00000261,0.00000240,-0.0
 0000100,-0.00000756,0.00000146,0.00001486,-0.00000165,-0.00000220,0.00
 000253,-0.00000462,0.00000225,0.00001477,-0.00000103,0.00000208,0.0000
 0241,-0.00000473,-0.00000097,0.00000653,0.00000154,-0.00000040,-0.0000
 0111,0.00000035,-0.00000011,0.08940135,0.07627482,0.00006190,0.0004286
 5,0.00287889,0.00152432,-0.00055085,-0.00657700,0.00002747,-0.00012510
 ,-0.00135219,-0.00002587,0.00000553,0.00003884,0.00002364,0.00001081,-
 0.00030043,0.00005188,-0.00003334,0.00137379,-0.00107531,-0.00078322,-
 0.00464754,-0.00016086,-0.00005318,-0.00011016,-0.00000017,0.00001043,
 0.00009114,-0.00000040,0.00000275,0.00004428,-0.01829447,-0.00129265,-
 0.01343705,0.00033859,0.00034958,0.00023186,0.00008474,-0.00003691,-0.
 00200009,-0.00001149,-0.00003177,-0.00019113,-0.00000330,0.00001482,0.
 00021582,0.00000173,0.00003018,-0.00002300,-0.00017803,0.00009013,0.00
 099821,-0.00000077,-0.00000016,-0.00006246,0.00000245,0.00000022,-0.00
 013168,-0.00000778,-0.00000270,0.00001923,0.00000251,-0.00000062,-0.00
 000207,-0.00000266,0.00000301,-0.00000275,0.00000151,-0.00000125,-0.00
 000493,-0.00000571,-0.00000143,-0.00004322,0.00000087,0.00000601,0.000
 01404,-0.00000841,-0.00001081,0.00000740,0.00000191,0.00000272,-0.0000
 0132,0.00021605,-0.00074139,-0.00424147,-0.00032668,0.00025765,0.00567
 171,-0.00004662,0.00007939,0.00024975,0.00001267,-0.00000294,-0.000102
 09,-0.00002540,-0.00006441,-0.00023782,-0.00000303,0.00000404,0.000061
 84,-0.00001485,0.00000587,-0.00000376,0.00001140,-0.00001353,-0.000007
 35,0.00000214,0.00000022,-0.00000033,0.00000075,-0.00000286,0.00000407
 ,0.00000113,-0.00000151,-0.00000010,0.00000009,-0.00000125,-0.00000288
 ,0.00000030,0.00000654,0.00000551,-0.00000163,0.00000196,-0.00000084,-
 0.00000013,-0.00000004,-0.00000206,-0.00000036,-0.00000019,0.00000228,
 -0.00000077,0.00000070,-0.00000144,0.00000026,0.00000021,0.00000051,0.
 00000263,-0.00000118,-0.00000101,-0.00000046,-0.00000028,0.00000025,0.
 00000030,-0.00000015,-0.00000135,-0.00000003,0.00000011,-0.00000041,0.
 01777511,0.00241886,0.02127134,-0.00382780,0.01046638,-0.00041336,0.00
 223520,0.00013665,0.00009563,0.00018271,0.00198956,-0.00003835,-0.0023
 0348,-0.00129287,-0.00005433,0.00149491,-0.00300210,0.00013067,-0.0059
 9439,0.00199077,-0.00002793,-0.00230584,-0.00665271,-0.00009392,0.0000
 8253,-0.00015608,0.00001143,-0.00008979,-0.00000906,-0.00000479,0.0001
 0679,-0.00021523,-0.00000562,0.00510076,-0.00083643,0.00029318,-0.0003
 3190,0.00044872,-0.00004369,0.00026747,-0.00027284,0.00001104,-0.00018
 559,0.00074725,-0.00005314,-0.00004788,-0.00055545,0.00002330,0.000267
 06,0.00002639,0.00001608,-0.00011960,0.00001237,-0.00001527,0.00019190
 ,-0.00029597,-0.00014198,0.00002241,0.00004610,0.00000197,-0.00003715,
 0.00000985,-0.00001351,-0.00000912,0.00003416,0.00000135,-0.00001012,0
 .00003498,-0.00000513,-0.00002556,0.00004008,-0.00000359,0.00002858,0.
 00000136,0.00000785,0.00002514,0.00001596,-0.00000193,0.00002812,0.000
 01690,0.00000345,0.00002637,0.00002795,0.00000016,0.00031371,0.0000199
 0,0.00003660,0.00178175,0.00486888,-0.00022533,0.02663116,0.01191895,0
 .00054157,-0.00158205,0.00440715,-0.00030797,-0.19030626,-0.15689814,-
 0.00204237,-0.01142008,-0.01772745,-0.00060049,-0.00181942,0.00068690,
 -0.00081963,-0.00237702,0.00131843,0.00111569,0.00040445,-0.00053095,-
 0.00010035,0.00005996,-0.00021611,0.00055177,0.00010976,-0.00006951,-0
 .00010623,0.00034388,0.00018875,0.00013259,0.00003144,-0.00057343,-0.0
 0064484,0.00003492,-0.00007595,0.00011454,0.00024211,0.00017240,-0.000
 11743,0.00014404,0.00002010,-0.00002068,-0.00015755,0.00006582,-0.0000
 0535,-0.00001291,0.00003036,0.00000920,-0.00024567,0.00008231,0.000006
 57,-0.00000047,0.00003002,-0.00001887,0.00000406,0.00000402,0.00001207
 ,-0.00000836,-0.00001320,0.00000507,-0.00006784,-0.00085441,0.00004889
 ,0.18312466,0.00421553,0.00376252,0.00008089,0.00122061,-0.00058428,0.
 00008000,0.00012641,0.00131823,-0.00002049,-0.00163991,-0.00063832,-0.
 00004809,0.00101538,-0.00208084,0.00009976,-0.00427307,0.00152467,-0.0
 0021576,-0.00085322,-0.00241650,-0.00002879,0.00001630,-0.00007232,0.0
 0000798,-0.00011114,0.00004045,-0.00000507,0.00006979,0.00008952,-0.00
 000175,0.00108010,-0.00048860,0.00008340,-0.00004089,-0.00002790,-0.00
 000434,0.00002453,0.00005763,-0.00001471,-0.00016465,-0.00016762,-0.00
 001277,0.00006079,0.00008908,-0.00000568,-0.00003286,0.00002575,-0.000
 00229,0.00004934,0.00002273,0.00000408,0.00008327,-0.00044338,-0.00014
 404,0.00000876,0.00000406,0.00000147,0.00002393,0.00000323,0.00000433,
 -0.00000003,-0.00002008,-0.00000630,-0.00000327,-0.00001910,0.00000593
 ,0.00000703,0.00000648,-0.00000066,-0.00000227,0.00000561,-0.00000052,
 0.00000141,-0.00000021,-0.00000116,0.00000104,0.00000041,0.00000162,0.
 00000155,0.00000174,0.00000013,0.00000827,0.00001306,-0.00000084,0.001
 78195,-0.00245065,-0.00025606,-0.01242391,-0.03277552,-0.00005473,0.00
 278038,-0.00121430,0.00015022,-0.15302741,-0.27170202,-0.00185498,0.00
 453273,0.01201004,0.00059314,0.00136282,-0.00015057,0.00064185,0.00220
 147,-0.00030939,-0.00079965,0.00093506,0.00078553,-0.00027780,-0.00000
 994,0.00014168,-0.00051875,-0.00002978,0.00000841,0.00000886,-0.000025
 48,0.00011515,-0.00006046,0.00004472,0.00045323,0.00061490,-0.00001455
 ,0.00003930,0.00002765,-0.00011482,-0.00003915,0.00014660,-0.00010658,
 -0.00014499,0.00004904,0.00025353,-0.00004754,-0.00005741,0.00004646,-
 0.00005324,0.00001908,0.00033919,-0.00004876,0.00005991,0.00003831,-0.
 00006789,-0.00001194,0.00007491,0.00001972,-0.00001640,-0.00000059,0.0
 0003308,-0.00000784,0.00008028,-0.00017756,0.00002336,0.15038849,0.295
 56940,-0.00042544,0.00004292,0.00009651,-0.00005229,0.00006346,0.00051
 023,-0.00000910,-0.00003185,-0.00009800,0.00002677,0.00002195,0.000215
 84,-0.00002942,0.00002925,-0.00043441,0.00024296,-0.00007887,-0.005983
 37,-0.00007646,0.00003982,-0.00086853,0.00000034,0.00000153,-0.0000276
 4,-0.00000587,0.00000263,0.00009649,0.00000088,0.00000022,0.00006954,-
 0.00003323,-0.00002570,0.00025103,0.00000277,-0.00000031,-0.00000698,-
 0.00000507,0.00000889,-0.00015755,0.00002729,0.00001630,-0.00005459,0.
 00000029,0.00000173,0.00002044,0.00000004,-0.00000066,-0.00000762,-0.0
 0000262,-0.00000217,0.00000632,-0.00007626,0.00000248,-0.00026468,-0.0
 0000136,0.00000003,0.00000464,-0.00000235,0.00000089,0.00000159,0.0000
 0260,-0.00000171,0.00000185,-0.00000103,0.00000709,-0.00000247,-0.0000
 0050,-0.00000048,-0.00000238,0.00000046,-0.00000053,0.00000030,0.00000
 087,0.00000012,0.00000004,-0.00000134,-0.00000021,-0.00000037,-0.00000
 022,0.00000006,0.00000043,0.00000013,0.00000111,-0.00000782,0.00031065
 ,-0.00019056,-0.00480319,0.00053180,0.00118808,0.00418316,-0.00028939,
 0.00021933,0.01010757,-0.00202296,-0.00253906,-0.02910493,-0.00017350,
 0.00026803,0.00060043,0.00119927,-0.00034666,-0.00079749,-0.00197297,0
 .00007201,-0.00099618,-0.00025662,-0.00060350,0.00049819,0.00014593,-0
 .00028005,-0.00016316,-0.00028252,-0.00002494,0.00031766,-0.00000088,-
 0.00005041,-0.00015456,-0.00008746,0.00000876,-0.00021829,0.00033714,0
 .00004878,0.00028167,0.00034023,0.00037244,-0.00023527,-0.00003256,0.0
 0001395,-0.00002123,0.00001944,0.00000755,-0.00004382,0.00004998,0.000
 01396,-0.00001128,-0.00007745,-0.00001433,-0.00005934,-0.00004173,0.00
 000480,-0.00001112,-0.00000883,-0.00000673,-0.00001661,0.00000113,0.00
 000054,0.00000159,-0.00002696,0.00001491,0.00030916,0.00275542,0.00172
 510,0.02697820\\-0.00000178,-0.00000108,0.00000602,-0.00000232,-0.0000
 0300,0.00000936,-0.00000383,-0.00000330,0.00001298,-0.00000621,-0.0000
 0284,0.00001296,-0.00000514,-0.00000145,0.00000974,-0.00000326,-0.0000
 0094,0.00000607,0.00000115,-0.00000264,0.00000443,-0.00000442,-0.00000
 513,0.00001541,-0.00000664,-0.00000345,0.00001566,-0.00000597,-0.00000
 019,0.00000989,-0.00000087,-0.00000489,0.00000825,0.00000347,-0.000004
 35,0.00000458,0.00000126,-0.00000365,0.00000212,0.00000437,-0.00000178
 ,-0.00000165,0.00000505,-0.00000254,-0.00000389,0.00000611,-0.00000327
 ,-0.00000218,0.00000415,-0.00000519,0.00000165,0.00000287,-0.00000120,
 -0.00000290,0.00000718,-0.00000457,-0.00000376,0.00000672,-0.00000128,
 -0.00000828,0.00000492,0.00000102,-0.00000915,0.00000873,-0.00000248,-
 0.00000842,0.00000813,-0.00000171,-0.00000925,0.00000537,-0.00000741,0
 .00000377,0.00000600,-0.00000851,0.00000596,0.00000257,-0.00000528,0.0
 0000483,0.00000656,-0.00000605,0.00000149,0.00000139,-0.00000574,0.000
 00746,-0.00000088,-0.00000193,0.00000296,-0.00000305,0.00000004,0.0000
 0285,-0.00000393,0.00000218,0.00000316,-0.00000241,0.00000235,-0.00000
 055,-0.00000130,0.00000303,-0.00000392,-0.00000474,0.00000725,-0.00000
 434,0.00000058,0.00000239,-0.00000462,0.00000038,0.00000344,-0.0000062
 1,-0.00000389,0.00000852,-0.00000838,-0.00000619,0.00000657,-0.0000022
 8,-0.00000572,0.00000753,-0.00000465,0.00000105,0.00000387,-0.00000793
 ,-0.00000147,0.00000225,-0.00000176,0.00000234,-0.00000025,-0.00000335
 ,-0.00000331,0.00000795,-0.00000861,-0.00000664,0.00001072,-0.00000861
 ,-0.00000273,0.00000868,-0.00001072,0.00000163,0.00000309,-0.00000774,
 0.00000230,0.00000370,-0.00001001,-0.00000208,0.00000846,-0.00001111,-
 0.00000423,0.00000697,-0.00000630,-0.00000087,-0.00000507,0.00000960,-
 0.00000041,0.00000112,-0.00000065\\\@


 LENDING MONEY TO FRIENDS CAUSES THEM TO LOSE THEIR MEMORIES.

    --  PETER'S THEORY OF RECIPROCAL INHIBITION OF FISCAL RECALL
 Job cpu time:       0 days  9 hours 48 minutes 55.6 seconds.
 Elapsed time:       0 days  0 hours 36 minutes 53.7 seconds.
 File lengths (MBytes):  RWF=   2888 Int=      0 D2E=      0 Chk=     52 Scr=      8
 Normal termination of Gaussian 16 at Fri Dec 14 11:07:28 2018.
