 Entering Gaussian System, Link 0=g16
 Initial command:
 /gpfs/apps/hpc/Apps/Restricted/Gaussian/Rev_A.03/g16/l1.exe "/gpfs/scratch60/fas/hammes_schiffer/jg2487/c38n02/Gau-235208.inp" -scrdir="/gpfs/scratch60/fas/hammes_schiffer/jg2487/c38n02/"
 Entering Link 1 = /gpfs/apps/hpc/Apps/Restricted/Gaussian/Rev_A.03/g16/l1.exe PID=    235209.
  
 Copyright (c) 1988,1990,1992,1993,1995,1998,2003,2009,2016,
            Gaussian, Inc.  All Rights Reserved.
  
 This is part of the Gaussian(R) 16 program.  It is based on
 the Gaussian(R) 09 system (copyright 2009, Gaussian, Inc.),
 the Gaussian(R) 03 system (copyright 2003, Gaussian, Inc.),
 the Gaussian(R) 98 system (copyright 1998, Gaussian, Inc.),
 the Gaussian(R) 94 system (copyright 1995, Gaussian, Inc.),
 the Gaussian 92(TM) system (copyright 1992, Gaussian, Inc.),
 the Gaussian 90(TM) system (copyright 1990, Gaussian, Inc.),
 the Gaussian 88(TM) system (copyright 1988, Gaussian, Inc.),
 the Gaussian 86(TM) system (copyright 1986, Carnegie Mellon
 University), and the Gaussian 82(TM) system (copyright 1983,
 Carnegie Mellon University). Gaussian is a federally registered
 trademark of Gaussian, Inc.
  
 This software contains proprietary and confidential information,
 including trade secrets, belonging to Gaussian, Inc.
  
 This software is provided under written license and may be
 used, copied, transmitted, or stored only in accord with that
 written license.
  
 The following legend is applicable only to US Government
 contracts under FAR:
  
                    RESTRICTED RIGHTS LEGEND
  
 Use, reproduction and disclosure by the US Government is
 subject to restrictions as set forth in subparagraphs (a)
 and (c) of the Commercial Computer Software - Restricted
 Rights clause in FAR 52.227-19.
  
 Gaussian, Inc.
 340 Quinnipiac St., Bldg. 40, Wallingford CT 06492
  
  
 ---------------------------------------------------------------
 Warning -- This program may not be used in any manner that
 competes with the business of Gaussian, Inc. or will provide
 assistance to any competitor of Gaussian, Inc.  The licensee
 of this program is prohibited from giving any competitor of
 Gaussian, Inc. access to this program.  By using this program,
 the user acknowledges that Gaussian, Inc. is engaged in the
 business of creating and licensing software in the field of
 computational chemistry and represents and warrants to the
 licensee that it is not a competitor of Gaussian, Inc. and that
 it will not use this program in any manner prohibited above.
 ---------------------------------------------------------------
  

 Cite this work as:
 Gaussian 16, Revision A.03,
 M. J. Frisch, G. W. Trucks, H. B. Schlegel, G. E. Scuseria, 
 M. A. Robb, J. R. Cheeseman, G. Scalmani, V. Barone, 
 G. A. Petersson, H. Nakatsuji, X. Li, M. Caricato, A. V. Marenich, 
 J. Bloino, B. G. Janesko, R. Gomperts, B. Mennucci, H. P. Hratchian, 
 J. V. Ortiz, A. F. Izmaylov, J. L. Sonnenberg, D. Williams-Young, 
 F. Ding, F. Lipparini, F. Egidi, J. Goings, B. Peng, A. Petrone, 
 T. Henderson, D. Ranasinghe, V. G. Zakrzewski, J. Gao, N. Rega, 
 G. Zheng, W. Liang, M. Hada, M. Ehara, K. Toyota, R. Fukuda, 
 J. Hasegawa, M. Ishida, T. Nakajima, Y. Honda, O. Kitao, H. Nakai, 
 T. Vreven, K. Throssell, J. A. Montgomery, Jr., J. E. Peralta, 
 F. Ogliaro, M. J. Bearpark, J. J. Heyd, E. N. Brothers, K. N. Kudin, 
 V. N. Staroverov, T. A. Keith, R. Kobayashi, J. Normand, 
 K. Raghavachari, A. P. Rendell, J. C. Burant, S. S. Iyengar, 
 J. Tomasi, M. Cossi, J. M. Millam, M. Klene, C. Adamo, R. Cammi, 
 J. W. Ochterski, R. L. Martin, K. Morokuma, O. Farkas, 
 J. B. Foresman, and D. J. Fox, Gaussian, Inc., Wallingford CT, 2016.
 
 ******************************************
 Gaussian 16:  ES64L-G16RevA.03 25-Dec-2016
                20-Dec-2018 
 ******************************************
 %chk=cyclohexyl-monoBIP-E2PT.chk
 %mem=10GB
 %nprocshared=16
 Will use up to   16 processors via shared memory.
 ----------------------------------------------------------------------
 #p opt=tight freq=internalmodes b3lyp/6-31g(d,p) scrf=(cpcm,solvent=di
 chloromethane,read) nosymm empiricaldispersion=gd3bj int=grid=ultrafin
 e
 ----------------------------------------------------------------------
 1/7=10,18=20,19=15,26=6,38=1,40=2/1,3;
 2/9=110,12=2,15=1,17=6,18=5,40=1/2;
 3/5=1,6=6,7=101,11=2,25=1,30=1,70=2103,71=1,72=9,74=-5,75=-5,124=41/1,2,3;
 4//1;
 5/5=2,38=5,53=9/2;
 6/7=2,8=2,9=2,10=2,28=1/1;
 7/30=1/1,2,3,16;
 1/7=10,18=20,19=15,26=6/3(2);
 2/9=110,15=1/2;
 99//99;
 2/9=110,15=1/2;
 3/5=1,6=6,7=101,11=2,25=1,30=1,70=2105,71=1,72=9,74=-5,75=-5,124=41/1,2,3;
 4/5=5,16=3,69=1/1;
 5/5=2,38=5,53=9/2;
 7/30=1/1,2,3,16;
 1/7=10,18=20,19=15,26=6/3(-5);
 2/9=110,15=1/2;
 6/7=2,8=2,9=2,10=2,19=2,28=1/1;
 99/9=1/99;
 Leave Link    1 at Thu Dec 20 17:50:11 2018, MaxMem=  1342177280 cpu:               8.8 elap:               0.6
 (Enter /gpfs/apps/hpc/Apps/Restricted/Gaussian/Rev_A.03/g16/l101.exe)
 ----------------------------------------------------------------------
 cyclohexylimine monoBIP oxidized, with both protons transferred optimi
 zation
 ----------------------------------------------------------------------
 Symbolic Z-matrix:
 Charge =  1 Multiplicity = 2
 C                    -0.52249   2.72092   0.33407 
 C                    -1.92037   2.94681   0.27176 
 C                    -2.46318   4.22888   0.21239 
 C                    -1.5704    5.30478   0.22296 
 C                    -0.18611   5.1094    0.28415 
 C                     0.37071   3.81949   0.33404 
 C                    -1.45275   0.78026   0.35285 
 H                    -3.5328    4.38713   0.16009 
 H                    -1.96041   6.31388   0.18208 
 H                     0.47728   5.96643   0.29019 
 N                    -2.47101   1.68795   0.28383 
 C                    -3.03159  -1.19658   0.29644 
 C                    -1.67158  -0.65247   0.39144 
 C                    -0.59527  -1.51004   0.52076 
 C                    -0.76828  -2.90789   0.57347 
 C                    -2.07158  -3.44604   0.47261 
 C                    -3.1862   -2.64923   0.33507 
 H                     0.40258  -1.09378   0.59202 
 H                    -2.19169  -4.52362   0.51264 
 C                     0.42057  -3.80108   0.75021 
 C                    -4.56946  -3.20657   0.23426 
 O                    -4.04375  -0.45717   0.18862 
 N                    -0.25165   1.38069   0.38343 
 C                     1.78916   3.64288   0.36613 
 H                     2.42742   4.51992   0.36827 
 N                     2.35762   2.47525   0.39038 
 C                     3.81496   2.23979   0.40237 
 C                     4.44186   2.62113  -0.94626 
 C                     4.49321   2.9728    1.56535 
 H                     3.92241   1.16341   0.55083 
 C                     5.94769   2.33168  -0.92899 
 H                     4.26968   3.68929  -1.12204 
 H                     3.94744   2.07107  -1.75099 
 C                     5.99683   2.6741    1.57442 
 H                     4.34164   4.05163   1.4472 
 H                     4.02544   2.67642   2.50739 
 C                     6.64425   3.04413   0.23518 
 H                     6.39102   2.6285   -1.88348 
 H                     6.09972   1.24989  -0.83273 
 H                     6.46974   3.21879   2.3961 
 H                     6.15056   1.60592   1.76974 
 H                     7.70846   2.79267   0.24793 
 H                     6.57367   4.12915   0.08952 
 H                    -3.44181   1.38842   0.24228 
 H                     1.72612   1.6651    0.38123 
 C                    -5.2168   -2.82686  -1.1105 
 H                    -5.81721  -3.64076  -1.45974 
 H                    -5.83155  -1.96108  -0.97855 
 H                    -4.45141  -2.6149   -1.82754 
 C                    -5.47247  -2.61753   1.3339 
 H                    -5.96545  -1.74424   0.96077 
 H                    -6.20331  -3.34388   1.62232 
 H                    -4.87605  -2.35521   2.18265 
 C                    -4.55451  -4.74103   0.36401 
 H                    -3.96825  -5.16015  -0.4269 
 H                    -4.12938  -5.01511   1.3069 
 H                    -5.5555   -5.11397   0.30218 
 C                     0.01572  -5.28691   0.75213 
 H                    -0.65182  -5.47364   1.56725 
 H                    -0.47203  -5.52487  -0.17002 
 H                     0.88973  -5.89459   0.86051 
 C                     1.13364  -3.48439   2.07794 
 H                     1.72387  -4.32586   2.37534 
 H                     1.76748  -2.6322    1.94795 
 H                     0.40499  -3.27509   2.83303 
 C                     1.45055  -3.5703   -0.37117 
 H                     0.94275  -3.47869  -1.30853 
 H                     1.99837  -2.67277  -0.17309 
 H                     2.12614  -4.39908  -0.41101 
 
 ITRead=  0  0  0  0  0  0  0  0  0  0  0  0  0  0  0  0  0  0  0  0
 ITRead=  0  0  0  0  0  0  0  0  0  0  0  0  0  0  0  0  0  0  0  0
 ITRead=  0  0  0  0  0  0  0  0  0  0  0  0  0  0  0  0  0  0  0  0
 ITRead=  0  0  0  0  0  0  0  0  0
 MicOpt= -1 -1 -1 -1 -1 -1 -1 -1 -1 -1 -1 -1 -1 -1 -1 -1 -1 -1 -1 -1
 MicOpt= -1 -1 -1 -1 -1 -1 -1 -1 -1 -1 -1 -1 -1 -1 -1 -1 -1 -1 -1 -1
 MicOpt= -1 -1 -1 -1 -1 -1 -1 -1 -1 -1 -1 -1 -1 -1 -1 -1 -1 -1 -1 -1
 MicOpt= -1 -1 -1 -1 -1 -1 -1 -1 -1
 NAtoms=     69 NQM=       69 NQMF=       0 NMMI=      0 NMMIF=      0
                NMic=       0 NMicF=      0.
                    Isotopes and Nuclear Properties:
 (Nuclear quadrupole moments (NQMom) in fm**2, nuclear magnetic moments (NMagM)
  in nuclear magnetons)

  Atom         1           2           3           4           5           6           7           8           9          10
 IAtWgt=          12          12          12          12          12          12          12           1           1           1
 AtmWgt=  12.0000000  12.0000000  12.0000000  12.0000000  12.0000000  12.0000000  12.0000000   1.0078250   1.0078250   1.0078250
 NucSpn=           0           0           0           0           0           0           0           1           1           1
 AtZEff=  -0.0000000  -0.0000000  -0.0000000  -0.0000000  -0.0000000  -0.0000000  -0.0000000  -0.0000000  -0.0000000  -0.0000000
 NQMom=    0.0000000   0.0000000   0.0000000   0.0000000   0.0000000   0.0000000   0.0000000   0.0000000   0.0000000   0.0000000
 NMagM=    0.0000000   0.0000000   0.0000000   0.0000000   0.0000000   0.0000000   0.0000000   2.7928460   2.7928460   2.7928460
 AtZNuc=   6.0000000   6.0000000   6.0000000   6.0000000   6.0000000   6.0000000   6.0000000   1.0000000   1.0000000   1.0000000

  Atom        11          12          13          14          15          16          17          18          19          20
 IAtWgt=          14          12          12          12          12          12          12           1           1          12
 AtmWgt=  14.0030740  12.0000000  12.0000000  12.0000000  12.0000000  12.0000000  12.0000000   1.0078250   1.0078250  12.0000000
 NucSpn=           2           0           0           0           0           0           0           1           1           0
 AtZEff=  -0.0000000  -0.0000000  -0.0000000  -0.0000000  -0.0000000  -0.0000000  -0.0000000  -0.0000000  -0.0000000  -0.0000000
 NQMom=    2.0440000   0.0000000   0.0000000   0.0000000   0.0000000   0.0000000   0.0000000   0.0000000   0.0000000   0.0000000
 NMagM=    0.4037610   0.0000000   0.0000000   0.0000000   0.0000000   0.0000000   0.0000000   2.7928460   2.7928460   0.0000000
 AtZNuc=   7.0000000   6.0000000   6.0000000   6.0000000   6.0000000   6.0000000   6.0000000   1.0000000   1.0000000   6.0000000

  Atom        21          22          23          24          25          26          27          28          29          30
 IAtWgt=          12          16          14          12           1          14          12          12          12           1
 AtmWgt=  12.0000000  15.9949146  14.0030740  12.0000000   1.0078250  14.0030740  12.0000000  12.0000000  12.0000000   1.0078250
 NucSpn=           0           0           2           0           1           2           0           0           0           1
 AtZEff=  -0.0000000  -0.0000000  -0.0000000  -0.0000000  -0.0000000  -0.0000000  -0.0000000  -0.0000000  -0.0000000  -0.0000000
 NQMom=    0.0000000   0.0000000   2.0440000   0.0000000   0.0000000   2.0440000   0.0000000   0.0000000   0.0000000   0.0000000
 NMagM=    0.0000000   0.0000000   0.4037610   0.0000000   2.7928460   0.4037610   0.0000000   0.0000000   0.0000000   2.7928460
 AtZNuc=   6.0000000   8.0000000   7.0000000   6.0000000   1.0000000   7.0000000   6.0000000   6.0000000   6.0000000   1.0000000

  Atom        31          32          33          34          35          36          37          38          39          40
 IAtWgt=          12           1           1          12           1           1          12           1           1           1
 AtmWgt=  12.0000000   1.0078250   1.0078250  12.0000000   1.0078250   1.0078250  12.0000000   1.0078250   1.0078250   1.0078250
 NucSpn=           0           1           1           0           1           1           0           1           1           1
 AtZEff=  -0.0000000  -0.0000000  -0.0000000  -0.0000000  -0.0000000  -0.0000000  -0.0000000  -0.0000000  -0.0000000  -0.0000000
 NQMom=    0.0000000   0.0000000   0.0000000   0.0000000   0.0000000   0.0000000   0.0000000   0.0000000   0.0000000   0.0000000
 NMagM=    0.0000000   2.7928460   2.7928460   0.0000000   2.7928460   2.7928460   0.0000000   2.7928460   2.7928460   2.7928460
 AtZNuc=   6.0000000   1.0000000   1.0000000   6.0000000   1.0000000   1.0000000   6.0000000   1.0000000   1.0000000   1.0000000

  Atom        41          42          43          44          45          46          47          48          49          50
 IAtWgt=           1           1           1           1           1          12           1           1           1          12
 AtmWgt=   1.0078250   1.0078250   1.0078250   1.0078250   1.0078250  12.0000000   1.0078250   1.0078250   1.0078250  12.0000000
 NucSpn=           1           1           1           1           1           0           1           1           1           0
 AtZEff=  -0.0000000  -0.0000000  -0.0000000  -0.0000000  -0.0000000  -0.0000000  -0.0000000  -0.0000000  -0.0000000  -0.0000000
 NQMom=    0.0000000   0.0000000   0.0000000   0.0000000   0.0000000   0.0000000   0.0000000   0.0000000   0.0000000   0.0000000
 NMagM=    2.7928460   2.7928460   2.7928460   2.7928460   2.7928460   0.0000000   2.7928460   2.7928460   2.7928460   0.0000000
 AtZNuc=   1.0000000   1.0000000   1.0000000   1.0000000   1.0000000   6.0000000   1.0000000   1.0000000   1.0000000   6.0000000

  Atom        51          52          53          54          55          56          57          58          59          60
 IAtWgt=           1           1           1          12           1           1           1          12           1           1
 AtmWgt=   1.0078250   1.0078250   1.0078250  12.0000000   1.0078250   1.0078250   1.0078250  12.0000000   1.0078250   1.0078250
 NucSpn=           1           1           1           0           1           1           1           0           1           1
 AtZEff=  -0.0000000  -0.0000000  -0.0000000  -0.0000000  -0.0000000  -0.0000000  -0.0000000  -0.0000000  -0.0000000  -0.0000000
 NQMom=    0.0000000   0.0000000   0.0000000   0.0000000   0.0000000   0.0000000   0.0000000   0.0000000   0.0000000   0.0000000
 NMagM=    2.7928460   2.7928460   2.7928460   0.0000000   2.7928460   2.7928460   2.7928460   0.0000000   2.7928460   2.7928460
 AtZNuc=   1.0000000   1.0000000   1.0000000   6.0000000   1.0000000   1.0000000   1.0000000   6.0000000   1.0000000   1.0000000

  Atom        61          62          63          64          65          66          67          68          69
 IAtWgt=           1          12           1           1           1          12           1           1           1
 AtmWgt=   1.0078250  12.0000000   1.0078250   1.0078250   1.0078250  12.0000000   1.0078250   1.0078250   1.0078250
 NucSpn=           1           0           1           1           1           0           1           1           1
 AtZEff=  -0.0000000  -0.0000000  -0.0000000  -0.0000000  -0.0000000  -0.0000000  -0.0000000  -0.0000000  -0.0000000
 NQMom=    0.0000000   0.0000000   0.0000000   0.0000000   0.0000000   0.0000000   0.0000000   0.0000000   0.0000000
 NMagM=    2.7928460   0.0000000   2.7928460   2.7928460   2.7928460   0.0000000   2.7928460   2.7928460   2.7928460
 AtZNuc=   1.0000000   6.0000000   1.0000000   1.0000000   1.0000000   6.0000000   1.0000000   1.0000000   1.0000000
 Leave Link  101 at Thu Dec 20 17:50:12 2018, MaxMem=  1342177280 cpu:               4.0 elap:               0.3
 (Enter /gpfs/apps/hpc/Apps/Restricted/Gaussian/Rev_A.03/g16/l103.exe)

 GradGradGradGradGradGradGradGradGradGradGradGradGradGradGradGradGradGrad
 Berny optimization.
 Initialization pass.
                           ----------------------------
                           !    Initial Parameters    !
                           ! (Angstroms and Degrees)  !
 --------------------------                            --------------------------
 ! Name  Definition              Value          Derivative Info.                !
 --------------------------------------------------------------------------------
 ! R1    R(1,2)                  1.4174         estimate D2E/DX2                !
 ! R2    R(1,6)                  1.4159         estimate D2E/DX2                !
 ! R3    R(1,23)                 1.3682         estimate D2E/DX2                !
 ! R4    R(2,3)                  1.3935         estimate D2E/DX2                !
 ! R5    R(2,11)                 1.3741         estimate D2E/DX2                !
 ! R6    R(3,4)                  1.3981         estimate D2E/DX2                !
 ! R7    R(3,8)                  1.0825         estimate D2E/DX2                !
 ! R8    R(4,5)                  1.3993         estimate D2E/DX2                !
 ! R9    R(4,9)                  1.0826         estimate D2E/DX2                !
 ! R10   R(5,6)                  1.4058         estimate D2E/DX2                !
 ! R11   R(5,10)                 1.0838         estimate D2E/DX2                !
 ! R12   R(6,24)                 1.4298         estimate D2E/DX2                !
 ! R13   R(7,11)                 1.3658         estimate D2E/DX2                !
 ! R14   R(7,13)                 1.4499         estimate D2E/DX2                !
 ! R15   R(7,23)                 1.3432         estimate D2E/DX2                !
 ! R16   R(11,44)                1.0168         estimate D2E/DX2                !
 ! R17   R(12,13)                1.4679         estimate D2E/DX2                !
 ! R18   R(12,17)                1.4614         estimate D2E/DX2                !
 ! R19   R(12,22)                1.2581         estimate D2E/DX2                !
 ! R20   R(13,14)                1.3822         estimate D2E/DX2                !
 ! R21   R(14,15)                1.4095         estimate D2E/DX2                !
 ! R22   R(14,18)                1.0835         estimate D2E/DX2                !
 ! R23   R(15,16)                1.4136         estimate D2E/DX2                !
 ! R24   R(15,20)                1.4975         estimate D2E/DX2                !
 ! R25   R(16,17)                1.377          estimate D2E/DX2                !
 ! R26   R(16,19)                1.085          estimate D2E/DX2                !
 ! R27   R(17,21)                1.4947         estimate D2E/DX2                !
 ! R28   R(20,58)                1.54           estimate D2E/DX2                !
 ! R29   R(20,62)                1.54           estimate D2E/DX2                !
 ! R30   R(20,66)                1.54           estimate D2E/DX2                !
 ! R31   R(21,46)                1.54           estimate D2E/DX2                !
 ! R32   R(21,50)                1.54           estimate D2E/DX2                !
 ! R33   R(21,54)                1.54           estimate D2E/DX2                !
 ! R34   R(24,25)                1.0847         estimate D2E/DX2                !
 ! R35   R(24,26)                1.2989         estimate D2E/DX2                !
 ! R36   R(26,27)                1.4763         estimate D2E/DX2                !
 ! R37   R(26,45)                1.0272         estimate D2E/DX2                !
 ! R38   R(27,28)                1.5353         estimate D2E/DX2                !
 ! R39   R(27,29)                1.5329         estimate D2E/DX2                !
 ! R40   R(27,30)                1.0919         estimate D2E/DX2                !
 ! R41   R(28,31)                1.5335         estimate D2E/DX2                !
 ! R42   R(28,32)                1.0961         estimate D2E/DX2                !
 ! R43   R(28,33)                1.093          estimate D2E/DX2                !
 ! R44   R(29,34)                1.533          estimate D2E/DX2                !
 ! R45   R(29,35)                1.0958         estimate D2E/DX2                !
 ! R46   R(29,36)                1.0927         estimate D2E/DX2                !
 ! R47   R(31,37)                1.5323         estimate D2E/DX2                !
 ! R48   R(31,38)                1.0935         estimate D2E/DX2                !
 ! R49   R(31,39)                1.0967         estimate D2E/DX2                !
 ! R50   R(34,37)                1.5329         estimate D2E/DX2                !
 ! R51   R(34,40)                1.0934         estimate D2E/DX2                !
 ! R52   R(34,41)                1.0967         estimate D2E/DX2                !
 ! R53   R(37,42)                1.0936         estimate D2E/DX2                !
 ! R54   R(37,43)                1.097          estimate D2E/DX2                !
 ! R55   R(46,47)                1.07           estimate D2E/DX2                !
 ! R56   R(46,48)                1.07           estimate D2E/DX2                !
 ! R57   R(46,49)                1.07           estimate D2E/DX2                !
 ! R58   R(50,51)                1.07           estimate D2E/DX2                !
 ! R59   R(50,52)                1.07           estimate D2E/DX2                !
 ! R60   R(50,53)                1.07           estimate D2E/DX2                !
 ! R61   R(54,55)                1.07           estimate D2E/DX2                !
 ! R62   R(54,56)                1.07           estimate D2E/DX2                !
 ! R63   R(54,57)                1.07           estimate D2E/DX2                !
 ! R64   R(58,59)                1.07           estimate D2E/DX2                !
 ! R65   R(58,60)                1.07           estimate D2E/DX2                !
 ! R66   R(58,61)                1.07           estimate D2E/DX2                !
 ! R67   R(62,63)                1.07           estimate D2E/DX2                !
 ! R68   R(62,64)                1.07           estimate D2E/DX2                !
 ! R69   R(62,65)                1.07           estimate D2E/DX2                !
 ! R70   R(66,67)                1.07           estimate D2E/DX2                !
 ! R71   R(66,68)                1.07           estimate D2E/DX2                !
 ! R72   R(66,69)                1.07           estimate D2E/DX2                !
 ! A1    A(2,1,6)              119.902          estimate D2E/DX2                !
 ! A2    A(2,1,23)             110.6666         estimate D2E/DX2                !
 ! A3    A(6,1,23)             129.4312         estimate D2E/DX2                !
 ! A4    A(1,2,3)              122.1856         estimate D2E/DX2                !
 ! A5    A(1,2,11)             104.4079         estimate D2E/DX2                !
 ! A6    A(3,2,11)             133.4063         estimate D2E/DX2                !
 ! A7    A(2,3,4)              117.3186         estimate D2E/DX2                !
 ! A8    A(2,3,8)              121.4289         estimate D2E/DX2                !
 ! A9    A(4,3,8)              121.2525         estimate D2E/DX2                !
 ! A10   A(3,4,5)              121.6397         estimate D2E/DX2                !
 ! A11   A(3,4,9)              119.1403         estimate D2E/DX2                !
 ! A12   A(5,4,9)              119.22           estimate D2E/DX2                !
 ! A13   A(4,5,6)              121.431          estimate D2E/DX2                !
 ! A14   A(4,5,10)             119.6923         estimate D2E/DX2                !
 ! A15   A(6,5,10)             118.8764         estimate D2E/DX2                !
 ! A16   A(1,6,5)              117.5194         estimate D2E/DX2                !
 ! A17   A(1,6,24)             122.0066         estimate D2E/DX2                !
 ! A18   A(5,6,24)             120.4694         estimate D2E/DX2                !
 ! A19   A(11,7,13)            123.0616         estimate D2E/DX2                !
 ! A20   A(11,7,23)            111.7607         estimate D2E/DX2                !
 ! A21   A(13,7,23)            125.1775         estimate D2E/DX2                !
 ! A22   A(2,11,7)             108.0917         estimate D2E/DX2                !
 ! A23   A(2,11,44)            130.7019         estimate D2E/DX2                !
 ! A24   A(7,11,44)            121.2034         estimate D2E/DX2                !
 ! A25   A(13,12,17)           117.6958         estimate D2E/DX2                !
 ! A26   A(13,12,22)           122.2136         estimate D2E/DX2                !
 ! A27   A(17,12,22)           120.0903         estimate D2E/DX2                !
 ! A28   A(7,13,12)            120.2924         estimate D2E/DX2                !
 ! A29   A(7,13,14)            119.8713         estimate D2E/DX2                !
 ! A30   A(12,13,14)           119.8362         estimate D2E/DX2                !
 ! A31   A(13,14,15)           121.5478         estimate D2E/DX2                !
 ! A32   A(13,14,18)           119.0059         estimate D2E/DX2                !
 ! A33   A(15,14,18)           119.4439         estimate D2E/DX2                !
 ! A34   A(14,15,16)           119.2117         estimate D2E/DX2                !
 ! A35   A(14,15,20)           119.9008         estimate D2E/DX2                !
 ! A36   A(16,15,20)           120.8838         estimate D2E/DX2                !
 ! A37   A(15,16,17)           122.2155         estimate D2E/DX2                !
 ! A38   A(15,16,19)           118.5232         estimate D2E/DX2                !
 ! A39   A(17,16,19)           119.2599         estimate D2E/DX2                !
 ! A40   A(12,17,16)           119.4851         estimate D2E/DX2                !
 ! A41   A(12,17,21)           117.8252         estimate D2E/DX2                !
 ! A42   A(16,17,21)           122.6874         estimate D2E/DX2                !
 ! A43   A(15,20,58)           111.526          estimate D2E/DX2                !
 ! A44   A(15,20,62)           110.2861         estimate D2E/DX2                !
 ! A45   A(15,20,66)           110.8331         estimate D2E/DX2                !
 ! A46   A(58,20,62)           108.606          estimate D2E/DX2                !
 ! A47   A(58,20,66)           108.7427         estimate D2E/DX2                !
 ! A48   A(62,20,66)           106.6963         estimate D2E/DX2                !
 ! A49   A(17,21,46)           110.852          estimate D2E/DX2                !
 ! A50   A(17,21,50)           110.6012         estimate D2E/DX2                !
 ! A51   A(17,21,54)           110.9075         estimate D2E/DX2                !
 ! A52   A(46,21,50)           106.4234         estimate D2E/DX2                !
 ! A53   A(46,21,54)           108.8647         estimate D2E/DX2                !
 ! A54   A(50,21,54)           109.0656         estimate D2E/DX2                !
 ! A55   A(1,23,7)             105.0729         estimate D2E/DX2                !
 ! A56   A(6,24,25)            118.9425         estimate D2E/DX2                !
 ! A57   A(6,24,26)            123.0694         estimate D2E/DX2                !
 ! A58   A(25,24,26)           117.988          estimate D2E/DX2                !
 ! A59   A(24,26,27)           125.1394         estimate D2E/DX2                !
 ! A60   A(24,26,45)           116.0886         estimate D2E/DX2                !
 ! A61   A(27,26,45)           118.76           estimate D2E/DX2                !
 ! A62   A(26,27,28)           110.8744         estimate D2E/DX2                !
 ! A63   A(26,27,29)           111.5105         estimate D2E/DX2                !
 ! A64   A(26,27,30)           104.8023         estimate D2E/DX2                !
 ! A65   A(28,27,29)           111.5298         estimate D2E/DX2                !
 ! A66   A(28,27,30)           108.9113         estimate D2E/DX2                !
 ! A67   A(29,27,30)           108.9476         estimate D2E/DX2                !
 ! A68   A(27,28,31)           110.1312         estimate D2E/DX2                !
 ! A69   A(27,28,32)           108.5881         estimate D2E/DX2                !
 ! A70   A(27,28,33)           109.6966         estimate D2E/DX2                !
 ! A71   A(31,28,32)           109.876          estimate D2E/DX2                !
 ! A72   A(31,28,33)           110.9468         estimate D2E/DX2                !
 ! A73   A(32,28,33)           107.5355         estimate D2E/DX2                !
 ! A74   A(27,29,34)           110.1995         estimate D2E/DX2                !
 ! A75   A(27,29,35)           109.1338         estimate D2E/DX2                !
 ! A76   A(27,29,36)           109.5694         estimate D2E/DX2                !
 ! A77   A(34,29,35)           109.1545         estimate D2E/DX2                !
 ! A78   A(34,29,36)           111.2174         estimate D2E/DX2                !
 ! A79   A(35,29,36)           107.5032         estimate D2E/DX2                !
 ! A80   A(28,31,37)           111.5414         estimate D2E/DX2                !
 ! A81   A(28,31,38)           109.6973         estimate D2E/DX2                !
 ! A82   A(28,31,39)           108.8635         estimate D2E/DX2                !
 ! A83   A(37,31,38)           110.6498         estimate D2E/DX2                !
 ! A84   A(37,31,39)           109.2041         estimate D2E/DX2                !
 ! A85   A(38,31,39)           106.7491         estimate D2E/DX2                !
 ! A86   A(29,34,37)           111.2264         estimate D2E/DX2                !
 ! A87   A(29,34,40)           109.3661         estimate D2E/DX2                !
 ! A88   A(29,34,41)           109.1659         estimate D2E/DX2                !
 ! A89   A(37,34,40)           110.7104         estimate D2E/DX2                !
 ! A90   A(37,34,41)           109.3609         estimate D2E/DX2                !
 ! A91   A(40,34,41)           106.9024         estimate D2E/DX2                !
 ! A92   A(31,37,34)           111.072          estimate D2E/DX2                !
 ! A93   A(31,37,42)           110.1398         estimate D2E/DX2                !
 ! A94   A(31,37,43)           109.2524         estimate D2E/DX2                !
 ! A95   A(34,37,42)           110.2018         estimate D2E/DX2                !
 ! A96   A(34,37,43)           109.1225         estimate D2E/DX2                !
 ! A97   A(42,37,43)           106.9522         estimate D2E/DX2                !
 ! A98   A(21,46,47)           109.4712         estimate D2E/DX2                !
 ! A99   A(21,46,48)           109.4712         estimate D2E/DX2                !
 ! A100  A(21,46,49)           109.4712         estimate D2E/DX2                !
 ! A101  A(47,46,48)           109.4713         estimate D2E/DX2                !
 ! A102  A(47,46,49)           109.4712         estimate D2E/DX2                !
 ! A103  A(48,46,49)           109.4712         estimate D2E/DX2                !
 ! A104  A(21,50,51)           109.4712         estimate D2E/DX2                !
 ! A105  A(21,50,52)           109.4712         estimate D2E/DX2                !
 ! A106  A(21,50,53)           109.4712         estimate D2E/DX2                !
 ! A107  A(51,50,52)           109.4713         estimate D2E/DX2                !
 ! A108  A(51,50,53)           109.4712         estimate D2E/DX2                !
 ! A109  A(52,50,53)           109.4712         estimate D2E/DX2                !
 ! A110  A(21,54,55)           109.4712         estimate D2E/DX2                !
 ! A111  A(21,54,56)           109.4712         estimate D2E/DX2                !
 ! A112  A(21,54,57)           109.4712         estimate D2E/DX2                !
 ! A113  A(55,54,56)           109.4713         estimate D2E/DX2                !
 ! A114  A(55,54,57)           109.4712         estimate D2E/DX2                !
 ! A115  A(56,54,57)           109.4712         estimate D2E/DX2                !
 ! A116  A(20,58,59)           109.4712         estimate D2E/DX2                !
 ! A117  A(20,58,60)           109.4712         estimate D2E/DX2                !
 ! A118  A(20,58,61)           109.4712         estimate D2E/DX2                !
 ! A119  A(59,58,60)           109.4713         estimate D2E/DX2                !
 ! A120  A(59,58,61)           109.4712         estimate D2E/DX2                !
 ! A121  A(60,58,61)           109.4712         estimate D2E/DX2                !
 ! A122  A(20,62,63)           109.4712         estimate D2E/DX2                !
 ! A123  A(20,62,64)           109.4712         estimate D2E/DX2                !
 ! A124  A(20,62,65)           109.4712         estimate D2E/DX2                !
 ! A125  A(63,62,64)           109.4713         estimate D2E/DX2                !
 ! A126  A(63,62,65)           109.4712         estimate D2E/DX2                !
 ! A127  A(64,62,65)           109.4712         estimate D2E/DX2                !
 ! A128  A(20,66,67)           109.4712         estimate D2E/DX2                !
 ! A129  A(20,66,68)           109.4712         estimate D2E/DX2                !
 ! A130  A(20,66,69)           109.4712         estimate D2E/DX2                !
 ! A131  A(67,66,68)           109.4713         estimate D2E/DX2                !
 ! A132  A(67,66,69)           109.4712         estimate D2E/DX2                !
 ! A133  A(68,66,69)           109.4712         estimate D2E/DX2                !
 ! D1    D(6,1,2,3)             -0.1505         estimate D2E/DX2                !
 ! D2    D(6,1,2,11)           179.7165         estimate D2E/DX2                !
 ! D3    D(23,1,2,3)          -179.9601         estimate D2E/DX2                !
 ! D4    D(23,1,2,11)           -0.0932         estimate D2E/DX2                !
 ! D5    D(2,1,6,5)              0.6147         estimate D2E/DX2                !
 ! D6    D(2,1,6,24)          -178.6103         estimate D2E/DX2                !
 ! D7    D(23,1,6,5)          -179.6159         estimate D2E/DX2                !
 ! D8    D(23,1,6,24)            1.1591         estimate D2E/DX2                !
 ! D9    D(2,1,23,7)            -0.004          estimate D2E/DX2                !
 ! D10   D(6,1,23,7)          -179.7904         estimate D2E/DX2                !
 ! D11   D(1,2,3,4)             -0.3095         estimate D2E/DX2                !
 ! D12   D(1,2,3,8)            179.6865         estimate D2E/DX2                !
 ! D13   D(11,2,3,4)           179.8679         estimate D2E/DX2                !
 ! D14   D(11,2,3,8)            -0.1361         estimate D2E/DX2                !
 ! D15   D(1,2,11,7)             0.1522         estimate D2E/DX2                !
 ! D16   D(1,2,11,44)         -179.2072         estimate D2E/DX2                !
 ! D17   D(3,2,11,7)           179.9972         estimate D2E/DX2                !
 ! D18   D(3,2,11,44)            0.6378         estimate D2E/DX2                !
 ! D19   D(2,3,4,5)              0.2956         estimate D2E/DX2                !
 ! D20   D(2,3,4,9)           -179.7472         estimate D2E/DX2                !
 ! D21   D(8,3,4,5)           -179.7005         estimate D2E/DX2                !
 ! D22   D(8,3,4,9)              0.2567         estimate D2E/DX2                !
 ! D23   D(3,4,5,6)              0.1839         estimate D2E/DX2                !
 ! D24   D(3,4,5,10)           179.9734         estimate D2E/DX2                !
 ! D25   D(9,4,5,6)           -179.7733         estimate D2E/DX2                !
 ! D26   D(9,4,5,10)             0.0162         estimate D2E/DX2                !
 ! D27   D(4,5,6,1)             -0.6366         estimate D2E/DX2                !
 ! D28   D(4,5,6,24)           178.6009         estimate D2E/DX2                !
 ! D29   D(10,5,6,1)           179.5722         estimate D2E/DX2                !
 ! D30   D(10,5,6,24)           -1.1903         estimate D2E/DX2                !
 ! D31   D(1,6,24,25)         -179.7764         estimate D2E/DX2                !
 ! D32   D(1,6,24,26)            0.366          estimate D2E/DX2                !
 ! D33   D(5,6,24,25)            1.021          estimate D2E/DX2                !
 ! D34   D(5,6,24,26)         -178.8366         estimate D2E/DX2                !
 ! D35   D(13,7,11,2)          179.6479         estimate D2E/DX2                !
 ! D36   D(13,7,11,44)          -0.9199         estimate D2E/DX2                !
 ! D37   D(23,7,11,2)           -0.1678         estimate D2E/DX2                !
 ! D38   D(23,7,11,44)         179.2645         estimate D2E/DX2                !
 ! D39   D(11,7,13,12)           2.7304         estimate D2E/DX2                !
 ! D40   D(11,7,13,14)        -177.1479         estimate D2E/DX2                !
 ! D41   D(23,7,13,12)        -177.479          estimate D2E/DX2                !
 ! D42   D(23,7,13,14)           2.6427         estimate D2E/DX2                !
 ! D43   D(11,7,23,1)            0.1044         estimate D2E/DX2                !
 ! D44   D(13,7,23,1)         -179.7066         estimate D2E/DX2                !
 ! D45   D(17,12,13,7)         179.7233         estimate D2E/DX2                !
 ! D46   D(17,12,13,14)         -0.3983         estimate D2E/DX2                !
 ! D47   D(22,12,13,7)          -0.4664         estimate D2E/DX2                !
 ! D48   D(22,12,13,14)        179.4119         estimate D2E/DX2                !
 ! D49   D(13,12,17,16)          0.7391         estimate D2E/DX2                !
 ! D50   D(13,12,17,21)       -179.8131         estimate D2E/DX2                !
 ! D51   D(22,12,17,16)       -179.0753         estimate D2E/DX2                !
 ! D52   D(22,12,17,21)          0.3725         estimate D2E/DX2                !
 ! D53   D(7,13,14,15)         179.4545         estimate D2E/DX2                !
 ! D54   D(7,13,14,18)           0.0158         estimate D2E/DX2                !
 ! D55   D(12,13,14,15)         -0.4244         estimate D2E/DX2                !
 ! D56   D(12,13,14,18)       -179.8631         estimate D2E/DX2                !
 ! D57   D(13,14,15,16)          0.9108         estimate D2E/DX2                !
 ! D58   D(13,14,15,20)       -178.3966         estimate D2E/DX2                !
 ! D59   D(18,14,15,16)       -179.6529         estimate D2E/DX2                !
 ! D60   D(18,14,15,20)          1.0396         estimate D2E/DX2                !
 ! D61   D(14,15,16,17)         -0.5546         estimate D2E/DX2                !
 ! D62   D(14,15,16,19)        179.8866         estimate D2E/DX2                !
 ! D63   D(20,15,16,17)        178.7458         estimate D2E/DX2                !
 ! D64   D(20,15,16,19)         -0.813          estimate D2E/DX2                !
 ! D65   D(14,15,20,58)       -178.8178         estimate D2E/DX2                !
 ! D66   D(14,15,20,62)         60.4212         estimate D2E/DX2                !
 ! D67   D(14,15,20,66)        -57.508          estimate D2E/DX2                !
 ! D68   D(16,15,20,58)          1.8865         estimate D2E/DX2                !
 ! D69   D(16,15,20,62)       -118.8745         estimate D2E/DX2                !
 ! D70   D(16,15,20,66)        123.1964         estimate D2E/DX2                !
 ! D71   D(15,16,17,12)         -0.2723         estimate D2E/DX2                !
 ! D72   D(15,16,17,21)       -179.692          estimate D2E/DX2                !
 ! D73   D(19,16,17,12)        179.2834         estimate D2E/DX2                !
 ! D74   D(19,16,17,21)         -0.1364         estimate D2E/DX2                !
 ! D75   D(12,17,21,46)         61.8536         estimate D2E/DX2                !
 ! D76   D(12,17,21,50)        -55.9473         estimate D2E/DX2                !
 ! D77   D(12,17,21,54)       -177.0892         estimate D2E/DX2                !
 ! D78   D(16,17,21,46)       -118.7175         estimate D2E/DX2                !
 ! D79   D(16,17,21,50)        123.4816         estimate D2E/DX2                !
 ! D80   D(16,17,21,54)          2.3396         estimate D2E/DX2                !
 ! D81   D(15,20,58,59)        -61.1194         estimate D2E/DX2                !
 ! D82   D(15,20,58,60)         58.8806         estimate D2E/DX2                !
 ! D83   D(15,20,58,61)        178.8806         estimate D2E/DX2                !
 ! D84   D(62,20,58,59)         60.6192         estimate D2E/DX2                !
 ! D85   D(62,20,58,60)       -179.3808         estimate D2E/DX2                !
 ! D86   D(62,20,58,61)        -59.3808         estimate D2E/DX2                !
 ! D87   D(66,20,58,59)        176.363          estimate D2E/DX2                !
 ! D88   D(66,20,58,60)        -63.637          estimate D2E/DX2                !
 ! D89   D(66,20,58,61)         56.363          estimate D2E/DX2                !
 ! D90   D(15,20,62,63)        158.7589         estimate D2E/DX2                !
 ! D91   D(15,20,62,64)        -81.2411         estimate D2E/DX2                !
 ! D92   D(15,20,62,65)         38.7589         estimate D2E/DX2                !
 ! D93   D(58,20,62,63)         36.2657         estimate D2E/DX2                !
 ! D94   D(58,20,62,64)        156.2658         estimate D2E/DX2                !
 ! D95   D(58,20,62,65)        -83.7342         estimate D2E/DX2                !
 ! D96   D(66,20,62,63)        -80.7952         estimate D2E/DX2                !
 ! D97   D(66,20,62,64)         39.2048         estimate D2E/DX2                !
 ! D98   D(66,20,62,65)        159.2048         estimate D2E/DX2                !
 ! D99   D(15,20,66,67)        -42.4886         estimate D2E/DX2                !
 ! D100  D(15,20,66,68)         77.5114         estimate D2E/DX2                !
 ! D101  D(15,20,66,69)       -162.4886         estimate D2E/DX2                !
 ! D102  D(58,20,66,67)         80.4468         estimate D2E/DX2                !
 ! D103  D(58,20,66,68)       -159.5532         estimate D2E/DX2                !
 ! D104  D(58,20,66,69)        -39.5532         estimate D2E/DX2                !
 ! D105  D(62,20,66,67)       -162.5829         estimate D2E/DX2                !
 ! D106  D(62,20,66,68)        -42.5829         estimate D2E/DX2                !
 ! D107  D(62,20,66,69)         77.4171         estimate D2E/DX2                !
 ! D108  D(17,21,46,47)        143.2851         estimate D2E/DX2                !
 ! D109  D(17,21,46,48)        -96.7149         estimate D2E/DX2                !
 ! D110  D(17,21,46,49)         23.2851         estimate D2E/DX2                !
 ! D111  D(50,21,46,47)        -96.3959         estimate D2E/DX2                !
 ! D112  D(50,21,46,48)         23.6041         estimate D2E/DX2                !
 ! D113  D(50,21,46,49)        143.6041         estimate D2E/DX2                !
 ! D114  D(54,21,46,47)         21.0293         estimate D2E/DX2                !
 ! D115  D(54,21,46,48)        141.0294         estimate D2E/DX2                !
 ! D116  D(54,21,46,49)        -98.9706         estimate D2E/DX2                !
 ! D117  D(17,21,50,51)         91.8367         estimate D2E/DX2                !
 ! D118  D(17,21,50,52)       -148.1632         estimate D2E/DX2                !
 ! D119  D(17,21,50,53)        -28.1632         estimate D2E/DX2                !
 ! D120  D(46,21,50,51)        -28.644          estimate D2E/DX2                !
 ! D121  D(46,21,50,52)         91.356          estimate D2E/DX2                !
 ! D122  D(46,21,50,53)       -148.644          estimate D2E/DX2                !
 ! D123  D(54,21,50,51)       -145.9359         estimate D2E/DX2                !
 ! D124  D(54,21,50,52)        -25.9359         estimate D2E/DX2                !
 ! D125  D(54,21,50,53)         94.0641         estimate D2E/DX2                !
 ! D126  D(17,21,54,55)        -60.7687         estimate D2E/DX2                !
 ! D127  D(17,21,54,56)         59.2313         estimate D2E/DX2                !
 ! D128  D(17,21,54,57)        179.2313         estimate D2E/DX2                !
 ! D129  D(46,21,54,55)         61.4534         estimate D2E/DX2                !
 ! D130  D(46,21,54,56)       -178.5466         estimate D2E/DX2                !
 ! D131  D(46,21,54,57)        -58.5466         estimate D2E/DX2                !
 ! D132  D(50,21,54,55)        177.1887         estimate D2E/DX2                !
 ! D133  D(50,21,54,56)        -62.8113         estimate D2E/DX2                !
 ! D134  D(50,21,54,57)         57.1887         estimate D2E/DX2                !
 ! D135  D(6,24,26,27)         178.9781         estimate D2E/DX2                !
 ! D136  D(6,24,26,45)           0.2544         estimate D2E/DX2                !
 ! D137  D(25,24,26,27)         -0.8808         estimate D2E/DX2                !
 ! D138  D(25,24,26,45)       -179.6045         estimate D2E/DX2                !
 ! D139  D(24,26,27,28)        -69.6216         estimate D2E/DX2                !
 ! D140  D(24,26,27,29)         55.3008         estimate D2E/DX2                !
 ! D141  D(24,26,27,30)        173.0202         estimate D2E/DX2                !
 ! D142  D(45,26,27,28)        109.0709         estimate D2E/DX2                !
 ! D143  D(45,26,27,29)       -126.0067         estimate D2E/DX2                !
 ! D144  D(45,26,27,30)         -8.2873         estimate D2E/DX2                !
 ! D145  D(26,27,28,31)       -178.3534         estimate D2E/DX2                !
 ! D146  D(26,27,28,32)         61.2943         estimate D2E/DX2                !
 ! D147  D(26,27,28,33)        -55.9655         estimate D2E/DX2                !
 ! D148  D(29,27,28,31)         56.7349         estimate D2E/DX2                !
 ! D149  D(29,27,28,32)        -63.6173         estimate D2E/DX2                !
 ! D150  D(29,27,28,33)        179.1229         estimate D2E/DX2                !
 ! D151  D(30,27,28,31)        -63.5389         estimate D2E/DX2                !
 ! D152  D(30,27,28,32)        176.1089         estimate D2E/DX2                !
 ! D153  D(30,27,28,33)         58.8491         estimate D2E/DX2                !
 ! D154  D(26,27,29,34)        178.2976         estimate D2E/DX2                !
 ! D155  D(26,27,29,35)        -61.8538         estimate D2E/DX2                !
 ! D156  D(26,27,29,36)         55.6103         estimate D2E/DX2                !
 ! D157  D(28,27,29,34)        -57.1466         estimate D2E/DX2                !
 ! D158  D(28,27,29,35)         62.702          estimate D2E/DX2                !
 ! D159  D(28,27,29,36)       -179.8338         estimate D2E/DX2                !
 ! D160  D(30,27,29,34)         63.106          estimate D2E/DX2                !
 ! D161  D(30,27,29,35)       -177.0455         estimate D2E/DX2                !
 ! D162  D(30,27,29,36)        -59.5813         estimate D2E/DX2                !
 ! D163  D(27,28,31,37)        -55.6611         estimate D2E/DX2                !
 ! D164  D(27,28,31,38)       -178.6188         estimate D2E/DX2                !
 ! D165  D(27,28,31,39)         64.908          estimate D2E/DX2                !
 ! D166  D(32,28,31,37)         63.9118         estimate D2E/DX2                !
 ! D167  D(32,28,31,38)        -59.0459         estimate D2E/DX2                !
 ! D168  D(32,28,31,39)       -175.5191         estimate D2E/DX2                !
 ! D169  D(33,28,31,37)       -177.3086         estimate D2E/DX2                !
 ! D170  D(33,28,31,38)         59.7337         estimate D2E/DX2                !
 ! D171  D(33,28,31,39)        -56.7395         estimate D2E/DX2                !
 ! D172  D(27,29,34,37)         56.2879         estimate D2E/DX2                !
 ! D173  D(27,29,34,40)        178.8802         estimate D2E/DX2                !
 ! D174  D(27,29,34,41)        -64.4767         estimate D2E/DX2                !
 ! D175  D(35,29,34,37)        -63.5481         estimate D2E/DX2                !
 ! D176  D(35,29,34,40)         59.0442         estimate D2E/DX2                !
 ! D177  D(35,29,34,41)        175.6872         estimate D2E/DX2                !
 ! D178  D(36,29,34,37)        178.0023         estimate D2E/DX2                !
 ! D179  D(36,29,34,40)        -59.4054         estimate D2E/DX2                !
 ! D180  D(36,29,34,41)         57.2376         estimate D2E/DX2                !
 ! D181  D(28,31,37,34)         55.5211         estimate D2E/DX2                !
 ! D182  D(28,31,37,42)        177.8977         estimate D2E/DX2                !
 ! D183  D(28,31,37,43)        -64.9056         estimate D2E/DX2                !
 ! D184  D(38,31,37,34)        177.9333         estimate D2E/DX2                !
 ! D185  D(38,31,37,42)        -59.6901         estimate D2E/DX2                !
 ! D186  D(38,31,37,43)         57.5066         estimate D2E/DX2                !
 ! D187  D(39,31,37,34)        -64.8483         estimate D2E/DX2                !
 ! D188  D(39,31,37,42)         57.5283         estimate D2E/DX2                !
 ! D189  D(39,31,37,43)        174.725          estimate D2E/DX2                !
 ! D190  D(29,34,37,31)        -55.7187         estimate D2E/DX2                !
 ! D191  D(29,34,37,42)       -178.0593         estimate D2E/DX2                !
 ! D192  D(29,34,37,43)         64.7849         estimate D2E/DX2                !
 ! D193  D(40,34,37,31)       -177.5324         estimate D2E/DX2                !
 ! D194  D(40,34,37,42)         60.1269         estimate D2E/DX2                !
 ! D195  D(40,34,37,43)        -57.0289         estimate D2E/DX2                !
 ! D196  D(41,34,37,31)         64.9313         estimate D2E/DX2                !
 ! D197  D(41,34,37,42)        -57.4094         estimate D2E/DX2                !
 ! D198  D(41,34,37,43)       -174.5652         estimate D2E/DX2                !
 --------------------------------------------------------------------------------
 Trust Radius=3.00D-01 FncErr=5.00D-06 GrdErr=5.00D-06 EigMax=2.50D+02 EigMin=1.00D-04
 Number of steps in this run=    413 maximum allowed number of steps=    414.
 GradGradGradGradGradGradGradGradGradGradGradGradGradGradGradGradGradGrad

 Leave Link  103 at Thu Dec 20 17:50:12 2018, MaxMem=  1342177280 cpu:               0.3 elap:               0.0
 (Enter /gpfs/apps/hpc/Apps/Restricted/Gaussian/Rev_A.03/g16/l202.exe)
 Symmetry turned off by external request.
 Stoichiometry    C28H37N3O(1+,2)
 Framework group  C1[X(C28H37N3O)]
 Deg. of freedom   201
 Full point group                 C1      NOp   1
                          Input orientation:                          
 ---------------------------------------------------------------------
 Center     Atomic      Atomic             Coordinates (Angstroms)
 Number     Number       Type             X           Y           Z
 ---------------------------------------------------------------------
      1          6           0       -0.522494    2.720922    0.334065
      2          6           0       -1.920373    2.946812    0.271763
      3          6           0       -2.463177    4.228876    0.212392
      4          6           0       -1.570395    5.304776    0.222961
      5          6           0       -0.186106    5.109398    0.284154
      6          6           0        0.370713    3.819494    0.334037
      7          6           0       -1.452750    0.780255    0.352846
      8          1           0       -3.532801    4.387135    0.160090
      9          1           0       -1.960409    6.313878    0.182075
     10          1           0        0.477278    5.966428    0.290185
     11          7           0       -2.471007    1.687951    0.283828
     12          6           0       -3.031591   -1.196578    0.296443
     13          6           0       -1.671580   -0.652467    0.391436
     14          6           0       -0.595272   -1.510036    0.520762
     15          6           0       -0.768284   -2.907891    0.573466
     16          6           0       -2.071581   -3.446043    0.472613
     17          6           0       -3.186202   -2.649233    0.335069
     18          1           0        0.402578   -1.093778    0.592018
     19          1           0       -2.191689   -4.523616    0.512642
     20          6           0        0.420571   -3.801081    0.750214
     21          6           0       -4.569462   -3.206574    0.234261
     22          8           0       -4.043749   -0.457165    0.188619
     23          7           0       -0.251649    1.380692    0.383431
     24          6           0        1.789159    3.642879    0.366127
     25          1           0        2.427424    4.519920    0.368273
     26          7           0        2.357617    2.475252    0.390379
     27          6           0        3.814958    2.239787    0.402374
     28          6           0        4.441855    2.621128   -0.946264
     29          6           0        4.493205    2.972796    1.565347
     30          1           0        3.922406    1.163410    0.550830
     31          6           0        5.947690    2.331678   -0.928988
     32          1           0        4.269676    3.689290   -1.122042
     33          1           0        3.947441    2.071074   -1.750988
     34          6           0        5.996832    2.674097    1.574422
     35          1           0        4.341643    4.051631    1.447197
     36          1           0        4.025437    2.676423    2.507393
     37          6           0        6.644252    3.044126    0.235184
     38          1           0        6.391025    2.628503   -1.883476
     39          1           0        6.099723    1.249891   -0.832731
     40          1           0        6.469737    3.218788    2.396102
     41          1           0        6.150556    1.605923    1.769743
     42          1           0        7.708461    2.792674    0.247931
     43          1           0        6.573672    4.129155    0.089523
     44          1           0       -3.441808    1.388416    0.242278
     45          1           0        1.726118    1.665096    0.381226
     46          6           0       -5.216798   -2.826855   -1.110495
     47          1           0       -5.817206   -3.640757   -1.459744
     48          1           0       -5.831554   -1.961081   -0.978547
     49          1           0       -4.451407   -2.614897   -1.827538
     50          6           0       -5.472467   -2.617532    1.333903
     51          1           0       -5.965455   -1.744241    0.960773
     52          1           0       -6.203311   -3.343880    1.622323
     53          1           0       -4.876048   -2.355207    2.182648
     54          6           0       -4.554508   -4.741026    0.364010
     55          1           0       -3.968251   -5.160145   -0.426902
     56          1           0       -4.129379   -5.015111    1.306900
     57          1           0       -5.555504   -5.113965    0.302181
     58          6           0        0.015722   -5.286912    0.752134
     59          1           0       -0.651824   -5.473640    1.567251
     60          1           0       -0.472031   -5.524873   -0.170022
     61          1           0        0.889729   -5.894585    0.860507
     62          6           0        1.133636   -3.484394    2.077937
     63          1           0        1.723874   -4.325863    2.375341
     64          1           0        1.767484   -2.632197    1.947949
     65          1           0        0.404989   -3.275087    2.833030
     66          6           0        1.450545   -3.570299   -0.371166
     67          1           0        0.942750   -3.478695   -1.308530
     68          1           0        1.998373   -2.672774   -0.173093
     69          1           0        2.126144   -4.399081   -0.411014
 ---------------------------------------------------------------------
 Rotational constants (GHZ):           0.1828160           0.0733945           0.0548104
 Leave Link  202 at Thu Dec 20 17:50:12 2018, MaxMem=  1342177280 cpu:               0.2 elap:               0.0
 (Enter /gpfs/apps/hpc/Apps/Restricted/Gaussian/Rev_A.03/g16/l301.exe)
 Standard basis: 6-31G(d,p) (6D, 7F)
 Ernie: Thresh=  0.10000D-02 Tol=  0.10000D-05 Strict=F.
   665 basis functions,  1155 primitive gaussians,   665 cartesian basis functions
   117 alpha electrons      116 beta electrons
       nuclear repulsion energy      3180.9097394010 Hartrees.
 IExCor=  402 DFT=T Ex+Corr=B3LYP ExCW=0 ScaHFX=  0.200000
 ScaDFX=  0.800000  0.720000  1.000000  0.810000 ScalE2=  1.000000  1.000000
 IRadAn=      5 IRanWt=     -1 IRanGd=            0 ICorTp=0 IEmpDi=141
 NAtoms=   69 NActive=   69 NUniq=   69 SFac= 1.00D+00 NAtFMM=   60 NAOKFM=T Big=T
 Integral buffers will be    131072 words long.
 Raffenetti 2 integral format.
 Two-electron integral symmetry is turned off.
 R6Disp:  Grimme-D3(BJ) Dispersion energy=       -0.1510696769 Hartrees.
 Nuclear repulsion after empirical dispersion term =     3180.7586697240 Hartrees.
 Using the following non-standard input for PCM:
 radii=bondi
 dis
 rep
 cav
 --- end of non-standard input.
 ------------------------------------------------------------------------------
 Polarizable Continuum Model (PCM)
 =================================
 Model                : C-PCM.
 Atomic radii         : Bondi.
 Polarization charges : Total charges.
 Charge compensation  : None.
 Solution method      : On-the-fly selection.
 Cavity type          : Scaled VdW (van der Waals Surface) (Alpha=1.100).
 Cavity algorithm     : GePol (No added spheres)
                        Default sphere list used, NSphG=   69.
                        Lebedev-Laikov grids with approx.  5.0 points / Ang**2.
                        Smoothing algorithm: York/Karplus (Gamma=1.0000).
                        Polarization charges: spherical gaussians, with
                                              point-specific exponents (IZeta= 3).
                        Self-potential: point-specific (ISelfS= 7).
                        Self-field    : sphere-specific E.n sum rule (ISelfD= 2).
 1st derivatives      : Analytical E(r).r(x)/FMM algorithm (CHGder, D1EAlg=3).
                        Cavity 1st derivative terms included.
 Solvent              : Dichloromethane, Eps=   8.930000 Eps(inf)=   2.028346
 ------------------------------------------------------------------------------
 GePol: Number of generator spheres                  =      69
 GePol: Total number of spheres                      =      69
 GePol: Number of exposed spheres                    =      69 (100.00%)
 GePol: Number of points                             =    4308
 GePol: Average weight of points                     =       0.12
 GePol: Minimum weight of points                     =   0.27D-11
 GePol: Maximum weight of points                     =    0.21770
 GePol: Number of points with low weight             =     330
 GePol: Fraction of low-weight points (<1% of avg)   =       7.66%
 GePol: Cavity surface area                          =    513.446 Ang**2
 GePol: Cavity volume                                =    497.541 Ang**3
 PCM non-electrostatic energy =         0.0248192122 Hartrees.
 Nuclear repulsion after PCM non-electrostatic terms =     3180.7834889362 Hartrees.
 Leave Link  301 at Thu Dec 20 17:50:12 2018, MaxMem=  1342177280 cpu:               3.5 elap:               0.2
 (Enter /gpfs/apps/hpc/Apps/Restricted/Gaussian/Rev_A.03/g16/l302.exe)
 NPDir=0 NMtPBC=     1 NCelOv=     1 NCel=       1 NClECP=     1 NCelD=      1
         NCelK=      1 NCelE2=     1 NClLst=     1 CellRange=     0.0.
 One-electron integrals computed using PRISM.
 NBasis=   665 RedAO= T EigKep=  3.12D-04  NBF=   665
 NBsUse=   665 1.00D-06 EigRej= -1.00D+00 NBFU=   665
 Precomputing XC quadrature grid using
 IXCGrd= 4 IRadAn=           5 IRanWt=          -1 IRanGd=           0 AccXCQ= 0.00D+00.
 Generated NRdTot=       0 NPtTot=           0 NUsed=           0 NTot=          32
 NSgBfM=   650   650   650   650   650 MxSgAt=    69 MxSgA2=    69.
 Leave Link  302 at Thu Dec 20 17:50:13 2018, MaxMem=  1342177280 cpu:              18.0 elap:               1.2
 (Enter /gpfs/apps/hpc/Apps/Restricted/Gaussian/Rev_A.03/g16/l303.exe)
 DipDrv:  MaxL=1.
 Leave Link  303 at Thu Dec 20 17:50:14 2018, MaxMem=  1342177280 cpu:               1.5 elap:               0.2
 (Enter /gpfs/apps/hpc/Apps/Restricted/Gaussian/Rev_A.03/g16/l401.exe)
 ExpMin= 1.61D-01 ExpMax= 5.48D+03 ExpMxC= 8.25D+02 IAcc=3 IRadAn=         5 AccDes= 0.00D+00
 Harris functional with IExCor=  402 and IRadAn=       5 diagonalized for initial guess.
 HarFok:  IExCor=  402 AccDes= 0.00D+00 IRadAn=         5 IDoV= 1 UseB2=F ITyADJ=14
 ICtDFT=  3500011 ScaDFX=  1.000000  1.000000  1.000000  1.000000
 FoFCou: FMM=F IPFlag=           0 FMFlag=      100000 FMFlg1=        2001
         NFxFlg=           0 DoJE=T BraDBF=F KetDBF=T FulRan=T
         wScrn=  0.000000 ICntrl=       500 IOpCl=  0 I1Cent=   200000004 NGrid=           0
         NMat0=    1 NMatS0=      1 NMatT0=    0 NMatD0=    1 NMtDS0=    0 NMtDT0=    0
 Symmetry not used in FoFCou.
 Harris En= -1328.80614501498    
 JPrj=0 DoOrth=F DoCkMO=F.
 Initial guess <Sx>= 0.0000 <Sy>= 0.0000 <Sz>= 0.5000 <S**2>= 0.7500 S= 0.5000
 Leave Link  401 at Thu Dec 20 17:50:18 2018, MaxMem=  1342177280 cpu:              61.4 elap:               3.9
 (Enter /gpfs/apps/hpc/Apps/Restricted/Gaussian/Rev_A.03/g16/l502.exe)
 Two-electron integral symmetry not used.
 UHF open shell SCF:
 Using DIIS extrapolation, IDIIS=  1040.
 NGot=  1342177280 LenX=  1341276554 LenY=  1340833664
 Requested convergence on RMS density matrix=1.00D-08 within 128 cycles.
 Requested convergence on MAX density matrix=1.00D-06.
 Requested convergence on             energy=1.00D-06.
 No special actions if energy rises.
 Fock matrices will be formed incrementally for  20 cycles.

 Cycle   1  Pass 1  IDiag  1:
 FoFJK:  IHMeth= 1 ICntrl=       0 DoSepK=F KAlg= 0 I1Cent=           0 FoldK=F
 IRaf= 760000000 NMat=       1 IRICut=       1 DoRegI=T DoRafI=F ISym2E= 0 IDoP0=0 IntGTp=1.
 FoFCou: FMM=T IPFlag=           0 FMFlag=      100000 FMFlg1=        2001
         NFxFlg=           0 DoJE=F BraDBF=F KetDBF=F FulRan=T
         wScrn=  0.000000 ICntrl=         0 IOpCl=  1 I1Cent=           0 NGrid=           0
         NMat0=    1 NMatS0=      1 NMatT0=    0 NMatD0=    1 NMtDS0=    0 NMtDT0=    0
 Symmetry not used in FoFCou.
 FMM levels:  10  Number of levels for PrismC:   9
 Inv3:  Mode=1 IEnd=    55676592.
 Iteration    1 A*A^-1 deviation from unit magnitude is 6.55D-15 for   3253.
 Iteration    1 A*A^-1 deviation from orthogonality  is 3.51D-15 for   4290   1961.
 Iteration    1 A^-1*A deviation from unit magnitude is 6.55D-15 for   3253.
 Iteration    1 A^-1*A deviation from orthogonality  is 1.77D-15 for   1996   1808.
 E= -1327.95602142871    
 DIIS: error= 3.40D-02 at cycle   1 NSaved=   1.
 NSaved= 1 IEnMin= 1 EnMin= -1327.95602142871     IErMin= 1 ErrMin= 3.40D-02
 ErrMax= 3.40D-02  0.00D+00 EMaxC= 1.00D-01 BMatC= 3.23D+00 BMatP= 3.23D+00
 IDIUse=3 WtCom= 6.60D-01 WtEn= 3.40D-01
 Coeff-Com:  0.100D+01
 Coeff-En:   0.100D+01
 Coeff:      0.100D+01
 Gap=     0.082 Goal=   None    Shift=    0.000
 Gap=     0.082 Goal=   None    Shift=    0.000
 GapD=    0.082 DampG=0.500 DampE=0.500 DampFc=0.2500 IDamp=-1.
 Damping current iteration by 2.50D-01
 RMSDP=3.23D-03 MaxDP=1.83D-01              OVMax= 3.29D-01

 Cycle   2  Pass 1  IDiag  1:
 RMSU=  7.88D-04    CP:  9.85D-01
 E= -1328.26201545224     Delta-E=       -0.305994023535 Rises=F Damp=T
 DIIS: error= 1.80D-02 at cycle   2 NSaved=   2.
 NSaved= 2 IEnMin= 2 EnMin= -1328.26201545224     IErMin= 2 ErrMin= 1.80D-02
 ErrMax= 1.80D-02  0.00D+00 EMaxC= 1.00D-01 BMatC= 8.43D-01 BMatP= 3.23D+00
 IDIUse=3 WtCom= 8.20D-01 WtEn= 1.80D-01
 Coeff-Com: -0.836D+00 0.184D+01
 Coeff-En:   0.000D+00 0.100D+01
 Coeff:     -0.685D+00 0.169D+01
 Gap=     0.124 Goal=   None    Shift=    0.000
 Gap=     0.129 Goal=   None    Shift=    0.000
 RMSDP=1.18D-03 MaxDP=7.80D-02 DE=-3.06D-01 OVMax= 1.75D-01

 Cycle   3  Pass 1  IDiag  1:
 RMSU=  8.27D-04    CP:  9.54D-01  1.97D+00
 E= -1328.77118444663     Delta-E=       -0.509168994387 Rises=F Damp=F
 DIIS: error= 7.51D-03 at cycle   3 NSaved=   3.
 NSaved= 3 IEnMin= 3 EnMin= -1328.77118444663     IErMin= 3 ErrMin= 7.51D-03
 ErrMax= 7.51D-03  0.00D+00 EMaxC= 1.00D-01 BMatC= 1.41D-01 BMatP= 8.43D-01
 IDIUse=3 WtCom= 9.25D-01 WtEn= 7.51D-02
 Coeff-Com: -0.348D+00 0.778D+00 0.570D+00
 Coeff-En:   0.000D+00 0.000D+00 0.100D+01
 Coeff:     -0.322D+00 0.720D+00 0.602D+00
 Gap=     0.113 Goal=   None    Shift=    0.000
 Gap=     0.085 Goal=   None    Shift=    0.000
 RMSDP=4.72D-04 MaxDP=6.82D-02 DE=-5.09D-01 OVMax= 7.48D-02

 Cycle   4  Pass 1  IDiag  1:
 RMSU=  3.86D-04    CP:  9.58D-01  1.98D+00  6.75D-01
 E= -1328.79162746219     Delta-E=       -0.020443015564 Rises=F Damp=F
 DIIS: error= 7.13D-03 at cycle   4 NSaved=   4.
 NSaved= 4 IEnMin= 4 EnMin= -1328.79162746219     IErMin= 4 ErrMin= 7.13D-03
 ErrMax= 7.13D-03  0.00D+00 EMaxC= 1.00D-01 BMatC= 6.45D-02 BMatP= 1.41D-01
 IDIUse=3 WtCom= 9.29D-01 WtEn= 7.13D-02
 Coeff-Com: -0.409D-01 0.118D+00 0.397D+00 0.526D+00
 Coeff-En:   0.000D+00 0.000D+00 0.304D+00 0.696D+00
 Coeff:     -0.380D-01 0.109D+00 0.390D+00 0.538D+00
 Gap=     0.115 Goal=   None    Shift=    0.000
 Gap=     0.085 Goal=   None    Shift=    0.000
 RMSDP=2.28D-04 MaxDP=3.41D-02 DE=-2.04D-02 OVMax= 3.25D-02

 Cycle   5  Pass 1  IDiag  1:
 RMSU=  1.23D-04    CP:  9.57D-01  1.95D+00  7.88D-01  5.71D-01
 E= -1328.80429742795     Delta-E=       -0.012669965763 Rises=F Damp=F
 DIIS: error= 1.76D-03 at cycle   5 NSaved=   5.
 NSaved= 5 IEnMin= 5 EnMin= -1328.80429742795     IErMin= 5 ErrMin= 1.76D-03
 ErrMax= 1.76D-03  0.00D+00 EMaxC= 1.00D-01 BMatC= 3.97D-03 BMatP= 6.45D-02
 IDIUse=3 WtCom= 9.82D-01 WtEn= 1.76D-02
 Coeff-Com:  0.793D-02-0.356D-02 0.166D+00 0.293D+00 0.537D+00
 Coeff-En:   0.000D+00 0.000D+00 0.000D+00 0.000D+00 0.100D+01
 Coeff:      0.779D-02-0.349D-02 0.163D+00 0.288D+00 0.545D+00
 Gap=     0.115 Goal=   None    Shift=    0.000
 Gap=     0.087 Goal=   None    Shift=    0.000
 RMSDP=6.58D-05 MaxDP=1.10D-02 DE=-1.27D-02 OVMax= 1.53D-02

 Cycle   6  Pass 1  IDiag  1:
 RMSU=  4.40D-05    CP:  9.57D-01  1.94D+00  7.99D-01  6.29D-01  6.53D-01
 E= -1328.80520120184     Delta-E=       -0.000903773890 Rises=F Damp=F
 DIIS: error= 5.21D-04 at cycle   6 NSaved=   6.
 NSaved= 6 IEnMin= 6 EnMin= -1328.80520120184     IErMin= 6 ErrMin= 5.21D-04
 ErrMax= 5.21D-04  0.00D+00 EMaxC= 1.00D-01 BMatC= 4.94D-04 BMatP= 3.97D-03
 IDIUse=3 WtCom= 9.95D-01 WtEn= 5.21D-03
 Coeff-Com:  0.812D-02-0.127D-01 0.489D-01 0.956D-01 0.301D+00 0.559D+00
 Coeff-En:   0.000D+00 0.000D+00 0.000D+00 0.000D+00 0.000D+00 0.100D+01
 Coeff:      0.808D-02-0.127D-01 0.487D-01 0.951D-01 0.299D+00 0.561D+00
 Gap=     0.116 Goal=   None    Shift=    0.000
 Gap=     0.088 Goal=   None    Shift=    0.000
 RMSDP=2.36D-05 MaxDP=3.08D-03 DE=-9.04D-04 OVMax= 8.39D-03

 Cycle   7  Pass 1  IDiag  1:
 RMSU=  1.97D-05    CP:  9.57D-01  1.95D+00  8.01D-01  6.28D-01  7.51D-01
                    CP:  9.17D-01
 E= -1328.80535320342     Delta-E=       -0.000152001571 Rises=F Damp=F
 DIIS: error= 2.08D-04 at cycle   7 NSaved=   7.
 NSaved= 7 IEnMin= 7 EnMin= -1328.80535320342     IErMin= 7 ErrMin= 2.08D-04
 ErrMax= 2.08D-04  0.00D+00 EMaxC= 1.00D-01 BMatC= 7.19D-05 BMatP= 4.94D-04
 IDIUse=3 WtCom= 9.98D-01 WtEn= 2.08D-03
 Coeff-Com:  0.176D-02-0.450D-02-0.157D-01-0.311D-01 0.101D-01 0.234D+00
 Coeff-Com:  0.805D+00
 Coeff-En:   0.000D+00 0.000D+00 0.000D+00 0.000D+00 0.000D+00 0.000D+00
 Coeff-En:   0.100D+01
 Coeff:      0.176D-02-0.449D-02-0.157D-01-0.310D-01 0.101D-01 0.233D+00
 Coeff:      0.806D+00
 Gap=     0.117 Goal=   None    Shift=    0.000
 Gap=     0.089 Goal=   None    Shift=    0.000
 RMSDP=1.52D-05 MaxDP=2.48D-03 DE=-1.52D-04 OVMax= 6.78D-03

 Cycle   8  Pass 1  IDiag  1:
 RMSU=  9.54D-06    CP:  9.57D-01  1.95D+00  8.04D-01  6.34D-01  8.00D-01
                    CP:  1.14D+00  1.04D+00
 E= -1328.80540512860     Delta-E=       -0.000051925188 Rises=F Damp=F
 DIIS: error= 1.14D-04 at cycle   8 NSaved=   8.
 NSaved= 8 IEnMin= 8 EnMin= -1328.80540512860     IErMin= 8 ErrMin= 1.14D-04
 ErrMax= 1.14D-04  0.00D+00 EMaxC= 1.00D-01 BMatC= 2.53D-05 BMatP= 7.19D-05
 IDIUse=3 WtCom= 9.99D-01 WtEn= 1.14D-03
 Coeff-Com: -0.169D-02 0.223D-02-0.221D-01-0.489D-01-0.928D-01-0.108D+00
 Coeff-Com:  0.379D+00 0.892D+00
 Coeff-En:   0.000D+00 0.000D+00 0.000D+00 0.000D+00 0.000D+00 0.000D+00
 Coeff-En:   0.000D+00 0.100D+01
 Coeff:     -0.169D-02 0.222D-02-0.220D-01-0.488D-01-0.926D-01-0.108D+00
 Coeff:      0.379D+00 0.892D+00
 Gap=     0.117 Goal=   None    Shift=    0.000
 Gap=     0.090 Goal=   None    Shift=    0.000
 RMSDP=1.17D-05 MaxDP=1.64D-03 DE=-5.19D-05 OVMax= 5.28D-03

 Cycle   9  Pass 1  IDiag  1:
 RMSU=  4.96D-06    CP:  9.57D-01  1.95D+00  8.06D-01  6.34D-01  8.37D-01
                    CP:  1.27D+00  1.39D+00  1.21D+00
 E= -1328.80542452947     Delta-E=       -0.000019400870 Rises=F Damp=F
 DIIS: error= 5.60D-05 at cycle   9 NSaved=   9.
 NSaved= 9 IEnMin= 9 EnMin= -1328.80542452947     IErMin= 9 ErrMin= 5.60D-05
 ErrMax= 5.60D-05  0.00D+00 EMaxC= 1.00D-01 BMatC= 7.75D-06 BMatP= 2.53D-05
 IDIUse=1 WtCom= 1.00D+00 WtEn= 0.00D+00
 Coeff-Com: -0.108D-02 0.183D-02-0.919D-02-0.225D-01-0.551D-01-0.123D+00
 Coeff-Com:  0.553D-01 0.518D+00 0.636D+00
 Coeff:     -0.108D-02 0.183D-02-0.919D-02-0.225D-01-0.551D-01-0.123D+00
 Coeff:      0.553D-01 0.518D+00 0.636D+00
 Gap=     0.117 Goal=   None    Shift=    0.000
 Gap=     0.090 Goal=   None    Shift=    0.000
 RMSDP=4.55D-06 MaxDP=7.50D-04 DE=-1.94D-05 OVMax= 1.76D-03

 Cycle  10  Pass 1  IDiag  1:
 RMSU=  2.48D-06    CP:  9.57D-01  1.95D+00  8.06D-01  6.34D-01  8.50D-01
                    CP:  1.32D+00  1.49D+00  1.42D+00  8.81D-01
 E= -1328.80542817393     Delta-E=       -0.000003644457 Rises=F Damp=F
 DIIS: error= 2.02D-05 at cycle  10 NSaved=  10.
 NSaved=10 IEnMin=10 EnMin= -1328.80542817393     IErMin=10 ErrMin= 2.02D-05
 ErrMax= 2.02D-05  0.00D+00 EMaxC= 1.00D-01 BMatC= 1.27D-06 BMatP= 7.75D-06
 IDIUse=1 WtCom= 1.00D+00 WtEn= 0.00D+00
 Coeff-Com: -0.585D-04 0.236D-03 0.234D-03-0.662D-03-0.592D-02-0.394D-01
 Coeff-Com: -0.468D-01 0.511D-01 0.316D+00 0.726D+00
 Coeff:     -0.585D-04 0.236D-03 0.234D-03-0.662D-03-0.592D-02-0.394D-01
 Coeff:     -0.468D-01 0.511D-01 0.316D+00 0.726D+00
 Gap=     0.117 Goal=   None    Shift=    0.000
 Gap=     0.090 Goal=   None    Shift=    0.000
 RMSDP=1.91D-06 MaxDP=3.93D-04 DE=-3.64D-06 OVMax= 5.98D-04

 Cycle  11  Pass 1  IDiag  1:
 RMSU=  1.14D-06    CP:  9.57D-01  1.95D+00  8.07D-01  6.33D-01  8.52D-01
                    CP:  1.33D+00  1.53D+00  1.49D+00  1.07D+00  9.75D-01
 E= -1328.80542874480     Delta-E=       -0.000000570871 Rises=F Damp=F
 DIIS: error= 9.70D-06 at cycle  11 NSaved=  11.
 NSaved=11 IEnMin=11 EnMin= -1328.80542874480     IErMin=11 ErrMin= 9.70D-06
 ErrMax= 9.70D-06  0.00D+00 EMaxC= 1.00D-01 BMatC= 2.78D-07 BMatP= 1.27D-06
 IDIUse=1 WtCom= 1.00D+00 WtEn= 0.00D+00
 Coeff-Com:  0.183D-03-0.224D-03 0.226D-02 0.476D-02 0.957D-02 0.642D-02
 Coeff-Com: -0.328D-01-0.898D-01 0.292D-01 0.385D+00 0.686D+00
 Coeff:      0.183D-03-0.224D-03 0.226D-02 0.476D-02 0.957D-02 0.642D-02
 Coeff:     -0.328D-01-0.898D-01 0.292D-01 0.385D+00 0.686D+00
 Gap=     0.117 Goal=   None    Shift=    0.000
 Gap=     0.090 Goal=   None    Shift=    0.000
 RMSDP=7.81D-07 MaxDP=1.06D-04 DE=-5.71D-07 OVMax= 2.61D-04

 Cycle  12  Pass 1  IDiag  1:
 RMSU=  4.13D-07    CP:  9.57D-01  1.94D+00  8.07D-01  6.33D-01  8.53D-01
                    CP:  1.33D+00  1.53D+00  1.52D+00  1.14D+00  1.16D+00
                    CP:  9.19D-01
 E= -1328.80542887153     Delta-E=       -0.000000126729 Rises=F Damp=F
 DIIS: error= 4.48D-06 at cycle  12 NSaved=  12.
 NSaved=12 IEnMin=12 EnMin= -1328.80542887153     IErMin=12 ErrMin= 4.48D-06
 ErrMax= 4.48D-06  0.00D+00 EMaxC= 1.00D-01 BMatC= 2.79D-08 BMatP= 2.78D-07
 IDIUse=1 WtCom= 1.00D+00 WtEn= 0.00D+00
 Coeff-Com:  0.596D-04-0.108D-03 0.667D-03 0.172D-02 0.428D-02 0.946D-02
 Coeff-Com: -0.255D-02-0.401D-01-0.448D-01-0.459D-02 0.220D+00 0.856D+00
 Coeff:      0.596D-04-0.108D-03 0.667D-03 0.172D-02 0.428D-02 0.946D-02
 Coeff:     -0.255D-02-0.401D-01-0.448D-01-0.459D-02 0.220D+00 0.856D+00
 Gap=     0.117 Goal=   None    Shift=    0.000
 Gap=     0.090 Goal=   None    Shift=    0.000
 RMSDP=3.55D-07 MaxDP=5.51D-05 DE=-1.27D-07 OVMax= 1.21D-04

 Cycle  13  Pass 1  IDiag  1:
 RMSU=  2.03D-07    CP:  9.57D-01  1.94D+00  8.07D-01  6.33D-01  8.53D-01
                    CP:  1.33D+00  1.54D+00  1.52D+00  1.16D+00  1.22D+00
                    CP:  1.08D+00  9.93D-01
 E= -1328.80542889000     Delta-E=       -0.000000018468 Rises=F Damp=F
 DIIS: error= 2.49D-06 at cycle  13 NSaved=  13.
 NSaved=13 IEnMin=13 EnMin= -1328.80542889000     IErMin=13 ErrMin= 2.49D-06
 ErrMax= 2.49D-06  0.00D+00 EMaxC= 1.00D-01 BMatC= 1.31D-08 BMatP= 2.79D-08
 IDIUse=1 WtCom= 1.00D+00 WtEn= 0.00D+00
 Coeff-Com: -0.236D-05-0.166D-04 0.187D-04 0.259D-03 0.916D-03 0.464D-02
 Coeff-Com:  0.341D-02-0.891D-02-0.307D-01-0.658D-01 0.179D-01 0.498D+00
 Coeff-Com:  0.581D+00
 Coeff:     -0.236D-05-0.166D-04 0.187D-04 0.259D-03 0.916D-03 0.464D-02
 Coeff:      0.341D-02-0.891D-02-0.307D-01-0.658D-01 0.179D-01 0.498D+00
 Coeff:      0.581D+00
 Gap=     0.117 Goal=   None    Shift=    0.000
 Gap=     0.090 Goal=   None    Shift=    0.000
 RMSDP=1.53D-07 MaxDP=2.47D-05 DE=-1.85D-08 OVMax= 4.44D-05

 Cycle  14  Pass 1  IDiag  1:
 RMSU=  9.60D-08    CP:  9.57D-01  1.94D+00  8.07D-01  6.33D-01  8.53D-01
                    CP:  1.33D+00  1.54D+00  1.53D+00  1.17D+00  1.24D+00
                    CP:  1.11D+00  1.19D+00  8.33D-01
 E= -1328.80542889495     Delta-E=       -0.000000004949 Rises=F Damp=F
 DIIS: error= 1.33D-06 at cycle  14 NSaved=  14.
 NSaved=14 IEnMin=14 EnMin= -1328.80542889495     IErMin=14 ErrMin= 1.33D-06
 ErrMax= 1.33D-06  0.00D+00 EMaxC= 1.00D-01 BMatC= 1.93D-09 BMatP= 1.31D-08
 IDIUse=1 WtCom= 1.00D+00 WtEn= 0.00D+00
 Coeff-Com: -0.229D-04 0.303D-04-0.167D-03-0.309D-03-0.735D-03-0.229D-03
 Coeff-Com:  0.184D-02 0.654D-02-0.229D-02-0.291D-01-0.459D-01 0.443D-02
 Coeff-Com:  0.258D+00 0.808D+00
 Coeff:     -0.229D-04 0.303D-04-0.167D-03-0.309D-03-0.735D-03-0.229D-03
 Coeff:      0.184D-02 0.654D-02-0.229D-02-0.291D-01-0.459D-01 0.443D-02
 Coeff:      0.258D+00 0.808D+00
 Gap=     0.117 Goal=   None    Shift=    0.000
 Gap=     0.090 Goal=   None    Shift=    0.000
 RMSDP=7.88D-08 MaxDP=1.08D-05 DE=-4.95D-09 OVMax= 2.44D-05

 Cycle  15  Pass 1  IDiag  1:
 RMSU=  4.14D-08    CP:  9.57D-01  1.94D+00  8.07D-01  6.33D-01  8.53D-01
                    CP:  1.33D+00  1.54D+00  1.53D+00  1.17D+00  1.25D+00
                    CP:  1.13D+00  1.26D+00  1.06D+00  1.03D+00
 E= -1328.80542889618     Delta-E=       -0.000000001233 Rises=F Damp=F
 DIIS: error= 5.91D-07 at cycle  15 NSaved=  15.
 NSaved=15 IEnMin=15 EnMin= -1328.80542889618     IErMin=15 ErrMin= 5.91D-07
 ErrMax= 5.91D-07  0.00D+00 EMaxC= 1.00D-01 BMatC= 5.39D-10 BMatP= 1.93D-09
 IDIUse=1 WtCom= 1.00D+00 WtEn= 0.00D+00
 Coeff-Com: -0.112D-04 0.184D-04-0.829D-04-0.183D-03-0.528D-03-0.891D-03
 Coeff-Com:  0.147D-03 0.477D-02 0.424D-02-0.281D-02-0.252D-01-0.932D-01
 Coeff-Com:  0.152D-01 0.408D+00 0.690D+00
 Coeff:     -0.112D-04 0.184D-04-0.829D-04-0.183D-03-0.528D-03-0.891D-03
 Coeff:      0.147D-03 0.477D-02 0.424D-02-0.281D-02-0.252D-01-0.932D-01
 Coeff:      0.152D-01 0.408D+00 0.690D+00
 Gap=     0.117 Goal=   None    Shift=    0.000
 Gap=     0.090 Goal=   None    Shift=    0.000
 RMSDP=3.94D-08 MaxDP=5.13D-06 DE=-1.23D-09 OVMax= 1.12D-05

 Cycle  16  Pass 1  IDiag  1:
 RMSU=  2.22D-08    CP:  9.57D-01  1.94D+00  8.07D-01  6.33D-01  8.53D-01
                    CP:  1.33D+00  1.54D+00  1.53D+00  1.17D+00  1.25D+00
                    CP:  1.14D+00  1.29D+00  1.13D+00  1.25D+00  9.14D-01
 E= -1328.80542889651     Delta-E=       -0.000000000335 Rises=F Damp=F
 DIIS: error= 2.47D-07 at cycle  16 NSaved=  16.
 NSaved=16 IEnMin=16 EnMin= -1328.80542889651     IErMin=16 ErrMin= 2.47D-07
 ErrMax= 2.47D-07  0.00D+00 EMaxC= 1.00D-01 BMatC= 1.31D-10 BMatP= 5.39D-10
 IDIUse=1 WtCom= 1.00D+00 WtEn= 0.00D+00
 Coeff-Com:  0.282D-05-0.241D-05 0.219D-04 0.368D-04 0.169D-04-0.311D-03
 Coeff-Com: -0.701D-03-0.227D-03 0.285D-02 0.954D-02 0.619D-02-0.434D-01
 Coeff-Com: -0.845D-01-0.931D-01 0.341D+00 0.862D+00
 Coeff:      0.282D-05-0.241D-05 0.219D-04 0.368D-04 0.169D-04-0.311D-03
 Coeff:     -0.701D-03-0.227D-03 0.285D-02 0.954D-02 0.619D-02-0.434D-01
 Coeff:     -0.845D-01-0.931D-01 0.341D+00 0.862D+00
 Gap=     0.117 Goal=   None    Shift=    0.000
 Gap=     0.090 Goal=   None    Shift=    0.000
 RMSDP=2.44D-08 MaxDP=3.07D-06 DE=-3.35D-10 OVMax= 7.22D-06

 Cycle  17  Pass 1  IDiag  1:
 RMSU=  1.07D-08    CP:  9.57D-01  1.94D+00  8.07D-01  6.33D-01  8.53D-01
                    CP:  1.33D+00  1.54D+00  1.53D+00  1.17D+00  1.25D+00
                    CP:  1.14D+00  1.30D+00  1.18D+00  1.35D+00  1.24D+00
                    CP:  1.10D+00
 E= -1328.80542889653     Delta-E=       -0.000000000020 Rises=F Damp=F
 DIIS: error= 1.00D-07 at cycle  17 NSaved=  17.
 NSaved=17 IEnMin=17 EnMin= -1328.80542889653     IErMin=17 ErrMin= 1.00D-07
 ErrMax= 1.00D-07  0.00D+00 EMaxC= 1.00D-01 BMatC= 2.13D-11 BMatP= 1.31D-10
 IDIUse=1 WtCom= 1.00D+00 WtEn= 0.00D+00
 Coeff-Com:  0.211D-05-0.264D-05 0.188D-04 0.393D-04 0.728D-04-0.538D-05
 Coeff-Com: -0.296D-03-0.714D-03 0.582D-03 0.420D-02 0.550D-02-0.469D-02
 Coeff-Com: -0.361D-01-0.954D-01 0.518D-01 0.351D+00 0.724D+00
 Coeff:      0.211D-05-0.264D-05 0.188D-04 0.393D-04 0.728D-04-0.538D-05
 Coeff:     -0.296D-03-0.714D-03 0.582D-03 0.420D-02 0.550D-02-0.469D-02
 Coeff:     -0.361D-01-0.954D-01 0.518D-01 0.351D+00 0.724D+00
 Gap=     0.117 Goal=   None    Shift=    0.000
 Gap=     0.090 Goal=   None    Shift=    0.000
 RMSDP=8.96D-09 MaxDP=1.40D-06 DE=-2.00D-11 OVMax= 3.39D-06

 Cycle  18  Pass 1  IDiag  1:
 RMSU=  5.50D-09    CP:  9.57D-01  1.94D+00  8.07D-01  6.33D-01  8.53D-01
                    CP:  1.33D+00  1.54D+00  1.53D+00  1.17D+00  1.25D+00
                    CP:  1.15D+00  1.31D+00  1.19D+00  1.38D+00  1.32D+00
                    CP:  1.29D+00  1.09D+00
 E= -1328.80542889666     Delta-E=       -0.000000000126 Rises=F Damp=F
 DIIS: error= 5.86D-08 at cycle  18 NSaved=  18.
 NSaved=18 IEnMin=18 EnMin= -1328.80542889666     IErMin=18 ErrMin= 5.86D-08
 ErrMax= 5.86D-08  0.00D+00 EMaxC= 1.00D-01 BMatC= 8.05D-12 BMatP= 2.13D-11
 IDIUse=1 WtCom= 1.00D+00 WtEn= 0.00D+00
 Coeff-Com:  0.160D-06-0.670D-06 0.332D-05 0.110D-04 0.416D-04 0.127D-03
 Coeff-Com:  0.102D-03-0.352D-03-0.806D-03-0.125D-02 0.555D-03 0.148D-01
 Coeff-Com:  0.135D-01-0.196D-01-0.103D+00-0.142D+00 0.402D+00 0.836D+00
 Coeff:      0.160D-06-0.670D-06 0.332D-05 0.110D-04 0.416D-04 0.127D-03
 Coeff:      0.102D-03-0.352D-03-0.806D-03-0.125D-02 0.555D-03 0.148D-01
 Coeff:      0.135D-01-0.196D-01-0.103D+00-0.142D+00 0.402D+00 0.836D+00
 Gap=     0.117 Goal=   None    Shift=    0.000
 Gap=     0.090 Goal=   None    Shift=    0.000
 RMSDP=6.85D-09 MaxDP=1.02D-06 DE=-1.26D-10 OVMax= 2.66D-06

 Cycle  19  Pass 1  IDiag  1:
 RMSU=  2.65D-09    CP:  9.57D-01  1.94D+00  8.07D-01  6.33D-01  8.53D-01
                    CP:  1.33D+00  1.54D+00  1.53D+00  1.17D+00  1.25D+00
[...]
   D114       1.13248  -0.00011   0.00000  -0.00039  -0.00039   1.13209
   D115      -3.05560  -0.00021   0.00000  -0.00074  -0.00074  -3.05634
   D116      -0.93866  -0.00046   0.00000  -0.00157  -0.00157  -0.94024
   D117       1.24686  -0.00020   0.00000  -0.00070  -0.00070   1.24616
   D118      -2.93692  -0.00013   0.00000  -0.00047  -0.00047  -2.93738
   D119      -0.84988  -0.00088   0.00000  -0.00303  -0.00303  -0.85292
   D120      -0.85426  -0.00010   0.00000  -0.00035  -0.00035  -0.85461
   D121       1.24515  -0.00003   0.00000  -0.00012  -0.00012   1.24503
   D122      -2.95100  -0.00078   0.00000  -0.00269  -0.00269  -2.95369
   D123      -2.90936  -0.00009   0.00000  -0.00030  -0.00030  -2.90966
   D124      -0.80996  -0.00002   0.00000  -0.00007  -0.00007  -0.81003
   D125       1.27708  -0.00076   0.00000  -0.00264  -0.00264   1.27444
   D126      -1.03265  -0.00008   0.00000  -0.00028  -0.00028  -1.03294
   D127       1.08870   0.00020   0.00000   0.00070   0.00070   1.08939
   D128      -3.11313   0.00013   0.00000   0.00044   0.00044  -3.11269
   D129       1.06162  -0.00018   0.00000  -0.00063  -0.00063   1.06100
   D130      -3.10022   0.00010   0.00000   0.00035   0.00035  -3.09986
   D131      -1.01886   0.00003   0.00000   0.00010   0.00010  -1.01876
   D132       3.13907  -0.00072   0.00000  -0.00249  -0.00249   3.13658
   D133      -1.02276  -0.00044   0.00000  -0.00151  -0.00151  -1.02428
   D134       1.05859  -0.00051   0.00000  -0.00177  -0.00176   1.05683
   D135      -3.13743  -0.00190   0.00000  -0.00655  -0.00655   3.13921
   D136       0.04753  -0.00194   0.00000  -0.00669  -0.00669   0.04084
   D137       0.02697  -0.00220   0.00000  -0.00759  -0.00758   0.01939
   D138      -3.07125  -0.00224   0.00000  -0.00773  -0.00773  -3.07898
   D139      -1.32059   0.00080   0.00000   0.00275   0.00274  -1.31785
   D140       0.88970  -0.00073   0.00000  -0.00251  -0.00251   0.88719
   D141       2.93776  -0.00022   0.00000  -0.00077  -0.00077   2.93699
   D142       1.77667   0.00083   0.00000   0.00285   0.00285   1.77952
   D143      -2.29623  -0.00070   0.00000  -0.00240  -0.00240  -2.29863
   D144      -0.24817  -0.00019   0.00000  -0.00066  -0.00066  -0.24883
   D145      -3.04212  -0.00200   0.00000  -0.00688  -0.00688  -3.04900
   D146       1.14013  -0.00146   0.00000  -0.00503  -0.00502   1.13510
   D147      -0.91659  -0.00102   0.00000  -0.00351  -0.00350  -0.92010
   D148       1.02439  -0.00058   0.00000  -0.00198  -0.00199   1.02241
   D149      -1.07655  -0.00004   0.00000  -0.00013  -0.00013  -1.07668
   D150      -3.13327   0.00040   0.00000   0.00139   0.00139  -3.13188
   D151      -1.05650  -0.00063   0.00000  -0.00217  -0.00217  -1.05867
   D152       3.12575  -0.00009   0.00000  -0.00032  -0.00032   3.12543
   D153       1.06903   0.00035   0.00000   0.00120   0.00120   1.07023
   D154       3.06751   0.00230   0.00000   0.00792   0.00792   3.07543
   D155      -1.10804   0.00151   0.00000   0.00521   0.00521  -1.10284
   D156       0.95109   0.00138   0.00000   0.00478   0.00478   0.95587
   D157      -1.00845   0.00014   0.00000   0.00049   0.00049  -1.00796
   D158       1.09917  -0.00064   0.00000  -0.00222  -0.00222   1.09695
   D159      -3.12488  -0.00077   0.00000  -0.00265  -0.00265  -3.12753
   D160       1.06506   0.00079   0.00000   0.00274   0.00274   1.06780
   D161      -3.11050   0.00001   0.00000   0.00002   0.00003  -3.11047
   D162      -1.05136  -0.00012   0.00000  -0.00041  -0.00041  -1.05177
   D163      -0.97229   0.00030   0.00000   0.00103   0.00103  -0.97126
   D164      -3.10146   0.00041   0.00000   0.00143   0.00143  -3.10003
   D165       1.15024   0.00016   0.00000   0.00054   0.00054   1.15078
   D166       1.11766  -0.00014   0.00000  -0.00050  -0.00050   1.11717
   D167      -1.01151  -0.00003   0.00000  -0.00010  -0.00010  -1.01161
   D168      -3.04299  -0.00029   0.00000  -0.00099  -0.00099  -3.04399
   D169      -3.08727  -0.00021   0.00000  -0.00074  -0.00074  -3.08802
   D170       1.06674  -0.00010   0.00000  -0.00034  -0.00035   1.06639
   D171      -0.96475  -0.00036   0.00000  -0.00123  -0.00124  -0.96598
   D172       0.94915   0.00035   0.00000   0.00120   0.00120   0.95034
   D173       3.09347  -0.00031   0.00000  -0.00105  -0.00105   3.09241
   D174      -1.16630   0.00013   0.00000   0.00044   0.00044  -1.16586
   D175      -1.16184   0.00075   0.00000   0.00258   0.00258  -1.15925
   D176       0.98248   0.00010   0.00000   0.00033   0.00033   0.98281
   D177       3.00590   0.00053   0.00000   0.00183   0.00183   3.00773
   D178       3.05345   0.00081   0.00000   0.00279   0.00279   3.05624
   D179      -1.08542   0.00016   0.00000   0.00054   0.00054  -1.08488
   D180       0.93800   0.00059   0.00000   0.00203   0.00204   0.94004
   D181       0.93336   0.00027   0.00000   0.00092   0.00092   0.93428
   D182       3.07895  -0.00020   0.00000  -0.00068  -0.00068   3.07828
   D183      -1.16489  -0.00029   0.00000  -0.00101  -0.00101  -1.16591
   D184       3.04735   0.00068   0.00000   0.00235   0.00235   3.04969
   D185      -1.09025   0.00022   0.00000   0.00075   0.00075  -1.08950
   D186       0.94909   0.00012   0.00000   0.00041   0.00041   0.94950
   D187      -1.18401   0.00046   0.00000   0.00160   0.00160  -1.18240
   D188       0.96159   0.00000   0.00000   0.00001   0.00001   0.96159
   D189       3.00092  -0.00010   0.00000  -0.00033  -0.00033   3.00059
   D190      -0.92426  -0.00062   0.00000  -0.00213  -0.00213  -0.92639
   D191      -3.07097  -0.00032   0.00000  -0.00110  -0.00110  -3.07207
   D192       1.17428  -0.00023   0.00000  -0.00080  -0.00080   1.17348
   D193      -3.05701  -0.00019   0.00000  -0.00064  -0.00064  -3.05766
   D194       1.07947   0.00011   0.00000   0.00039   0.00039   1.07985
   D195      -0.95847   0.00020   0.00000   0.00069   0.00069  -0.95778
   D196       1.18131  -0.00015   0.00000  -0.00050  -0.00050   1.18081
   D197      -0.96540   0.00015   0.00000   0.00053   0.00053  -0.96486
   D198      -3.00333   0.00024   0.00000   0.00083   0.00083  -3.00250
         Item               Value     Threshold  Converged?
 Maximum Force            0.014497     0.000015     NO 
 RMS     Force            0.001587     0.000010     NO 
 Maximum Displacement     0.586468     0.000060     NO 
 RMS     Displacement     0.132200     0.000040     NO 
 Predicted change in Energy=-4.875629D-03
 GradGradGradGradGradGradGradGradGradGradGradGradGradGradGradGradGradGrad

 Leave Link  103 at Thu Dec 20 19:15:12 2018, MaxMem=  1342177280 cpu:               3.3 elap:               0.3
 (Enter /gpfs/apps/hpc/Apps/Restricted/Gaussian/Rev_A.03/g16/l202.exe)
 Symmetry turned off by external request.
 Stoichiometry    C28H37N3O(1+,2)
 Framework group  C1[X(C28H37N3O)]
 Deg. of freedom   201
 Full point group                 C1      NOp   1
                          Input orientation:                          
 ---------------------------------------------------------------------
 Center     Atomic      Atomic             Coordinates (Angstroms)
 Number     Number       Type             X           Y           Z
 ---------------------------------------------------------------------
      1          6           0       -0.513143    2.691696    0.351104
      2          6           0       -1.913713    2.904388    0.272333
      3          6           0       -2.471156    4.178720    0.197905
      4          6           0       -1.592574    5.265562    0.225292
      5          6           0       -0.207185    5.085981    0.293562
      6          6           0        0.366266    3.802784    0.343307
      7          6           0       -1.425871    0.746159    0.373453
      8          1           0       -3.542138    4.324094    0.135865
      9          1           0       -1.994601    6.269824    0.185068
     10          1           0        0.446273    5.950540    0.304761
     11          7           0       -2.449767    1.640444    0.278080
     12          6           0       -3.016170   -1.180630    0.294866
     13          6           0       -1.649346   -0.680435    0.403108
     14          6           0       -0.586321   -1.552485    0.520301
     15          6           0       -0.782823   -2.947640    0.532916
     16          6           0       -2.107820   -3.443316    0.468094
     17          6           0       -3.221684   -2.632719    0.350794
     18          1           0        0.412793   -1.144788    0.601135
     19          1           0       -2.246659   -4.512477    0.508187
     20          6           0        0.424609   -3.872029    0.622417
     21          6           0       -4.639643   -3.199172    0.293180
     22          8           0       -3.960751   -0.371729    0.128638
     23          7           0       -0.230366    1.354171    0.438955
     24          6           0        1.787105    3.655415    0.394710
     25          1           0        2.403692    4.547924    0.375669
     26          7           0        2.392978    2.505326    0.439817
     27          6           0        3.857459    2.335720    0.490272
     28          6           0        4.494439    2.595938   -0.879729
     29          6           0        4.507538    3.179790    1.589056
     30          1           0        4.001415    1.279727    0.733817
     31          6           0        5.994153    2.283329   -0.823700
     32          1           0        4.343672    3.648118   -1.145746
     33          1           0        3.998520    1.984352   -1.637529
     34          6           0        6.012463    2.885328    1.648096
     35          1           0        4.350147    4.244780    1.385721
     36          1           0        4.033343    2.951980    2.547591
     37          6           0        6.691709    3.078468    0.286512
     38          1           0        6.442199    2.513846   -1.794543
     39          1           0        6.134328    1.209062   -0.655953
     40          1           0        6.477353    3.528101    2.400436
     41          1           0        6.155089    1.852296    1.986422
     42          1           0        7.745358    2.792528    0.350182
     43          1           0        6.666164    4.144282    0.026717
     44          1           0       -3.415632    1.332706    0.221588
     45          1           0        1.795929    1.670490    0.399790
     46          6           0       -5.227332   -2.939329   -1.111869
     47          1           0       -6.279824   -3.236953   -1.125974
     48          1           0       -5.159505   -1.885008   -1.378394
     49          1           0       -4.698055   -3.532714   -1.862094
     50          6           0       -5.528567   -2.537701    1.373249
     51          1           0       -5.754105   -1.503700    1.122723
     52          1           0       -6.465149   -3.094485    1.456563
     53          1           0       -5.027318   -2.550547    2.344792
     54          6           0       -4.655515   -4.714527    0.551045
     55          1           0       -4.051180   -5.261455   -0.176537
     56          1           0       -4.287481   -4.953308    1.552735
     57          1           0       -5.683302   -5.074649    0.470155
     58          6           0        0.048260   -5.354743    0.716601
     59          1           0       -0.524669   -5.568308    1.622695
     60          1           0       -0.537380   -5.677164   -0.147977
     61          1           0        0.961849   -5.952247    0.744745
     62          6           0        1.263173   -3.493674    1.864340
     63          1           0        2.139758   -4.144201    1.917478
     64          1           0        1.607470   -2.458427    1.822636
     65          1           0        0.683073   -3.627989    2.780839
     66          6           0        1.288319   -3.646799   -0.641011
     67          1           0        0.711603   -3.843786   -1.548180
     68          1           0        1.657168   -2.619940   -0.688152
     69          1           0        2.146228   -4.323791   -0.623877
 ---------------------------------------------------------------------
 Rotational constants (GHZ):           0.1832260           0.0722758           0.0542079
 Leave Link  202 at Thu Dec 20 19:15:12 2018, MaxMem=  1342177280 cpu:               0.9 elap:               0.1
 (Enter /gpfs/apps/hpc/Apps/Restricted/Gaussian/Rev_A.03/g16/l301.exe)
 Standard basis: 6-31G(d,p) (6D, 7F)
 Ernie: Thresh=  0.10000D-02 Tol=  0.10000D-05 Strict=F.
   665 basis functions,  1155 primitive gaussians,   665 cartesian basis functions
   117 alpha electrons      116 beta electrons
       nuclear repulsion energy      3168.7022414557 Hartrees.
 IExCor=  402 DFT=T Ex+Corr=B3LYP ExCW=0 ScaHFX=  0.200000
 ScaDFX=  0.800000  0.720000  1.000000  0.810000 ScalE2=  1.000000  1.000000
 IRadAn=      5 IRanWt=     -1 IRanGd=            0 ICorTp=0 IEmpDi=141
 NAtoms=   69 NActive=   69 NUniq=   69 SFac= 1.00D+00 NAtFMM=   60 NAOKFM=T Big=T
 Integral buffers will be    131072 words long.
 Raffenetti 2 integral format.
 Two-electron integral symmetry is turned off.
 R6Disp:  Grimme-D3(BJ) Dispersion energy=       -0.1497520275 Hartrees.
 Nuclear repulsion after empirical dispersion term =     3168.5524894282 Hartrees.
 ------------------------------------------------------------------------------
 Polarizable Continuum Model (PCM)
 =================================
 Model                : C-PCM.
 Atomic radii         : Bondi.
 Polarization charges : Total charges.
 Charge compensation  : None.
 Solution method      : On-the-fly selection.
 Cavity type          : Scaled VdW (van der Waals Surface) (Alpha=1.100).
 Cavity algorithm     : GePol (No added spheres)
                        Default sphere list used, NSphG=   69.
                        Lebedev-Laikov grids with approx.  5.0 points / Ang**2.
                        Smoothing algorithm: York/Karplus (Gamma=1.0000).
                        Polarization charges: spherical gaussians, with
                                              point-specific exponents (IZeta= 3).
                        Self-potential: point-specific (ISelfS= 7).
                        Self-field    : sphere-specific E.n sum rule (ISelfD= 2).
 1st derivatives      : Analytical E(r).r(x)/FMM algorithm (CHGder, D1EAlg=3).
                        Cavity 1st derivative terms included.
 Solvent              : Dichloromethane, Eps=   8.930000 Eps(inf)=   2.028346
 ------------------------------------------------------------------------------
 GePol: Number of generator spheres                  =      69
 GePol: Total number of spheres                      =      69
 GePol: Number of exposed spheres                    =      69 (100.00%)
 GePol: Number of points                             =    4348
 GePol: Average weight of points                     =       0.12
 GePol: Minimum weight of points                     =   0.30D-11
 GePol: Maximum weight of points                     =    0.21770
 GePol: Number of points with low weight             =     317
 GePol: Fraction of low-weight points (<1% of avg)   =       7.29%
 GePol: Cavity surface area                          =    519.683 Ang**2
 GePol: Cavity volume                                =    500.465 Ang**3
 PCM non-electrostatic energy =         0.0259472734 Hartrees.
 Nuclear repulsion after PCM non-electrostatic terms =     3168.5784367015 Hartrees.
 Leave Link  301 at Thu Dec 20 19:15:13 2018, MaxMem=  1342177280 cpu:               3.2 elap:               0.2
 (Enter /gpfs/apps/hpc/Apps/Restricted/Gaussian/Rev_A.03/g16/l302.exe)
 NPDir=0 NMtPBC=     1 NCelOv=     1 NCel=       1 NClECP=     1 NCelD=      1
         NCelK=      1 NCelE2=     1 NClLst=     1 CellRange=     0.0.
 One-electron integrals computed using PRISM.
 NBasis=   665 RedAO= T EigKep=  3.13D-04  NBF=   665
 NBsUse=   665 1.00D-06 EigRej= -1.00D+00 NBFU=   665
 Precomputing XC quadrature grid using
 IXCGrd= 4 IRadAn=           5 IRanWt=          -1 IRanGd=           0 AccXCQ= 0.00D+00.
 Generated NRdTot=       0 NPtTot=           0 NUsed=           0 NTot=          32
 NSgBfM=   647   647   647   647   647 MxSgAt=    69 MxSgA2=    69.
 Leave Link  302 at Thu Dec 20 19:15:14 2018, MaxMem=  1342177280 cpu:              16.0 elap:               1.0
 (Enter /gpfs/apps/hpc/Apps/Restricted/Gaussian/Rev_A.03/g16/l303.exe)
 DipDrv:  MaxL=1.
 Leave Link  303 at Thu Dec 20 19:15:14 2018, MaxMem=  1342177280 cpu:               2.1 elap:               0.2
 (Enter /gpfs/apps/hpc/Apps/Restricted/Gaussian/Rev_A.03/g16/l401.exe)
 Initial guess from the checkpoint file:  "cyclohexyl-monoBIP-E2PT.chk"
 B after Tr=     0.025056   -0.020222    0.003182
         Rot=    1.000000   -0.000017   -0.000055   -0.000514 Ang=  -0.06 deg.
 Guess basis will be translated and rotated to current coordinates.
 JPrj=2 DoOrth=T DoCkMO=T.
 Initial guess <Sx>= 0.0000 <Sy>= 0.0000 <Sz>= 0.5000 <S**2>= 0.7741 S= 0.5120
 Generating alternative initial guess.
 ExpMin= 1.61D-01 ExpMax= 5.48D+03 ExpMxC= 8.25D+02 IAcc=2 IRadAn=         4 AccDes= 0.00D+00
 Harris functional with IExCor=  402 and IRadAn=       4 diagonalized for initial guess.
 HarFok:  IExCor=  402 AccDes= 0.00D+00 IRadAn=         4 IDoV= 1 UseB2=F ITyADJ=14
 ICtDFT=  3500011 ScaDFX=  1.000000  1.000000  1.000000  1.000000
 FoFCou: FMM=F IPFlag=           0 FMFlag=      100000 FMFlg1=        2001
         NFxFlg=           0 DoJE=T BraDBF=F KetDBF=T FulRan=T
         wScrn=  0.000000 ICntrl=       500 IOpCl=  0 I1Cent=   200000004 NGrid=           0
         NMat0=    1 NMatS0=      1 NMatT0=    0 NMatD0=    1 NMtDS0=    0 NMtDT0=    0
 Symmetry not used in FoFCou.
 Harris En= -1328.79125744042    
 Leave Link  401 at Thu Dec 20 19:15:17 2018, MaxMem=  1342177280 cpu:              51.5 elap:               3.3
 (Enter /gpfs/apps/hpc/Apps/Restricted/Gaussian/Rev_A.03/g16/l502.exe)
 Two-electron integral symmetry not used.
 UHF open shell SCF:
 Using DIIS extrapolation, IDIIS=  1040.
 NGot=  1342177280 LenX=  1341276554 LenY=  1340833664
 Requested convergence on RMS density matrix=1.00D-08 within 128 cycles.
 Requested convergence on MAX density matrix=1.00D-06.
 Requested convergence on             energy=1.00D-06.
 No special actions if energy rises.
 Fock matrices will be formed incrementally for  20 cycles.

 Cycle   1  Pass 1  IDiag  1:
 FoFJK:  IHMeth= 1 ICntrl=       0 DoSepK=F KAlg= 0 I1Cent=           0 FoldK=F
 IRaf= 760000000 NMat=       1 IRICut=       1 DoRegI=T DoRafI=F ISym2E= 0 IDoP0=0 IntGTp=1.
 FoFCou: FMM=T IPFlag=           0 FMFlag=      100000 FMFlg1=        2001
         NFxFlg=           0 DoJE=F BraDBF=F KetDBF=F FulRan=T
         wScrn=  0.000000 ICntrl=         0 IOpCl=  1 I1Cent=           0 NGrid=           0
         NMat0=    1 NMatS0=      1 NMatT0=    0 NMatD0=    1 NMtDS0=    0 NMtDT0=    0
 Symmetry not used in FoFCou.
 FMM levels:  10  Number of levels for PrismC:   9
 Inv3:  Mode=1 IEnd=    56715312.
 Iteration    1 A*A^-1 deviation from unit magnitude is 9.88D-15 for   4347.
 Iteration    1 A*A^-1 deviation from orthogonality  is 5.27D-15 for   4347   1997.
 Iteration    1 A^-1*A deviation from unit magnitude is 9.66D-15 for   4347.
 Iteration    1 A^-1*A deviation from orthogonality  is 3.24D-15 for   3981   1607.
 E= -1328.80238609809    
 DIIS: error= 3.42D-03 at cycle   1 NSaved=   1.
 NSaved= 1 IEnMin= 1 EnMin= -1328.80238609809     IErMin= 1 ErrMin= 3.42D-03
 ErrMax= 3.42D-03  0.00D+00 EMaxC= 1.00D-01 BMatC= 5.45D-02 BMatP= 5.45D-02
 IDIUse=3 WtCom= 9.66D-01 WtEn= 3.42D-02
 Coeff-Com:  0.100D+01
 Coeff-En:   0.100D+01
 Coeff:      0.100D+01
 Gap=     1.679 Goal=   None    Shift=    0.000
 Gap=     1.698 Goal=   None    Shift=    0.000
 GapD=    1.679 DampG=2.000 DampE=1.000 DampFc=2.0000 IDamp=-1.
 RMSDP=2.95D-04 MaxDP=2.00D-02              OVMax= 2.19D-02

 Cycle   2  Pass 1  IDiag  1:
 RMSU=  2.95D-04    CP:  9.99D-01
