 Entering Gaussian System, Link 0=g16
 Initial command:
 /gpfs/apps/hpc/Apps/Restricted/Gaussian/Rev_A.03/g16/l1.exe "/gpfs/scratch60/fas/hammes_schiffer/jg2487/c42n04/Gau-386280.inp" -scrdir="/gpfs/scratch60/fas/hammes_schiffer/jg2487/c42n04/"
 Entering Link 1 = /gpfs/apps/hpc/Apps/Restricted/Gaussian/Rev_A.03/g16/l1.exe PID=    386281.
  
 Copyright (c) 1988,1990,1992,1993,1995,1998,2003,2009,2016,
            Gaussian, Inc.  All Rights Reserved.
  
 This is part of the Gaussian(R) 16 program.  It is based on
 the Gaussian(R) 09 system (copyright 2009, Gaussian, Inc.),
 the Gaussian(R) 03 system (copyright 2003, Gaussian, Inc.),
 the Gaussian(R) 98 system (copyright 1998, Gaussian, Inc.),
 the Gaussian(R) 94 system (copyright 1995, Gaussian, Inc.),
 the Gaussian 92(TM) system (copyright 1992, Gaussian, Inc.),
 the Gaussian 90(TM) system (copyright 1990, Gaussian, Inc.),
 the Gaussian 88(TM) system (copyright 1988, Gaussian, Inc.),
 the Gaussian 86(TM) system (copyright 1986, Carnegie Mellon
 University), and the Gaussian 82(TM) system (copyright 1983,
 Carnegie Mellon University). Gaussian is a federally registered
 trademark of Gaussian, Inc.
  
 This software contains proprietary and confidential information,
 including trade secrets, belonging to Gaussian, Inc.
  
 This software is provided under written license and may be
 used, copied, transmitted, or stored only in accord with that
 written license.
  
 The following legend is applicable only to US Government
 contracts under FAR:
  
                    RESTRICTED RIGHTS LEGEND
  
 Use, reproduction and disclosure by the US Government is
 subject to restrictions as set forth in subparagraphs (a)
 and (c) of the Commercial Computer Software - Restricted
 Rights clause in FAR 52.227-19.
  
 Gaussian, Inc.
 340 Quinnipiac St., Bldg. 40, Wallingford CT 06492
  
  
 ---------------------------------------------------------------
 Warning -- This program may not be used in any manner that
 competes with the business of Gaussian, Inc. or will provide
 assistance to any competitor of Gaussian, Inc.  The licensee
 of this program is prohibited from giving any competitor of
 Gaussian, Inc. access to this program.  By using this program,
 the user acknowledges that Gaussian, Inc. is engaged in the
 business of creating and licensing software in the field of
 computational chemistry and represents and warrants to the
 licensee that it is not a competitor of Gaussian, Inc. and that
 it will not use this program in any manner prohibited above.
 ---------------------------------------------------------------
  

 Cite this work as:
 Gaussian 16, Revision A.03,
 M. J. Frisch, G. W. Trucks, H. B. Schlegel, G. E. Scuseria, 
 M. A. Robb, J. R. Cheeseman, G. Scalmani, V. Barone, 
 G. A. Petersson, H. Nakatsuji, X. Li, M. Caricato, A. V. Marenich, 
 J. Bloino, B. G. Janesko, R. Gomperts, B. Mennucci, H. P. Hratchian, 
 J. V. Ortiz, A. F. Izmaylov, J. L. Sonnenberg, D. Williams-Young, 
 F. Ding, F. Lipparini, F. Egidi, J. Goings, B. Peng, A. Petrone, 
 T. Henderson, D. Ranasinghe, V. G. Zakrzewski, J. Gao, N. Rega, 
 G. Zheng, W. Liang, M. Hada, M. Ehara, K. Toyota, R. Fukuda, 
 J. Hasegawa, M. Ishida, T. Nakajima, Y. Honda, O. Kitao, H. Nakai, 
 T. Vreven, K. Throssell, J. A. Montgomery, Jr., J. E. Peralta, 
 F. Ogliaro, M. J. Bearpark, J. J. Heyd, E. N. Brothers, K. N. Kudin, 
 V. N. Staroverov, T. A. Keith, R. Kobayashi, J. Normand, 
 K. Raghavachari, A. P. Rendell, J. C. Burant, S. S. Iyengar, 
 J. Tomasi, M. Cossi, J. M. Millam, M. Klene, C. Adamo, R. Cammi, 
 J. W. Ochterski, R. L. Martin, K. Morokuma, O. Farkas, 
 J. B. Foresman, and D. J. Fox, Gaussian, Inc., Wallingford CT, 2016.
 
 ******************************************
 Gaussian 16:  ES64L-G16RevA.03 25-Dec-2016
                21-Dec-2018 
 ******************************************
 %chk=cyclohexyl-monoBIP-E2PT.chk
 %mem=10GB
 %nprocshared=16
 Will use up to   16 processors via shared memory.
 ----------------------------------------------------------------------
 #p opt=tight freq=internalmodes b3lyp/6-31g(d,p) scrf=(cpcm,solvent=di
 chloromethane,read) nosymm empiricaldispersion=gd3bj int=grid=ultrafin
 e
 ----------------------------------------------------------------------
 1/7=10,18=20,19=15,26=6,38=1,40=2/1,3;
 2/9=110,12=2,15=1,17=6,18=5,40=1/2;
 3/5=1,6=6,7=101,11=2,25=1,30=1,70=2103,71=1,72=9,74=-5,75=-5,124=41/1,2,3;
 4//1;
 5/5=2,38=5,53=9/2;
 6/7=2,8=2,9=2,10=2,28=1/1;
 7/30=1/1,2,3,16;
 1/7=10,18=20,19=15,26=6/3(2);
 2/9=110,15=1/2;
 99//99;
 2/9=110,15=1/2;
 3/5=1,6=6,7=101,11=2,25=1,30=1,70=2105,71=1,72=9,74=-5,75=-5,124=41/1,2,3;
 4/5=5,16=3,69=1/1;
 5/5=2,38=5,53=9/2;
 7/30=1/1,2,3,16;
 1/7=10,18=20,19=15,26=6/3(-5);
 2/9=110,15=1/2;
 6/7=2,8=2,9=2,10=2,19=2,28=1/1;
 99/9=1/99;
 Leave Link    1 at Fri Dec 21 16:03:21 2018, MaxMem=  1342177280 cpu:               8.9 elap:               0.6
 (Enter /gpfs/apps/hpc/Apps/Restricted/Gaussian/Rev_A.03/g16/l101.exe)
 ----------------------------------------------------------------------
 cyclohexylimine monoBIP oxidized, with both protons transferred optimi
 zation
 ----------------------------------------------------------------------
 Symbolic Z-matrix:
 Charge =  1 Multiplicity = 2
 C                    -0.52807   2.74257   0.4042 
 C                    -1.92144   2.98042   0.30106 
 C                    -2.4517    4.26581   0.21285 
 C                    -1.55055   5.33455   0.23621 
 C                    -0.1709    5.12803   0.34149 
 C                     0.37314   3.83399   0.42214 
 C                    -1.47638   0.80968   0.40758 
 H                    -3.51802   4.43186   0.1273 
 H                    -1.93037   6.34631   0.17212 
 H                     0.49962   5.97927   0.3594 
 N                    -2.48318   1.72659   0.30658 
 C                    -3.06096  -1.1686    0.32287 
 C                    -1.70032  -0.62425   0.43783 
 C                    -0.61876  -1.47215   0.56404 
 C                    -0.77827  -2.87126   0.5914 
 C                    -2.08251  -3.40457   0.48172 
 C                    -3.21636  -2.62805   0.34621 
 H                     0.37107  -1.04112   0.64195 
 H                    -2.19238  -4.47749   0.50326 
 C                     0.4592   -3.7521    0.71378 
 C                    -4.60681  -3.24588   0.21624 
 O                    -4.05036  -0.39843   0.20642 
 N                    -0.27065   1.4005    0.46858 
 C                     1.78797   3.65051   0.50348 
 H                     2.43018   4.52409   0.51682 
 N                     2.3551    2.48304   0.55539 
 C                     3.8117    2.24042   0.57823 
 C                     4.37411   2.28326  -0.85176 
 C                     4.5455    3.21653   1.50222 
 H                     3.92068   1.22748   0.97287 
 C                     5.88189   2.00878  -0.84566 
 H                     4.17503   3.27727  -1.2681 
 H                     3.84959   1.55551  -1.47666 
 C                     6.04953   2.91956   1.50342 
 H                     4.39365   4.24209   1.14943 
 H                     4.12961   3.15019   2.51093 
 C                     6.62641   2.97198   0.08454 
 H                     6.2677    2.08111  -1.86617 
 H                     6.05673   0.97885  -0.51292 
 H                     6.55698   3.63785   2.15322 
 H                     6.22446   1.92517   1.93104 
 H                     7.69293   2.73073   0.10175 
 H                     6.5372    3.99412  -0.30345 
 H                    -3.45466   1.43451   0.24529 
 H                     1.72553   1.67189   0.51937 
 C                    -5.22058  -2.85512  -1.14716 
 H                    -6.21585  -3.29928  -1.23563 
 H                    -5.31069  -1.77448  -1.24673 
 H                    -4.60658  -3.23266  -1.96907 
 C                    -5.51332  -2.74236   1.36194 
 H                    -5.6406   -1.6626    1.31498 
 H                    -6.49493  -3.21753   1.28214 
 H                    -5.08502  -3.00335   2.3335 
 C                    -4.55657  -4.77995   0.29206 
 H                    -3.95318  -5.20844  -0.51241 
 H                    -4.15211  -5.12325   1.24779 
 H                    -5.57144  -5.17152   0.19565 
 C                     0.11895  -5.24746   0.75755 
 H                    -0.50133  -5.49608   1.62266 
 H                    -0.40405  -5.56705  -0.14717 
 H                     1.04327  -5.82445   0.83109 
 C                     1.2221   -3.37702   2.00236 
 H                     2.12227  -3.99168   2.08218 
 H                     1.52709  -2.32814   1.99899 
 H                     0.60628  -3.55421   2.8871 
 C                     1.36547  -3.48218  -0.50834 
 H                     0.8549   -3.74993  -1.43663 
 H                     1.65181  -2.42965  -0.56556 
 H                     2.27645  -4.08124  -0.43071 
 
 ITRead=  0  0  0  0  0  0  0  0  0  0  0  0  0  0  0  0  0  0  0  0
 ITRead=  0  0  0  0  0  0  0  0  0  0  0  0  0  0  0  0  0  0  0  0
 ITRead=  0  0  0  0  0  0  0  0  0  0  0  0  0  0  0  0  0  0  0  0
 ITRead=  0  0  0  0  0  0  0  0  0
 MicOpt= -1 -1 -1 -1 -1 -1 -1 -1 -1 -1 -1 -1 -1 -1 -1 -1 -1 -1 -1 -1
 MicOpt= -1 -1 -1 -1 -1 -1 -1 -1 -1 -1 -1 -1 -1 -1 -1 -1 -1 -1 -1 -1
 MicOpt= -1 -1 -1 -1 -1 -1 -1 -1 -1 -1 -1 -1 -1 -1 -1 -1 -1 -1 -1 -1
 MicOpt= -1 -1 -1 -1 -1 -1 -1 -1 -1
 NAtoms=     69 NQM=       69 NQMF=       0 NMMI=      0 NMMIF=      0
                NMic=       0 NMicF=      0.
                    Isotopes and Nuclear Properties:
 (Nuclear quadrupole moments (NQMom) in fm**2, nuclear magnetic moments (NMagM)
  in nuclear magnetons)

  Atom         1           2           3           4           5           6           7           8           9          10
 IAtWgt=          12          12          12          12          12          12          12           1           1           1
 AtmWgt=  12.0000000  12.0000000  12.0000000  12.0000000  12.0000000  12.0000000  12.0000000   1.0078250   1.0078250   1.0078250
 NucSpn=           0           0           0           0           0           0           0           1           1           1
 AtZEff=  -0.0000000  -0.0000000  -0.0000000  -0.0000000  -0.0000000  -0.0000000  -0.0000000  -0.0000000  -0.0000000  -0.0000000
 NQMom=    0.0000000   0.0000000   0.0000000   0.0000000   0.0000000   0.0000000   0.0000000   0.0000000   0.0000000   0.0000000
 NMagM=    0.0000000   0.0000000   0.0000000   0.0000000   0.0000000   0.0000000   0.0000000   2.7928460   2.7928460   2.7928460
 AtZNuc=   6.0000000   6.0000000   6.0000000   6.0000000   6.0000000   6.0000000   6.0000000   1.0000000   1.0000000   1.0000000

  Atom        11          12          13          14          15          16          17          18          19          20
 IAtWgt=          14          12          12          12          12          12          12           1           1          12
 AtmWgt=  14.0030740  12.0000000  12.0000000  12.0000000  12.0000000  12.0000000  12.0000000   1.0078250   1.0078250  12.0000000
 NucSpn=           2           0           0           0           0           0           0           1           1           0
 AtZEff=  -0.0000000  -0.0000000  -0.0000000  -0.0000000  -0.0000000  -0.0000000  -0.0000000  -0.0000000  -0.0000000  -0.0000000
 NQMom=    2.0440000   0.0000000   0.0000000   0.0000000   0.0000000   0.0000000   0.0000000   0.0000000   0.0000000   0.0000000
 NMagM=    0.4037610   0.0000000   0.0000000   0.0000000   0.0000000   0.0000000   0.0000000   2.7928460   2.7928460   0.0000000
 AtZNuc=   7.0000000   6.0000000   6.0000000   6.0000000   6.0000000   6.0000000   6.0000000   1.0000000   1.0000000   6.0000000

  Atom        21          22          23          24          25          26          27          28          29          30
 IAtWgt=          12          16          14          12           1          14          12          12          12           1
 AtmWgt=  12.0000000  15.9949146  14.0030740  12.0000000   1.0078250  14.0030740  12.0000000  12.0000000  12.0000000   1.0078250
 NucSpn=           0           0           2           0           1           2           0           0           0           1
 AtZEff=  -0.0000000  -0.0000000  -0.0000000  -0.0000000  -0.0000000  -0.0000000  -0.0000000  -0.0000000  -0.0000000  -0.0000000
 NQMom=    0.0000000   0.0000000   2.0440000   0.0000000   0.0000000   2.0440000   0.0000000   0.0000000   0.0000000   0.0000000
 NMagM=    0.0000000   0.0000000   0.4037610   0.0000000   2.7928460   0.4037610   0.0000000   0.0000000   0.0000000   2.7928460
 AtZNuc=   6.0000000   8.0000000   7.0000000   6.0000000   1.0000000   7.0000000   6.0000000   6.0000000   6.0000000   1.0000000

  Atom        31          32          33          34          35          36          37          38          39          40
 IAtWgt=          12           1           1          12           1           1          12           1           1           1
 AtmWgt=  12.0000000   1.0078250   1.0078250  12.0000000   1.0078250   1.0078250  12.0000000   1.0078250   1.0078250   1.0078250
 NucSpn=           0           1           1           0           1           1           0           1           1           1
 AtZEff=  -0.0000000  -0.0000000  -0.0000000  -0.0000000  -0.0000000  -0.0000000  -0.0000000  -0.0000000  -0.0000000  -0.0000000
 NQMom=    0.0000000   0.0000000   0.0000000   0.0000000   0.0000000   0.0000000   0.0000000   0.0000000   0.0000000   0.0000000
 NMagM=    0.0000000   2.7928460   2.7928460   0.0000000   2.7928460   2.7928460   0.0000000   2.7928460   2.7928460   2.7928460
 AtZNuc=   6.0000000   1.0000000   1.0000000   6.0000000   1.0000000   1.0000000   6.0000000   1.0000000   1.0000000   1.0000000

  Atom        41          42          43          44          45          46          47          48          49          50
 IAtWgt=           1           1           1           1           1          12           1           1           1          12
 AtmWgt=   1.0078250   1.0078250   1.0078250   1.0078250   1.0078250  12.0000000   1.0078250   1.0078250   1.0078250  12.0000000
 NucSpn=           1           1           1           1           1           0           1           1           1           0
 AtZEff=  -0.0000000  -0.0000000  -0.0000000  -0.0000000  -0.0000000  -0.0000000  -0.0000000  -0.0000000  -0.0000000  -0.0000000
 NQMom=    0.0000000   0.0000000   0.0000000   0.0000000   0.0000000   0.0000000   0.0000000   0.0000000   0.0000000   0.0000000
 NMagM=    2.7928460   2.7928460   2.7928460   2.7928460   2.7928460   0.0000000   2.7928460   2.7928460   2.7928460   0.0000000
 AtZNuc=   1.0000000   1.0000000   1.0000000   1.0000000   1.0000000   6.0000000   1.0000000   1.0000000   1.0000000   6.0000000

  Atom        51          52          53          54          55          56          57          58          59          60
 IAtWgt=           1           1           1          12           1           1           1          12           1           1
 AtmWgt=   1.0078250   1.0078250   1.0078250  12.0000000   1.0078250   1.0078250   1.0078250  12.0000000   1.0078250   1.0078250
 NucSpn=           1           1           1           0           1           1           1           0           1           1
 AtZEff=  -0.0000000  -0.0000000  -0.0000000  -0.0000000  -0.0000000  -0.0000000  -0.0000000  -0.0000000  -0.0000000  -0.0000000
 NQMom=    0.0000000   0.0000000   0.0000000   0.0000000   0.0000000   0.0000000   0.0000000   0.0000000   0.0000000   0.0000000
 NMagM=    2.7928460   2.7928460   2.7928460   0.0000000   2.7928460   2.7928460   2.7928460   0.0000000   2.7928460   2.7928460
 AtZNuc=   1.0000000   1.0000000   1.0000000   6.0000000   1.0000000   1.0000000   1.0000000   6.0000000   1.0000000   1.0000000

  Atom        61          62          63          64          65          66          67          68          69
 IAtWgt=           1          12           1           1           1          12           1           1           1
 AtmWgt=   1.0078250  12.0000000   1.0078250   1.0078250   1.0078250  12.0000000   1.0078250   1.0078250   1.0078250
 NucSpn=           1           0           1           1           1           0           1           1           1
 AtZEff=  -0.0000000  -0.0000000  -0.0000000  -0.0000000  -0.0000000  -0.0000000  -0.0000000  -0.0000000  -0.0000000
 NQMom=    0.0000000   0.0000000   0.0000000   0.0000000   0.0000000   0.0000000   0.0000000   0.0000000   0.0000000
 NMagM=    2.7928460   0.0000000   2.7928460   2.7928460   2.7928460   0.0000000   2.7928460   2.7928460   2.7928460
 AtZNuc=   1.0000000   6.0000000   1.0000000   1.0000000   1.0000000   6.0000000   1.0000000   1.0000000   1.0000000
 Leave Link  101 at Fri Dec 21 16:03:21 2018, MaxMem=  1342177280 cpu:               7.5 elap:               0.5
 (Enter /gpfs/apps/hpc/Apps/Restricted/Gaussian/Rev_A.03/g16/l103.exe)

 GradGradGradGradGradGradGradGradGradGradGradGradGradGradGradGradGradGrad
 Berny optimization.
 Initialization pass.
                           ----------------------------
                           !    Initial Parameters    !
                           ! (Angstroms and Degrees)  !
 --------------------------                            --------------------------
 ! Name  Definition              Value          Derivative Info.                !
 --------------------------------------------------------------------------------
 ! R1    R(1,2)                  1.4173         estimate D2E/DX2                !
 ! R2    R(1,6)                  1.4155         estimate D2E/DX2                !
 ! R3    R(1,23)                 1.368          estimate D2E/DX2                !
 ! R4    R(2,3)                  1.3933         estimate D2E/DX2                !
 ! R5    R(2,11)                 1.3739         estimate D2E/DX2                !
 ! R6    R(3,4)                  1.3981         estimate D2E/DX2                !
 ! R7    R(3,8)                  1.0826         estimate D2E/DX2                !
 ! R8    R(4,5)                  1.399          estimate D2E/DX2                !
 ! R9    R(4,9)                  1.0826         estimate D2E/DX2                !
 ! R10   R(5,6)                  1.4061         estimate D2E/DX2                !
 ! R11   R(5,10)                 1.0838         estimate D2E/DX2                !
 ! R12   R(6,24)                 1.429          estimate D2E/DX2                !
 ! R13   R(7,11)                 1.3655         estimate D2E/DX2                !
 ! R14   R(7,13)                 1.4516         estimate D2E/DX2                !
 ! R15   R(7,23)                 1.3441         estimate D2E/DX2                !
 ! R16   R(11,44)                1.0163         estimate D2E/DX2                !
 ! R17   R(12,13)                1.47           estimate D2E/DX2                !
 ! R18   R(12,17)                1.4679         estimate D2E/DX2                !
 ! R19   R(12,22)                1.2592         estimate D2E/DX2                !
 ! R20   R(13,14)                1.3801         estimate D2E/DX2                !
 ! R21   R(14,15)                1.4084         estimate D2E/DX2                !
 ! R22   R(14,18)                1.0824         estimate D2E/DX2                !
 ! R23   R(15,16)                1.4133         estimate D2E/DX2                !
 ! R24   R(15,20)                1.5239         estimate D2E/DX2                !
 ! R25   R(16,17)                1.3809         estimate D2E/DX2                !
 ! R26   R(16,19)                1.0787         estimate D2E/DX2                !
 ! R27   R(17,21)                1.5271         estimate D2E/DX2                !
 ! R28   R(20,58)                1.5342         estimate D2E/DX2                !
 ! R29   R(20,62)                1.5437         estimate D2E/DX2                !
 ! R30   R(20,66)                1.5452         estimate D2E/DX2                !
 ! R31   R(21,46)                1.5454         estimate D2E/DX2                !
 ! R32   R(21,50)                1.5453         estimate D2E/DX2                !
 ! R33   R(21,54)                1.5368         estimate D2E/DX2                !
 ! R34   R(24,25)                1.0843         estimate D2E/DX2                !
 ! R35   R(24,26)                1.299          estimate D2E/DX2                !
 ! R36   R(26,27)                1.4768         estimate D2E/DX2                !
 ! R37   R(26,45)                1.0274         estimate D2E/DX2                !
 ! R38   R(27,28)                1.5372         estimate D2E/DX2                !
 ! R39   R(27,29)                1.5313         estimate D2E/DX2                !
 ! R40   R(27,30)                1.0925         estimate D2E/DX2                !
 ! R41   R(28,31)                1.5326         estimate D2E/DX2                !
 ! R42   R(28,32)                1.0959         estimate D2E/DX2                !
 ! R43   R(28,33)                1.0933         estimate D2E/DX2                !
 ! R44   R(29,34)                1.5331         estimate D2E/DX2                !
 ! R45   R(29,35)                1.0951         estimate D2E/DX2                !
 ! R46   R(29,36)                1.0931         estimate D2E/DX2                !
 ! R47   R(31,37)                1.5321         estimate D2E/DX2                !
 ! R48   R(31,38)                1.0934         estimate D2E/DX2                !
 ! R49   R(31,39)                1.0964         estimate D2E/DX2                !
 ! R50   R(34,37)                1.5326         estimate D2E/DX2                !
 ! R51   R(34,40)                1.0935         estimate D2E/DX2                !
 ! R52   R(34,41)                1.0965         estimate D2E/DX2                !
 ! R53   R(37,42)                1.0936         estimate D2E/DX2                !
 ! R54   R(37,43)                1.0969         estimate D2E/DX2                !
 ! R55   R(46,47)                1.0935         estimate D2E/DX2                !
 ! R56   R(46,48)                1.0889         estimate D2E/DX2                !
 ! R57   R(46,49)                1.0932         estimate D2E/DX2                !
 ! R58   R(50,51)                1.0882         estimate D2E/DX2                !
 ! R59   R(50,52)                1.0935         estimate D2E/DX2                !
 ! R60   R(50,53)                1.0934         estimate D2E/DX2                !
 ! R61   R(54,55)                1.0931         estimate D2E/DX2                !
 ! R62   R(54,56)                1.0931         estimate D2E/DX2                !
 ! R63   R(54,57)                1.092          estimate D2E/DX2                !
 ! R64   R(58,59)                1.0932         estimate D2E/DX2                !
 ! R65   R(58,60)                1.0928         estimate D2E/DX2                !
 ! R66   R(58,61)                1.0921         estimate D2E/DX2                !
 ! R67   R(62,63)                1.0929         estimate D2E/DX2                !
 ! R68   R(62,64)                1.0923         estimate D2E/DX2                !
 ! R69   R(62,65)                1.0924         estimate D2E/DX2                !
 ! R70   R(66,67)                1.0927         estimate D2E/DX2                !
 ! R71   R(66,68)                1.0923         estimate D2E/DX2                !
 ! R72   R(66,69)                1.0931         estimate D2E/DX2                !
 ! A1    A(2,1,6)              119.8313         estimate D2E/DX2                !
 ! A2    A(2,1,23)             110.674          estimate D2E/DX2                !
 ! A3    A(6,1,23)             129.4941         estimate D2E/DX2                !
 ! A4    A(1,2,3)              122.2494         estimate D2E/DX2                !
 ! A5    A(1,2,11)             104.3898         estimate D2E/DX2                !
 ! A6    A(3,2,11)             133.3596         estimate D2E/DX2                !
 ! A7    A(2,3,4)              117.3128         estimate D2E/DX2                !
 ! A8    A(2,3,8)              121.4261         estimate D2E/DX2                !
 ! A9    A(4,3,8)              121.261          estimate D2E/DX2                !
 ! A10   A(3,4,5)              121.6039         estimate D2E/DX2                !
 ! A11   A(3,4,9)              119.1606         estimate D2E/DX2                !
 ! A12   A(5,4,9)              119.2355         estimate D2E/DX2                !
 ! A13   A(4,5,6)              121.4492         estimate D2E/DX2                !
 ! A14   A(4,5,10)             119.6995         estimate D2E/DX2                !
 ! A15   A(6,5,10)             118.851          estimate D2E/DX2                !
 ! A16   A(1,6,5)              117.5513         estimate D2E/DX2                !
 ! A17   A(1,6,24)             122.146          estimate D2E/DX2                !
 ! A18   A(5,6,24)             120.2991         estimate D2E/DX2                !
 ! A19   A(11,7,13)            123.4425         estimate D2E/DX2                !
 ! A20   A(11,7,23)            111.6915         estimate D2E/DX2                !
 ! A21   A(13,7,23)            124.8654         estimate D2E/DX2                !
 ! A22   A(2,11,7)             108.1576         estimate D2E/DX2                !
 ! A23   A(2,11,44)            130.7583         estimate D2E/DX2                !
 ! A24   A(7,11,44)            121.0831         estimate D2E/DX2                !
 ! A25   A(13,12,17)           117.7051         estimate D2E/DX2                !
 ! A26   A(13,12,22)           120.5318         estimate D2E/DX2                !
 ! A27   A(17,12,22)           121.7629         estimate D2E/DX2                !
 ! A28   A(7,13,12)            120.4611         estimate D2E/DX2                !
 ! A29   A(7,13,14)            119.2027         estimate D2E/DX2                !
 ! A30   A(12,13,14)           120.3338         estimate D2E/DX2                !
 ! A31   A(13,14,15)           121.5559         estimate D2E/DX2                !
 ! A32   A(13,14,18)           118.5934         estimate D2E/DX2                !
 ! A33   A(15,14,18)           119.8506         estimate D2E/DX2                !
 ! A34   A(14,15,16)           118.5454         estimate D2E/DX2                !
 ! A35   A(14,15,20)           118.9332         estimate D2E/DX2                !
 ! A36   A(16,15,20)           122.513          estimate D2E/DX2                !
 ! A37   A(15,16,17)           123.5815         estimate D2E/DX2                !
 ! A38   A(15,16,19)           117.888          estimate D2E/DX2                !
 ! A39   A(17,16,19)           118.5303         estimate D2E/DX2                !
 ! A40   A(12,17,16)           118.2768         estimate D2E/DX2                !
 ! A41   A(12,17,21)           119.8211         estimate D2E/DX2                !
 ! A42   A(16,17,21)           121.9016         estimate D2E/DX2                !
 ! A43   A(15,20,58)           112.6802         estimate D2E/DX2                !
 ! A44   A(15,20,62)           109.1416         estimate D2E/DX2                !
 ! A45   A(15,20,66)           108.1663         estimate D2E/DX2                !
 ! A46   A(58,20,62)           108.8207         estimate D2E/DX2                !
 ! A47   A(58,20,66)           108.8375         estimate D2E/DX2                !
 ! A48   A(62,20,66)           109.1407         estimate D2E/DX2                !
 ! A49   A(17,21,46)           109.5373         estimate D2E/DX2                !
 ! A50   A(17,21,50)           109.8288         estimate D2E/DX2                !
 ! A51   A(17,21,54)           111.7099         estimate D2E/DX2                !
 ! A52   A(46,21,50)           109.7992         estimate D2E/DX2                !
 ! A53   A(46,21,54)           107.9941         estimate D2E/DX2                !
 ! A54   A(50,21,54)           107.9306         estimate D2E/DX2                !
 ! A55   A(1,23,7)             105.0871         estimate D2E/DX2                !
 ! A56   A(6,24,25)            118.9247         estimate D2E/DX2                !
 ! A57   A(6,24,26)            123.3631         estimate D2E/DX2                !
 ! A58   A(25,24,26)           117.711          estimate D2E/DX2                !
 ! A59   A(24,26,27)           125.372          estimate D2E/DX2                !
 ! A60   A(24,26,45)           116.1447         estimate D2E/DX2                !
 ! A61   A(27,26,45)           118.3725         estimate D2E/DX2                !
 ! A62   A(26,27,28)           109.9917         estimate D2E/DX2                !
 ! A63   A(26,27,29)           112.1626         estimate D2E/DX2                !
 ! A64   A(26,27,30)           104.8492         estimate D2E/DX2                !
 ! A65   A(28,27,29)           111.6058         estimate D2E/DX2                !
 ! A66   A(28,27,30)           108.9872         estimate D2E/DX2                !
 ! A67   A(29,27,30)           108.9795         estimate D2E/DX2                !
 ! A68   A(27,28,31)           110.5643         estimate D2E/DX2                !
 ! A69   A(27,28,32)           108.1932         estimate D2E/DX2                !
 ! A70   A(27,28,33)           109.7332         estimate D2E/DX2                !
 ! A71   A(31,28,32)           110.0395         estimate D2E/DX2                !
 ! A72   A(31,28,33)           110.7975         estimate D2E/DX2                !
 ! A73   A(32,28,33)           107.4251         estimate D2E/DX2                !
 ! A74   A(27,29,34)           110.3105         estimate D2E/DX2                !
 ! A75   A(27,29,35)           109.64           estimate D2E/DX2                !
 ! A76   A(27,29,36)           109.6215         estimate D2E/DX2                !
 ! A77   A(34,29,35)           108.5233         estimate D2E/DX2                !
 ! A78   A(34,29,36)           111.1485         estimate D2E/DX2                !
 ! A79   A(35,29,36)           107.539          estimate D2E/DX2                !
 ! A80   A(28,31,37)           111.5865         estimate D2E/DX2                !
 ! A81   A(28,31,38)           109.3656         estimate D2E/DX2                !
 ! A82   A(28,31,39)           109.0472         estimate D2E/DX2                !
 ! A83   A(37,31,38)           110.708          estimate D2E/DX2                !
 ! A84   A(37,31,39)           109.1969         estimate D2E/DX2                !
 ! A85   A(38,31,39)           106.8057         estimate D2E/DX2                !
 ! A86   A(29,34,37)           111.2189         estimate D2E/DX2                !
 ! A87   A(29,34,40)           109.1776         estimate D2E/DX2                !
 ! A88   A(29,34,41)           109.4201         estimate D2E/DX2                !
 ! A89   A(37,34,40)           110.6726         estimate D2E/DX2                !
 ! A90   A(37,34,41)           109.392          estimate D2E/DX2                !
 ! A91   A(40,34,41)           106.854          estimate D2E/DX2                !
 ! A92   A(31,37,34)           110.9581         estimate D2E/DX2                !
 ! A93   A(31,37,42)           110.1687         estimate D2E/DX2                !
 ! A94   A(31,37,43)           109.3629         estimate D2E/DX2                !
 ! A95   A(34,37,42)           110.18           estimate D2E/DX2                !
 ! A96   A(34,37,43)           109.1912         estimate D2E/DX2                !
 ! A97   A(42,37,43)           106.8839         estimate D2E/DX2                !
 ! A98   A(21,46,47)           109.2788         estimate D2E/DX2                !
 ! A99   A(21,46,48)           111.3732         estimate D2E/DX2                !
 ! A100  A(21,46,49)           110.6649         estimate D2E/DX2                !
 ! A101  A(47,46,48)           108.6862         estimate D2E/DX2                !
 ! A102  A(47,46,49)           108.0664         estimate D2E/DX2                !
 ! A103  A(48,46,49)           108.6903         estimate D2E/DX2                !
 ! A104  A(21,50,51)           111.0951         estimate D2E/DX2                !
 ! A105  A(21,50,52)           109.3237         estimate D2E/DX2                !
 ! A106  A(21,50,53)           110.5628         estimate D2E/DX2                !
 ! A107  A(51,50,52)           108.8457         estimate D2E/DX2                !
 ! A108  A(51,50,53)           108.7232         estimate D2E/DX2                !
 ! A109  A(52,50,53)           108.2258         estimate D2E/DX2                !
 ! A110  A(21,54,55)           111.9032         estimate D2E/DX2                !
 ! A111  A(21,54,56)           111.6385         estimate D2E/DX2                !
 ! A112  A(21,54,57)           108.8565         estimate D2E/DX2                !
 ! A113  A(55,54,56)           108.4276         estimate D2E/DX2                !
 ! A114  A(55,54,57)           107.9065         estimate D2E/DX2                !
 ! A115  A(56,54,57)           107.9651         estimate D2E/DX2                !
 ! A116  A(20,58,59)           111.7214         estimate D2E/DX2                !
 ! A117  A(20,58,60)           111.5663         estimate D2E/DX2                !
 ! A118  A(20,58,61)           109.2186         estimate D2E/DX2                !
 ! A119  A(59,58,60)           108.4886         estimate D2E/DX2                !
 ! A120  A(59,58,61)           107.866          estimate D2E/DX2                !
 ! A121  A(60,58,61)           107.8361         estimate D2E/DX2                !
 ! A122  A(20,62,63)           109.3501         estimate D2E/DX2                !
 ! A123  A(20,62,64)           111.636          estimate D2E/DX2                !
 ! A124  A(20,62,65)           110.9785         estimate D2E/DX2                !
 ! A125  A(63,62,64)           108.0774         estimate D2E/DX2                !
 ! A126  A(63,62,65)           108.2964         estimate D2E/DX2                !
 ! A127  A(64,62,65)           108.3999         estimate D2E/DX2                !
 ! A128  A(20,66,67)           110.7956         estimate D2E/DX2                !
 ! A129  A(20,66,68)           111.3154         estimate D2E/DX2                !
 ! A130  A(20,66,69)           109.6874         estimate D2E/DX2                !
 ! A131  A(67,66,68)           108.306          estimate D2E/DX2                !
 ! A132  A(67,66,69)           108.3881         estimate D2E/DX2                !
 ! A133  A(68,66,69)           108.2611         estimate D2E/DX2                !
 ! D1    D(6,1,2,3)              0.1051         estimate D2E/DX2                !
 ! D2    D(6,1,2,11)           179.7526         estimate D2E/DX2                !
 ! D3    D(23,1,2,3)          -179.6489         estimate D2E/DX2                !
 ! D4    D(23,1,2,11)           -0.0014         estimate D2E/DX2                !
 ! D5    D(2,1,6,5)              0.3054         estimate D2E/DX2                !
 ! D6    D(2,1,6,24)          -179.0036         estimate D2E/DX2                !
 ! D7    D(23,1,6,5)          -179.9929         estimate D2E/DX2                !
 ! D8    D(23,1,6,24)            0.6982         estimate D2E/DX2                !
 ! D9    D(2,1,23,7)            -0.0191         estimate D2E/DX2                !
 ! D10   D(6,1,23,7)          -179.7426         estimate D2E/DX2                !
 ! D11   D(1,2,3,4)             -0.3108         estimate D2E/DX2                !
 ! D12   D(1,2,3,8)            179.5495         estimate D2E/DX2                !
 ! D13   D(11,2,3,4)          -179.8411         estimate D2E/DX2                !
 ! D14   D(11,2,3,8)             0.0192         estimate D2E/DX2                !
 ! D15   D(1,2,11,7)             0.0214         estimate D2E/DX2                !
 ! D16   D(1,2,11,44)         -179.6018         estimate D2E/DX2                !
 ! D17   D(3,2,11,7)           179.6113         estimate D2E/DX2                !
 ! D18   D(3,2,11,44)           -0.0119         estimate D2E/DX2                !
 ! D19   D(2,3,4,5)              0.1042         estimate D2E/DX2                !
 ! D20   D(2,3,4,9)           -179.8411         estimate D2E/DX2                !
 ! D21   D(8,3,4,5)           -179.7564         estimate D2E/DX2                !
 ! D22   D(8,3,4,9)              0.2984         estimate D2E/DX2                !
 ! D23   D(3,4,5,6)              0.3147         estimate D2E/DX2                !
 ! D24   D(3,4,5,10)          -179.8402         estimate D2E/DX2                !
 ! D25   D(9,4,5,6)           -179.7401         estimate D2E/DX2                !
 ! D26   D(9,4,5,10)             0.1051         estimate D2E/DX2                !
 ! D27   D(4,5,6,1)             -0.5123         estimate D2E/DX2                !
 ! D28   D(4,5,6,24)           178.81           estimate D2E/DX2                !
 ! D29   D(10,5,6,1)           179.6412         estimate D2E/DX2                !
 ! D30   D(10,5,6,24)           -1.0365         estimate D2E/DX2                !
 ! D31   D(1,6,24,25)         -179.8043         estimate D2E/DX2                !
 ! D32   D(1,6,24,26)            0.5993         estimate D2E/DX2                !
 ! D33   D(5,6,24,25)            0.9054         estimate D2E/DX2                !
 ! D34   D(5,6,24,26)         -178.6911         estimate D2E/DX2                !
 ! D35   D(13,7,11,2)         -179.7789         estimate D2E/DX2                !
 ! D36   D(13,7,11,44)          -0.1121         estimate D2E/DX2                !
 ! D37   D(23,7,11,2)           -0.0355         estimate D2E/DX2                !
 ! D38   D(23,7,11,44)         179.6312         estimate D2E/DX2                !
 ! D39   D(11,7,13,12)           1.6167         estimate D2E/DX2                !
 ! D40   D(11,7,13,14)        -178.9511         estimate D2E/DX2                !
 ! D41   D(23,7,13,12)        -178.0926         estimate D2E/DX2                !
 ! D42   D(23,7,13,14)           1.3396         estimate D2E/DX2                !
 ! D43   D(11,7,23,1)            0.0334         estimate D2E/DX2                !
 ! D44   D(13,7,23,1)          179.7724         estimate D2E/DX2                !
 ! D45   D(17,12,13,7)         179.3586         estimate D2E/DX2                !
 ! D46   D(17,12,13,14)         -0.0671         estimate D2E/DX2                !
 ! D47   D(22,12,13,7)          -0.5141         estimate D2E/DX2                !
 ! D48   D(22,12,13,14)       -179.9399         estimate D2E/DX2                !
 ! D49   D(13,12,17,16)          0.3563         estimate D2E/DX2                !
 ! D50   D(13,12,17,21)       -179.393          estimate D2E/DX2                !
 ! D51   D(22,12,17,16)       -179.7726         estimate D2E/DX2                !
 ! D52   D(22,12,17,21)          0.4781         estimate D2E/DX2                !
 ! D53   D(7,13,14,15)        -179.6477         estimate D2E/DX2                !
 ! D54   D(7,13,14,18)           0.2814         estimate D2E/DX2                !
 ! D55   D(12,13,14,15)         -0.2148         estimate D2E/DX2                !
 ! D56   D(12,13,14,18)        179.7144         estimate D2E/DX2                !
 ! D57   D(13,14,15,16)          0.2028         estimate D2E/DX2                !
 ! D58   D(13,14,15,20)        179.1736         estimate D2E/DX2                !
 ! D59   D(18,14,15,16)       -179.7255         estimate D2E/DX2                !
 ! D60   D(18,14,15,20)         -0.7547         estimate D2E/DX2                !
 ! D61   D(14,15,16,17)          0.1113         estimate D2E/DX2                !
 ! D62   D(14,15,16,19)        179.9612         estimate D2E/DX2                !
 ! D63   D(20,15,16,17)       -178.8206         estimate D2E/DX2                !
 ! D64   D(20,15,16,19)          1.0294         estimate D2E/DX2                !
 ! D65   D(14,15,20,58)        178.8762         estimate D2E/DX2                !
 ! D66   D(14,15,20,62)         57.868          estimate D2E/DX2                !
 ! D67   D(14,15,20,66)        -60.7639         estimate D2E/DX2                !
 ! D68   D(16,15,20,58)         -2.1959         estimate D2E/DX2                !
 ! D69   D(16,15,20,62)       -123.2041         estimate D2E/DX2                !
 ! D70   D(16,15,20,66)        118.1641         estimate D2E/DX2                !
 ! D71   D(15,16,17,12)         -0.3875         estimate D2E/DX2                !
 ! D72   D(15,16,17,21)        179.3563         estimate D2E/DX2                !
 ! D73   D(19,16,17,12)        179.7635         estimate D2E/DX2                !
 ! D74   D(19,16,17,21)         -0.4927         estimate D2E/DX2                !
 ! D75   D(12,17,21,46)         61.5361         estimate D2E/DX2                !
 ! D76   D(12,17,21,50)        -59.1296         estimate D2E/DX2                !
 ! D77   D(12,17,21,54)       -178.8535         estimate D2E/DX2                !
 ! D78   D(16,17,21,46)       -118.2039         estimate D2E/DX2                !
 ! D79   D(16,17,21,50)        121.1305         estimate D2E/DX2                !
 ! D80   D(16,17,21,54)          1.4066         estimate D2E/DX2                !
 ! D81   D(15,20,58,59)        -61.541          estimate D2E/DX2                !
 ! D82   D(15,20,58,60)         60.0942         estimate D2E/DX2                !
 ! D83   D(15,20,58,61)        179.2098         estimate D2E/DX2                !
 ! D84   D(62,20,58,59)         59.6502         estimate D2E/DX2                !
 ! D85   D(62,20,58,60)       -178.7146         estimate D2E/DX2                !
 ! D86   D(62,20,58,61)        -59.599          estimate D2E/DX2                !
 ! D87   D(66,20,58,59)        178.4854         estimate D2E/DX2                !
 ! D88   D(66,20,58,60)        -59.8794         estimate D2E/DX2                !
 ! D89   D(66,20,58,61)         59.2363         estimate D2E/DX2                !
 ! D90   D(15,20,62,63)       -178.7595         estimate D2E/DX2                !
 ! D91   D(15,20,62,64)        -59.2148         estimate D2E/DX2                !
 ! D92   D(15,20,62,65)         61.8341         estimate D2E/DX2                !
 ! D93   D(58,20,62,63)         57.907          estimate D2E/DX2                !
 ! D94   D(58,20,62,64)        177.4518         estimate D2E/DX2                !
 ! D95   D(58,20,62,65)        -61.4994         estimate D2E/DX2                !
 ! D96   D(66,20,62,63)        -60.738          estimate D2E/DX2                !
 ! D97   D(66,20,62,64)         58.8068         estimate D2E/DX2                !
 ! D98   D(66,20,62,65)        179.8556         estimate D2E/DX2                !
 ! D99   D(15,20,66,67)        -62.022          estimate D2E/DX2                !
 ! D100  D(15,20,66,68)         58.5644         estimate D2E/DX2                !
 ! D101  D(15,20,66,69)        178.3563         estimate D2E/DX2                !
 ! D102  D(58,20,66,67)         60.7111         estimate D2E/DX2                !
 ! D103  D(58,20,66,68)       -178.7025         estimate D2E/DX2                !
 ! D104  D(58,20,66,69)        -58.9106         estimate D2E/DX2                !
 ! D105  D(62,20,66,67)        179.3456         estimate D2E/DX2                !
 ! D106  D(62,20,66,68)        -60.068          estimate D2E/DX2                !
 ! D107  D(62,20,66,69)         59.724          estimate D2E/DX2                !
 ! D108  D(17,21,46,47)       -179.982          estimate D2E/DX2                !
 ! D109  D(17,21,46,48)        -59.8911         estimate D2E/DX2                !
 ! D110  D(17,21,46,49)         61.1325         estimate D2E/DX2                !
 ! D111  D(50,21,46,47)        -59.2984         estimate D2E/DX2                !
 ! D112  D(50,21,46,48)         60.7925         estimate D2E/DX2                !
 ! D113  D(50,21,46,49)       -178.1839         estimate D2E/DX2                !
 ! D114  D(54,21,46,47)         58.151          estimate D2E/DX2                !
 ! D115  D(54,21,46,48)        178.242          estimate D2E/DX2                !
 ! D116  D(54,21,46,49)        -60.7345         estimate D2E/DX2                !
 ! D117  D(17,21,50,51)         61.9035         estimate D2E/DX2                !
 ! D118  D(17,21,50,52)       -177.9532         estimate D2E/DX2                !
 ! D119  D(17,21,50,53)        -58.9058         estimate D2E/DX2                !
 ! D120  D(46,21,50,51)        -58.6038         estimate D2E/DX2                !
 ! D121  D(46,21,50,52)         61.5396         estimate D2E/DX2                !
 ! D122  D(46,21,50,53)       -179.413          estimate D2E/DX2                !
 ! D123  D(54,21,50,51)       -176.0929         estimate D2E/DX2                !
 ! D124  D(54,21,50,52)        -55.9495         estimate D2E/DX2                !
 ! D125  D(54,21,50,53)         63.0979         estimate D2E/DX2                !
 ! D126  D(17,21,54,55)        -60.8883         estimate D2E/DX2                !
 ! D127  D(17,21,54,56)         60.8492         estimate D2E/DX2                !
 ! D128  D(17,21,54,57)        179.9355         estimate D2E/DX2                !
 ! D129  D(46,21,54,55)         59.628          estimate D2E/DX2                !
 ! D130  D(46,21,54,56)       -178.6344         estimate D2E/DX2                !
 ! D131  D(46,21,54,57)        -59.5482         estimate D2E/DX2                !
 ! D132  D(50,21,54,55)        178.2759         estimate D2E/DX2                !
 ! D133  D(50,21,54,56)        -59.9865         estimate D2E/DX2                !
 ! D134  D(50,21,54,57)         59.0997         estimate D2E/DX2                !
 ! D135  D(6,24,26,27)         177.0609         estimate D2E/DX2                !
 ! D136  D(6,24,26,45)           0.9663         estimate D2E/DX2                !
 ! D137  D(25,24,26,27)         -2.5401         estimate D2E/DX2                !
 ! D138  D(25,24,26,45)       -178.6347         estimate D2E/DX2                !
 ! D139  D(24,26,27,28)        -82.4718         estimate D2E/DX2                !
 ! D140  D(24,26,27,29)         42.3676         estimate D2E/DX2                !
 ! D141  D(24,26,27,30)        160.4866         estimate D2E/DX2                !
 ! D142  D(45,26,27,28)         93.5436         estimate D2E/DX2                !
 ! D143  D(45,26,27,29)       -141.617          estimate D2E/DX2                !
 ! D144  D(45,26,27,30)        -23.498          estimate D2E/DX2                !
 ! D145  D(26,27,28,31)       -179.0192         estimate D2E/DX2                !
 ! D146  D(26,27,28,32)         60.4137         estimate D2E/DX2                !
 ! D147  D(26,27,28,33)        -56.508          estimate D2E/DX2                !
 ! D148  D(29,27,28,31)         55.822          estimate D2E/DX2                !
 ! D149  D(29,27,28,32)        -64.7451         estimate D2E/DX2                !
 ! D150  D(29,27,28,33)        178.3333         estimate D2E/DX2                !
 ! D151  D(30,27,28,31)        -64.5894         estimate D2E/DX2                !
 ! D152  D(30,27,28,32)        174.8435         estimate D2E/DX2                !
 ! D153  D(30,27,28,33)         57.9219         estimate D2E/DX2                !
 ! D154  D(26,27,29,34)        179.5069         estimate D2E/DX2                !
 ! D155  D(26,27,29,35)        -61.0367         estimate D2E/DX2                !
 ! D156  D(26,27,29,36)         56.798          estimate D2E/DX2                !
 ! D157  D(28,27,29,34)        -56.5495         estimate D2E/DX2                !
 ! D158  D(28,27,29,35)         62.9069         estimate D2E/DX2                !
 ! D159  D(28,27,29,36)       -179.2584         estimate D2E/DX2                !
 ! D160  D(30,27,29,34)         63.8665         estimate D2E/DX2                !
 ! D161  D(30,27,29,35)       -176.6771         estimate D2E/DX2                !
 ! D162  D(30,27,29,36)        -58.8425         estimate D2E/DX2                !
 ! D163  D(27,28,31,37)        -55.0522         estimate D2E/DX2                !
 ! D164  D(27,28,31,38)       -177.8822         estimate D2E/DX2                !
 ! D165  D(27,28,31,39)         65.6582         estimate D2E/DX2                !
 ! D166  D(32,28,31,37)         64.407          estimate D2E/DX2                !
 ! D167  D(32,28,31,38)        -58.4229         estimate D2E/DX2                !
 ! D168  D(32,28,31,39)       -174.8825         estimate D2E/DX2                !
 ! D169  D(33,28,31,37)       -176.9394         estimate D2E/DX2                !
 ! D170  D(33,28,31,38)         60.2306         estimate D2E/DX2                !
 ! D171  D(33,28,31,39)        -56.229          estimate D2E/DX2                !
 ! D172  D(27,29,34,37)         56.5348         estimate D2E/DX2                !
 ! D173  D(27,29,34,40)        178.9457         estimate D2E/DX2                !
 ! D174  D(27,29,34,41)        -64.4321         estimate D2E/DX2                !
 ! D175  D(35,29,34,37)        -63.5963         estimate D2E/DX2                !
 ! D176  D(35,29,34,40)         58.8146         estimate D2E/DX2                !
 ! D177  D(35,29,34,41)        175.4368         estimate D2E/DX2                !
 ! D178  D(36,29,34,37)        178.3447         estimate D2E/DX2                !
 ! D179  D(36,29,34,40)        -59.2443         estimate D2E/DX2                !
 ! D180  D(36,29,34,41)         57.3778         estimate D2E/DX2                !
 ! D181  D(28,31,37,34)         55.4781         estimate D2E/DX2                !
 ! D182  D(28,31,37,42)        177.7698         estimate D2E/DX2                !
 ! D183  D(28,31,37,43)        -65.034          estimate D2E/DX2                !
 ! D184  D(38,31,37,34)        177.538          estimate D2E/DX2                !
 ! D185  D(38,31,37,42)        -60.1703         estimate D2E/DX2                !
 ! D186  D(38,31,37,43)         57.0259         estimate D2E/DX2                !
 ! D187  D(39,31,37,34)        -65.1448         estimate D2E/DX2                !
 ! D188  D(39,31,37,42)         57.147          estimate D2E/DX2                !
 ! D189  D(39,31,37,43)        174.3431         estimate D2E/DX2                !
 ! D190  D(29,34,37,31)        -56.1508         estimate D2E/DX2                !
 ! D191  D(29,34,37,42)       -178.4359         estimate D2E/DX2                !
 ! D192  D(29,34,37,43)         64.4631         estimate D2E/DX2                !
 ! D193  D(40,34,37,31)       -177.6936         estimate D2E/DX2                !
 ! D194  D(40,34,37,42)         60.0213         estimate D2E/DX2                !
 ! D195  D(40,34,37,43)        -57.0798         estimate D2E/DX2                !
 ! D196  D(41,34,37,31)         64.8327         estimate D2E/DX2                !
 ! D197  D(41,34,37,42)        -57.4525         estimate D2E/DX2                !
 ! D198  D(41,34,37,43)       -174.5535         estimate D2E/DX2                !
 --------------------------------------------------------------------------------
 Trust Radius=3.00D-01 FncErr=5.00D-06 GrdErr=5.00D-06 EigMax=2.50D+02 EigMin=1.00D-04
 Number of steps in this run=    413 maximum allowed number of steps=    414.
 GradGradGradGradGradGradGradGradGradGradGradGradGradGradGradGradGradGrad

 Leave Link  103 at Fri Dec 21 16:03:21 2018, MaxMem=  1342177280 cpu:               0.5 elap:               0.1
 (Enter /gpfs/apps/hpc/Apps/Restricted/Gaussian/Rev_A.03/g16/l202.exe)
 Symmetry turned off by external request.
 Stoichiometry    C28H37N3O(1+,2)
 Framework group  C1[X(C28H37N3O)]
 Deg. of freedom   201
 Full point group                 C1      NOp   1
                          Input orientation:                          
 ---------------------------------------------------------------------
 Center     Atomic      Atomic             Coordinates (Angstroms)
 Number     Number       Type             X           Y           Z
 ---------------------------------------------------------------------
      1          6           0       -0.528073    2.742572    0.404197
      2          6           0       -1.921436    2.980419    0.301064
      3          6           0       -2.451704    4.265809    0.212852
      4          6           0       -1.550554    5.334546    0.236214
      5          6           0       -0.170901    5.128033    0.341490
      6          6           0        0.373135    3.833989    0.422135
      7          6           0       -1.476384    0.809681    0.407582
      8          1           0       -3.518023    4.431858    0.127295
      9          1           0       -1.930374    6.346308    0.172118
     10          1           0        0.499623    5.979267    0.359395
     11          7           0       -2.483178    1.726588    0.306580
     12          6           0       -3.060964   -1.168598    0.322868
     13          6           0       -1.700320   -0.624250    0.437828
     14          6           0       -0.618761   -1.472146    0.564038
     15          6           0       -0.778274   -2.871255    0.591400
     16          6           0       -2.082512   -3.404573    0.481720
     17          6           0       -3.216356   -2.628047    0.346212
     18          1           0        0.371068   -1.041120    0.641954
     19          1           0       -2.192376   -4.477493    0.503258
     20          6           0        0.459199   -3.752098    0.713784
     21          6           0       -4.606812   -3.245875    0.216236
     22          8           0       -4.050358   -0.398428    0.206418
     23          7           0       -0.270650    1.400503    0.468577
     24          6           0        1.787972    3.650514    0.503480
     25          1           0        2.430179    4.524088    0.516824
     26          7           0        2.355102    2.483039    0.555389
     27          6           0        3.811698    2.240422    0.578233
     28          6           0        4.374110    2.283257   -0.851756
     29          6           0        4.545498    3.216531    1.502221
     30          1           0        3.920675    1.227482    0.972873
     31          6           0        5.881885    2.008778   -0.845664
     32          1           0        4.175034    3.277269   -1.268103
     33          1           0        3.849587    1.555510   -1.476661
     34          6           0        6.049534    2.919561    1.503417
     35          1           0        4.393648    4.242088    1.149431
     36          1           0        4.129611    3.150194    2.510928
     37          6           0        6.626406    2.971977    0.084535
     38          1           0        6.267702    2.081106   -1.866169
     39          1           0        6.056732    0.978853   -0.512923
     40          1           0        6.556979    3.637847    2.153217
     41          1           0        6.224463    1.925172    1.931036
     42          1           0        7.692933    2.730728    0.101749
     43          1           0        6.537202    3.994116   -0.303449
     44          1           0       -3.454655    1.434506    0.245286
     45          1           0        1.725533    1.671887    0.519365
     46          6           0       -5.220585   -2.855122   -1.147165
     47          1           0       -6.215850   -3.299278   -1.235630
     48          1           0       -5.310687   -1.774484   -1.246725
     49          1           0       -4.606579   -3.232660   -1.969068
     50          6           0       -5.513324   -2.742357    1.361939
     51          1           0       -5.640604   -1.662598    1.314981
     52          1           0       -6.494929   -3.217532    1.282137
     53          1           0       -5.085021   -3.003350    2.333502
     54          6           0       -4.556574   -4.779951    0.292061
     55          1           0       -3.953177   -5.208439   -0.512409
     56          1           0       -4.152113   -5.123254    1.247789
     57          1           0       -5.571438   -5.171520    0.195653
     58          6           0        0.118948   -5.247457    0.757546
     59          1           0       -0.501333   -5.496081    1.622661
     60          1           0       -0.404050   -5.567051   -0.147173
     61          1           0        1.043267   -5.824453    0.831086
     62          6           0        1.222104   -3.377016    2.002363
     63          1           0        2.122267   -3.991682    2.082176
     64          1           0        1.527087   -2.328136    1.998990
     65          1           0        0.606277   -3.554211    2.887099
     66          6           0        1.365468   -3.482177   -0.508343
     67          1           0        0.854895   -3.749925   -1.436629
     68          1           0        1.651813   -2.429646   -0.565562
     69          1           0        2.276450   -4.081239   -0.430712
 ---------------------------------------------------------------------
 Rotational constants (GHZ):           0.1824938           0.0734777           0.0548026
 Leave Link  202 at Fri Dec 21 16:03:21 2018, MaxMem=  1342177280 cpu:               1.2 elap:               0.1
 (Enter /gpfs/apps/hpc/Apps/Restricted/Gaussian/Rev_A.03/g16/l301.exe)
 Standard basis: 6-31G(d,p) (6D, 7F)
 Ernie: Thresh=  0.10000D-02 Tol=  0.10000D-05 Strict=F.
   665 basis functions,  1155 primitive gaussians,   665 cartesian basis functions
   117 alpha electrons      116 beta electrons
       nuclear repulsion energy      3173.6938716678 Hartrees.
 IExCor=  402 DFT=T Ex+Corr=B3LYP ExCW=0 ScaHFX=  0.200000
 ScaDFX=  0.800000  0.720000  1.000000  0.810000 ScalE2=  1.000000  1.000000
 IRadAn=      5 IRanWt=     -1 IRanGd=            0 ICorTp=0 IEmpDi=141
 NAtoms=   69 NActive=   69 NUniq=   69 SFac= 1.00D+00 NAtFMM=   60 NAOKFM=T Big=T
 Integral buffers will be    131072 words long.
 Raffenetti 2 integral format.
 Two-electron integral symmetry is turned off.
 R6Disp:  Grimme-D3(BJ) Dispersion energy=       -0.1499431942 Hartrees.
 Nuclear repulsion after empirical dispersion term =     3173.5439284736 Hartrees.
 Using the following non-standard input for PCM:
 radii=bondi
 dis
 rep
 cav
 --- end of non-standard input.
 ------------------------------------------------------------------------------
 Polarizable Continuum Model (PCM)
 =================================
 Model                : C-PCM.
 Atomic radii         : Bondi.
 Polarization charges : Total charges.
 Charge compensation  : None.
 Solution method      : On-the-fly selection.
 Cavity type          : Scaled VdW (van der Waals Surface) (Alpha=1.100).
 Cavity algorithm     : GePol (No added spheres)
                        Default sphere list used, NSphG=   69.
                        Lebedev-Laikov grids with approx.  5.0 points / Ang**2.
                        Smoothing algorithm: York/Karplus (Gamma=1.0000).
                        Polarization charges: spherical gaussians, with
                                              point-specific exponents (IZeta= 3).
                        Self-potential: point-specific (ISelfS= 7).
                        Self-field    : sphere-specific E.n sum rule (ISelfD= 2).
 1st derivatives      : Analytical E(r).r(x)/FMM algorithm (CHGder, D1EAlg=3).
                        Cavity 1st derivative terms included.
 Solvent              : Dichloromethane, Eps=   8.930000 Eps(inf)=   2.028346
 ------------------------------------------------------------------------------
 GePol: Number of generator spheres                  =      69
 GePol: Total number of spheres                      =      69
 GePol: Number of exposed spheres                    =      69 (100.00%)
 GePol: Number of points                             =    4360
 GePol: Average weight of points                     =       0.12
 GePol: Minimum weight of points                     =   0.10D-10
 GePol: Maximum weight of points                     =    0.21770
 GePol: Number of points with low weight             =     337
 GePol: Fraction of low-weight points (<1% of avg)   =       7.73%
 GePol: Cavity surface area                          =    519.074 Ang**2
 GePol: Cavity volume                                =    499.834 Ang**3
 PCM non-electrostatic energy =         0.0257215693 Hartrees.
 Nuclear repulsion after PCM non-electrostatic terms =     3173.5696500429 Hartrees.
 Leave Link  301 at Fri Dec 21 16:03:22 2018, MaxMem=  1342177280 cpu:               3.2 elap:               0.2
 (Enter /gpfs/apps/hpc/Apps/Restricted/Gaussian/Rev_A.03/g16/l302.exe)
 NPDir=0 NMtPBC=     1 NCelOv=     1 NCel=       1 NClECP=     1 NCelD=      1
         NCelK=      1 NCelE2=     1 NClLst=     1 CellRange=     0.0.
 One-electron integrals computed using PRISM.
 NBasis=   665 RedAO= T EigKep=  3.11D-04  NBF=   665
 NBsUse=   665 1.00D-06 EigRej= -1.00D+00 NBFU=   665
 Precomputing XC quadrature grid using
 IXCGrd= 4 IRadAn=           5 IRanWt=          -1 IRanGd=           0 AccXCQ= 0.00D+00.
 Generated NRdTot=       0 NPtTot=           0 NUsed=           0 NTot=          32
 NSgBfM=   650   650   650   650   650 MxSgAt=    69 MxSgA2=    69.
 Leave Link  302 at Fri Dec 21 16:03:23 2018, MaxMem=  1342177280 cpu:              21.8 elap:               1.4
 (Enter /gpfs/apps/hpc/Apps/Restricted/Gaussian/Rev_A.03/g16/l303.exe)
 DipDrv:  MaxL=1.
 Leave Link  303 at Fri Dec 21 16:03:23 2018, MaxMem=  1342177280 cpu:               1.4 elap:               0.1
 (Enter /gpfs/apps/hpc/Apps/Restricted/Gaussian/Rev_A.03/g16/l401.exe)
 ExpMin= 1.61D-01 ExpMax= 5.48D+03 ExpMxC= 8.25D+02 IAcc=3 IRadAn=         5 AccDes= 0.00D+00
 Harris functional with IExCor=  402 and IRadAn=       5 diagonalized for initial guess.
 HarFok:  IExCor=  402 AccDes= 0.00D+00 IRadAn=         5 IDoV= 1 UseB2=F ITyADJ=14
 ICtDFT=  3500011 ScaDFX=  1.000000  1.000000  1.000000  1.000000
 FoFCou: FMM=F IPFlag=           0 FMFlag=      100000 FMFlg1=        2001
         NFxFlg=           0 DoJE=T BraDBF=F KetDBF=T FulRan=T
         wScrn=  0.000000 ICntrl=       500 IOpCl=  0 I1Cent=   200000004 NGrid=           0
         NMat0=    1 NMatS0=      1 NMatT0=    0 NMatD0=    1 NMtDS0=    0 NMtDT0=    0
 Symmetry not used in FoFCou.
 Harris En= -1328.79487838257    
 JPrj=0 DoOrth=F DoCkMO=F.
 Initial guess <Sx>= 0.0000 <Sy>= 0.0000 <Sz>= 0.5000 <S**2>= 0.7500 S= 0.5000
 Leave Link  401 at Fri Dec 21 16:03:27 2018, MaxMem=  1342177280 cpu:              60.5 elap:               3.8
 (Enter /gpfs/apps/hpc/Apps/Restricted/Gaussian/Rev_A.03/g16/l502.exe)
 Two-electron integral symmetry not used.
 UHF open shell SCF:
 Using DIIS extrapolation, IDIIS=  1040.
 NGot=  1342177280 LenX=  1341276554 LenY=  1340833664
 Requested convergence on RMS density matrix=1.00D-08 within 128 cycles.
 Requested convergence on MAX density matrix=1.00D-06.
 Requested convergence on             energy=1.00D-06.
 No special actions if energy rises.
 Fock matrices will be formed incrementally for  20 cycles.

 Cycle   1  Pass 1  IDiag  1:
 FoFJK:  IHMeth= 1 ICntrl=       0 DoSepK=F KAlg= 0 I1Cent=           0 FoldK=F
 IRaf= 770000000 NMat=       1 IRICut=       1 DoRegI=T DoRafI=F ISym2E= 0 IDoP0=0 IntGTp=1.
 FoFCou: FMM=T IPFlag=           0 FMFlag=      100000 FMFlg1=        2001
         NFxFlg=           0 DoJE=F BraDBF=F KetDBF=F FulRan=T
         wScrn=  0.000000 ICntrl=         0 IOpCl=  1 I1Cent=           0 NGrid=           0
         NMat0=    1 NMatS0=      1 NMatT0=    0 NMatD0=    1 NMtDS0=    0 NMtDT0=    0
 Symmetry not used in FoFCou.
 FMM levels:  10  Number of levels for PrismC:   9
 Inv3:  Mode=1 IEnd=    57028800.
 Iteration    1 A*A^-1 deviation from unit magnitude is 1.38D-14 for   1365.
 Iteration    1 A*A^-1 deviation from orthogonality  is 5.42D-15 for   2714    539.
 Iteration    1 A^-1*A deviation from unit magnitude is 1.38D-14 for   1365.
 Iteration    1 A^-1*A deviation from orthogonality  is 3.23D-15 for   3856   3255.
 E= -1328.01078281854    
 DIIS: error= 2.92D-02 at cycle   1 NSaved=   1.
 NSaved= 1 IEnMin= 1 EnMin= -1328.01078281854     IErMin= 1 ErrMin= 2.92D-02
 ErrMax= 2.92D-02  0.00D+00 EMaxC= 1.00D-01 BMatC= 3.11D+00 BMatP= 3.11D+00
 IDIUse=3 WtCom= 7.08D-01 WtEn= 2.92D-01
 Coeff-Com:  0.100D+01
 Coeff-En:   0.100D+01
 Coeff:      0.100D+01
 Gap=     0.086 Goal=   None    Shift=    0.000
 Gap=     0.081 Goal=   None    Shift=    0.000
 GapD=    0.081 DampG=0.500 DampE=0.500 DampFc=0.2500 IDamp=-1.
 Damping current iteration by 2.50D-01
 RMSDP=3.13D-03 MaxDP=1.81D-01              OVMax= 3.23D-01

 Cycle   2  Pass 1  IDiag  1:
 RMSU=  7.64D-04    CP:  9.85D-01
 E= -1328.30558517736     Delta-E=       -0.294802358828 Rises=F Damp=T
 DIIS: error= 1.54D-02 at cycle   2 NSaved=   2.
 NSaved= 2 IEnMin= 2 EnMin= -1328.30558517736     IErMin= 2 ErrMin= 1.54D-02
 ErrMax= 1.54D-02  0.00D+00 EMaxC= 1.00D-01 BMatC= 8.09D-01 BMatP= 3.11D+00
 IDIUse=3 WtCom= 8.46D-01 WtEn= 1.54D-01
 Coeff-Com: -0.829D+00 0.183D+01
 Coeff-En:   0.000D+00 0.100D+01
 Coeff:     -0.702D+00 0.170D+01
 Gap=     0.128 Goal=   None    Shift=    0.000
 Gap=     0.121 Goal=   None    Shift=    0.000
 RMSDP=1.15D-03 MaxDP=7.69D-02 DE=-2.95D-01 OVMax= 1.66D-01

 Cycle   3  Pass 1  IDiag  1:
 RMSU=  8.10D-04    CP:  9.56D-01  1.97D+00
 E= -1328.79575734733     Delta-E=       -0.490172169963 Rises=F Damp=F
 DIIS: error= 8.74D-03 at cycle   3 NSaved=   3.
 NSaved= 3 IEnMin= 3 EnMin= -1328.79575734733     IErMin= 3 ErrMin= 8.74D-03
 ErrMax= 8.74D-03  0.00D+00 EMaxC= 1.00D-01 BMatC= 1.33D-01 BMatP= 8.09D-01
 IDIUse=3 WtCom= 9.13D-01 WtEn= 8.74D-02
 Coeff-Com: -0.355D+00 0.779D+00 0.576D+00
 Coeff-En:   0.000D+00 0.000D+00 0.100D+01
 Coeff:     -0.324D+00 0.711D+00 0.613D+00
 Gap=     0.115 Goal=   None    Shift=    0.000
 Gap=     0.084 Goal=   None    Shift=    0.000
 RMSDP=4.61D-04 MaxDP=6.70D-02 DE=-4.90D-01 OVMax= 7.53D-02

 Cycle   4  Pass 1  IDiag  1:
 RMSU=  3.75D-04    CP:  9.59D-01  2.00D+00  6.75D-01
 E= -1328.81359999931     Delta-E=       -0.017842651981 Rises=F Damp=F
 DIIS: error= 6.87D-03 at cycle   4 NSaved=   4.
 NSaved= 4 IEnMin= 4 EnMin= -1328.81359999931     IErMin= 4 ErrMin= 6.87D-03
 ErrMax= 6.87D-03  0.00D+00 EMaxC= 1.00D-01 BMatC= 6.72D-02 BMatP= 1.33D-01
 IDIUse=3 WtCom= 9.31D-01 WtEn= 6.87D-02
 Coeff-Com: -0.501D-01 0.129D+00 0.407D+00 0.514D+00
 Coeff-En:   0.000D+00 0.000D+00 0.328D+00 0.672D+00
 Coeff:     -0.466D-01 0.120D+00 0.402D+00 0.525D+00
 Gap=     0.118 Goal=   None    Shift=    0.000
 Gap=     0.083 Goal=   None    Shift=    0.000
 RMSDP=2.25D-04 MaxDP=3.35D-02 DE=-1.78D-02 OVMax= 3.15D-02

 Cycle   5  Pass 1  IDiag  1:
 RMSU=  1.19D-04    CP:  9.58D-01  1.96D+00  7.87D-01  5.60D-01
 E= -1328.82691624035     Delta-E=       -0.013316241039 Rises=F Damp=F
 DIIS: error= 1.64D-03 at cycle   5 NSaved=   5.
 NSaved= 5 IEnMin= 5 EnMin= -1328.82691624035     IErMin= 5 ErrMin= 1.64D-03
 ErrMax= 1.64D-03  0.00D+00 EMaxC= 1.00D-01 BMatC= 3.79D-03 BMatP= 6.72D-02
 IDIUse=3 WtCom= 9.84D-01 WtEn= 1.64D-02
 Coeff-Com:  0.415D-02 0.142D-02 0.172D+00 0.285D+00 0.537D+00
 Coeff-En:   0.000D+00 0.000D+00 0.000D+00 0.000D+00 0.100D+01
 Coeff:      0.409D-02 0.140D-02 0.169D+00 0.280D+00 0.545D+00
 Gap=     0.117 Goal=   None    Shift=    0.000
 Gap=     0.086 Goal=   None    Shift=    0.000
 RMSDP=6.45D-05 MaxDP=1.09D-02 DE=-1.33D-02 OVMax= 1.59D-02

 Cycle   6  Pass 1  IDiag  1:
 RMSU=  4.30D-05    CP:  9.58D-01  1.96D+00  8.00D-01  6.14D-01  6.44D-01
 E= -1328.82777866959     Delta-E=       -0.000862429239 Rises=F Damp=F
 DIIS: error= 5.20D-04 at cycle   6 NSaved=   6.
 NSaved= 6 IEnMin= 6 EnMin= -1328.82777866959     IErMin= 6 ErrMin= 5.20D-04
 ErrMax= 5.20D-04  0.00D+00 EMaxC= 1.00D-01 BMatC= 4.90D-04 BMatP= 3.79D-03
 IDIUse=3 WtCom= 9.95D-01 WtEn= 5.20D-03
 Coeff-Com:  0.715D-02-0.114D-01 0.523D-01 0.953D-01 0.305D+00 0.552D+00
 Coeff-En:   0.000D+00 0.000D+00 0.000D+00 0.000D+00 0.000D+00 0.100D+01
 Coeff:      0.712D-02-0.114D-01 0.521D-01 0.948D-01 0.303D+00 0.554D+00
 Gap=     0.118 Goal=   None    Shift=    0.000
 Gap=     0.087 Goal=   None    Shift=    0.000
 RMSDP=2.32D-05 MaxDP=3.10D-03 DE=-8.62D-04 OVMax= 7.97D-03

 Cycle   7  Pass 1  IDiag  1:
 RMSU=  1.93D-05    CP:  9.58D-01  1.96D+00  8.02D-01  6.13D-01  7.45D-01
                    CP:  9.13D-01
 E= -1328.82792722377     Delta-E=       -0.000148554186 Rises=F Damp=F
 DIIS: error= 1.63D-04 at cycle   7 NSaved=   7.
 NSaved= 7 IEnMin= 7 EnMin= -1328.82792722377     IErMin= 7 ErrMin= 1.63D-04
 ErrMax= 1.63D-04  0.00D+00 EMaxC= 1.00D-01 BMatC= 6.98D-05 BMatP= 4.90D-04
 IDIUse=3 WtCom= 9.98D-01 WtEn= 1.63D-03
 Coeff-Com:  0.215D-02-0.502D-02-0.159D-01-0.295D-01 0.125D-01 0.230D+00
 Coeff-Com:  0.806D+00
 Coeff-En:   0.000D+00 0.000D+00 0.000D+00 0.000D+00 0.000D+00 0.000D+00
 Coeff-En:   0.100D+01
 Coeff:      0.215D-02-0.502D-02-0.159D-01-0.295D-01 0.124D-01 0.230D+00
 Coeff:      0.806D+00
 Gap=     0.119 Goal=   None    Shift=    0.000
 Gap=     0.088 Goal=   None    Shift=    0.000
 RMSDP=1.49D-05 MaxDP=2.50D-03 DE=-1.49D-04 OVMax= 6.79D-03

 Cycle   8  Pass 1  IDiag  1:
 RMSU=  9.42D-06    CP:  9.58D-01  1.96D+00  8.04D-01  6.19D-01  7.94D-01
                    CP:  1.13D+00  1.04D+00
 E= -1328.82797823208     Delta-E=       -0.000051008313 Rises=F Damp=F
 DIIS: error= 1.10D-04 at cycle   8 NSaved=   8.
 NSaved= 8 IEnMin= 8 EnMin= -1328.82797823208     IErMin= 8 ErrMin= 1.10D-04
 ErrMax= 1.10D-04  0.00D+00 EMaxC= 1.00D-01 BMatC= 2.56D-05 BMatP= 6.98D-05
 IDIUse=3 WtCom= 9.99D-01 WtEn= 1.10D-03
 Coeff-Com: -0.122D-02 0.156D-02-0.235D-01-0.484D-01-0.934D-01-0.111D+00
 Coeff-Com:  0.384D+00 0.892D+00
 Coeff-En:   0.000D+00 0.000D+00 0.000D+00 0.000D+00 0.000D+00 0.000D+00
 Coeff-En:   0.000D+00 0.100D+01
 Coeff:     -0.121D-02 0.156D-02-0.235D-01-0.483D-01-0.933D-01-0.111D+00
 Coeff:      0.383D+00 0.892D+00
 Gap=     0.119 Goal=   None    Shift=    0.000
 Gap=     0.088 Goal=   None    Shift=    0.000
 RMSDP=1.17D-05 MaxDP=1.64D-03 DE=-5.10D-05 OVMax= 5.36D-03

 Cycle   9  Pass 1  IDiag  1:
 RMSU=  4.95D-06    CP:  9.58D-01  1.96D+00  8.06D-01  6.19D-01  8.33D-01
                    CP:  1.27D+00  1.40D+00  1.21D+00
 E= -1328.82799789570     Delta-E=       -0.000019663619 Rises=F Damp=F
 DIIS: error= 4.17D-05 at cycle   9 NSaved=   9.
 NSaved= 9 IEnMin= 9 EnMin= -1328.82799789570     IErMin= 9 ErrMin= 4.17D-05
 ErrMax= 4.17D-05  0.00D+00 EMaxC= 1.00D-01 BMatC= 7.85D-06 BMatP= 2.56D-05
 IDIUse=1 WtCom= 1.00D+00 WtEn= 0.00D+00
 Coeff-Com: -0.925D-03 0.162D-02-0.101D-01-0.227D-01-0.570D-01-0.127D+00
 Coeff-Com:  0.540D-01 0.523D+00 0.640D+00
 Coeff:     -0.925D-03 0.162D-02-0.101D-01-0.227D-01-0.570D-01-0.127D+00
 Coeff:      0.540D-01 0.523D+00 0.640D+00
 Gap=     0.119 Goal=   None    Shift=    0.000
 Gap=     0.089 Goal=   None    Shift=    0.000
 RMSDP=4.68D-06 MaxDP=7.88D-04 DE=-1.97D-05 OVMax= 1.90D-03

 Cycle  10  Pass 1  IDiag  1:
 RMSU=  2.43D-06    CP:  9.58D-01  1.96D+00  8.07D-01  6.19D-01  8.46D-01
                    CP:  1.32D+00  1.51D+00  1.43D+00  8.75D-01
 E= -1328.82800172943     Delta-E=       -0.000003833728 Rises=F Damp=F
 DIIS: error= 1.59D-05 at cycle  10 NSaved=  10.
 NSaved=10 IEnMin=10 EnMin= -1328.82800172943     IErMin=10 ErrMin= 1.59D-05
 ErrMax= 1.59D-05  0.00D+00 EMaxC= 1.00D-01 BMatC= 1.22D-06 BMatP= 7.85D-06
 IDIUse=1 WtCom= 1.00D+00 WtEn= 0.00D+00
 Coeff-Com: -0.771D-04 0.267D-03 0.777D-04-0.871D-03-0.668D-02-0.403D-01
 Coeff-Com: -0.466D-01 0.536D-01 0.311D+00 0.730D+00
 Coeff:     -0.771D-04 0.267D-03 0.777D-04-0.871D-03-0.668D-02-0.403D-01
 Coeff:     -0.466D-01 0.536D-01 0.311D+00 0.730D+00
 Gap=     0.119 Goal=   None    Shift=    0.000
 Gap=     0.089 Goal=   None    Shift=    0.000
 RMSDP=1.90D-06 MaxDP=3.95D-04 DE=-3.83D-06 OVMax= 6.01D-04

 Cycle  11  Pass 1  IDiag  1:
 RMSU=  1.13D-06    CP:  9.58D-01  1.96D+00  8.07D-01  6.18D-01  8.49D-01
                    CP:  1.34D+00  1.54D+00  1.50D+00  1.06D+00  9.82D-01
 E= -1328.82800229781     Delta-E=       -0.000000568382 Rises=F Damp=F
 DIIS: error= 7.41D-06 at cycle  11 NSaved=  11.
 NSaved=11 IEnMin=11 EnMin= -1328.82800229781     IErMin=11 ErrMin= 7.41D-06
 ErrMax= 7.41D-06  0.00D+00 EMaxC= 1.00D-01 BMatC= 2.79D-07 BMatP= 1.22D-06
 IDIUse=1 WtCom= 1.00D+00 WtEn= 0.00D+00
 Coeff-Com:  0.141D-03-0.168D-03 0.241D-02 0.477D-02 0.969D-02 0.730D-02
 Coeff-Com: -0.328D-01-0.906D-01 0.258D-01 0.388D+00 0.685D+00
 Coeff:      0.141D-03-0.168D-03 0.241D-02 0.477D-02 0.969D-02 0.730D-02
 Coeff:     -0.328D-01-0.906D-01 0.258D-01 0.388D+00 0.685D+00
 Gap=     0.119 Goal=   None    Shift=    0.000
 Gap=     0.089 Goal=   None    Shift=    0.000
 RMSDP=7.81D-07 MaxDP=1.13D-04 DE=-5.68D-07 OVMax= 2.76D-04

 Cycle  12  Pass 1  IDiag  1:
 RMSU=  4.15D-07    CP:  9.58D-01  1.96D+00  8.07D-01  6.19D-01  8.50D-01
                    CP:  1.33D+00  1.55D+00  1.53D+00  1.13D+00  1.17D+00
                    CP:  9.20D-01
 E= -1328.82800242818     Delta-E=       -0.000000130364 Rises=F Damp=F
 DIIS: error= 2.99D-06 at cycle  12 NSaved=  12.
 NSaved=12 IEnMin=12 EnMin= -1328.82800242818     IErMin=12 ErrMin= 2.99D-06
 ErrMax= 2.99D-06  0.00D+00 EMaxC= 1.00D-01 BMatC= 2.96D-08 BMatP= 2.79D-07
 IDIUse=1 WtCom= 1.00D+00 WtEn= 0.00D+00
 Coeff-Com:  0.503D-04-0.988D-04 0.724D-03 0.175D-02 0.442D-02 0.103D-01
 Coeff-Com: -0.222D-02-0.405D-01-0.479D-01-0.136D-01 0.219D+00 0.868D+00
 Coeff:      0.503D-04-0.988D-04 0.724D-03 0.175D-02 0.442D-02 0.103D-01
 Coeff:     -0.222D-02-0.405D-01-0.479D-01-0.136D-01 0.219D+00 0.868D+00
 Gap=     0.119 Goal=   None    Shift=    0.000
 Gap=     0.089 Goal=   None    Shift=    0.000
 RMSDP=3.67D-07 MaxDP=6.11D-05 DE=-1.30D-07 OVMax= 1.29D-04

 Cycle  13  Pass 1  IDiag  1:
 RMSU=  2.07D-07    CP:  9.58D-01  1.96D+00  8.07D-01  6.19D-01  8.50D-01
                    CP:  1.33D+00  1.55D+00  1.54D+00  1.15D+00  1.24D+00
                    CP:  1.09D+00  1.01D+00
 E= -1328.82800244832     Delta-E=       -0.000000020143 Rises=F Damp=F
 DIIS: error= 2.67D-06 at cycle  13 NSaved=  13.
 NSaved=13 IEnMin=13 EnMin= -1328.82800244832     IErMin=13 ErrMin= 2.67D-06
 ErrMax= 2.67D-06  0.00D+00 EMaxC= 1.00D-01 BMatC= 1.39D-08 BMatP= 2.96D-08
 IDIUse=1 WtCom= 1.00D+00 WtEn= 0.00D+00
 Coeff-Com: -0.305D-06-0.215D-04 0.400D-04 0.298D-03 0.103D-02 0.515D-02
 Coeff-Com:  0.356D-02-0.933D-02-0.327D-01-0.728D-01 0.183D-01 0.508D+00
 Coeff-Com:  0.578D+00
 Coeff:     -0.305D-06-0.215D-04 0.400D-04 0.298D-03 0.103D-02 0.515D-02
 Coeff:      0.356D-02-0.933D-02-0.327D-01-0.728D-01 0.183D-01 0.508D+00
 Coeff:      0.578D+00
 Gap=     0.119 Goal=   None    Shift=    0.000
 Gap=     0.089 Goal=   None    Shift=    0.000
 RMSDP=1.58D-07 MaxDP=2.71D-05 DE=-2.01D-08 OVMax= 4.57D-05

 Cycle  14  Pass 1  IDiag  1:
 RMSU=  9.83D-08    CP:  9.58D-01  1.96D+00  8.07D-01  6.19D-01  8.50D-01
                    CP:  1.33D+00  1.56D+00  1.54D+00  1.16D+00  1.26D+00
                    CP:  1.13D+00  1.21D+00  8.21D-01
 E= -1328.82800245368     Delta-E=       -0.000000005353 Rises=F Damp=F
 DIIS: error= 1.19D-06 at cycle  14 NSaved=  14.
 NSaved=14 IEnMin=14 EnMin= -1328.82800245368     IErMin=14 ErrMin= 1.19D-06
 ErrMax= 1.19D-06  0.00D+00 EMaxC= 1.00D-01 BMatC= 2.08D-09 BMatP= 1.39D-08
 IDIUse=1 WtCom= 1.00D+00 WtEn= 0.00D+00
 Coeff-Com: -0.197D-04 0.257D-04-0.175D-03-0.306D-03-0.739D-03-0.176D-03
 Coeff-Com:  0.184D-02 0.665D-02-0.255D-02-0.310D-01-0.456D-01 0.486D-02
 Coeff-Com:  0.264D+00 0.803D+00
 Coeff:     -0.197D-04 0.257D-04-0.175D-03-0.306D-03-0.739D-03-0.176D-03
 Coeff:      0.184D-02 0.665D-02-0.255D-02-0.310D-01-0.456D-01 0.486D-02
 Coeff:      0.264D+00 0.803D+00
 Gap=     0.119 Goal=   None    Shift=    0.000
 Gap=     0.089 Goal=   None    Shift=    0.000
 RMSDP=8.02D-08 MaxDP=1.24D-05 DE=-5.35D-09 OVMax= 2.54D-05

 Cycle  15  Pass 1  IDiag  1:
 RMSU=  4.09D-08    CP:  9.58D-01  1.96D+00  8.07D-01  6.19D-01  8.50D-01
                    CP:  1.34D+00  1.56D+00  1.54D+00  1.16D+00  1.27D+00
                    CP:  1.15D+00  1.28D+00  1.05D+00  1.03D+00
 E= -1328.82800245490     Delta-E=       -0.000000001222 Rises=F Damp=F
 DIIS: error= 5.17D-07 at cycle  15 NSaved=  15.
 NSaved=15 IEnMin=15 EnMin= -1328.82800245490     IErMin=15 ErrMin= 5.17D-07
 ErrMax= 5.17D-07  0.00D+00 EMaxC= 1.00D-01 BMatC= 5.22D-10 BMatP= 2.08D-09
 IDIUse=1 WtCom= 1.00D+00 WtEn= 0.00D+00
 Coeff-Com: -0.980D-05 0.164D-04-0.890D-04-0.184D-03-0.536D-03-0.878D-03
 Coeff-Com:  0.128D-03 0.475D-02 0.408D-02-0.327D-02-0.240D-01-0.887D-01
 Coeff-Com:  0.250D-01 0.395D+00 0.688D+00
 Coeff:     -0.980D-05 0.164D-04-0.890D-04-0.184D-03-0.536D-03-0.878D-03
 Coeff:      0.128D-03 0.475D-02 0.408D-02-0.327D-02-0.240D-01-0.887D-01
 Coeff:      0.250D-01 0.395D+00 0.688D+00
 Gap=     0.119 Goal=   None    Shift=    0.000
 Gap=     0.089 Goal=   None    Shift=    0.000
 RMSDP=3.85D-08 MaxDP=5.48D-06 DE=-1.22D-09 OVMax= 1.16D-05

 Cycle  16  Pass 1  IDiag  1:
 RMSU=  2.20D-08    CP:  9.58D-01  1.96D+00  8.07D-01  6.19D-01  8.50D-01
                    CP:  1.34D+00  1.56D+00  1.54D+00  1.17D+00  1.27D+00
                    CP:  1.15D+00  1.31D+00  1.11D+00  1.23D+00  9.12D-01
 E= -1328.82800245524     Delta-E=       -0.000000000346 Rises=F Damp=F
 DIIS: error= 2.17D-07 at cycle  16 NSaved=  16.
 NSaved=16 IEnMin=16 EnMin= -1328.82800245524     IErMin=16 ErrMin= 2.17D-07
 ErrMax= 2.17D-07  0.00D+00 EMaxC= 1.00D-01 BMatC= 1.33D-10 BMatP= 5.22D-10
 IDIUse=1 WtCom= 1.00D+00 WtEn= 0.00D+00
 Coeff-Com:  0.229D-05-0.160D-05 0.215D-04 0.336D-04 0.834D-05-0.304D-03
 Coeff-Com: -0.705D-03-0.198D-03 0.279D-02 0.957D-02 0.635D-02-0.424D-01
 Coeff-Com: -0.806D-01-0.935D-01 0.348D+00 0.850D+00
 Coeff:      0.229D-05-0.160D-05 0.215D-04 0.336D-04 0.834D-05-0.304D-03
 Coeff:     -0.705D-03-0.198D-03 0.279D-02 0.957D-02 0.635D-02-0.424D-01
 Coeff:     -0.806D-01-0.935D-01 0.348D+00 0.850D+00
 Gap=     0.119 Goal=   None    Shift=    0.000
 Gap=     0.089 Goal=   None    Shift=    0.000
 RMSDP=2.39D-08 MaxDP=2.93D-06 DE=-3.46D-10 OVMax= 8.86D-06

 Cycle  17  Pass 1  IDiag  1:
 RMSU=  1.02D-08    CP:  9.58D-01  1.96D+00  8.07D-01  6.19D-01  8.50D-01
                    CP:  1.34D+00  1.56D+00  1.54D+00  1.17D+00  1.27D+00
                    CP:  1.15D+00  1.32D+00  1.16D+00  1.33D+00  1.23D+00
                    CP:  1.08D+00
 E= -1328.82800245525     Delta-E=       -0.000000000003 Rises=F Damp=F
 DIIS: error= 9.49D-08 at cycle  17 NSaved=  17.
 NSaved=17 IEnMin=17 EnMin= -1328.82800245525     IErMin=17 ErrMin= 9.49D-08
 ErrMax= 9.49D-08  0.00D+00 EMaxC= 1.00D-01 BMatC= 1.99D-11 BMatP= 1.33D-10
 IDIUse=1 WtCom= 1.00D+00 WtEn= 0.00D+00
 Coeff-Com:  0.173D-05-0.208D-05 0.191D-04 0.376D-04 0.673D-04 0.185D-06
 Coeff-Com: -0.300D-03-0.667D-03 0.567D-03 0.413D-02 0.530D-02-0.542D-02
 Coeff-Com: -0.351D-01-0.906D-01 0.596D-01 0.338D+00 0.724D+00
 Coeff:      0.173D-05-0.208D-05 0.191D-04 0.376D-04 0.673D-04 0.185D-06
 Coeff:     -0.300D-03-0.667D-03 0.567D-03 0.413D-02 0.530D-02-0.542D-02
 Coeff:     -0.351D-01-0.906D-01 0.596D-01 0.338D+00 0.724D+00
 Gap=     0.119 Goal=   None    Shift=    0.000
 Gap=     0.089 Goal=   None    Shift=    0.000
 RMSDP=8.49D-09 MaxDP=1.30D-06 DE=-2.73D-12 OVMax= 3.18D-06

 Cycle  18  Pass 1  IDiag  1:
 RMSU=  5.35D-09    CP:  9.58D-01  1.96D+00  8.07D-01  6.19D-01  8.50D-01
                    CP:  1.34D+00  1.56D+00  1.54D+00  1.17D+00  1.27D+00
                    CP:  1.16D+00  1.32D+00  1.17D+00  1.36D+00  1.30D+00
                    CP:  1.26D+00  1.10D+00
 E= -1328.82800245531     Delta-E=       -0.000000000064 Rises=F Damp=F
 DIIS: error= 5.80D-08 at cycle  18 NSaved=  18.
 NSaved=18 IEnMin=18 EnMin= -1328.82800245531     IErMin=18 ErrMin= 5.80D-08
 ErrMax= 5.80D-08  0.00D+00 EMaxC= 1.00D-01 BMatC= 7.57D-12 BMatP= 1.99D-11
 IDIUse=1 WtCom= 1.00D+00 WtEn= 0.00D+00
 Coeff-Com:  0.140D-06-0.653D-06 0.346D-05 0.108D-04 0.396D-04 0.126D-03
 Coeff-Com:  0.959D-04-0.317D-03-0.774D-03-0.129D-02 0.440D-03 0.136D-01
 Coeff-Com:  0.120D-01-0.170D-01-0.986D-01-0.142D+00 0.404D+00 0.829D+00
 Coeff:      0.140D-06-0.653D-06 0.346D-05 0.108D-04 0.396D-04 0.126D-03
 Coeff:      0.959D-04-0.317D-03-0.774D-03-0.129D-02 0.440D-03 0.136D-01
 Coeff:      0.120D-01-0.170D-01-0.986D-01-0.142D+00 0.404D+00 0.829D+00
 Gap=     0.119 Goal=   None    Shift=    0.000
 Gap=     0.089 Goal=   None    Shift=    0.000
 RMSDP=6.43D-09 MaxDP=9.63D-07 DE=-6.37D-11 OVMax= 2.54D-06

 Error on total polarization charges =  0.04442
 SCF Done:  E(UB3LYP) =  -1328.82800246     A.U. after   18 cycles
            NFock= 18  Conv=0.64D-08     -V/T= 2.0097
[...]
 .03535606,0.06743718,0.00000370,-0.00002274,-0.00000082,-0.00000364,-0
 .00005508,0.00000157,-0.00000427,0.00004357,-0.00000188,-0.00004576,-0
 .00002272,-0.00000169,0.00003899,-0.00003270,0.00000409,-0.00000914,0.
 00002492,-0.00000062,0.00000870,-0.00000328,-0.00000518,0.00000195,-0.
 00000051,-0.00000031,-0.00000026,-0.00000178,-0.00000029,-0.00000060,-
 0.00000117,-0.00000033,-0.00000375,0.00001283,0.00000322,-0.00004383,-
 0.00000806,-0.00000022,-0.00007469,0.00009060,-0.00008407,0.00015485,-
 0.00038662,0.00025358,-0.00176476,0.00104594,-0.00009612,0.00043241,-0
 .00016719,0.00030123,0.00006844,0.00001880,-0.00004456,-0.00000941,0.0
 0010866,0.00003761,0.00000077,0.00000899,0.00001043,-0.01118450,-0.006
 42568,-0.02048904,-0.00000900,-0.00002678,0.00003129,0.00006154,-0.000
 03766,0.00001556,-0.00000327,0.00000003,0.00001093,0.00002281,-0.00000
 895,0.00000103,-0.00000087,-0.00000023,-0.00000045,-0.00001109,0.00001
 265,0.00000142,0.00000533,0.00000181,-0.00000002,-0.00000157,-0.000000
 60,-0.00000434,-0.00000091,0.00000145,0.00000066,-0.00000026,-0.000000
 30,-0.00000049,0.00000073,0.00000086,0.00000153,0.00000003,-0.00000055
 ,0.00000087,0.00000166,0.00000284,0.00000166,0.00000061,0.00000068,-0.
 00000093,0.00000022,-0.00000070,0.00000016,-0.00000022,0.00000065,0.00
 000089,0.00000038,0.00000023,-0.00000073,-0.00000126,-0.00000007,0.000
 00107,0.00000052,-0.00000058,-0.00000038,-0.00000063,-0.00000012,0.000
 00010,0.00000036,-0.00000067,0.00000037,-0.00000041,0.00000021,0.00000
 024,0.00000007,-0.00000053,0.00000043,-0.00000096,0.00001978,-0.000003
 29,0.00000674,0.00000235,-0.00000442,0.00001475,0.00000984,-0.00001574
 ,0.00000419,-0.00000048,0.00000989,-0.00000468,0.00000033,-0.00000220,
 -0.00003695,0.00000480,0.00001846,0.00000323,0.00000405,0.00000497,-0.
 00000566,0.00000208,0.00000226,0.00000503,0.00000208,-0.00000278,-0.00
 000081,0.00000016,0.00000056,0.00001042,-0.00000647,-0.00000319,-0.000
 00412,0.00000312,0.00000476,-0.00000226,-0.00000019,0.00000278,0.00000
 186,0.00000413,0.00000138,-0.00112295,-0.00118823,0.00100967,0.0002213
 0,-0.00006181,0.00029721,0.00013522,0.00051453,-0.00000046,0.00005097,
 0.00008607,-0.00003697,0.00470448,0.00131693,-0.00367326,0.00006127,0.
 00011913,0.00040464,0.00002570,-0.00007824,0.00024983,-0.00085435,-0.0
 0044035,-0.00156953,-0.10853341,-0.05660944,-0.23935425,0.11673369,0.0
 6202158,0.26155738,0.00002495,-0.00004113,0.00000420,-0.00001076,-0.00
 013966,0.00000455,-0.00000940,0.00011703,-0.00000384,-0.00012262,-0.00
 005911,-0.00000637,0.00010276,-0.00008903,0.00001079,-0.00003501,0.000
 06607,-0.00000631,-0.00006205,-0.00004091,-0.00002282,0.00000470,-0.00
 000116,0.00000034,-0.00000064,-0.00000436,-0.00000020,-0.00000141,-0.0
 0000363,0.00000005,-0.00000602,0.00006630,-0.00000595,-0.00005891,-0.0
 0013352,0.00002310,-0.00009599,0.00062895,-0.00008264,-0.00137199,0.00
 006930,0.00015708,0.00083322,-0.00091677,-0.00023011,-0.00041062,0.000
 10087,-0.00011461,0.00019794,-0.00014643,0.00005811,-0.00022023,0.0005
 4390,0.00112455,0.00010206,0.00000521,0.00000687,-0.00652821,-0.018075
 64,0.00006707,-0.00002075,-0.00000386,0.00000090,0.00010517,0.00001679
 ,0.00000810,-0.00001072,-0.00004811,0.00003995,0.00007772,-0.00003976,
 0.00000779,-0.00000138,-0.00000168,0.00000087,-0.00003849,0.00004549,-
 0.00001094,0.00002519,-0.00002079,0.00001008,-0.00000839,-0.00000151,-
 0.00001040,-0.00000595,0.00000632,0.00000208,-0.00006578,-0.00001742,-
 0.00000062,0.00000149,-0.00000817,0.00000808,0.00000024,0.00000245,0.0
 0000093,0.00015524,0.00017542,0.00007565,0.00000162,-0.00000556,-0.000
 00154,0.00000112,0.00000181,-0.00000031,0.00000041,-0.00000097,0.00000
 017,-0.00000140,0.00000080,-0.00000156,-0.00000341,-0.00000024,-0.0000
 0002,0.00002807,0.00011227,-0.00000855,-0.00000212,0.00000070,0.000000
 09,-0.00000152,0.00000085,-0.00000104,-0.00000128,-0.00000064,0.000000
 35,0.00000045,0.00000139,0.00000019,-0.00001165,0.00002204,0.00000033,
 0.00002954,-0.00000174,0.00000471,0.00000845,0.00000211,0.00000095,0.0
 0000475,0.00000414,0.00000296,-0.00000734,0.00000244,-0.00000615,-0.00
 000131,-0.00000018,0.00000216,0.00000567,-0.00000129,0.00000432,-0.000
 00874,0.00000457,0.00000383,0.00000418,0.00000355,-0.00000206,-0.00000
 053,0.00000097,-0.00000207,0.00001205,-0.00000007,0.00000384,0.0000003
 0,0.00000180,0.00000266,0.00000211,0.00000179,-0.00000387,0.00000061,0
 .00000511,-0.00000053,-0.00223763,0.00030725,0.00353830,0.00003903,-0.
 00140432,0.00034213,0.00007602,0.00036580,0.00001343,0.00029617,-0.000
 18965,-0.00000719,0.00042152,0.00029797,-0.00118842,0.00005381,0.00006
 740,0.00007883,0.00032205,0.00021199,0.00016812,-0.00015291,0.00016906
 ,-0.00008562,-0.06342735,-0.06575347,0.00316513,-0.00420952,-0.0145471
 7,0.00145261,0.06766696,0.00000167,-0.00002090,-0.00000421,-0.00000649
 ,-0.00004383,0.00000828,-0.00000249,0.00002623,0.00000003,-0.00002089,
 -0.00000992,-0.00000093,0.00001573,-0.00001048,0.00000051,0.00001028,0
 .00001040,0.00000205,-0.00003963,-0.00000363,-0.00007734,0.00000109,-0
 .00000037,0.00000009,0.00000022,-0.00000123,-0.00000038,-0.00000060,-0
 .00000024,0.00000007,0.00001346,0.00003762,-0.00000353,0.00001407,-0.0
 0010472,0.00014915,-0.00005109,0.00032956,-0.00007730,0.00165761,-0.00
 137675,-0.00098764,0.00122605,-0.00005177,0.00030372,-0.00055890,0.000
 10402,-0.00015529,0.00021864,-0.00011899,-0.00003348,0.00037463,0.0006
 0553,-0.00028142,0.00005950,-0.00000333,0.00001017,-0.00102406,-0.0049
 9333,-0.00011531,-0.00002380,0.00001788,0.00003465,-0.00002331,0.00009
 698,-0.00001860,-0.00002850,0.00020033,-0.00006173,-0.00000885,0.00001
 240,-0.00000050,-0.00000028,0.00000009,0.00000058,0.00000521,-0.000005
 74,-0.00000431,-0.00000226,0.00000757,-0.00000491,0.00000350,0.0000039
 6,0.00000576,0.00000282,-0.00000083,0.00000215,0.00000363,-0.00003194,
 -0.00002033,-0.00000030,0.00000309,-0.00000313,-0.00000036,-0.00000374
 ,-0.00000038,0.00016954,0.00003436,0.00021589,0.00000010,0.00000061,-0
 .00000069,-0.00000054,-0.00000216,-0.00000025,-0.00000018,-0.00000007,
 -0.00000091,0.00000091,0.00000042,0.00000157,-0.00000010,-0.00000061,0
 .00000025,-0.00000614,0.00000541,0.00000293,-0.00000096,-0.00000157,-0
 .00000119,0.00000069,-0.00000106,0.00000132,-0.00000150,-0.00000007,-0
 .00000065,-0.00000013,-0.00000211,-0.00000036,-0.00001470,-0.00001848,
 0.00000021,-0.00001139,-0.00005007,0.00002140,0.00000843,0.00000260,0.
 00000759,-0.00000141,-0.00000090,-0.00000130,-0.00000116,0.00000081,-0
 .00000171,0.00000042,-0.00000162,-0.00000009,-0.00000345,-0.00001292,-
 0.00001474,-0.00000159,0.00000467,0.00000097,-0.00000406,0.00000355,0.
 00000511,0.00000071,-0.00000120,0.00000023,0.00000048,0.00000247,-0.00
 000015,0.00000251,0.00000218,0.00000606,0.00000179,0.00000121,-0.00000
 539,-0.00000505,0.00000050,-0.00000040,-0.00104377,0.00116060,0.001860
 80,-0.00026491,-0.00047412,0.00001111,0.00007838,0.00007984,-0.0001412
 3,0.00003313,0.00030339,-0.00013746,0.00011515,0.00035475,-0.00059608,
 -0.00003529,-0.00000089,0.00001927,0.00015222,0.00028881,0.00033900,0.
 00003354,0.00018764,0.00010400,-0.06741307,-0.29803998,0.01087895,-0.0
 0088434,-0.00618198,0.00048421,0.07234288,0.32286181,-0.00002059,0.000
 03489,-0.00000262,0.00001473,0.00008419,-0.00000068,0.00000442,-0.0000
 6396,0.00000169,0.00006717,0.00003237,0.00000285,-0.00005752,0.0000474
 3,-0.00000623,0.00001107,-0.00003642,0.00000264,0.00006599,0.00004032,
 0.00001474,-0.00000286,0.00000101,0.00000016,0.00000016,0.00000237,0.0
 0000044,0.00000084,0.00000194,0.00000032,0.00000048,-0.00005092,0.0000
 0170,0.00002062,0.00009114,0.00000523,0.00000082,-0.00045764,0.0000158
 6,0.00085664,0.00061299,-0.00054154,-0.00103973,0.00000972,0.00029213,
 0.00035898,-0.00003152,0.00019583,-0.00015558,0.00012472,-0.00004397,0
 .00066729,-0.00061253,-0.00116354,-0.00008547,0.00000043,-0.00002728,0
 .00559788,0.02509987,-0.00174631,0.00001385,-0.00000424,-0.00001138,-0
 .00007078,-0.00001102,-0.00000907,0.00000991,-0.00010456,0.00001713,-0
 .00003277,0.00001454,-0.00000155,0.00000111,0.00000105,0.00000059,0.00
 001793,-0.00001349,-0.00000082,-0.00000743,-0.00000105,0.00000435,0.00
 000653,0.00000657,0.00001106,0.00000233,-0.00000095,-0.00000262,-0.000
 01832,0.00001077,-0.00000615,0.00000053,-0.00000126,-0.00000290,0.0000
 0024,0.00000072,-0.00000188,0.00008362,0.00019630,-0.00001942,-0.00000
 088,-0.00000030,0.00000183,-0.00000007,0.00000123,0.00000035,-0.000000
 09,-0.00000095,-0.00000098,-0.00000034,0.00000041,0.00000133,0.0000027
 9,0.00000113,-0.00000088,-0.00000798,-0.00000383,0.00000504,0.00000118
 ,0.00000024,-0.00000037,-0.00000042,0.00000013,-0.00000031,0.00000027,
 -0.00000029,-0.00000057,-0.00000004,0.00000040,-0.00000045,0.00000464,
 -0.00001411,0.00000216,-0.00001427,0.00001141,0.00001149,-0.00000477,0
 .00000078,-0.00000604,-0.00000116,-0.00000277,-0.00000078,0.00000355,-
 0.00000141,0.00000472,-0.00000089,-0.00000104,-0.00000044,0.00000122,0
 .00000681,0.00000147,0.00000444,-0.00000282,-0.00000189,0.00000036,-0.
 00000249,-0.00000107,-0.00000017,-0.00000058,0.00000083,-0.00000397,-0
 .00000113,-0.00000452,-0.00000087,-0.00000094,-0.00000137,-0.00000247,
 -0.00000104,0.00000356,0.00000113,-0.00000224,0.00000102,0.00328373,0.
 00007323,-0.00425409,0.00070620,0.00170869,0.00007426,0.00015924,0.000
 04161,0.00021959,-0.00009115,-0.00032127,-0.00005646,0.00005885,0.0010
 4391,0.00161640,-0.00006128,-0.00002218,-0.00010757,-0.00025858,-0.000
 48293,-0.00042438,0.00002602,-0.00022747,0.00026107,0.00263553,0.00921
 636,-0.04792971,-0.00591837,-0.02666722,0.00254277,-0.00760083,-0.0119
 6908,0.05205054,-0.00000834,0.00007226,-0.00000605,0.00001023,0.000146
 58,-0.00000449,0.00001304,-0.00014377,0.00000466,0.00016806,0.00007902
 ,0.00000890,-0.00014800,0.00012669,-0.00001496,0.00005541,-0.00009465,
 0.00000807,-0.00004445,-0.00003240,-0.00002037,-0.00000626,0.00000048,
 -0.00000069,0.00000090,0.00000620,0.00000053,0.00000228,0.00000484,-0.
 00000032,0.00002108,-0.00000834,0.00001146,0.00027580,-0.00021902,0.00
 008998,0.00003747,-0.00019961,-0.00010226,-0.00031298,0.00000914,-0.00
 008835,-0.00074143,-0.00212980,0.00346645,-0.00046205,0.00078113,-0.00
 009215,0.00009270,-0.00005205,-0.00025136,0.00007918,0.00005020,0.0000
 4845,0.00000337,-0.00003168,0.00008554,-0.01767823,0.01056966,-0.00037
 238,-0.00001640,0.00011402,0.00007687,-0.00035354,0.00033735,-0.000051
 61,0.00002032,0.00000557,0.00000142,-0.00011375,0.00005712,-0.00001013
 ,0.00000271,0.00000127,-0.00000035,0.00005311,-0.00006961,0.00001055,-
 0.00002710,0.00001054,-0.00001326,0.00000917,-0.00000316,0.00001469,0.
 00000596,-0.00000856,-0.00000409,0.00000603,-0.00000459,0.00000203,-0.
 00000321,0.00000118,-0.00000816,-0.00000006,-0.00000106,-0.00000080,-0
 .00000112,-0.00000372,-0.00000070,-0.00000219,0.00000450,0.00000189,-0
 .00000111,-0.00000124,0.00000063,-0.00000040,0.00000077,0.00000020,-0.
 00000014,-0.00000254,0.00000091,0.00000374,-0.00000152,-0.00000067,-0.
 00000050,-0.00000960,0.00000120,0.00000281,-0.00000025,0.00000021,0.00
 000082,-0.00000224,0.00000014,0.00000180,0.00000016,-0.00000031,-0.000
 00036,-0.00000056,-0.00000005,-0.00001057,-0.00008873,0.00000028,-0.00
 002994,0.00000163,-0.00000005,-0.00001565,-0.00002500,0.00003921,-0.00
 002189,-0.00000605,-0.00002191,0.00001467,-0.00000033,0.00000955,0.000
 00544,-0.00000306,-0.00000587,-0.00003036,-0.00005060,-0.00006772,0.00
 001556,0.00000092,-0.00000489,-0.00003094,0.00000346,0.00002475,0.0000
 0539,-0.00000348,0.00000643,-0.00003847,0.00001619,-0.00000704,0.00000
 828,0.00000152,0.00000677,0.00000550,-0.00000054,-0.00000574,-0.000017
 44,-0.00001512,-0.00000136,0.00031213,0.00103819,-0.00083340,0.0004058
 4,-0.00009591,-0.00000868,-0.00002970,-0.00006979,0.00003744,0.0004634
 9,-0.00062951,0.00000072,0.00070096,-0.00006407,-0.00140490,0.00078649
 ,0.00006570,0.00047487,0.00001887,-0.00002467,0.00010881,0.00017330,-0
 .00030389,-0.00006857,-0.22982892,0.12281252,-0.01886876,-0.01121727,0
 .00766055,-0.00049529,0.00854650,-0.00506345,0.00076734,0.24886436,0.0
 0001254,-0.00002304,-0.00000429,-0.00000271,-0.00008415,0.00000590,-0.
 00000541,0.00006708,-0.00000285,-0.00006871,-0.00003347,-0.00000332,0.
 00005654,-0.00004985,0.00000547,-0.00001983,0.00003724,-0.00000187,-0.
 00002107,-0.00002775,-0.00002045,0.00000249,-0.00000056,0.00000003,-0.
 00000038,-0.00000235,-0.00000004,-0.00000070,-0.00000205,0.00000004,-0
 .00000567,0.00004010,-0.00000035,-0.00001619,-0.00001630,0.00005540,-0
 .00016891,0.00032844,-0.00017954,0.00038516,-0.00029499,-0.00026588,0.
 00044181,0.00014556,0.00066142,-0.00081156,0.00005728,-0.00048773,0.00
 032344,-0.00017493,-0.00008249,0.00003119,0.00032733,0.00029728,-0.000
 01731,0.00004781,0.00004884,-0.00585238,0.00201768,0.00123241,-0.00003
 674,-0.00000423,0.00009910,0.00003788,0.00002933,0.00000314,-0.0000005
 6,-0.00000920,0.00000283,0.00004306,-0.00002186,0.00000408,-0.00000042
 ,-0.00000124,0.00000075,-0.00002233,0.00002747,-0.00000674,0.00001745,
 -0.00000987,0.00000796,-0.00000348,0.00000160,-0.00000574,-0.00000314,
 0.00000389,0.00000144,0.00000009,0.00000068,-0.00000146,0.00000303,-0.
 00000818,0.00000539,-0.00000069,0.00000209,0.00000019,0.00000263,-0.00
 000513,-0.00000120,0.00000202,-0.00000471,-0.00000025,0.00000040,0.000
 00156,-0.00000059,0.00000017,-0.00000075,0.00000020,-0.00000155,0.0000
 0130,-0.00000119,-0.00000214,0.00000032,0.00000011,-0.00000286,-0.0000
 0019,-0.00000218,-0.00000141,0.00000084,0.00000019,-0.00000104,0.00000
 131,-0.00000111,-0.00000131,-0.00000080,0.00000016,0.00000042,0.000001
 78,0.00000012,-0.00001251,-0.00000176,-0.00000018,0.00001657,0.0000088
 7,0.00000545,0.00002911,0.00001215,-0.00000237,0.00000537,-0.00000061,
 0.00000795,-0.00000274,-0.00000063,-0.00000235,-0.00000073,0.00000021,
 -0.00000098,-0.00000847,-0.00001499,-0.00001160,-0.00000240,0.00000242
 ,0.00000119,-0.00000184,0.00000557,0.00000391,0.00000038,-0.00000066,-
 0.00000106,0.00000411,0.00000336,-0.00000157,0.00000127,-0.00000035,-0
 .00000167,-0.00000053,0.00000058,0.00000125,0.00000207,0.00000109,-0.0
 0000036,-0.00097195,0.00046191,0.00024471,0.00002685,0.00019996,-0.000
 18303,-0.00000046,-0.00004249,-0.00004023,0.00008829,0.00019093,0.0000
 2600,-0.00000325,-0.00010988,-0.00021505,0.00012402,-0.00001821,-0.000
 22420,0.00003692,0.00000088,0.00001478,-0.00018353,-0.00000747,-0.0001
 1024,0.12331413,-0.12889815,0.01187209,-0.00816257,0.00484930,-0.00038
 044,0.02592519,-0.01517972,0.00259599,-0.13451513,0.13617259,0.0000171
 2,-0.00010545,0.00000713,-0.00003230,-0.00018963,0.00000843,-0.0000152
 2,0.00017024,-0.00000375,-0.00019428,-0.00009150,-0.00001054,0.0001713
 7,-0.00014498,0.00001723,-0.00005782,0.00011100,-0.00000830,0.00001569
 ,-0.00001545,-0.00002829,0.00000721,-0.00000089,0.00000080,-0.00000101
 ,-0.00000659,-0.00000114,-0.00000234,-0.00000522,0.00000028,-0.0000237
 5,0.00005883,-0.00001487,-0.00019431,0.00011385,-0.00003248,-0.0001787
 3,0.00045909,0.00000263,0.00055737,-0.00066012,0.00019882,0.00167968,0
 .00260524,-0.00344574,0.00081187,-0.00083753,0.00048719,-0.00005422,0.
 00006293,0.00030941,-0.00012065,0.00003812,0.00001759,-0.00000948,-0.0
 0000579,-0.00012783,0.02316925,-0.01439195,-0.00137192,0.00002196,-0.0
 0011244,-0.00012822,0.00029954,-0.00028441,0.00004626,-0.00001165,0.00
 002537,0.00000260,0.00012599,-0.00006416,0.00001124,-0.00000332,-0.000
 00112,0.00000036,-0.00005589,0.00007828,-0.00001280,0.00002652,-0.0000
 1448,0.00001506,-0.00000994,0.00000113,-0.00001537,-0.00000626,0.00000
 857,0.00000378,-0.00000611,0.00000181,-0.00000215,0.00000149,-0.000002
 80,0.00000885,0.00000048,0.00000063,0.00000036,0.00000143,0.00000332,0
 .00000224,0.00000129,-0.00000563,-0.00000196,0.00000127,0.00000163,-0.
 00000058,0.00000067,-0.00000135,-0.00000073,0.00000030,0.00000144,-0.0
 0000060,-0.00000332,0.00000141,-0.00000027,-0.00000046,0.00000134,0.00
 000036,-0.00000244,0.00000039,-0.00000028,-0.00000117,0.00000134,-0.00
 000025,-0.00000091,-0.00000037,0.00000036,0.00000017,0.00000037,-0.000
 00028,0.00001193,0.00009692,-0.00000223,0.00002957,-0.00000781,0.00000
 044,0.00000836,0.00001449,-0.00003330,0.00001755,0.00000887,0.00001911
 ,-0.00001535,0.00000050,-0.00001132,-0.00000474,0.00000535,0.00001032,
 0.00003749,0.00004846,0.00007100,-0.00001672,0.00000119,0.00000487,0.0
 0003009,-0.00000474,-0.00002535,-0.00000528,0.00000545,-0.00000498,0.0
 0003720,-0.00001689,0.00000832,-0.00000828,0.00000252,-0.00000445,-0.0
 0000431,0.00000156,0.00000518,0.00001456,0.00001531,0.00000178,-0.0002
 1375,-0.00097745,0.00074039,-0.00027665,-0.00026128,-0.00000317,-0.000
 02248,0.00011279,-0.00002671,-0.00029268,0.00015012,0.00019957,0.00048
 436,-0.00066376,0.00170289,-0.00038845,0.00025609,-0.00023285,-0.00009
 523,-0.00004105,-0.00009898,-0.00010973,0.00017326,0.00039015,-0.01997
 255,0.01309799,-0.04739399,-0.02170505,0.01589448,-0.00138791,-0.00099
 171,0.00024433,-0.00098533,0.01752676,-0.01496117,0.05112389\\0.000003
 44,0.00000053,-0.00000399,0.00000295,0.00000247,-0.00000579,0.00000394
 ,0.00000185,-0.00000786,0.00000619,0.00000194,-0.00000791,0.00000522,-
 0.00000006,-0.00000617,0.00000429,-0.00000050,-0.00000419,0.00000135,0
 .00000111,-0.00000284,0.00000537,0.00000332,-0.00000912,0.00000676,0.0
 0000190,-0.00000951,0.00000635,-0.00000023,-0.00000641,0.00000091,0.00
 000248,-0.00000512,-0.00000098,0.00000281,-0.00000241,-0.00000055,0.00
 000170,-0.00000152,-0.00000184,0.00000107,0.00000042,-0.00000276,0.000
 00132,0.00000204,-0.00000332,0.00000270,0.00000115,-0.00000219,0.00000
 330,-0.00000110,-0.00000096,0.00000003,0.00000127,-0.00000455,0.000002
 10,0.00000213,-0.00000395,-0.00000029,0.00000465,-0.00000275,0.0000047
 5,-0.00000200,-0.00000012,0.00000418,-0.00000445,0.00000197,0.00000080
 ,-0.00000210,0.00000353,-0.00000136,-0.00000235,0.00000470,-0.00000202
 ,-0.00000267,0.00000172,-0.00000279,-0.00000054,0.00000278,-0.00000351
 ,0.00000102,0.00000383,-0.00000524,0.00000248,0.00000249,-0.00000356,0
 .00000179,0.00000076,-0.00000316,0.00000269,0.00000373,-0.00000760,0.0
 0000391,0.00000532,-0.00000592,0.00000067,0.00000363,-0.00000615,0.000
 00195,0.00000153,-0.00000481,0.00000255,0.00000365,-0.00000338,-0.0000
 0015,0.00000107,-0.00000157,0.00000047,0.00000416,-0.00000750,0.000004
 24,0.00000477,-0.00000868,0.00000445,0.00000221,-0.00000664,0.00000524
 ,0.00000203,-0.00000435,0.00000315,0.00000037,-0.00000429,0.00000433,0
 .00000281,-0.00000786,0.00000510,0.00000491,-0.00000691,0.00000243,0.0
 0000221,0.00000355,-0.00000572,0.00000197,-0.00000107,-0.00000028,-0.0
 0000107,0.00000336,-0.00000269,-0.00000129,0.00000464,-0.00000363,0.00
 000022,0.00000380,-0.00000433,-0.00000033,0.00000215,-0.00000203,-0.00
 000330,0.00000693,-0.00000352,-0.00000253,0.00000685,-0.00000480,-0.00
 000433,0.00000748,-0.00000403,-0.00000499,0.00000734,-0.00000254,-0.00
 000396,0.00000493,0.00000035,-0.00000396,0.00000298,0.00000089,-0.0000
 0609,0.00000535,0.00000032,-0.00000529,0.00000525,-0.00000088,-0.00000
 524,0.00000062,0.00000600,-0.00000663,0.00000202,0.00000503,-0.0000050
 0,-0.00000017,0.00000507,-0.00000620,-0.00000042,0.00000727,-0.0000052
 5,0.00000053,0.00000463,-0.00000573,-0.00000013,0.00000647,-0.00000393
 ,0.00000036,0.00000394,-0.00000603,0.00000229,0.00000412,-0.00000221,-
 0.00000195,0.00000469,-0.00000149,-0.00000277,0.00000481,-0.00000120,-
 0.00000289,0.00000419,-0.00000312,-0.00000300,0.00000675\\\@


 O WAD SOME POWER THE GIFTIE GIE US       
 TO SEE OURSELS AS OTHERS SEE US.....     
 IT WOULD FRAE MONIE A BLUNDER FREE US,   
                     AND FOOLISH NOTION...
 WHAT AIRS IN DRESS AND GAIT WAD LEA'E US,
                     AND EV'N DEVOTION....
                                          
              (ROBERT BURNS 'TO A LOUSE') 
 Job cpu time:       0 days 14 hours 20 minutes 17.4 seconds.
 Elapsed time:       0 days  0 hours 54 minutes  3.2 seconds.
 File lengths (MBytes):  RWF=   5896 Int=      0 D2E=      0 Chk=     76 Scr=      8
 Normal termination of Gaussian 16 at Fri Dec 21 17:02:17 2018.
