 Entering Gaussian System, Link 0=g16
 Input=cyclohexyl-triBIP-E2PT.com
 Output=cyclohexyl-triBIP-E2PT.log
 Initial command:
 /gpfs/apps/hpc/Apps/Restricted/Gaussian/Rev_A.03/g16/l1.exe "/gpfs/scratch60/fas/hammes_schiffer/jg2487/c43n04/Gau-87733.inp" -scrdir="/gpfs/scratch60/fas/hammes_schiffer/jg2487/c43n04/"
 Entering Link 1 = /gpfs/apps/hpc/Apps/Restricted/Gaussian/Rev_A.03/g16/l1.exe PID=     87734.
  
 Copyright (c) 1988,1990,1992,1993,1995,1998,2003,2009,2016,
            Gaussian, Inc.  All Rights Reserved.
  
 This is part of the Gaussian(R) 16 program.  It is based on
 the Gaussian(R) 09 system (copyright 2009, Gaussian, Inc.),
 the Gaussian(R) 03 system (copyright 2003, Gaussian, Inc.),
 the Gaussian(R) 98 system (copyright 1998, Gaussian, Inc.),
 the Gaussian(R) 94 system (copyright 1995, Gaussian, Inc.),
 the Gaussian 92(TM) system (copyright 1992, Gaussian, Inc.),
 the Gaussian 90(TM) system (copyright 1990, Gaussian, Inc.),
 the Gaussian 88(TM) system (copyright 1988, Gaussian, Inc.),
 the Gaussian 86(TM) system (copyright 1986, Carnegie Mellon
 University), and the Gaussian 82(TM) system (copyright 1983,
 Carnegie Mellon University). Gaussian is a federally registered
 trademark of Gaussian, Inc.
  
 This software contains proprietary and confidential information,
 including trade secrets, belonging to Gaussian, Inc.
  
 This software is provided under written license and may be
 used, copied, transmitted, or stored only in accord with that
 written license.
  
 The following legend is applicable only to US Government
 contracts under FAR:
  
                    RESTRICTED RIGHTS LEGEND
  
 Use, reproduction and disclosure by the US Government is
 subject to restrictions as set forth in subparagraphs (a)
 and (c) of the Commercial Computer Software - Restricted
 Rights clause in FAR 52.227-19.
  
 Gaussian, Inc.
 340 Quinnipiac St., Bldg. 40, Wallingford CT 06492
  
  
 ---------------------------------------------------------------
 Warning -- This program may not be used in any manner that
 competes with the business of Gaussian, Inc. or will provide
 assistance to any competitor of Gaussian, Inc.  The licensee
 of this program is prohibited from giving any competitor of
 Gaussian, Inc. access to this program.  By using this program,
 the user acknowledges that Gaussian, Inc. is engaged in the
 business of creating and licensing software in the field of
 computational chemistry and represents and warrants to the
 licensee that it is not a competitor of Gaussian, Inc. and that
 it will not use this program in any manner prohibited above.
 ---------------------------------------------------------------
  

 Cite this work as:
 Gaussian 16, Revision A.03,
 M. J. Frisch, G. W. Trucks, H. B. Schlegel, G. E. Scuseria, 
 M. A. Robb, J. R. Cheeseman, G. Scalmani, V. Barone, 
 G. A. Petersson, H. Nakatsuji, X. Li, M. Caricato, A. V. Marenich, 
 J. Bloino, B. G. Janesko, R. Gomperts, B. Mennucci, H. P. Hratchian, 
 J. V. Ortiz, A. F. Izmaylov, J. L. Sonnenberg, D. Williams-Young, 
 F. Ding, F. Lipparini, F. Egidi, J. Goings, B. Peng, A. Petrone, 
 T. Henderson, D. Ranasinghe, V. G. Zakrzewski, J. Gao, N. Rega, 
 G. Zheng, W. Liang, M. Hada, M. Ehara, K. Toyota, R. Fukuda, 
 J. Hasegawa, M. Ishida, T. Nakajima, Y. Honda, O. Kitao, H. Nakai, 
 T. Vreven, K. Throssell, J. A. Montgomery, Jr., J. E. Peralta, 
 F. Ogliaro, M. J. Bearpark, J. J. Heyd, E. N. Brothers, K. N. Kudin, 
 V. N. Staroverov, T. A. Keith, R. Kobayashi, J. Normand, 
 K. Raghavachari, A. P. Rendell, J. C. Burant, S. S. Iyengar, 
 J. Tomasi, M. Cossi, J. M. Millam, M. Klene, C. Adamo, R. Cammi, 
 J. W. Ochterski, R. L. Martin, K. Morokuma, O. Farkas, 
 J. B. Foresman, and D. J. Fox, Gaussian, Inc., Wallingford CT, 2016.
 
 ******************************************
 Gaussian 16:  ES64L-G16RevA.03 25-Dec-2016
                16-Dec-2018 
 ******************************************
 %chk=cyclohexyl-triBIP-E2PT.chk
 %mem=10GB
 %nprocshared=16
 Will use up to   16 processors via shared memory.
 ----------------------------------------------------------------
 #p freq(ReadFC,InternalModes) Geom(AllCheck) NoSymm scale=0.9649
 ----------------------------------------------------------------
 1/18=20,29=7,38=1,114=964900/1,3;
 2/9=110,12=2,15=1,40=1/2;
 7/8=21,25=11,30=1/16;
 99/5=2/99;
 Leave Link    1 at Sun Dec 16 14:43:49 2018, MaxMem=  1342177280 cpu:              10.6 elap:               0.7
 (Enter /gpfs/apps/hpc/Apps/Restricted/Gaussian/Rev_A.03/g16/l101.exe)
 Structure from the checkpoint file:  "cyclohexyl-triBIP-E2PT.chk"
 ----------------------------------------------------------------------
 cyclohexylimine triBIP oxidized, first two protons transferred optimiz
 ation
 ----------------------------------------------------------------------
 Charge =  1 Multiplicity = 2
 Redundant internal coordinates found in file.  (old form).
 C,0,1.6397686247,0.4239822971,0.8975284183
 C,0,0.5504842931,1.261039228,0.6084424397
 C,0,0.7122864684,2.6372061785,0.4571598188
 C,0,2.0069591724,3.1306008404,0.6091131349
 C,0,3.0972601504,2.2953202951,0.9036439515
 C,0,2.9433093764,0.913251413,1.0576371291
 C,0,-0.1839880188,-0.8496136455,0.7714157558
 H,0,-0.1242499223,3.284621935,0.2316750242
 H,0,2.1809367482,4.1934635191,0.4958855858
 H,0,4.0832800497,2.7321414625,1.003961205
 C,0,-2.4727832122,-1.7389964639,0.5503104335
 C,0,-3.3757770581,-2.8328425147,0.576248184
 C,0,-2.9607999405,-4.1391116084,0.827481509
 C,0,-1.5992626953,-4.3374365709,1.0556354106
 C,0,-0.6825439557,-3.276346791,1.0366291263
 C,0,-1.097124953,-1.9623800903,0.7881635441
 C,0,-4.4233590637,-0.9302507613,0.1230719749
 H,0,-3.6628655872,-4.9632072593,0.845164121
 H,0,-1.2348217142,-5.3372574724,1.2548299878
 H,0,0.3644373375,-3.4823725049,1.2202521903
 N,0,-0.5560942895,0.4265221974,0.542065298
 C,0,-6.8775484611,-0.5696928989,-0.3640787183
 C,0,-5.5179948105,-0.0386986949,-0.2058785332
 C,0,-5.2858135915,1.3164149971,-0.3763491088
 C,0,-6.3243710237,2.2030482687,-0.70849127
 C,0,-7.6412241908,1.7019229266,-0.8663086064
 C,0,-7.9411325226,0.3705604436,-0.7117087422
 H,0,-4.2783083145,1.6959091554,-0.2536646058
 H,0,-8.4333994863,2.3999862231,-1.1168473451
 C,0,-6.0477735918,3.6588627013,-0.9224312159
 H,0,-5.1251663127,3.9644375022,-0.4272521609
 H,0,-5.9382989516,3.8664773348,-1.9934997882
 H,0,-6.8749234582,4.2724317721,-0.5590947028
 C,0,-9.3227845675,-0.1768955451,-0.8773867105
 H,0,-9.3556127143,-0.9023811188,-1.6961334098
 H,0,-9.6359144374,-0.7126397244,0.0230809331
 H,0,-10.0355391331,0.6214399454,-1.083352858
 O,0,-7.1454424815,-1.7898771568,-0.2106135352
 N,0,-3.1394814142,-0.571627126,0.2704604196
 N,0,-4.5992217409,-2.2739745223,0.3039989031
 N,0,1.1461701049,-0.8641452162,0.984687796
 C,0,4.0191337704,-0.0117370698,1.3709466256
 N,0,3.86261558,-1.3341109276,1.4094798764
 N,0,5.3059105836,0.3659908063,1.6566729443
 C,0,7.3692328282,-0.9653562161,2.2468654768
 C,0,7.7737079079,-2.2935198737,2.41512774
 C,0,6.8812240329,-3.3687245959,2.2479128516
 C,0,5.5458494359,-3.1657169313,1.9080180237
 C,0,5.1099620763,-1.8450603123,1.7326673071
 C,0,6.0232753642,-0.778926007,1.8961907791
 H,0,8.8041053403,-2.4937099519,2.6884217268
 H,0,7.2456538059,-4.3789105933,2.3909639216
 H,0,4.8608305385,-3.9963643834,1.7885251852
 C,0,8.2767237942,0.1626115054,2.4502311654
 H,0,9.3075110205,-0.101194341,2.7001711588
 N,0,7.8675594709,1.3724699603,2.3519368941
 C,0,8.7919131924,2.4852900378,2.5729570082
 C,0,10.2402344517,2.132637535,2.9293846141
 C,0,8.7437816381,3.4086461524,1.3439026174
 H,0,8.3680750569,3.0528504915,3.414338018
 C,0,11.0737309687,3.3988795488,3.1570810543
 H,0,10.6795049571,1.5498409823,2.1104628795
 H,0,10.2666676706,1.4994577929,3.8215734065
 C,0,9.5807870248,4.6728250958,1.5640164454
 H,0,9.1288816469,2.8524862621,0.4801608346
 H,0,7.7019330111,3.6625514952,1.1255763081
 C,0,11.0263115576,4.3308306348,1.9416334602
 H,0,12.1076845276,3.124281199,3.3876296334
 H,0,10.686749607,3.9323065186,4.0344154981
 H,0,9.5590371784,5.2971485261,0.6658059636
 H,0,9.1302747553,5.263569351,2.37131893
 H,0,11.5894898113,5.2466788509,2.1464083931
 H,0,11.5146113939,3.8374848593,1.0919375591
 H,0,-1.5350356024,0.6570524203,0.3556521418
 H,0,-5.520696854,-2.6958680827,0.2154656959
 H,0,1.7625046618,-1.6538066828,1.1726855049
 H,0,5.7236960846,1.2866439927,1.7443603739
 Recover connectivity data from disk.
 ITRead=  0  0  0  0  0  0  0  0  0  0  0  0  0  0  0  0  0  0  0  0
 ITRead=  0  0  0  0  0  0  0  0  0  0  0  0  0  0  0  0  0  0  0  0
 ITRead=  0  0  0  0  0  0  0  0  0  0  0  0  0  0  0  0  0  0  0  0
 ITRead=  0  0  0  0  0  0  0  0  0  0  0  0  0  0  0  0  0
 MicOpt= -1 -1 -1 -1 -1 -1 -1 -1 -1 -1 -1 -1 -1 -1 -1 -1 -1 -1 -1 -1
 MicOpt= -1 -1 -1 -1 -1 -1 -1 -1 -1 -1 -1 -1 -1 -1 -1 -1 -1 -1 -1 -1
 MicOpt= -1 -1 -1 -1 -1 -1 -1 -1 -1 -1 -1 -1 -1 -1 -1 -1 -1 -1 -1 -1
 MicOpt= -1 -1 -1 -1 -1 -1 -1 -1 -1 -1 -1 -1 -1 -1 -1 -1 -1
 NAtoms=     77 NQM=       77 NQMF=       0 NMMI=      0 NMMIF=      0
                NMic=       0 NMicF=      0.
                    Isotopes and Nuclear Properties:
 (Nuclear quadrupole moments (NQMom) in fm**2, nuclear magnetic moments (NMagM)
  in nuclear magnetons)

  Atom         1           2           3           4           5           6           7           8           9          10
 IAtWgt=          12          12          12          12          12          12          12           1           1           1
 AtmWgt=  12.0000000  12.0000000  12.0000000  12.0000000  12.0000000  12.0000000  12.0000000   1.0078250   1.0078250   1.0078250
 NucSpn=           0           0           0           0           0           0           0           1           1           1
 AtZEff=   3.6000000   3.6000000   3.6000000   3.6000000   3.6000000   3.6000000   3.6000000   1.0000000   1.0000000   1.0000000
 NQMom=    0.0000000   0.0000000   0.0000000   0.0000000   0.0000000   0.0000000   0.0000000   0.0000000   0.0000000   0.0000000
 NMagM=    0.0000000   0.0000000   0.0000000   0.0000000   0.0000000   0.0000000   0.0000000   2.7928460   2.7928460   2.7928460
 AtZNuc=   6.0000000   6.0000000   6.0000000   6.0000000   6.0000000   6.0000000   6.0000000   1.0000000   1.0000000   1.0000000

  Atom        11          12          13          14          15          16          17          18          19          20
 IAtWgt=          12          12          12          12          12          12          12           1           1           1
 AtmWgt=  12.0000000  12.0000000  12.0000000  12.0000000  12.0000000  12.0000000  12.0000000   1.0078250   1.0078250   1.0078250
 NucSpn=           0           0           0           0           0           0           0           1           1           1
 AtZEff=   3.6000000   3.6000000   3.6000000   3.6000000   3.6000000   3.6000000   3.6000000   1.0000000   1.0000000   1.0000000
 NQMom=    0.0000000   0.0000000   0.0000000   0.0000000   0.0000000   0.0000000   0.0000000   0.0000000   0.0000000   0.0000000
 NMagM=    0.0000000   0.0000000   0.0000000   0.0000000   0.0000000   0.0000000   0.0000000   2.7928460   2.7928460   2.7928460
 AtZNuc=   6.0000000   6.0000000   6.0000000   6.0000000   6.0000000   6.0000000   6.0000000   1.0000000   1.0000000   1.0000000

  Atom        21          22          23          24          25          26          27          28          29          30
 IAtWgt=          14          12          12          12          12          12          12           1           1          12
 AtmWgt=  14.0030740  12.0000000  12.0000000  12.0000000  12.0000000  12.0000000  12.0000000   1.0078250   1.0078250  12.0000000
 NucSpn=           2           0           0           0           0           0           0           1           1           0
 AtZEff=   4.5500000   3.6000000   3.6000000   3.6000000   3.6000000   3.6000000   3.6000000   1.0000000   1.0000000   3.6000000
 NQMom=    2.0440000   0.0000000   0.0000000   0.0000000   0.0000000   0.0000000   0.0000000   0.0000000   0.0000000   0.0000000
 NMagM=    0.4037610   0.0000000   0.0000000   0.0000000   0.0000000   0.0000000   0.0000000   2.7928460   2.7928460   0.0000000
 AtZNuc=   7.0000000   6.0000000   6.0000000   6.0000000   6.0000000   6.0000000   6.0000000   1.0000000   1.0000000   6.0000000

  Atom        31          32          33          34          35          36          37          38          39          40
 IAtWgt=           1           1           1          12           1           1           1          16          14          14
 AtmWgt=   1.0078250   1.0078250   1.0078250  12.0000000   1.0078250   1.0078250   1.0078250  15.9949146  14.0030740  14.0030740
 NucSpn=           1           1           1           0           1           1           1           0           2           2
 AtZEff=   1.0000000   1.0000000   1.0000000   3.6000000   1.0000000   1.0000000   1.0000000   5.6000000   4.5500000   4.5500000
 NQMom=    0.0000000   0.0000000   0.0000000   0.0000000   0.0000000   0.0000000   0.0000000   0.0000000   2.0440000   2.0440000
 NMagM=    2.7928460   2.7928460   2.7928460   0.0000000   2.7928460   2.7928460   2.7928460   0.0000000   0.4037610   0.4037610
 AtZNuc=   1.0000000   1.0000000   1.0000000   6.0000000   1.0000000   1.0000000   1.0000000   8.0000000   7.0000000   7.0000000

  Atom        41          42          43          44          45          46          47          48          49          50
 IAtWgt=          14          12          14          14          12          12          12          12          12          12
 AtmWgt=  14.0030740  12.0000000  14.0030740  14.0030740  12.0000000  12.0000000  12.0000000  12.0000000  12.0000000  12.0000000
 NucSpn=           2           0           2           2           0           0           0           0           0           0
 AtZEff=   4.5500000   3.6000000   4.5500000   4.5500000   3.6000000   3.6000000   3.6000000   3.6000000   3.6000000   3.6000000
 NQMom=    2.0440000   0.0000000   2.0440000   2.0440000   0.0000000   0.0000000   0.0000000   0.0000000   0.0000000   0.0000000
 NMagM=    0.4037610   0.0000000   0.4037610   0.4037610   0.0000000   0.0000000   0.0000000   0.0000000   0.0000000   0.0000000
 AtZNuc=   7.0000000   6.0000000   7.0000000   7.0000000   6.0000000   6.0000000   6.0000000   6.0000000   6.0000000   6.0000000

  Atom        51          52          53          54          55          56          57          58          59          60
 IAtWgt=           1           1           1          12           1          14          12          12          12           1
 AtmWgt=   1.0078250   1.0078250   1.0078250  12.0000000   1.0078250  14.0030740  12.0000000  12.0000000  12.0000000   1.0078250
 NucSpn=           1           1           1           0           1           2           0           0           0           1
 AtZEff=   1.0000000   1.0000000   1.0000000   3.6000000   1.0000000   4.5500000   3.6000000   3.6000000   3.6000000   1.0000000
 NQMom=    0.0000000   0.0000000   0.0000000   0.0000000   0.0000000   2.0440000   0.0000000   0.0000000   0.0000000   0.0000000
 NMagM=    2.7928460   2.7928460   2.7928460   0.0000000   2.7928460   0.4037610   0.0000000   0.0000000   0.0000000   2.7928460
 AtZNuc=   1.0000000   1.0000000   1.0000000   6.0000000   1.0000000   7.0000000   6.0000000   6.0000000   6.0000000   1.0000000

  Atom        61          62          63          64          65          66          67          68          69          70
 IAtWgt=          12           1           1          12           1           1          12           1           1           1
 AtmWgt=  12.0000000   1.0078250   1.0078250  12.0000000   1.0078250   1.0078250  12.0000000   1.0078250   1.0078250   1.0078250
 NucSpn=           0           1           1           0           1           1           0           1           1           1
 AtZEff=   3.6000000   1.0000000   1.0000000   3.6000000   1.0000000   1.0000000   3.6000000   1.0000000   1.0000000   1.0000000
 NQMom=    0.0000000   0.0000000   0.0000000   0.0000000   0.0000000   0.0000000   0.0000000   0.0000000   0.0000000   0.0000000
 NMagM=    0.0000000   2.7928460   2.7928460   0.0000000   2.7928460   2.7928460   0.0000000   2.7928460   2.7928460   2.7928460
 AtZNuc=   6.0000000   1.0000000   1.0000000   6.0000000   1.0000000   1.0000000   6.0000000   1.0000000   1.0000000   1.0000000

  Atom        71          72          73          74          75          76          77
 IAtWgt=           1           1           1           1           1           1           1
 AtmWgt=   1.0078250   1.0078250   1.0078250   1.0078250   1.0078250   1.0078250   1.0078250
 NucSpn=           1           1           1           1           1           1           1
 AtZEff=   1.0000000   1.0000000   1.0000000   1.0000000   1.0000000   1.0000000   1.0000000
 NQMom=    0.0000000   0.0000000   0.0000000   0.0000000   0.0000000   0.0000000   0.0000000
 NMagM=    2.7928460   2.7928460   2.7928460   2.7928460   2.7928460   2.7928460   2.7928460
 AtZNuc=   1.0000000   1.0000000   1.0000000   1.0000000   1.0000000   1.0000000   1.0000000
 Leave Link  101 at Sun Dec 16 14:43:49 2018, MaxMem=  1342177280 cpu:               4.9 elap:               0.3
 (Enter /gpfs/apps/hpc/Apps/Restricted/Gaussian/Rev_A.03/g16/l103.exe)

 GradGradGradGradGradGradGradGradGradGradGradGradGradGradGradGradGradGrad
 Berny optimization.
 Initialization pass.
                           ----------------------------
                           !    Initial Parameters    !
                           ! (Angstroms and Degrees)  !
 --------------------------                            --------------------------
 ! Name  Definition              Value          Derivative Info.                !
 --------------------------------------------------------------------------------
 ! R1    R(1,2)                  1.4038         estimate D2E/DX2                !
 ! R2    R(1,6)                  1.4015         estimate D2E/DX2                !
 ! R3    R(1,41)                 1.3822         estimate D2E/DX2                !
 ! R4    R(2,3)                  1.3939         estimate D2E/DX2                !
 ! R5    R(2,21)                 1.3876         estimate D2E/DX2                !
 ! R6    R(3,4)                  1.3938         estimate D2E/DX2                !
 ! R7    R(3,8)                  1.0816         estimate D2E/DX2                !
 ! R8    R(4,5)                  1.4047         estimate D2E/DX2                !
 ! R9    R(4,9)                  1.0829         estimate D2E/DX2                !
 ! R10   R(5,6)                  1.3991         estimate D2E/DX2                !
 ! R11   R(5,10)                 1.0831         estimate D2E/DX2                !
 ! R12   R(6,42)                 1.453          estimate D2E/DX2                !
 ! R13   R(7,16)                 1.4396         estimate D2E/DX2                !
 ! R14   R(7,21)                 1.3489         estimate D2E/DX2                !
 ! R15   R(7,41)                 1.3472         estimate D2E/DX2                !
 ! R16   R(11,12)                1.4187         estimate D2E/DX2                !
 ! R17   R(11,16)                1.4138         estimate D2E/DX2                !
 ! R18   R(11,39)                1.3732         estimate D2E/DX2                !
 ! R19   R(12,13)                1.3934         estimate D2E/DX2                !
 ! R20   R(12,40)                1.3723         estimate D2E/DX2                !
 ! R21   R(13,14)                1.3947         estimate D2E/DX2                !
 ! R22   R(13,18)                1.0827         estimate D2E/DX2                !
 ! R23   R(14,15)                1.4024         estimate D2E/DX2                !
 ! R24   R(14,19)                1.0827         estimate D2E/DX2                !
 ! R25   R(15,16)                1.4            estimate D2E/DX2                !
 ! R26   R(15,20)                1.0827         estimate D2E/DX2                !
 ! R27   R(17,23)                1.4496         estimate D2E/DX2                !
 ! R28   R(17,39)                1.3411         estimate D2E/DX2                !
 ! R29   R(17,40)                1.3672         estimate D2E/DX2                !
 ! R30   R(21,74)                1.0228         estimate D2E/DX2                !
 ! R31   R(22,23)                1.4681         estimate D2E/DX2                !
 ! R32   R(22,27)                1.4616         estimate D2E/DX2                !
 ! R33   R(22,38)                1.2586         estimate D2E/DX2                !
 ! R34   R(23,24)                1.3854         estimate D2E/DX2                !
 ! R35   R(24,25)                1.4054         estimate D2E/DX2                !
 ! R36   R(24,28)                1.0836         estimate D2E/DX2                !
 ! R37   R(25,26)                1.4178         estimate D2E/DX2                !
 ! R38   R(25,30)                1.4972         estimate D2E/DX2                !
 ! R39   R(26,27)                1.3735         estimate D2E/DX2                !
 ! R40   R(26,29)                1.0852         estimate D2E/DX2                !
 ! R41   R(27,34)                1.4954         estimate D2E/DX2                !
 ! R42   R(30,31)                1.0908         estimate D2E/DX2                !
 ! R43   R(30,32)                1.0965         estimate D2E/DX2                !
 ! R44   R(30,33)                1.0921         estimate D2E/DX2                !
 ! R45   R(34,35)                1.0944         estimate D2E/DX2                !
 ! R46   R(34,36)                1.0936         estimate D2E/DX2                !
 ! R47   R(34,37)                1.0899         estimate D2E/DX2                !
 ! R48   R(40,75)                1.0173         estimate D2E/DX2                !
 ! R49   R(41,76)                1.0192         estimate D2E/DX2                !
 ! R50   R(42,43)                1.3322         estimate D2E/DX2                !
 ! R51   R(42,44)                1.3712         estimate D2E/DX2                !
 ! R52   R(43,49)                1.3861         estimate D2E/DX2                !
 ! R53   R(44,50)                1.3722         estimate D2E/DX2                !
 ! R54   R(44,77)                1.0148         estimate D2E/DX2                !
 ! R55   R(45,46)                1.3985         estimate D2E/DX2                !
 ! R56   R(45,50)                1.4033         estimate D2E/DX2                !
 ! R57   R(45,54)                1.4619         estimate D2E/DX2                !
 ! R58   R(46,47)                1.4073         estimate D2E/DX2                !
 ! R59   R(46,51)                1.0847         estimate D2E/DX2                !
 ! R60   R(47,48)                1.3928         estimate D2E/DX2                !
 ! R61   R(47,52)                1.0834         estimate D2E/DX2                !
 ! R62   R(48,49)                1.4017         estimate D2E/DX2                !
 ! R63   R(48,53)                1.0833         estimate D2E/DX2                !
 ! R64   R(49,50)                1.4133         estimate D2E/DX2                !
 ! R65   R(54,55)                1.093          estimate D2E/DX2                !
 ! R66   R(54,56)                1.281          estimate D2E/DX2                !
 ! R67   R(56,57)                1.4634         estimate D2E/DX2                !
 ! R68   R(57,58)                1.5327         estimate D2E/DX2                !
 ! R69   R(57,59)                1.538          estimate D2E/DX2                !
 ! R70   R(57,60)                1.0999         estimate D2E/DX2                !
 ! R71   R(58,61)                1.5329         estimate D2E/DX2                !
 ! R72   R(58,62)                1.0969         estimate D2E/DX2                !
 ! R73   R(58,63)                1.0944         estimate D2E/DX2                !
 ! R74   R(59,64)                1.532          estimate D2E/DX2                !
 ! R75   R(59,65)                1.0971         estimate D2E/DX2                !
 ! R76   R(59,66)                1.0943         estimate D2E/DX2                !
 ! R77   R(61,67)                1.5323         estimate D2E/DX2                !
 ! R78   R(61,68)                1.0944         estimate D2E/DX2                !
 ! R79   R(61,69)                1.0973         estimate D2E/DX2                !
 ! R80   R(64,67)                1.5327         estimate D2E/DX2                !
 ! R81   R(64,70)                1.0941         estimate D2E/DX2                !
 ! R82   R(64,71)                1.0971         estimate D2E/DX2                !
 ! R83   R(67,72)                1.0945         estimate D2E/DX2                !
 ! R84   R(67,73)                1.0972         estimate D2E/DX2                !
 ! A1    A(2,1,6)              122.4837         estimate D2E/DX2                !
 ! A2    A(2,1,41)             106.9519         estimate D2E/DX2                !
 ! A3    A(6,1,41)             130.5626         estimate D2E/DX2                !
 ! A4    A(1,2,3)              121.3969         estimate D2E/DX2                !
 ! A5    A(1,2,21)             105.667          estimate D2E/DX2                !
 ! A6    A(3,2,21)             132.9347         estimate D2E/DX2                !
 ! A7    A(2,3,4)              116.4543         estimate D2E/DX2                !
 ! A8    A(2,3,8)              121.5895         estimate D2E/DX2                !
 ! A9    A(4,3,8)              121.9561         estimate D2E/DX2                !
 ! A10   A(3,4,5)              122.2311         estimate D2E/DX2                !
 ! A11   A(3,4,9)              119.0291         estimate D2E/DX2                !
 ! A12   A(5,4,9)              118.7398         estimate D2E/DX2                !
 ! A13   A(4,5,6)              121.672          estimate D2E/DX2                !
 ! A14   A(4,5,10)             119.0917         estimate D2E/DX2                !
 ! A15   A(6,5,10)             119.2334         estimate D2E/DX2                !
 ! A16   A(1,6,5)              115.7608         estimate D2E/DX2                !
 ! A17   A(1,6,42)             119.4101         estimate D2E/DX2                !
 ! A18   A(5,6,42)             124.8281         estimate D2E/DX2                !
 ! A19   A(16,7,21)            123.9368         estimate D2E/DX2                !
 ! A20   A(16,7,41)            128.0318         estimate D2E/DX2                !
 ! A21   A(21,7,41)            108.0279         estimate D2E/DX2                !
 ! A22   A(12,11,16)           119.6322         estimate D2E/DX2                !
 ! A23   A(12,11,39)           110.4982         estimate D2E/DX2                !
 ! A24   A(16,11,39)           129.8681         estimate D2E/DX2                !
 ! A25   A(11,12,13)           122.4491         estimate D2E/DX2                !
 ! A26   A(11,12,40)           104.4676         estimate D2E/DX2                !
 ! A27   A(13,12,40)           133.0814         estimate D2E/DX2                !
 ! A28   A(12,13,14)           116.9702         estimate D2E/DX2                !
 ! A29   A(12,13,18)           121.5569         estimate D2E/DX2                !
 ! A30   A(14,13,18)           121.4728         estimate D2E/DX2                !
 ! A31   A(13,14,15)           121.8934         estimate D2E/DX2                !
 ! A32   A(13,14,19)           119.3428         estimate D2E/DX2                !
 ! A33   A(15,14,19)           118.7637         estimate D2E/DX2                !
 ! A34   A(14,15,16)           121.2621         estimate D2E/DX2                !
 ! A35   A(14,15,20)           119.0667         estimate D2E/DX2                !
 ! A36   A(16,15,20)           119.671          estimate D2E/DX2                !
 ! A37   A(7,16,11)            119.5446         estimate D2E/DX2                !
 ! A38   A(7,16,15)            122.6629         estimate D2E/DX2                !
 ! A39   A(11,16,15)           117.7923         estimate D2E/DX2                !
 ! A40   A(23,17,39)           125.6878         estimate D2E/DX2                !
 ! A41   A(23,17,40)           122.5049         estimate D2E/DX2                !
 ! A42   A(39,17,40)           111.802          estimate D2E/DX2                !
 ! A43   A(2,21,7)             109.9285         estimate D2E/DX2                !
 ! A44   A(2,21,74)            129.5262         estimate D2E/DX2                !
 ! A45   A(7,21,74)            120.5453         estimate D2E/DX2                !
 ! A46   A(23,22,27)           117.8298         estimate D2E/DX2                !
 ! A47   A(23,22,38)           122.3168         estimate D2E/DX2                !
 ! A48   A(27,22,38)           119.8534         estimate D2E/DX2                !
 ! A49   A(17,23,22)           120.086          estimate D2E/DX2                !
 ! A50   A(17,23,24)           120.1964         estimate D2E/DX2                !
 ! A51   A(22,23,24)           119.7173         estimate D2E/DX2                !
 ! A52   A(23,24,25)           121.4892         estimate D2E/DX2                !
 ! A53   A(23,24,28)           118.9775         estimate D2E/DX2                !
 ! A54   A(25,24,28)           119.5328         estimate D2E/DX2                !
 ! A55   A(24,25,26)           119.3208         estimate D2E/DX2                !
 ! A56   A(24,25,30)           120.7101         estimate D2E/DX2                !
 ! A57   A(26,25,30)           119.9578         estimate D2E/DX2                !
 ! A58   A(25,26,27)           122.2021         estimate D2E/DX2                !
 ! A59   A(25,26,29)           118.4478         estimate D2E/DX2                !
 ! A60   A(27,26,29)           119.3501         estimate D2E/DX2                !
 ! A61   A(22,27,26)           119.4379         estimate D2E/DX2                !
 ! A62   A(22,27,34)           117.5938         estimate D2E/DX2                !
 ! A63   A(26,27,34)           122.9677         estimate D2E/DX2                !
 ! A64   A(25,30,31)           111.333          estimate D2E/DX2                !
 ! A65   A(25,30,32)           110.0069         estimate D2E/DX2                !
 ! A66   A(25,30,33)           111.0284         estimate D2E/DX2                !
 ! A67   A(31,30,32)           107.8157         estimate D2E/DX2                !
 ! A68   A(31,30,33)           109.4025         estimate D2E/DX2                !
 ! A69   A(32,30,33)           107.1112         estimate D2E/DX2                !
 ! A70   A(27,34,35)           110.6886         estimate D2E/DX2                !
 ! A71   A(27,34,36)           110.6516         estimate D2E/DX2                !
 ! A72   A(27,34,37)           110.9174         estimate D2E/DX2                !
 ! A73   A(35,34,36)           106.4192         estimate D2E/DX2                !
 ! A74   A(35,34,37)           108.9403         estimate D2E/DX2                !
 ! A75   A(36,34,37)           109.0997         estimate D2E/DX2                !
 ! A76   A(11,39,17)           105.0618         estimate D2E/DX2                !
 ! A77   A(12,40,17)           108.1693         estimate D2E/DX2                !
 ! A78   A(12,40,75)           130.9876         estimate D2E/DX2                !
 ! A79   A(17,40,75)           120.8358         estimate D2E/DX2                !
 ! A80   A(1,41,7)             109.4236         estimate D2E/DX2                !
 ! A81   A(1,41,76)            121.1798         estimate D2E/DX2                !
 ! A82   A(7,41,76)            129.3916         estimate D2E/DX2                !
 ! A83   A(6,42,43)            123.4479         estimate D2E/DX2                !
 ! A84   A(6,42,44)            124.3614         estimate D2E/DX2                !
 ! A85   A(43,42,44)           112.1905         estimate D2E/DX2                !
 ! A86   A(42,43,49)           105.4811         estimate D2E/DX2                !
 ! A87   A(42,44,50)           107.2859         estimate D2E/DX2                !
 ! A88   A(42,44,77)           130.8647         estimate D2E/DX2                !
 ! A89   A(50,44,77)           121.7802         estimate D2E/DX2                !
 ! A90   A(46,45,50)           115.6972         estimate D2E/DX2                !
 ! A91   A(46,45,54)           122.4438         estimate D2E/DX2                !
 ! A92   A(50,45,54)           121.8458         estimate D2E/DX2                !
 ! A93   A(45,46,47)           121.8606         estimate D2E/DX2                !
 ! A94   A(45,46,51)           118.7072         estimate D2E/DX2                !
 ! A95   A(47,46,51)           119.431          estimate D2E/DX2                !
 ! A96   A(46,47,48)           121.7122         estimate D2E/DX2                !
 ! A97   A(46,47,52)           118.9058         estimate D2E/DX2                !
 ! A98   A(48,47,52)           119.3818         estimate D2E/DX2                !
 ! A99   A(47,48,49)           117.7739         estimate D2E/DX2                !
 ! A100  A(47,48,53)           121.4281         estimate D2E/DX2                !
 ! A101  A(49,48,53)           120.7968         estimate D2E/DX2                !
 ! A102  A(43,49,48)           131.0168         estimate D2E/DX2                !
 ! A103  A(43,49,50)           109.2944         estimate D2E/DX2                !
 ! A104  A(48,49,50)           119.6884         estimate D2E/DX2                !
 ! A105  A(44,50,45)           130.9875         estimate D2E/DX2                !
 ! A106  A(44,50,49)           105.7463         estimate D2E/DX2                !
 ! A107  A(45,50,49)           123.2636         estimate D2E/DX2                !
 ! A108  A(45,54,55)           115.5321         estimate D2E/DX2                !
 ! A109  A(45,54,56)           121.318          estimate D2E/DX2                !
 ! A110  A(55,54,56)           123.1455         estimate D2E/DX2                !
 ! A111  A(54,56,57)           120.3225         estimate D2E/DX2                !
 ! A112  A(56,57,58)           117.1958         estimate D2E/DX2                !
 ! A113  A(56,57,59)           108.4251         estimate D2E/DX2                !
 ! A114  A(56,57,60)           105.339          estimate D2E/DX2                !
 ! A115  A(58,57,59)           110.7046         estimate D2E/DX2                !
 ! A116  A(58,57,60)           107.7572         estimate D2E/DX2                !
 ! A117  A(59,57,60)           106.8254         estimate D2E/DX2                !
 ! A118  A(57,58,61)           110.9949         estimate D2E/DX2                !
 ! A119  A(57,58,62)           109.09           estimate D2E/DX2                !
 ! A120  A(57,58,63)           110.2152         estimate D2E/DX2                !
 ! A121  A(61,58,62)           109.3913         estimate D2E/DX2                !
 ! A122  A(61,58,63)           110.1021         estimate D2E/DX2                !
 ! A123  A(62,58,63)           106.9519         estimate D2E/DX2                !
 ! A124  A(57,59,64)           111.314          estimate D2E/DX2                !
 ! A125  A(57,59,65)           108.289          estimate D2E/DX2                !
 ! A126  A(57,59,66)           109.1786         estimate D2E/DX2                !
 ! A127  A(64,59,65)           109.8548         estimate D2E/DX2                !
 ! A128  A(64,59,66)           110.9368         estimate D2E/DX2                !
 ! A129  A(65,59,66)           107.1409         estimate D2E/DX2                !
 ! A130  A(58,61,67)           111.5756         estimate D2E/DX2                !
 ! A131  A(58,61,68)           109.739          estimate D2E/DX2                !
 ! A132  A(58,61,69)           109.1816         estimate D2E/DX2                !
 ! A133  A(67,61,68)           110.4229         estimate D2E/DX2                !
 ! A134  A(67,61,69)           109.1248         estimate D2E/DX2                !
 ! A135  A(68,61,69)           106.6634         estimate D2E/DX2                !
 ! A136  A(59,64,67)           111.5025         estimate D2E/DX2                !
 ! A137  A(59,64,70)           110.0018         estimate D2E/DX2                !
 ! A138  A(59,64,71)           109.007          estimate D2E/DX2                !
 ! A139  A(67,64,70)           110.3861         estimate D2E/DX2                !
 ! A140  A(67,64,71)           109.0343         estimate D2E/DX2                !
 ! A141  A(70,64,71)           106.7787         estimate D2E/DX2                !
 ! A142  A(61,67,64)           111.1197         estimate D2E/DX2                !
 ! A143  A(61,67,72)           110.157          estimate D2E/DX2                !
 ! A144  A(61,67,73)           109.0889         estimate D2E/DX2                !
 ! A145  A(64,67,72)           110.1625         estimate D2E/DX2                !
 ! A146  A(64,67,73)           109.2246         estimate D2E/DX2                !
 ! A147  A(72,67,73)           106.9867         estimate D2E/DX2                !
 ! D1    D(6,1,2,3)              0.3391         estimate D2E/DX2                !
 ! D2    D(6,1,2,21)          -179.2743         estimate D2E/DX2                !
 ! D3    D(41,1,2,3)           179.9014         estimate D2E/DX2                !
 ! D4    D(41,1,2,21)            0.288          estimate D2E/DX2                !
 ! D5    D(2,1,6,5)             -0.3488         estimate D2E/DX2                !
 ! D6    D(2,1,6,42)           179.3113         estimate D2E/DX2                !
 ! D7    D(41,1,6,5)          -179.7977         estimate D2E/DX2                !
 ! D8    D(41,1,6,42)           -0.1375         estimate D2E/DX2                !
 ! D9    D(2,1,41,7)            -0.349          estimate D2E/DX2                !
 ! D10   D(2,1,41,76)          178.912          estimate D2E/DX2                !
 ! D11   D(6,1,41,7)           179.165          estimate D2E/DX2                !
 ! D12   D(6,1,41,76)           -1.5741         estimate D2E/DX2                !
 ! D13   D(1,2,3,4)             -0.045          estimate D2E/DX2                !
 ! D14   D(1,2,3,8)            179.8246         estimate D2E/DX2                !
 ! D15   D(21,2,3,4)           179.4466         estimate D2E/DX2                !
 ! D16   D(21,2,3,8)            -0.6838         estimate D2E/DX2                !
 ! D17   D(1,2,21,7)            -0.132          estimate D2E/DX2                !
 ! D18   D(1,2,21,74)          179.7866         estimate D2E/DX2                !
 ! D19   D(3,2,21,7)          -179.6813         estimate D2E/DX2                !
 ! D20   D(3,2,21,74)            0.2373         estimate D2E/DX2                !
 ! D21   D(2,3,4,5)             -0.2144         estimate D2E/DX2                !
 ! D22   D(2,3,4,9)            179.7301         estimate D2E/DX2                !
 ! D23   D(8,3,4,5)            179.9166         estimate D2E/DX2                !
 ! D24   D(8,3,4,9)             -0.1389         estimate D2E/DX2                !
 ! D25   D(3,4,5,6)              0.1962         estimate D2E/DX2                !
 ! D26   D(3,4,5,10)           179.5691         estimate D2E/DX2                !
 ! D27   D(9,4,5,6)           -179.7484         estimate D2E/DX2                !
 ! D28   D(9,4,5,10)            -0.3756         estimate D2E/DX2                !
 ! D29   D(4,5,6,1)              0.0878         estimate D2E/DX2                !
 ! D30   D(4,5,6,42)          -179.5516         estimate D2E/DX2                !
 ! D31   D(10,5,6,1)          -179.2842         estimate D2E/DX2                !
 ! D32   D(10,5,6,42)            1.0764         estimate D2E/DX2                !
 ! D33   D(1,6,42,43)            5.7741         estimate D2E/DX2                !
 ! D34   D(1,6,42,44)         -174.3897         estimate D2E/DX2                !
 ! D35   D(5,6,42,43)         -174.5987         estimate D2E/DX2                !
 ! D36   D(5,6,42,44)            5.2374         estimate D2E/DX2                !
 ! D37   D(21,7,16,11)           0.1675         estimate D2E/DX2                !
 ! D38   D(21,7,16,15)        -179.6349         estimate D2E/DX2                !
 ! D39   D(41,7,16,11)         179.4083         estimate D2E/DX2                !
 ! D40   D(41,7,16,15)          -0.3941         estimate D2E/DX2                !
 ! D41   D(16,7,21,2)          179.29           estimate D2E/DX2                !
 ! D42   D(16,7,21,74)          -0.6371         estimate D2E/DX2                !
 ! D43   D(41,7,21,2)           -0.0811         estimate D2E/DX2                !
 ! D44   D(41,7,21,74)         179.9918         estimate D2E/DX2                !
 ! D45   D(16,7,41,1)         -179.0687         estimate D2E/DX2                !
 ! D46   D(16,7,41,76)           1.7495         estimate D2E/DX2                !
 ! D47   D(21,7,41,1)            0.2689         estimate D2E/DX2                !
 ! D48   D(21,7,41,76)        -178.9129         estimate D2E/DX2                !
 ! D49   D(16,11,12,13)         -0.1121         estimate D2E/DX2                !
 ! D50   D(16,11,12,40)       -179.6688         estimate D2E/DX2                !
 ! D51   D(39,11,12,13)        179.4898         estimate D2E/DX2                !
 ! D52   D(39,11,12,40)         -0.0669         estimate D2E/DX2                !
 ! D53   D(12,11,16,7)        -179.5318         estimate D2E/DX2                !
 ! D54   D(12,11,16,15)          0.2802         estimate D2E/DX2                !
 ! D55   D(39,11,16,7)           0.954          estimate D2E/DX2                !
 ! D56   D(39,11,16,15)       -179.234          estimate D2E/DX2                !
 ! D57   D(12,11,39,17)         -0.1344         estimate D2E/DX2                !
 ! D58   D(16,11,39,17)        179.4148         estimate D2E/DX2                !
 ! D59   D(11,12,13,14)         -0.0685         estimate D2E/DX2                !
 ! D60   D(11,12,13,18)        179.9179         estimate D2E/DX2                !
 ! D61   D(40,12,13,14)        179.3439         estimate D2E/DX2                !
 ! D62   D(40,12,13,18)         -0.6697         estimate D2E/DX2                !
 ! D63   D(11,12,40,17)          0.2404         estimate D2E/DX2                !
 ! D64   D(11,12,40,75)        179.2397         estimate D2E/DX2                !
 ! D65   D(13,12,40,17)       -179.2475         estimate D2E/DX2                !
 ! D66   D(13,12,40,75)         -0.2482         estimate D2E/DX2                !
 ! D67   D(12,13,14,15)          0.0757         estimate D2E/DX2                !
 ! D68   D(12,13,14,19)        179.9971         estimate D2E/DX2                !
 ! D69   D(18,13,14,15)       -179.9107         estimate D2E/DX2                !
 ! D70   D(18,13,14,19)          0.0107         estimate D2E/DX2                !
 ! D71   D(13,14,15,16)          0.1007         estimate D2E/DX2                !
 ! D72   D(13,14,15,20)        179.9736         estimate D2E/DX2                !
 ! D73   D(19,14,15,16)       -179.8211         estimate D2E/DX2                !
 ! D74   D(19,14,15,20)          0.0518         estimate D2E/DX2                !
 ! D75   D(14,15,16,7)         179.5282         estimate D2E/DX2                !
 ! D76   D(14,15,16,11)         -0.2775         estimate D2E/DX2                !
 ! D77   D(20,15,16,7)          -0.3439         estimate D2E/DX2                !
 ! D78   D(20,15,16,11)        179.8504         estimate D2E/DX2                !
 ! D79   D(39,17,23,22)        178.7792         estimate D2E/DX2                !
 ! D80   D(39,17,23,24)         -1.0222         estimate D2E/DX2                !
 ! D81   D(40,17,23,22)         -0.3167         estimate D2E/DX2                !
 ! D82   D(40,17,23,24)        179.8819         estimate D2E/DX2                !
 ! D83   D(23,17,39,11)       -178.8849         estimate D2E/DX2                !
 ! D84   D(40,17,39,11)          0.2939         estimate D2E/DX2                !
 ! D85   D(23,17,40,12)        178.8611         estimate D2E/DX2                !
 ! D86   D(23,17,40,75)         -0.2592         estimate D2E/DX2                !
 ! D87   D(39,17,40,12)         -0.348          estimate D2E/DX2                !
 ! D88   D(39,17,40,75)       -179.4683         estimate D2E/DX2                !
 ! D89   D(27,22,23,17)       -179.2789         estimate D2E/DX2                !
 ! D90   D(27,22,23,24)          0.5235         estimate D2E/DX2                !
 ! D91   D(38,22,23,17)          0.743          estimate D2E/DX2                !
 ! D92   D(38,22,23,24)       -179.4547         estimate D2E/DX2                !
 ! D93   D(23,22,27,26)         -0.5126         estimate D2E/DX2                !
 ! D94   D(23,22,27,34)        179.7397         estimate D2E/DX2                !
 ! D95   D(38,22,27,26)        179.4661         estimate D2E/DX2                !
 ! D96   D(38,22,27,34)         -0.2816         estimate D2E/DX2                !
 ! D97   D(17,23,24,25)        179.362          estimate D2E/DX2                !
 ! D98   D(17,23,24,28)         -0.3898         estimate D2E/DX2                !
 ! D99   D(22,23,24,25)         -0.4402         estimate D2E/DX2                !
 ! D100  D(22,23,24,28)        179.8081         estimate D2E/DX2                !
 ! D101  D(23,24,25,26)          0.3268         estimate D2E/DX2                !
 ! D102  D(23,24,25,30)       -178.45           estimate D2E/DX2                !
 ! D103  D(28,24,25,26)       -179.9228         estimate D2E/DX2                !
 ! D104  D(28,24,25,30)          1.3004         estimate D2E/DX2                !
 ! D105  D(24,25,26,27)         -0.3193         estimate D2E/DX2                !
 ! D106  D(24,25,26,29)        179.6304         estimate D2E/DX2                !
 ! D107  D(30,25,26,27)        178.4669         estimate D2E/DX2                !
 ! D108  D(30,25,26,29)         -1.5835         estimate D2E/DX2                !
 ! D109  D(24,25,30,31)        -22.2164         estimate D2E/DX2                !
 ! D110  D(24,25,30,32)         97.2398         estimate D2E/DX2                !
 ! D111  D(24,25,30,33)       -144.3723         estimate D2E/DX2                !
 ! D112  D(26,25,30,31)        159.0146         estimate D2E/DX2                !
 ! D113  D(26,25,30,32)        -81.5292         estimate D2E/DX2                !
 ! D114  D(26,25,30,33)         36.8587         estimate D2E/DX2                !
 ! D115  D(25,26,27,22)          0.4214         estimate D2E/DX2                !
 ! D116  D(25,26,27,34)       -179.8451         estimate D2E/DX2                !
 ! D117  D(29,26,27,22)       -179.5278         estimate D2E/DX2                !
 ! D118  D(29,26,27,34)          0.2057         estimate D2E/DX2                !
 ! D119  D(22,27,34,35)        -61.9143         estimate D2E/DX2                !
 ! D120  D(22,27,34,36)         55.8108         estimate D2E/DX2                !
 ! D121  D(22,27,34,37)        177.0365         estimate D2E/DX2                !
 ! D122  D(26,27,34,35)        118.3475         estimate D2E/DX2                !
 ! D123  D(26,27,34,36)       -123.9273         estimate D2E/DX2                !
 ! D124  D(26,27,34,37)         -2.7017         estimate D2E/DX2                !
 ! D125  D(6,42,43,49)         179.6813         estimate D2E/DX2                !
 ! D126  D(44,42,43,49)         -0.1726         estimate D2E/DX2                !
 ! D127  D(6,42,44,50)        -179.9543         estimate D2E/DX2                !
 ! D128  D(6,42,44,77)           3.1025         estimate D2E/DX2                !
 ! D129  D(43,42,44,50)         -0.102          estimate D2E/DX2                !
 ! D130  D(43,42,44,77)       -177.0452         estimate D2E/DX2                !
 ! D131  D(42,43,49,48)       -179.856          estimate D2E/DX2                !
 ! D132  D(42,43,49,50)          0.3773         estimate D2E/DX2                !
 ! D133  D(42,44,50,45)       -179.0868         estimate D2E/DX2                !
 ! D134  D(42,44,50,49)          0.3254         estimate D2E/DX2                !
 ! D135  D(77,44,50,45)         -1.806          estimate D2E/DX2                !
 ! D136  D(77,44,50,49)        177.6063         estimate D2E/DX2                !
 ! D137  D(50,45,46,47)         -0.281          estimate D2E/DX2                !
 ! D138  D(50,45,46,51)       -179.8837         estimate D2E/DX2                !
 ! D139  D(54,45,46,47)        178.4196         estimate D2E/DX2                !
 ! D140  D(54,45,46,51)         -1.1831         estimate D2E/DX2                !
 ! D141  D(46,45,50,44)       -179.9499         estimate D2E/DX2                !
 ! D142  D(46,45,50,49)          0.7266         estimate D2E/DX2                !
 ! D143  D(54,45,50,44)          1.341          estimate D2E/DX2                !
 ! D144  D(54,45,50,49)       -177.9825         estimate D2E/DX2                !
 ! D145  D(46,45,54,55)          2.6055         estimate D2E/DX2                !
 ! D146  D(46,45,54,56)       -176.6579         estimate D2E/DX2                !
 ! D147  D(50,45,54,55)       -178.7729         estimate D2E/DX2                !
 ! D148  D(50,45,54,56)          1.9638         estimate D2E/DX2                !
 ! D149  D(45,46,47,48)         -0.1215         estimate D2E/DX2                !
 ! D150  D(45,46,47,52)       -179.9445         estimate D2E/DX2                !
 ! D151  D(51,46,47,48)        179.4783         estimate D2E/DX2                !
 ! D152  D(51,46,47,52)         -0.3447         estimate D2E/DX2                !
 ! D153  D(46,47,48,49)          0.103          estimate D2E/DX2                !
 ! D154  D(46,47,48,53)       -179.484          estimate D2E/DX2                !
 ! D155  D(52,47,48,49)        179.9252         estimate D2E/DX2                !
 ! D156  D(52,47,48,53)          0.3382         estimate D2E/DX2                !
 ! D157  D(47,48,49,43)       -179.4263         estimate D2E/DX2                !
 ! D158  D(47,48,49,50)          0.3202         estimate D2E/DX2                !
 ! D159  D(53,48,49,43)          0.1634         estimate D2E/DX2                !
 ! D160  D(53,48,49,50)        179.9099         estimate D2E/DX2                !
 ! D161  D(43,49,50,44)         -0.4402         estimate D2E/DX2                !
 ! D162  D(43,49,50,45)        179.0292         estimate D2E/DX2                !
 ! D163  D(48,49,50,44)        179.7624         estimate D2E/DX2                !
 ! D164  D(48,49,50,45)         -0.7682         estimate D2E/DX2                !
 ! D165  D(45,54,56,57)        179.3926         estimate D2E/DX2                !
 ! D166  D(55,54,56,57)          0.1866         estimate D2E/DX2                !
 ! D167  D(54,56,57,58)         -0.3906         estimate D2E/DX2                !
 ! D168  D(54,56,57,59)        125.7771         estimate D2E/DX2                !
 ! D169  D(54,56,57,60)       -120.1595         estimate D2E/DX2                !
 ! D170  D(56,57,58,61)       -178.8462         estimate D2E/DX2                !
 ! D171  D(56,57,58,62)         60.5475         estimate D2E/DX2                !
 ! D172  D(56,57,58,63)        -56.5965         estimate D2E/DX2                !
 ! D173  D(59,57,58,61)         56.1177         estimate D2E/DX2                !
 ! D174  D(59,57,58,62)        -64.4886         estimate D2E/DX2                !
 ! D175  D(59,57,58,63)        178.3674         estimate D2E/DX2                !
 ! D176  D(60,57,58,61)        -60.3672         estimate D2E/DX2                !
 ! D177  D(60,57,58,62)        179.0266         estimate D2E/DX2                !
 ! D178  D(60,57,58,63)         61.8826         estimate D2E/DX2                !
 ! D179  D(56,57,59,64)        174.2223         estimate D2E/DX2                !
 ! D180  D(56,57,59,65)        -64.9191         estimate D2E/DX2                !
 ! D181  D(56,57,59,66)         51.4147         estimate D2E/DX2                !
 ! D182  D(58,57,59,64)        -55.9186         estimate D2E/DX2                !
 ! D183  D(58,57,59,65)         64.94           estimate D2E/DX2                !
 ! D184  D(58,57,59,66)       -178.7263         estimate D2E/DX2                !
 ! D185  D(60,57,59,64)         61.1411         estimate D2E/DX2                !
 ! D186  D(60,57,59,65)       -178.0002         estimate D2E/DX2                !
 ! D187  D(60,57,59,66)        -61.6665         estimate D2E/DX2                !
 ! D188  D(57,58,61,67)        -56.0076         estimate D2E/DX2                !
 ! D189  D(57,58,61,68)       -178.729          estimate D2E/DX2                !
 ! D190  D(57,58,61,69)         64.6952         estimate D2E/DX2                !
 ! D191  D(62,58,61,67)         64.4202         estimate D2E/DX2                !
 ! D192  D(62,58,61,68)        -58.3011         estimate D2E/DX2                !
 ! D193  D(62,58,61,69)       -174.877          estimate D2E/DX2                !
 ! D194  D(63,58,61,67)       -178.3231         estimate D2E/DX2                !
 ! D195  D(63,58,61,68)         58.9555         estimate D2E/DX2                !
 ! D196  D(63,58,61,69)        -57.6203         estimate D2E/DX2                !
 ! D197  D(57,59,64,67)         55.2871         estimate D2E/DX2                !
 ! D198  D(57,59,64,70)        178.096          estimate D2E/DX2                !
 ! D199  D(57,59,64,71)        -65.1405         estimate D2E/DX2                !
 ! D200  D(65,59,64,67)        -64.6487         estimate D2E/DX2                !
 ! D201  D(65,59,64,70)         58.1602         estimate D2E/DX2                !
 ! D202  D(65,59,64,71)        174.9237         estimate D2E/DX2                !
 ! D203  D(66,59,64,67)        177.0793         estimate D2E/DX2                !
 ! D204  D(66,59,64,70)        -60.1118         estimate D2E/DX2                !
 ! D205  D(66,59,64,71)         56.6517         estimate D2E/DX2                !
 ! D206  D(58,61,67,64)         54.998          estimate D2E/DX2                !
 ! D207  D(58,61,67,72)        177.369          estimate D2E/DX2                !
 ! D208  D(58,61,67,73)        -65.479          estimate D2E/DX2                !
 ! D209  D(68,61,67,64)        177.3272         estimate D2E/DX2                !
 ! D210  D(68,61,67,72)        -60.3017         estimate D2E/DX2                !
 ! D211  D(68,61,67,73)         56.8503         estimate D2E/DX2                !
 ! D212  D(69,61,67,64)        -65.738          estimate D2E/DX2                !
 ! D213  D(69,61,67,72)         56.633          estimate D2E/DX2                !
 ! D214  D(69,61,67,73)        173.785          estimate D2E/DX2                !
 ! D215  D(59,64,67,61)        -54.5765         estimate D2E/DX2                !
 ! D216  D(59,64,67,72)       -176.9444         estimate D2E/DX2                !
 ! D217  D(59,64,67,73)         65.8202         estimate D2E/DX2                !
 ! D218  D(70,64,67,61)       -177.1652         estimate D2E/DX2                !
 ! D219  D(70,64,67,72)         60.4669         estimate D2E/DX2                !
 ! D220  D(70,64,67,73)        -56.7685         estimate D2E/DX2                !
 ! D221  D(71,64,67,61)         65.835          estimate D2E/DX2                !
 ! D222  D(71,64,67,72)        -56.5329         estimate D2E/DX2                !
 ! D223  D(71,64,67,73)       -173.7682         estimate D2E/DX2                !
 --------------------------------------------------------------------------------
 Trust Radius=3.00D-01 FncErr=1.00D-07 GrdErr=1.00D-07 EigMax=2.50D+02 EigMin=1.00D-04
 Number of steps in this run=    462 maximum allowed number of steps=    462.
 GradGradGradGradGradGradGradGradGradGradGradGradGradGradGradGradGradGrad

 Leave Link  103 at Sun Dec 16 14:43:49 2018, MaxMem=  1342177280 cpu:               0.5 elap:               0.1
 (Enter /gpfs/apps/hpc/Apps/Restricted/Gaussian/Rev_A.03/g16/l202.exe)
 Symmetry turned off by external request.
 Stoichiometry    C36H33N7O(1+,2)
 Framework group  C1[X(C36H33N7O)]
 Deg. of freedom   225
 Full point group                 C1      NOp   1
                          Input orientation:                          
 ---------------------------------------------------------------------
 Center     Atomic      Atomic             Coordinates (Angstroms)
 Number     Number       Type             X           Y           Z
 ---------------------------------------------------------------------
      1          6           0        1.639769    0.423982    0.897528
      2          6           0        0.550484    1.261039    0.608442
      3          6           0        0.712286    2.637206    0.457160
      4          6           0        2.006959    3.130601    0.609113
      5          6           0        3.097260    2.295320    0.903644
      6          6           0        2.943309    0.913251    1.057637
      7          6           0       -0.183988   -0.849614    0.771416
      8          1           0       -0.124250    3.284622    0.231675
      9          1           0        2.180937    4.193464    0.495886
     10          1           0        4.083280    2.732141    1.003961
     11          6           0       -2.472783   -1.738996    0.550310
     12          6           0       -3.375777   -2.832843    0.576248
     13          6           0       -2.960800   -4.139112    0.827482
     14          6           0       -1.599263   -4.337437    1.055635
     15          6           0       -0.682544   -3.276347    1.036629
     16          6           0       -1.097125   -1.962380    0.788164
     17          6           0       -4.423359   -0.930251    0.123072
     18          1           0       -3.662866   -4.963207    0.845164
     19          1           0       -1.234822   -5.337257    1.254830
     20          1           0        0.364437   -3.482373    1.220252
     21          7           0       -0.556094    0.426522    0.542065
     22          6           0       -6.877548   -0.569693   -0.364079
     23          6           0       -5.517995   -0.038699   -0.205879
     24          6           0       -5.285814    1.316415   -0.376349
     25          6           0       -6.324371    2.203048   -0.708491
     26          6           0       -7.641224    1.701923   -0.866309
     27          6           0       -7.941133    0.370560   -0.711709
     28          1           0       -4.278308    1.695909   -0.253665
     29          1           0       -8.433399    2.399986   -1.116847
     30          6           0       -6.047774    3.658863   -0.922431
     31          1           0       -5.125166    3.964438   -0.427252
     32          1           0       -5.938299    3.866477   -1.993500
     33          1           0       -6.874923    4.272432   -0.559095
     34          6           0       -9.322785   -0.176896   -0.877387
     35          1           0       -9.355613   -0.902381   -1.696133
     36          1           0       -9.635914   -0.712640    0.023081
     37          1           0      -10.035539    0.621440   -1.083353
     38          8           0       -7.145442   -1.789877   -0.210614
     39          7           0       -3.139481   -0.571627    0.270460
     40          7           0       -4.599222   -2.273975    0.303999
     41          7           0        1.146170   -0.864145    0.984688
     42          6           0        4.019134   -0.011737    1.370947
     43          7           0        3.862616   -1.334111    1.409480
     44          7           0        5.305911    0.365991    1.656673
     45          6           0        7.369233   -0.965356    2.246865
     46          6           0        7.773708   -2.293520    2.415128
     47          6           0        6.881224   -3.368725    2.247913
     48          6           0        5.545849   -3.165717    1.908018
     49          6           0        5.109962   -1.845060    1.732667
     50          6           0        6.023275   -0.778926    1.896191
     51          1           0        8.804105   -2.493710    2.688422
     52          1           0        7.245654   -4.378911    2.390964
     53          1           0        4.860831   -3.996364    1.788525
     54          6           0        8.276724    0.162612    2.450231
     55          1           0        9.307511   -0.101194    2.700171
     56          7           0        7.867559    1.372470    2.351937
     57          6           0        8.791913    2.485290    2.572957
     58          6           0       10.240234    2.132638    2.929385
     59          6           0        8.743782    3.408646    1.343903
     60          1           0        8.368075    3.052850    3.414338
     61          6           0       11.073731    3.398880    3.157081
     62          1           0       10.679505    1.549841    2.110463
     63          1           0       10.266668    1.499458    3.821573
     64          6           0        9.580787    4.672825    1.564016
     65          1           0        9.128882    2.852486    0.480161
     66          1           0        7.701933    3.662551    1.125576
     67          6           0       11.026312    4.330831    1.941633
     68          1           0       12.107685    3.124281    3.387630
     69          1           0       10.686750    3.932307    4.034415
     70          1           0        9.559037    5.297149    0.665806
     71          1           0        9.130275    5.263569    2.371319
     72          1           0       11.589490    5.246679    2.146408
     73          1           0       11.514611    3.837485    1.091938
     74          1           0       -1.535036    0.657052    0.355652
     75          1           0       -5.520697   -2.695868    0.215466
     76          1           0        1.762505   -1.653807    1.172686
     77          1           0        5.723696    1.286644    1.744360
 ---------------------------------------------------------------------
 Rotational constants (GHZ):           0.1693399           0.0233955           0.0206298
 Leave Link  202 at Sun Dec 16 14:43:49 2018, MaxMem=  1342177280 cpu:               0.5 elap:               0.1
 (Enter /gpfs/apps/hpc/Apps/Restricted/Gaussian/Rev_A.03/g16/l716.exe)
 Electric field and nuclear coordinate derivatives read from checkpoint file.
 Dipole        =-3.55748407D-01 1.20307290D+00 1.24055697D+00
 Polarizability= 1.00886186D+03-5.18020895D+01 8.91007684D+02
                 1.48970130D+02-8.85375728D+01 2.83724885D+02
 Full mass-weighted force constant matrix:
 Low frequencies ---   -8.7735   -1.7005   -0.0031    0.0007    0.0032   12.3910
 Low frequencies ---   16.0254   19.7841   32.2684
 Diagonal vibrational polarizability:
      170.1343727      67.5899739     150.2345980
 Harmonic frequencies (cm**-1), IR intensities (KM/Mole), Raman scattering
 activities (A**4/AMU), depolarization ratios for plane and unpolarized
 incident light, reduced masses (AMU), force constants (mDyne/A),
 and normal coordinates:
                      1                      2                      3
                      A                      A                      A
 Frequencies --     13.2325                19.1997                29.2886
 Red. masses --      6.7625                 5.5804                 5.8043
 Frc consts  --      0.0007                 0.0012                 0.0029
 IR Inten    --      0.1429                 0.2305                 0.0821
  Atom  AN      X      Y      Z        X      Y      Z        X      Y      Z
     1   6    -0.03   0.04   0.15    -0.01  -0.08   0.05     0.01  -0.02  -0.00
     2   6    -0.03   0.04   0.18    -0.01  -0.08   0.06     0.01  -0.02  -0.01
     3   6    -0.04   0.05   0.22    -0.02  -0.08   0.07     0.01  -0.02   0.01
     4   6    -0.04   0.05   0.23    -0.02  -0.07   0.06     0.00  -0.02   0.03
     5   6    -0.03   0.04   0.20    -0.02  -0.07   0.05    -0.00  -0.02   0.04
     6   6    -0.03   0.04   0.16    -0.01  -0.07   0.04     0.00  -0.02   0.03
     7   6    -0.02   0.03   0.09    -0.01  -0.08   0.05     0.01  -0.03  -0.05
     8   1    -0.04   0.05   0.24    -0.03  -0.08   0.08     0.01  -0.02   0.01
     9   1    -0.04   0.05   0.26    -0.03  -0.07   0.07    -0.00  -0.02   0.05
    10   1    -0.03   0.04   0.20    -0.02  -0.07   0.04    -0.00  -0.01   0.06
    11   6    -0.00   0.01  -0.00    -0.02  -0.04   0.02     0.02  -0.02  -0.08
    12   6     0.01   0.00  -0.04    -0.04  -0.02   0.02     0.02  -0.02  -0.12
    13   6     0.01   0.00  -0.04    -0.07  -0.03   0.03     0.02  -0.03  -0.17
    14   6     0.01   0.01   0.00    -0.07  -0.06   0.04     0.02  -0.04  -0.18
    15   6    -0.00   0.02   0.04    -0.05  -0.08   0.04     0.02  -0.04  -0.14
    16   6    -0.01   0.02   0.04    -0.02  -0.07   0.04     0.02  -0.03  -0.09
    17   6    -0.00  -0.01  -0.05     0.00  -0.00   0.00     0.01  -0.00  -0.04
    18   1     0.02  -0.00  -0.07    -0.08  -0.02   0.02     0.02  -0.03  -0.20
    19   1     0.01   0.02   0.01    -0.10  -0.06   0.05     0.02  -0.05  -0.21
    20   1    -0.01   0.03   0.07    -0.06  -0.10   0.05     0.02  -0.04  -0.14
    21   7    -0.03   0.04   0.14    -0.01  -0.08   0.06     0.01  -0.02  -0.04
    22   6     0.00  -0.03  -0.09     0.02   0.07  -0.02     0.01   0.02   0.01
    23   6    -0.00  -0.02  -0.06     0.04   0.03  -0.01     0.01   0.01   0.01
    24   6    -0.02  -0.01  -0.05     0.08   0.02  -0.03     0.02   0.02   0.05
    25   6    -0.03  -0.02  -0.06     0.12   0.05  -0.04     0.02   0.03   0.10
    26   6    -0.02  -0.04  -0.08     0.10   0.09  -0.05     0.01   0.05   0.10
    27   6    -0.00  -0.04  -0.09     0.05   0.11  -0.03     0.01   0.04   0.06
    28   1    -0.03   0.00  -0.03     0.10  -0.01  -0.03     0.02   0.01   0.05
    29   1    -0.02  -0.04  -0.08     0.13   0.12  -0.06     0.01   0.06   0.14
    30   6    -0.04  -0.02  -0.05     0.17   0.04  -0.05     0.02   0.04   0.14
    31   1    -0.04  -0.01  -0.05     0.19   0.00  -0.08     0.02   0.02   0.15
    32   1    -0.04  -0.01  -0.05     0.14   0.04  -0.05     0.03   0.07   0.15
    33   1    -0.05  -0.03  -0.05     0.20   0.07  -0.02     0.03   0.03   0.16
    34   6     0.00  -0.05  -0.11     0.04   0.15  -0.04     0.01   0.05   0.06
    35   1     0.02  -0.05  -0.11     0.02   0.15  -0.04    -0.00   0.06   0.05
    36   1    -0.00  -0.06  -0.11     0.02   0.15  -0.04     0.01   0.04   0.05
    37   1    -0.00  -0.06  -0.11     0.06   0.17  -0.03     0.01   0.06   0.07
    38   8     0.02  -0.04  -0.11    -0.02   0.08  -0.00     0.01   0.02  -0.04
    39   7    -0.01   0.01  -0.01     0.01  -0.03   0.01     0.02  -0.01  -0.03
    40   7     0.01  -0.01  -0.07    -0.03   0.00   0.00     0.01  -0.01  -0.09
    41   7    -0.02   0.03   0.10    -0.01  -0.08   0.04     0.01  -0.03  -0.03
    42   6    -0.02   0.03   0.11     0.00  -0.06   0.02    -0.00  -0.02   0.05
    43   7    -0.03   0.03   0.11     0.04  -0.07  -0.01    -0.01  -0.01   0.10
    44   7    -0.00   0.01   0.05    -0.00  -0.03   0.02    -0.00  -0.01   0.04
    45   6     0.01  -0.01  -0.07     0.03   0.01  -0.03    -0.01   0.00   0.11
    46   6     0.01  -0.01  -0.09     0.07   0.02  -0.06    -0.02   0.01   0.16
    47   6    -0.01  -0.00  -0.04     0.10  -0.00  -0.08    -0.03   0.00   0.20
    48   6    -0.03   0.01   0.03     0.09  -0.03  -0.07    -0.02  -0.00   0.18
    49   6    -0.02   0.02   0.05     0.05  -0.04  -0.03    -0.01  -0.01   0.13
    50   6    -0.00   0.01   0.00     0.03  -0.02  -0.01    -0.01  -0.01   0.09
    51   1     0.02  -0.02  -0.14     0.08   0.04  -0.08    -0.02   0.01   0.17
    52   1    -0.01  -0.01  -0.06     0.13   0.00  -0.11    -0.03   0.01   0.25
    53   1    -0.04   0.02   0.06     0.12  -0.05  -0.08    -0.03  -0.00   0.21
    54   6     0.03  -0.02  -0.10     0.00   0.04  -0.02    -0.01   0.01   0.06
    55   1     0.04  -0.03  -0.15     0.01   0.06  -0.04    -0.01   0.02   0.08
    56   7     0.04  -0.01  -0.07    -0.04   0.02  -0.00    -0.01   0.00  -0.01
    57   6     0.05  -0.02  -0.09    -0.06   0.05  -0.01    -0.01   0.02  -0.06
    58   6     0.05  -0.03  -0.10    -0.06   0.09  -0.01    -0.00   0.04  -0.08
    59   6     0.05  -0.02  -0.09    -0.09   0.04  -0.01    -0.04  -0.01  -0.08
    60   1     0.07  -0.02  -0.08    -0.08   0.04  -0.01    -0.00   0.03  -0.06
    61   6     0.06  -0.04  -0.10    -0.08   0.11  -0.03    -0.01   0.05  -0.12
    62   1     0.05  -0.03  -0.10    -0.04   0.09  -0.01    -0.01   0.02  -0.08
    63   1     0.05  -0.04  -0.10    -0.04   0.10  -0.01     0.02   0.06  -0.07
    64   6     0.06  -0.02  -0.09    -0.12   0.06  -0.03    -0.06   0.00  -0.12
    65   1     0.05  -0.02  -0.09    -0.09   0.04  -0.01    -0.05  -0.02  -0.07
    66   1     0.05  -0.01  -0.08    -0.10   0.02  -0.01    -0.05  -0.03  -0.06
    67   6     0.06  -0.03  -0.09    -0.11   0.09  -0.04    -0.04   0.03  -0.14
    68   1     0.06  -0.04  -0.10    -0.08   0.13  -0.03    -0.00   0.07  -0.13
    69   1     0.07  -0.04  -0.09    -0.09   0.11  -0.03    -0.00   0.06  -0.12
    70   1     0.06  -0.02  -0.08    -0.14   0.05  -0.04    -0.08  -0.02  -0.13
    71   1     0.07  -0.02  -0.08    -0.13   0.06  -0.04    -0.05   0.01  -0.12
    72   1     0.07  -0.04  -0.09    -0.13   0.11  -0.05    -0.05   0.04  -0.17
    73   1     0.05  -0.03  -0.10    -0.10   0.10  -0.03    -0.06   0.01  -0.14
    74   1    -0.02   0.03   0.12    -0.01  -0.08   0.06     0.01  -0.02  -0.03
    75   1     0.01  -0.02  -0.09    -0.04   0.02   0.00     0.01  -0.01  -0.10
    76   1    -0.02   0.03   0.08    -0.02  -0.09   0.03     0.01  -0.03  -0.03
    77   1     0.01   0.01   0.03    -0.03  -0.03   0.04     0.01  -0.01   0.01
                      4                      5                      6
                      A                      A                      A
 Frequencies --     39.0177                43.3855                49.0574
 Red. masses --      5.4632                 4.9327                 6.1079
 Frc consts  --      0.0049                 0.0055                 0.0087
 IR Inten    --      1.4441                 1.1699                 4.4062
  Atom  AN      X      Y      Z        X      Y      Z        X      Y      Z
     1   6    -0.06  -0.01  -0.01    -0.01  -0.02  -0.00     0.01  -0.08   0.01
     2   6    -0.08  -0.04  -0.02    -0.01  -0.03  -0.03     0.02  -0.06  -0.01
     3   6    -0.12  -0.04  -0.03    -0.01  -0.04  -0.09     0.04  -0.06  -0.01
     4   6    -0.14   0.00  -0.02    -0.01  -0.03  -0.11     0.05  -0.08   0.01
     5   6    -0.12   0.04  -0.00    -0.01  -0.02  -0.09     0.03  -0.09   0.02
     6   6    -0.08   0.03  -0.00    -0.01  -0.02  -0.03     0.01  -0.09   0.02
     7   6    -0.03  -0.06  -0.02    -0.02  -0.02   0.06    -0.03  -0.04  -0.02
     8   1    -0.14  -0.07  -0.04    -0.01  -0.05  -0.11     0.05  -0.05  -0.01
     9   1    -0.17   0.01  -0.02    -0.01  -0.04  -0.16     0.06  -0.08   0.01
    10   1    -0.13   0.07   0.01    -0.01  -0.02  -0.11     0.03  -0.10   0.02
    11   6    -0.01  -0.08  -0.02    -0.02  -0.01   0.06    -0.06   0.02  -0.04
    12   6    -0.02  -0.07  -0.02    -0.02  -0.01   0.03    -0.08   0.03  -0.04
    13   6    -0.01  -0.07  -0.02    -0.03  -0.01   0.03    -0.11   0.02  -0.03
    14   6    -0.01  -0.07  -0.03    -0.04  -0.01   0.07    -0.11  -0.00  -0.03
    15   6    -0.01  -0.07  -0.03    -0.03  -0.02   0.09    -0.10  -0.02  -0.03
    16   6    -0.01  -0.07  -0.02    -0.02  -0.01   0.08    -0.07  -0.01  -0.03
    17   6    -0.01  -0.06   0.00    -0.01  -0.00   0.01    -0.06   0.04  -0.04
    18   1    -0.01  -0.07  -0.02    -0.04  -0.01   0.01    -0.13   0.04  -0.03
    19   1    -0.01  -0.07  -0.04    -0.05  -0.01   0.08    -0.13  -0.01  -0.03
    20   1    -0.01  -0.08  -0.03    -0.04  -0.02   0.10    -0.10  -0.04  -0.02
    21   7    -0.06  -0.07  -0.03    -0.02  -0.03   0.02     0.01  -0.03  -0.02
    22   6    -0.00   0.02   0.04     0.02  -0.01  -0.11    -0.08   0.01   0.00
    23   6     0.02  -0.03   0.01     0.00   0.01   0.01    -0.08   0.03  -0.03
    24   6     0.07  -0.04  -0.01    -0.01   0.02   0.13    -0.10   0.03  -0.04
    25   6     0.10  -0.01  -0.01    -0.01   0.03   0.14    -0.13   0.01  -0.02
    26   6     0.08   0.04   0.01     0.01   0.02   0.02    -0.12  -0.00   0.01
    27   6     0.03   0.05   0.03     0.03   0.00  -0.10    -0.10  -0.01   0.02
    28   1     0.08  -0.08  -0.03    -0.03   0.03   0.22    -0.11   0.05  -0.06
    29   1     0.10   0.07   0.01     0.01   0.03   0.04    -0.14  -0.02   0.02
    30   6     0.15  -0.02  -0.03    -0.02   0.05   0.27    -0.15   0.02  -0.05
    31   1     0.19  -0.06  -0.07    -0.04   0.03   0.32    -0.17   0.05  -0.03
    32   1     0.11  -0.03  -0.03     0.00   0.15   0.29    -0.13  -0.00  -0.05
    33   1     0.20   0.02   0.01    -0.04   0.01   0.30    -0.18   0.00  -0.08
    34   6     0.01   0.10   0.05     0.04  -0.01  -0.21    -0.10  -0.03   0.06
    35   1    -0.03   0.10   0.05     0.10   0.02  -0.23    -0.10  -0.03   0.06
    36   1     0.01   0.10   0.05    -0.01  -0.04  -0.25    -0.07  -0.02   0.07
    37   1     0.03   0.12   0.07     0.05  -0.01  -0.23    -0.11  -0.04   0.06
    38   8    -0.04   0.03   0.06     0.04  -0.02  -0.23    -0.07   0.01   0.01
    39   7    -0.00  -0.07  -0.01    -0.01  -0.01   0.05    -0.06   0.03  -0.04
    40   7    -0.02  -0.06  -0.00    -0.01  -0.00  -0.01    -0.07   0.04  -0.03
    41   7    -0.03  -0.02  -0.01    -0.02  -0.02   0.05    -0.03  -0.07  -0.00
    42   6    -0.05   0.06   0.00    -0.01  -0.00  -0.01     0.03  -0.07   0.03
    43   7    -0.05   0.06   0.03    -0.00  -0.00   0.02     0.08  -0.07   0.03
    44   7    -0.05   0.07  -0.02    -0.00   0.01  -0.04     0.02  -0.02   0.03
    45   6    -0.04   0.07  -0.03     0.01   0.02  -0.03     0.07   0.06   0.02
    46   6    -0.04   0.07  -0.02     0.01   0.02  -0.01     0.12   0.07   0.02
    47   6    -0.04   0.07   0.01     0.01   0.02   0.02     0.16   0.04   0.02
    48   6    -0.04   0.07   0.03     0.00   0.01   0.04     0.15  -0.01   0.02
    49   6    -0.04   0.07   0.02     0.00   0.01   0.02     0.10  -0.02   0.03
    50   6    -0.04   0.08  -0.01     0.00   0.01  -0.02     0.06   0.01   0.03
    51   1    -0.03   0.08  -0.03     0.01   0.03  -0.02     0.13   0.11   0.00
    52   1    -0.04   0.07   0.02     0.01   0.02   0.04     0.20   0.05   0.01
    53   1    -0.05   0.07   0.05     0.00   0.01   0.07     0.18  -0.03   0.02
    54   6    -0.01   0.05  -0.04     0.01   0.02  -0.04     0.06   0.07   0.01
    55   1    -0.02   0.02  -0.04     0.01   0.01  -0.04     0.06   0.07   0.01
    56   7     0.03   0.07  -0.03     0.01   0.02  -0.04     0.07   0.07   0.01
    57   6     0.07   0.03  -0.01     0.02   0.01  -0.02     0.08   0.06   0.01
    58   6     0.05  -0.04   0.01     0.01   0.00  -0.01     0.08   0.04   0.03
    59   6     0.14   0.04   0.00     0.04   0.03  -0.01     0.12   0.05   0.00
    60   1     0.08   0.03  -0.01     0.01   0.01  -0.02     0.08   0.07  -0.00
    61   6     0.10  -0.07   0.05     0.02  -0.00   0.01     0.09   0.03   0.03
    62   1     0.05  -0.04   0.01     0.02   0.01  -0.01     0.08   0.03   0.03
    63   1     0.02  -0.05  -0.00     0.00  -0.01  -0.02     0.06   0.04   0.03
    64   6     0.18   0.01   0.04     0.04   0.02   0.01     0.13   0.04   0.01
    65   1     0.14   0.04   0.00     0.04   0.03  -0.01     0.12   0.04   0.01
    66   1     0.15   0.08  -0.02     0.04   0.03  -0.02     0.12   0.06  -0.02
    67   6     0.16  -0.05   0.06     0.04   0.01   0.02     0.12   0.02   0.03
    68   1     0.08  -0.12   0.06     0.01  -0.01   0.02     0.08   0.01   0.05
    69   1     0.10  -0.07   0.05     0.01  -0.01   0.02     0.09   0.04   0.02
    70   1     0.22   0.03   0.05     0.05   0.03   0.02     0.15   0.04   0.00
    71   1     0.18   0.01   0.04     0.04   0.01   0.01     0.13   0.05  -0.00
    72   1     0.18  -0.07   0.09     0.04   0.01   0.04     0.13   0.02   0.03
    73   1     0.16  -0.05   0.07     0.04   0.02   0.02     0.13   0.02   0.04
    74   1    -0.07  -0.10  -0.03    -0.02  -0.03   0.01     0.02  -0.00  -0.03
    75   1    -0.02  -0.05   0.01    -0.01  -0.00  -0.06    -0.08   0.05  -0.02
    76   1    -0.00  -0.00  -0.00    -0.02  -0.01   0.07    -0.07  -0.09  -0.00
    77   1    -0.07   0.08  -0.04    -0.01   0.01  -0.06    -0.03   0.00   0.02
                      7                      8                      9
                      A                      A                      A
 Frequencies --     60.9052                71.3121                77.1112
 Red. masses --      4.9355                 5.0924                 3.4028
 Frc consts  --      0.0108                 0.0153                 0.0119
 IR Inten    --      1.4471                 0.8616                 1.5004
  Atom  AN      X      Y      Z        X      Y      Z        X      Y      Z
     1   6    -0.01  -0.00  -0.03    -0.01   0.01   0.03    -0.00   0.01   0.02
     2   6    -0.02   0.00   0.03    -0.00  -0.00  -0.05    -0.01   0.01   0.05
     3   6    -0.04   0.01   0.09    -0.00  -0.01  -0.10    -0.00   0.01   0.05
     4   6    -0.04   0.01   0.08    -0.01   0.00  -0.06     0.01   0.00   0.00
     5   6    -0.02   0.01   0.02    -0.02   0.02   0.01     0.01  -0.00  -0.04
     6   6    -0.01   0.00  -0.04    -0.02   0.02   0.05     0.01  -0.00  -0.03
     7   6    -0.01  -0.01  -0.02     0.00   0.00   0.01    -0.01   0.01   0.06
     8   1    -0.05   0.01   0.14     0.01  -0.02  -0.17    -0.01   0.02   0.09
     9   1    -0.05   0.02   0.12    -0.01  -0.00  -0.10     0.01   0.00  -0.01
    10   1    -0.03   0.02   0.02    -0.02   0.02   0.03     0.02  -0.01  -0.08
    11   6    -0.01  -0.00   0.03     0.02  -0.02  -0.07     0.01  -0.00  -0.01
    12   6    -0.01  -0.00   0.04     0.01  -0.01  -0.05     0.01  -0.01  -0.05
    13   6    -0.01  -0.01   0.01    -0.00   0.00   0.06     0.01  -0.01  -0.03
    14   6    -0.00  -0.01  -0.03    -0.02   0.02   0.16     0.01   0.00   0.02
    15   6    -0.00  -0.01  -0.04    -0.01   0.02   0.14    -0.00   0.01   0.05
    16   6    -0.00  -0.01  -0.01     0.00  -0.00   0.02    -0.00   0.01   0.04
    17   6    -0.02   0.00   0.06     0.03  -0.03  -0.15     0.01  -0.01  -0.05
    18   1    -0.01  -0.01   0.02    -0.00   0.01   0.07     0.02  -0.01  -0.06
    19   1     0.00  -0.02  -0.06    -0.03   0.03   0.25     0.01   0.01   0.03
    20   1     0.00  -0.02  -0.08    -0.02   0.03   0.21    -0.00   0.02   0.08
    21   7    -0.02  -0.00   0.04     0.00  -0.01  -0.06    -0.01   0.01   0.08
    22   6    -0.00  -0.01  -0.01     0.01  -0.01  -0.05     0.01  -0.00  -0.02
    23   6    -0.01   0.00   0.04     0.03  -0.02  -0.11     0.01  -0.01  -0.04
    24   6    -0.01   0.00   0.05     0.02  -0.02  -0.08     0.01  -0.00  -0.03
    25   6    -0.00  -0.00   0.01     0.00   0.00   0.03     0.00   0.00   0.01
    26   6     0.01  -0.01  -0.05    -0.01   0.02   0.12    -0.01   0.01   0.06
    27   6     0.01  -0.01  -0.06    -0.01   0.01   0.08    -0.00   0.01   0.05
    28   1    -0.02   0.01   0.09     0.03  -0.02  -0.12     0.01  -0.01  -0.05
    29   1     0.02  -0.02  -0.08    -0.03   0.04   0.22    -0.01   0.02   0.11
    30   6    -0.00   0.00   0.03     0.00   0.01   0.06     0.00   0.00   0.01
    31   1    -0.00  -0.00   0.04     0.01  -0.00   0.06     0.01  -0.00   0.00
    32   1    -0.00   0.02   0.04     0.01   0.02   0.06     0.00  -0.00   0.01
    33   1    -0.00  -0.01   0.04     0.01   0.00   0.07     0.01   0.00   0.01
    34   6     0.02  -0.02  -0.12    -0.02   0.02   0.17    -0.01   0.01   0.10
    35   1     0.05  -0.01  -0.13    -0.08   0.02   0.18    -0.04   0.01   0.11
    36   1    -0.01  -0.02  -0.13     0.03   0.03   0.19     0.02   0.02   0.11
    37   1     0.02  -0.02  -0.14    -0.03   0.03   0.22    -0.02   0.01   0.13
    38   8    -0.00  -0.01  -0.01     0.02  -0.02  -0.11     0.01  -0.01  -0.05
    39   7    -0.01  -0.00   0.05     0.03  -0.03  -0.13     0.01  -0.00  -0.01
    40   7    -0.02   0.00   0.06     0.03  -0.02  -0.12     0.02  -0.01  -0.08
    41   7     0.00  -0.01  -0.07    -0.01   0.02   0.06    -0.00   0.01   0.03
    42   6     0.01   0.01  -0.07    -0.02   0.03   0.08     0.01  -0.01  -0.06
    43   7     0.04   0.00  -0.18    -0.01   0.02   0.01     0.01  -0.01  -0.06
[...]
 ! R24   R(14,19)               -0.495                  22.4                    !
 ! R26   R(15,20)               -0.3358                 15.2                    !
 ! R63   R(48,53)                0.0185                  0.8                    !
 ! A25   A(11,12,13)             0.0229                  1.0                    !
 ! A27   A(13,12,40)            -0.0251                  1.1                    !
 ! A28   A(12,13,14)            -0.0344                  1.6                    !
 ! A29   A(12,13,18)             0.0211                  1.0                    !
 --------------------------------------------------------------------------------
                           ----------------------------
                           ! Normal Mode   222        !
 --------------------------                            --------------------------
 ! Name  Definition              Value          Relative Weight (%)             !
 --------------------------------------------------------------------------------
 ! R5    R(2,21)                 0.0481                  3.1                    !
 ! R14   R(7,21)                 0.0425                  2.7                    !
 ! R30   R(21,74)               -1.0696                 68.6                    !
 ! R49   R(41,76)                0.0814                  5.2                    !
 ! A5    A(1,2,21)               0.0243                  1.6                    !
 ! A6    A(3,2,21)              -0.0253                  1.6                    !
 ! A19   A(16,7,21)             -0.026                   1.7                    !
 ! A21   A(21,7,41)              0.024                   1.5                    !
 ! A43   A(2,21,7)              -0.0502                  3.2                    !
 ! A44   A(2,21,74)              0.0561                  3.6                    !
 --------------------------------------------------------------------------------
                           ----------------------------
                           ! Normal Mode   223        !
 --------------------------                            --------------------------
 ! Name  Definition              Value          Relative Weight (%)             !
 --------------------------------------------------------------------------------
 ! R3    R(1,41)                 0.0428                  2.7                    !
 ! R15   R(7,41)                 0.0477                  3.0                    !
 ! R30   R(21,74)               -0.0817                  5.1                    !
 ! R48   R(40,75)                0.0261                  1.6                    !
 ! R49   R(41,76)               -1.0686                 67.1                    !
 ! R54   R(44,77)               -0.022                   1.4                    !
 ! A2    A(2,1,41)               0.0244                  1.5                    !
 ! A3    A(6,1,41)              -0.0249                  1.6                    !
 ! A20   A(16,7,41)             -0.0256                  1.6                    !
 ! A21   A(21,7,41)              0.0266                  1.7                    !
 ! A80   A(1,41,7)              -0.0493                  3.1                    !
 ! A82   A(7,41,76)              0.0582                  3.7                    !
 --------------------------------------------------------------------------------
                           ----------------------------
                           ! Normal Mode   224        !
 --------------------------                            --------------------------
 ! Name  Definition              Value          Relative Weight (%)             !
 --------------------------------------------------------------------------------
 ! R20   R(12,40)                0.0491                  3.3                    !
 ! R29   R(17,40)                0.0423                  2.9                    !
 ! R48   R(40,75)               -1.0711                 72.5                    !
 ! R49   R(41,76)               -0.0274                  1.9                    !
 ! A26   A(11,12,40)             0.0233                  1.6                    !
 ! A27   A(13,12,40)            -0.0245                  1.7                    !
 ! A41   A(23,17,40)            -0.0247                  1.7                    !
 ! A42   A(39,17,40)             0.0244                  1.6                    !
 ! A77   A(12,40,17)            -0.0483                  3.3                    !
 ! A78   A(12,40,75)             0.0554                  3.7                    !
 --------------------------------------------------------------------------------
                           ----------------------------
                           ! Normal Mode   225        !
 --------------------------                            --------------------------
 ! Name  Definition              Value          Relative Weight (%)             !
 --------------------------------------------------------------------------------
 ! R49   R(41,76)               -0.0222                  1.5                    !
 ! R51   R(42,44)               -0.0489                  3.4                    !
 ! R53   R(44,50)               -0.0434                  3.0                    !
 ! R54   R(44,77)                1.0715                 73.6                    !
 ! A84   A(6,42,44)              0.0238                  1.6                    !
 ! A85   A(43,42,44)            -0.0229                  1.6                    !
 ! A87   A(42,44,50)             0.0474                  3.3                    !
 ! A88   A(42,44,77)            -0.0498                  3.4                    !
 ! A105  A(44,50,45)             0.0247                  1.7                    !
 ! A106  A(44,50,49)            -0.0238                  1.6                    !
 --------------------------------------------------------------------------------
 -------------------------------------------------------------------
 Center     Atomic                   Forces (Hartrees/Bohr)
 Number     Number              X              Y              Z
 -------------------------------------------------------------------
      1        6           0.000000124    0.000000040   -0.000000084
      2        6          -0.000000240   -0.000000291   -0.000000018
      3        6          -0.000000983   -0.000000431    0.000000588
      4        6          -0.000001462    0.000000274    0.000001085
      5        6          -0.000000998    0.000000767    0.000001057
      6        6          -0.000000199    0.000000602    0.000000451
      7        6           0.000000756   -0.000001093   -0.000001071
      8        1          -0.000001301   -0.000000753    0.000000632
      9        1          -0.000001906    0.000000435    0.000001567
     10        1          -0.000001201    0.000001304    0.000001484
     11        6           0.000001492   -0.000002317   -0.000001931
     12        6           0.000002051   -0.000002956   -0.000002538
     13        6           0.000002643   -0.000002485   -0.000003102
     14        6           0.000002517   -0.000001899   -0.000002823
     15        6           0.000002118   -0.000001374   -0.000002135
     16        6           0.000001527   -0.000001394   -0.000001742
     17        6           0.000000877   -0.000003028   -0.000002121
     18        1           0.000003132   -0.000002888   -0.000003582
     19        1           0.000003201   -0.000001759   -0.000003114
     20        1           0.000002188   -0.000000864   -0.000001945
     21        7           0.000000152   -0.000001145   -0.000000622
     22        6           0.000001024   -0.000004210   -0.000002937
     23        6           0.000000621   -0.000003515   -0.000002054
     24        6          -0.000000109   -0.000003474   -0.000001369
     25        6          -0.000000551   -0.000003849   -0.000001380
     26        6          -0.000000158   -0.000004536   -0.000001873
     27        6           0.000000600   -0.000004714   -0.000002558
     28        1          -0.000000318   -0.000002842   -0.000001085
     29        1          -0.000000498   -0.000004805   -0.000001885
     30        6          -0.000001245   -0.000003526   -0.000000776
     31        1          -0.000001500   -0.000003271   -0.000000470
     32        1          -0.000001154   -0.000003062   -0.000000649
     33        1          -0.000001644   -0.000004165   -0.000000638
     34        6           0.000000892   -0.000005374   -0.000003123
     35        1           0.000001505   -0.000005179   -0.000003351
     36        1           0.000000887   -0.000005846   -0.000003394
     37        1           0.000000497   -0.000005722   -0.000003096
     38        8           0.000001530   -0.000004393   -0.000003207
     39        7           0.000000716   -0.000002213   -0.000001776
     40        7           0.000001861   -0.000003193   -0.000002859
     41        7           0.000000741   -0.000000298   -0.000000713
     42        6           0.000000140    0.000001005    0.000000382
     43        7           0.000000940    0.000001095   -0.000000244
     44        7          -0.000000148    0.000001712    0.000000780
     45        6           0.000000503    0.000002663    0.000000827
     46        6           0.000001227    0.000002784    0.000000458
     47        6           0.000001838    0.000002319   -0.000000237
     48        6           0.000001787    0.000001709   -0.000000497
     49        6           0.000001088    0.000001620   -0.000000059
     50        6           0.000000572    0.000001958    0.000000585
     51        1           0.000001252    0.000003237    0.000000619
     52        1           0.000002370    0.000002487   -0.000000546
     53        1           0.000002310    0.000001415   -0.000001004
     54        6          -0.000000163    0.000003025    0.000001472
     55        1          -0.000000101    0.000003516    0.000001683
     56        7          -0.000000813    0.000002906    0.000001983
     57        6          -0.000001459    0.000003212    0.000002600
     58        6          -0.000001497    0.000003941    0.000002875
     59        6          -0.000001708    0.000003705    0.000003015
     60        1          -0.000001984    0.000002748    0.000002676
     61        6          -0.000002219    0.000004259    0.000003558
     62        1          -0.000000825    0.000004527    0.000002693
     63        1          -0.000001268    0.000003597    0.000002546
     64        6          -0.000002463    0.000004104    0.000003760
     65        1          -0.000001144    0.000004323    0.000002796
     66        1          -0.000001778    0.000003253    0.000002788
     67        6          -0.000002415    0.000004664    0.000003775
     68        1          -0.000002053    0.000004739    0.000003616
     69        1          -0.000002563    0.000003784    0.000003721
     70        1          -0.000002520    0.000004362    0.000003837
     71        1          -0.000002977    0.000003653    0.000003703
     72        1          -0.000003031    0.000005049    0.000004567
     73        1          -0.000001718    0.000005538    0.000003839
     74        1           0.000000085   -0.000001557   -0.000000790
     75        1           0.000001948   -0.000003722   -0.000003137
     76        1           0.000001196   -0.000000116   -0.000000842
     77        1          -0.000000591    0.000001931    0.000001359
 -------------------------------------------------------------------
 Cartesian Forces:  Max     0.000005846 RMS     0.000002433
 FormGI is forming the generalized inverse of G from B-inverse, IUseBI=4.
 Leave Link  716 at Sun Dec 16 14:43:50 2018, MaxMem=  1342177280 cpu:               7.9 elap:               0.5
 (Enter /gpfs/apps/hpc/Apps/Restricted/Gaussian/Rev_A.03/g16/l9999.exe)

 ----------------------------------------------------------------------

 Electric dipole moment (input orientation):
 (Debye = 10**-18 statcoulomb cm , SI units = C m)
                  (au)            (Debye)         (10**-30 SI)
   Tot        0.176435D+01      0.448452D+01      0.149588D+02
   x         -0.355748D+00     -0.904222D+00     -0.301616D+01
   y          0.120307D+01      0.305791D+01      0.102001D+02
   z          0.124056D+01      0.315318D+01      0.105179D+02

 Dipole polarizability, Alpha (input orientation).
 (esu units = cm**3 , SI units = C**2 m**2 J**-1)
 Alpha(0;0):
               (au)            (10**-24 esu)      (10**-40 SI)
   iso        0.727865D+03      0.107858D+03      0.120009D+03
   aniso      0.743234D+03      0.110136D+03      0.122543D+03
   xx         0.100886D+04      0.149498D+03      0.166339D+03
   yx        -0.518021D+02     -0.767628D+01     -0.854101D+01
   yy         0.891008D+03      0.132034D+03      0.146907D+03
   zx         0.148970D+03      0.220751D+02      0.245619D+02
   zy        -0.885376D+02     -0.131199D+02     -0.145979D+02
   zz         0.283725D+03      0.420437D+02      0.467799D+02

 ----------------------------------------------------------------------

 Dipole orientation:
     6          3.43140769         -0.32389717          1.11408853
     6          1.43964087          1.03240463          2.22362760
     6          1.89039830          3.14263584          3.73424683
     6          4.41173992          3.82217644          4.07861339
     6          6.40772770          2.46145414          2.97821057
     6          5.97158553          0.34081974          1.46059626
     6         -0.17506636         -2.18930689          0.00031220
     1          0.36015816          4.19500714          4.58762430
     1          4.85166107          5.45480384          5.23144454
     1          8.33141804          3.08272352          3.29867448
     6         -4.61694047         -3.47541406         -0.56740524
     6         -6.43960351         -5.14934163         -1.59836756
     6         -5.77767722         -7.20434957         -3.10588237
     6         -3.20948501         -7.56309866         -3.57707067
     6         -1.36386077         -5.94101031         -2.58433661
     6         -2.02282749         -3.87893321         -1.06337632
     6         -8.25441878         -2.11138036          0.65026462
     1         -7.19169919         -8.46639838         -3.87678165
     1         -2.61385737         -9.13775496         -4.73959567
     1          0.60595407         -6.30094421         -3.00476173
     7         -0.75417128         -0.19735418          1.48173937
     6        -12.91207129         -1.36270414          1.40269991
     6        -10.26293307         -0.62966017          1.77909476
     6         -9.69287619          1.48710901          3.21027375
     6        -11.59991399          2.97473918          4.30715746
     6        -14.16558375          2.28875048          3.95348919
     6        -14.86299507          0.21472980          2.55763355
     1         -7.72977637          2.00407717          3.47840115
     1        -15.61581456          3.44975361          4.82193699
     6        -10.94912716          5.29264234          5.79341379
     1         -9.01197705          5.21512320          6.49357840
     1        -11.12362417          6.97471120          4.59608252
     1        -12.24285837          5.54121116          7.38197595
     6        -17.55825688         -0.53466530          2.15851089
     1        -18.04145271         -0.48135327          0.14830349
     1        -17.87448643         -2.47876374          2.78394433
     1        -18.82970671          0.71877520          3.18512866
     8        -13.53390034         -3.27763962          0.13639869
     7         -5.77528888         -1.61275601          0.81901765
     7         -8.71486783         -4.21738396         -0.77380317
     7          2.35761110         -2.28116703         -0.24186359
     6          7.93433962         -1.16955142          0.27506633
     7          7.45857464         -3.05978935         -1.31806193
     7         10.47444246         -0.82249641          0.65114319
     6         14.30226073         -3.09726934         -1.06637320
     6         14.90986037         -5.07704497         -2.70834381
     6         13.03583129         -6.47486942         -3.97593469
     6         10.47403699         -5.96171040         -3.65715284
     6          9.80464762         -3.98790620         -2.02230509
     6         11.71430873         -2.59460869         -0.77924348
     1         16.88414178         -5.54703853         -2.99578342
     1         13.60846475         -7.99142264         -5.22641018
     1          9.03819246         -7.05340011         -4.62525674
     6         16.22579575         -1.67125117          0.31152221
     1         18.18219290         -2.19848894         -0.08906980
     7         15.61815833          0.05512029          1.89580293
     6         17.57721470          1.44015184          3.27121209
     6         20.33082306          0.71733395          2.73853442
     6         17.16098563          4.28505499          2.84629544
     1         17.20256887          1.07104728          5.28200004
     6         22.14823148          2.29067677          4.35512798
     1         20.74016901          1.03892079          0.73207553
     1         20.62293866         -1.29815475          3.09803222
     6         18.98166266          5.86586950          4.44881849
     1         17.45739356          4.69272565          0.83524714
     1         15.19471981          4.75626746          3.28035024
     6         21.73981181          5.12996329          3.95909470
     1         24.10143420          1.77408216          3.91365701
     1         21.85006441          1.83397305          6.35566101
     1         18.69454060          7.87766500          4.06812315
     1         18.54836514          5.56845861          6.45436330
     1         22.99639958          6.21022512          5.19672565
     1         22.24151816          5.62157378          2.00832739
     1         -2.59580334          0.21021946          1.90410775
     1        -10.51273050         -4.82348350         -1.08396767
     1          3.44567976         -3.51424654         -1.24444043
     1         11.41895569          0.39306156          1.79478871

 Electric dipole moment (dipole orientation):
 (Debye = 10**-18 statcoulomb cm , SI units = C m)
                  (au)            (Debye)         (10**-30 SI)
   Tot        0.176435D+01      0.448452D+01      0.149588D+02
   x          0.000000D+00      0.000000D+00      0.000000D+00
   y          0.000000D+00      0.000000D+00      0.000000D+00
   z          0.176435D+01      0.448452D+01      0.149588D+02

 Dipole polarizability, Alpha (dipole orientation).
 (esu units = cm**3 , SI units = C**2 m**2 J**-1)
 Alpha(0;0):
               (au)            (10**-24 esu)      (10**-40 SI)
   iso        0.727865D+03      0.107858D+03      0.120009D+03
   aniso      0.743234D+03      0.110136D+03      0.122543D+03
   xx         0.102621D+04      0.152068D+03      0.169199D+03
   yx        -0.491519D+02     -0.728356D+01     -0.810405D+01
   yy         0.674713D+03      0.999822D+02      0.111245D+03
   zx        -0.639387D+02     -0.947474D+01     -0.105421D+02
   zy         0.318829D+03      0.472457D+02      0.525679D+02
   zz         0.482674D+03      0.715250D+02      0.795823D+02

 ----------------------------------------------------------------------

 This type of calculation cannot be archived.


 A MUSTACHE HAIR ACROSS A CHIP IS LIKE A REDWOOD
 TREE FALLING THROUGH A HOUSING PROJECT.
 - AN IBM MANAGER IN EAST FISHKILL, NEW YORK
   AS QUOTED IN "FROM SANDS TO CIRCUITS", IBM INNOVATION JANUARY 1985.
 Job cpu time:       0 days  0 hours  0 minutes 25.0 seconds.
 Elapsed time:       0 days  0 hours  0 minutes  1.7 seconds.
 File lengths (MBytes):  RWF=     72 Int=      0 D2E=      0 Chk=    104 Scr=      8
 Normal termination of Gaussian 16 at Sun Dec 16 14:43:50 2018.
