 Entering Gaussian System, Link 0=g16
 Input=cyclohexyl-triBIP-E2PT.com
 Output=cyclohexyl-triBIP-E2PT.log
 Initial command:
 /gpfs/apps/hpc/Apps/Restricted/Gaussian/Rev_A.03/g16/l1.exe "/gpfs/scratch60/fas/hammes_schiffer/jg2487/c42n01/Gau-73814.inp" -scrdir="/gpfs/scratch60/fas/hammes_schiffer/jg2487/c42n01/"
 Entering Link 1 = /gpfs/apps/hpc/Apps/Restricted/Gaussian/Rev_A.03/g16/l1.exe PID=     73815.
  
 Copyright (c) 1988,1990,1992,1993,1995,1998,2003,2009,2016,
            Gaussian, Inc.  All Rights Reserved.
  
 This is part of the Gaussian(R) 16 program.  It is based on
 the Gaussian(R) 09 system (copyright 2009, Gaussian, Inc.),
 the Gaussian(R) 03 system (copyright 2003, Gaussian, Inc.),
 the Gaussian(R) 98 system (copyright 1998, Gaussian, Inc.),
 the Gaussian(R) 94 system (copyright 1995, Gaussian, Inc.),
 the Gaussian 92(TM) system (copyright 1992, Gaussian, Inc.),
 the Gaussian 90(TM) system (copyright 1990, Gaussian, Inc.),
 the Gaussian 88(TM) system (copyright 1988, Gaussian, Inc.),
 the Gaussian 86(TM) system (copyright 1986, Carnegie Mellon
 University), and the Gaussian 82(TM) system (copyright 1983,
 Carnegie Mellon University). Gaussian is a federally registered
 trademark of Gaussian, Inc.
  
 This software contains proprietary and confidential information,
 including trade secrets, belonging to Gaussian, Inc.
  
 This software is provided under written license and may be
 used, copied, transmitted, or stored only in accord with that
 written license.
  
 The following legend is applicable only to US Government
 contracts under FAR:
  
                    RESTRICTED RIGHTS LEGEND
  
 Use, reproduction and disclosure by the US Government is
 subject to restrictions as set forth in subparagraphs (a)
 and (c) of the Commercial Computer Software - Restricted
 Rights clause in FAR 52.227-19.
  
 Gaussian, Inc.
 340 Quinnipiac St., Bldg. 40, Wallingford CT 06492
  
  
 ---------------------------------------------------------------
 Warning -- This program may not be used in any manner that
 competes with the business of Gaussian, Inc. or will provide
 assistance to any competitor of Gaussian, Inc.  The licensee
 of this program is prohibited from giving any competitor of
 Gaussian, Inc. access to this program.  By using this program,
 the user acknowledges that Gaussian, Inc. is engaged in the
 business of creating and licensing software in the field of
 computational chemistry and represents and warrants to the
 licensee that it is not a competitor of Gaussian, Inc. and that
 it will not use this program in any manner prohibited above.
 ---------------------------------------------------------------
  

 Cite this work as:
 Gaussian 16, Revision A.03,
 M. J. Frisch, G. W. Trucks, H. B. Schlegel, G. E. Scuseria, 
 M. A. Robb, J. R. Cheeseman, G. Scalmani, V. Barone, 
 G. A. Petersson, H. Nakatsuji, X. Li, M. Caricato, A. V. Marenich, 
 J. Bloino, B. G. Janesko, R. Gomperts, B. Mennucci, H. P. Hratchian, 
 J. V. Ortiz, A. F. Izmaylov, J. L. Sonnenberg, D. Williams-Young, 
 F. Ding, F. Lipparini, F. Egidi, J. Goings, B. Peng, A. Petrone, 
 T. Henderson, D. Ranasinghe, V. G. Zakrzewski, J. Gao, N. Rega, 
 G. Zheng, W. Liang, M. Hada, M. Ehara, K. Toyota, R. Fukuda, 
 J. Hasegawa, M. Ishida, T. Nakajima, Y. Honda, O. Kitao, H. Nakai, 
 T. Vreven, K. Throssell, J. A. Montgomery, Jr., J. E. Peralta, 
 F. Ogliaro, M. J. Bearpark, J. J. Heyd, E. N. Brothers, K. N. Kudin, 
 V. N. Staroverov, T. A. Keith, R. Kobayashi, J. Normand, 
 K. Raghavachari, A. P. Rendell, J. C. Burant, S. S. Iyengar, 
 J. Tomasi, M. Cossi, J. M. Millam, M. Klene, C. Adamo, R. Cammi, 
 J. W. Ochterski, R. L. Martin, K. Morokuma, O. Farkas, 
 J. B. Foresman, and D. J. Fox, Gaussian, Inc., Wallingford CT, 2016.
 
 ******************************************
 Gaussian 16:  ES64L-G16RevA.03 25-Dec-2016
                21-Dec-2018 
 ******************************************
 %chk=cyclohexyl-triBIP-E2PT.chk
 %mem=10GB
 %nprocshared=16
 Will use up to   16 processors via shared memory.
 ----------------------------------------------------------------
 #p freq(ReadFC,InternalModes) Geom(AllCheck) NoSymm scale=0.9631
 ----------------------------------------------------------------
 1/18=20,29=7,38=1,114=963100/1,3;
 2/9=110,12=2,15=1,40=1/2;
 7/8=21,25=11,30=1/16;
 99/5=2/99;
 Leave Link    1 at Fri Dec 21 18:13:26 2018, MaxMem=  1342177280 cpu:               9.6 elap:               0.7
 (Enter /gpfs/apps/hpc/Apps/Restricted/Gaussian/Rev_A.03/g16/l101.exe)
 Structure from the checkpoint file:  "cyclohexyl-triBIP-E2PT.chk"
 ----------------------------------------------------------------------
 cyclohexylimine triBIP oxidized, first two protons transferred optimiz
 ation
 ----------------------------------------------------------------------
 Charge =  1 Multiplicity = 2
 Redundant internal coordinates found in file.  (old form).
 C,0,1.590076,0.353309,1.105904
 C,0,0.492351,1.177945,0.812503
 C,0,0.633962,2.557454,0.67219
 C,0,1.919519,3.068944,0.838583
 C,0,3.019434,2.246619,1.133778
 C,0,2.885387,0.86105,1.276796
 C,0,-0.213832,-0.944387,0.938511
 H,0,-0.211686,3.191796,0.441712
 H,0,2.079306,4.134964,0.735069
 H,0,3.997295,2.698653,1.245443
 C,0,-2.484304,-1.84141,0.6231
 C,0,-3.387661,-2.934367,0.591313
 C,0,-2.979665,-4.244318,0.835453
 C,0,-1.628403,-4.443541,1.120011
 C,0,-0.711583,-3.382115,1.155355
 C,0,-1.118147,-2.06508,0.912626
 C,0,-4.417542,-1.020855,0.136819
 H,0,-3.678857,-5.070455,0.808031
 H,0,-1.271294,-5.446508,1.316902
 H,0,0.327271,-3.590642,1.378654
 N,0,-0.600436,0.329673,0.722078
 C,0,-6.842799,-0.60309,-0.456427
 C,0,-5.483757,-0.102899,-0.211715
 C,0,-5.201471,1.250854,-0.316407
 C,0,-6.192369,2.175159,-0.667828
 C,0,-7.506448,1.696029,-0.92632
 C,0,-7.869415,0.373394,-0.842298
 H,0,-4.190074,1.578375,-0.122265
 H,0,-8.254886,2.423672,-1.206294
 C,0,-5.915115,3.669325,-0.781606
 C,0,-9.288102,-0.101067,-1.14902
 O,0,-7.104696,-1.829519,-0.342165
 N,0,-3.139247,-0.669561,0.341904
 N,0,-4.599892,-2.368266,0.281083
 N,0,1.11327,-0.943128,1.173115
 C,0,3.976165,-0.048739,1.581876
 N,0,3.831799,-1.371101,1.657056
 N,0,5.268419,0.344844,1.816342
 C,0,7.365048,-0.954931,2.352861
 C,0,7.787992,-2.275529,2.535078
 C,0,6.89702,-3.360529,2.434395
 C,0,5.547415,-3.176832,2.143046
 C,0,5.093317,-1.864573,1.951695
 C,0,6.003737,-0.788399,2.054525
 H,0,8.831818,-2.461089,2.763678
 H,0,7.275921,-4.364063,2.587369
 H,0,4.866719,-4.01637,2.069412
 C,0,8.271161,0.186719,2.472751
 H,0,9.31342,-0.055712,2.696045
 N,0,7.845137,1.386151,2.329888
 C,0,8.756791,2.522264,2.456255
 C,0,10.230957,2.21656,2.744199
 C,0,8.620235,3.394279,1.197032
 H,0,8.366469,3.114047,3.296901
 C,0,11.037725,3.513639,2.881653
 H,0,10.641782,1.615897,1.922677
 H,0,10.323367,1.618808,3.656847
 C,0,9.429924,4.688145,1.324462
 H,0,8.978007,2.815412,0.336744
 H,0,7.561478,3.610189,1.023471
 C,0,10.901751,4.395594,1.635753
 H,0,12.0899,3.278187,3.068716
 H,0,10.677712,4.068161,3.757125
 H,0,9.343141,5.274637,0.404349
 H,0,9.005162,5.29788,2.131818
 H,0,11.45489,5.330499,1.770534
 H,0,11.352947,3.877322,0.780308
 H,0,-1.580292,0.545535,0.516636
 H,0,-5.515798,-2.787873,0.147649
 H,0,1.737346,-1.726651,1.360575
 H,0,5.689365,1.267912,1.850279
 C,0,-9.248969,-1.09888,-2.32946
 H,0,-8.67235,-1.985926,-2.071166
 H,0,-10.268345,-1.402843,-2.583722
 H,0,-8.802008,-0.631607,-3.211162
 C,0,-10.205549,1.0662,-1.54256
 H,0,-11.203314,0.674855,-1.751737
 H,0,-10.295234,1.802486,-0.73887
 H,0,-9.851195,1.580211,-2.439877
 C,0,-9.895604,-0.782897,0.097174
 H,0,-9.311168,-1.651693,0.395491
 H,0,-9.936945,-0.082734,0.935857
 H,0,-10.916738,-1.103794,-0.126782
 C,0,-6.222936,4.124135,-2.225421
 H,0,-7.258799,3.916115,-2.50229
 H,0,-6.059635,5.201475,-2.312244
 H,0,-5.568269,3.618522,-2.939327
 C,0,-6.837215,4.426649,0.199678
 H,0,-6.667023,5.502185,0.103232
 H,0,-7.892424,4.233066,-0.004193
 H,0,-6.627858,4.135409,1.23172
 C,0,-4.457741,4.020198,-0.451412
 H,0,-4.197621,3.730977,0.570119
 H,0,-3.759671,3.532939,-1.137082
 H,0,-4.318358,5.099707,-0.542347
 Recover connectivity data from disk.
 ITRead=  0  0  0  0  0  0  0  0  0  0  0  0  0  0  0  0  0  0  0  0
 ITRead=  0  0  0  0  0  0  0  0  0  0  0  0  0  0  0  0  0  0  0  0
 ITRead=  0  0  0  0  0  0  0  0  0  0  0  0  0  0  0  0  0  0  0  0
 ITRead=  0  0  0  0  0  0  0  0  0  0  0  0  0  0  0  0  0  0  0  0
 ITRead=  0  0  0  0  0  0  0  0  0  0  0  0  0  0  0
 MicOpt= -1 -1 -1 -1 -1 -1 -1 -1 -1 -1 -1 -1 -1 -1 -1 -1 -1 -1 -1 -1
 MicOpt= -1 -1 -1 -1 -1 -1 -1 -1 -1 -1 -1 -1 -1 -1 -1 -1 -1 -1 -1 -1
 MicOpt= -1 -1 -1 -1 -1 -1 -1 -1 -1 -1 -1 -1 -1 -1 -1 -1 -1 -1 -1 -1
 MicOpt= -1 -1 -1 -1 -1 -1 -1 -1 -1 -1 -1 -1 -1 -1 -1 -1 -1 -1 -1 -1
 MicOpt= -1 -1 -1 -1 -1 -1 -1 -1 -1 -1 -1 -1 -1 -1 -1
 NAtoms=     95 NQM=       95 NQMF=       0 NMMI=      0 NMMIF=      0
                NMic=       0 NMicF=      0.
                    Isotopes and Nuclear Properties:
 (Nuclear quadrupole moments (NQMom) in fm**2, nuclear magnetic moments (NMagM)
  in nuclear magnetons)

  Atom         1           2           3           4           5           6           7           8           9          10
 IAtWgt=          12          12          12          12          12          12          12           1           1           1
 AtmWgt=  12.0000000  12.0000000  12.0000000  12.0000000  12.0000000  12.0000000  12.0000000   1.0078250   1.0078250   1.0078250
 NucSpn=           0           0           0           0           0           0           0           1           1           1
 AtZEff=   3.6000000   3.6000000   3.6000000   3.6000000   3.6000000   3.6000000   3.6000000   1.0000000   1.0000000   1.0000000
 NQMom=    0.0000000   0.0000000   0.0000000   0.0000000   0.0000000   0.0000000   0.0000000   0.0000000   0.0000000   0.0000000
 NMagM=    0.0000000   0.0000000   0.0000000   0.0000000   0.0000000   0.0000000   0.0000000   2.7928460   2.7928460   2.7928460
 AtZNuc=   6.0000000   6.0000000   6.0000000   6.0000000   6.0000000   6.0000000   6.0000000   1.0000000   1.0000000   1.0000000

  Atom        11          12          13          14          15          16          17          18          19          20
 IAtWgt=          12          12          12          12          12          12          12           1           1           1
 AtmWgt=  12.0000000  12.0000000  12.0000000  12.0000000  12.0000000  12.0000000  12.0000000   1.0078250   1.0078250   1.0078250
 NucSpn=           0           0           0           0           0           0           0           1           1           1
 AtZEff=   3.6000000   3.6000000   3.6000000   3.6000000   3.6000000   3.6000000   3.6000000   1.0000000   1.0000000   1.0000000
 NQMom=    0.0000000   0.0000000   0.0000000   0.0000000   0.0000000   0.0000000   0.0000000   0.0000000   0.0000000   0.0000000
 NMagM=    0.0000000   0.0000000   0.0000000   0.0000000   0.0000000   0.0000000   0.0000000   2.7928460   2.7928460   2.7928460
 AtZNuc=   6.0000000   6.0000000   6.0000000   6.0000000   6.0000000   6.0000000   6.0000000   1.0000000   1.0000000   1.0000000

  Atom        21          22          23          24          25          26          27          28          29          30
 IAtWgt=          14          12          12          12          12          12          12           1           1          12
 AtmWgt=  14.0030740  12.0000000  12.0000000  12.0000000  12.0000000  12.0000000  12.0000000   1.0078250   1.0078250  12.0000000
 NucSpn=           2           0           0           0           0           0           0           1           1           0
 AtZEff=   4.5500000   3.6000000   3.6000000   3.6000000   3.6000000   3.6000000   3.6000000   1.0000000   1.0000000   3.6000000
 NQMom=    2.0440000   0.0000000   0.0000000   0.0000000   0.0000000   0.0000000   0.0000000   0.0000000   0.0000000   0.0000000
 NMagM=    0.4037610   0.0000000   0.0000000   0.0000000   0.0000000   0.0000000   0.0000000   2.7928460   2.7928460   0.0000000
 AtZNuc=   7.0000000   6.0000000   6.0000000   6.0000000   6.0000000   6.0000000   6.0000000   1.0000000   1.0000000   6.0000000

  Atom        31          32          33          34          35          36          37          38          39          40
 IAtWgt=          12          16          14          14          14          12          14          14          12          12
 AtmWgt=  12.0000000  15.9949146  14.0030740  14.0030740  14.0030740  12.0000000  14.0030740  14.0030740  12.0000000  12.0000000
 NucSpn=           0           0           2           2           2           0           2           2           0           0
 AtZEff=   3.6000000   5.6000000   4.5500000   4.5500000   4.5500000   3.6000000   4.5500000   4.5500000   3.6000000   3.6000000
 NQMom=    0.0000000   0.0000000   2.0440000   2.0440000   2.0440000   0.0000000   2.0440000   2.0440000   0.0000000   0.0000000
 NMagM=    0.0000000   0.0000000   0.4037610   0.4037610   0.4037610   0.0000000   0.4037610   0.4037610   0.0000000   0.0000000
 AtZNuc=   6.0000000   8.0000000   7.0000000   7.0000000   7.0000000   6.0000000   7.0000000   7.0000000   6.0000000   6.0000000

  Atom        41          42          43          44          45          46          47          48          49          50
 IAtWgt=          12          12          12          12           1           1           1          12           1          14
 AtmWgt=  12.0000000  12.0000000  12.0000000  12.0000000   1.0078250   1.0078250   1.0078250  12.0000000   1.0078250  14.0030740
 NucSpn=           0           0           0           0           1           1           1           0           1           2
 AtZEff=   3.6000000   3.6000000   3.6000000   3.6000000   1.0000000   1.0000000   1.0000000   3.6000000   1.0000000   4.5500000
 NQMom=    0.0000000   0.0000000   0.0000000   0.0000000   0.0000000   0.0000000   0.0000000   0.0000000   0.0000000   2.0440000
 NMagM=    0.0000000   0.0000000   0.0000000   0.0000000   2.7928460   2.7928460   2.7928460   0.0000000   2.7928460   0.4037610
 AtZNuc=   6.0000000   6.0000000   6.0000000   6.0000000   1.0000000   1.0000000   1.0000000   6.0000000   1.0000000   7.0000000

  Atom        51          52          53          54          55          56          57          58          59          60
 IAtWgt=          12          12          12           1          12           1           1          12           1           1
 AtmWgt=  12.0000000  12.0000000  12.0000000   1.0078250  12.0000000   1.0078250   1.0078250  12.0000000   1.0078250   1.0078250
 NucSpn=           0           0           0           1           0           1           1           0           1           1
 AtZEff=   3.6000000   3.6000000   3.6000000   1.0000000   3.6000000   1.0000000   1.0000000   3.6000000   1.0000000   1.0000000
 NQMom=    0.0000000   0.0000000   0.0000000   0.0000000   0.0000000   0.0000000   0.0000000   0.0000000   0.0000000   0.0000000
 NMagM=    0.0000000   0.0000000   0.0000000   2.7928460   0.0000000   2.7928460   2.7928460   0.0000000   2.7928460   2.7928460
 AtZNuc=   6.0000000   6.0000000   6.0000000   1.0000000   6.0000000   1.0000000   1.0000000   6.0000000   1.0000000   1.0000000

  Atom        61          62          63          64          65          66          67          68          69          70
 IAtWgt=          12           1           1           1           1           1           1           1           1           1
 AtmWgt=  12.0000000   1.0078250   1.0078250   1.0078250   1.0078250   1.0078250   1.0078250   1.0078250   1.0078250   1.0078250
 NucSpn=           0           1           1           1           1           1           1           1           1           1
 AtZEff=   3.6000000   1.0000000   1.0000000   1.0000000   1.0000000   1.0000000   1.0000000   1.0000000   1.0000000   1.0000000
 NQMom=    0.0000000   0.0000000   0.0000000   0.0000000   0.0000000   0.0000000   0.0000000   0.0000000   0.0000000   0.0000000
 NMagM=    0.0000000   2.7928460   2.7928460   2.7928460   2.7928460   2.7928460   2.7928460   2.7928460   2.7928460   2.7928460
 AtZNuc=   6.0000000   1.0000000   1.0000000   1.0000000   1.0000000   1.0000000   1.0000000   1.0000000   1.0000000   1.0000000

  Atom        71          72          73          74          75          76          77          78          79          80
 IAtWgt=           1          12           1           1           1          12           1           1           1          12
 AtmWgt=   1.0078250  12.0000000   1.0078250   1.0078250   1.0078250  12.0000000   1.0078250   1.0078250   1.0078250  12.0000000
 NucSpn=           1           0           1           1           1           0           1           1           1           0
 AtZEff=   1.0000000   3.6000000   1.0000000   1.0000000   1.0000000   3.6000000   1.0000000   1.0000000   1.0000000   3.6000000
 NQMom=    0.0000000   0.0000000   0.0000000   0.0000000   0.0000000   0.0000000   0.0000000   0.0000000   0.0000000   0.0000000
 NMagM=    2.7928460   0.0000000   2.7928460   2.7928460   2.7928460   0.0000000   2.7928460   2.7928460   2.7928460   0.0000000
 AtZNuc=   1.0000000   6.0000000   1.0000000   1.0000000   1.0000000   6.0000000   1.0000000   1.0000000   1.0000000   6.0000000

  Atom        81          82          83          84          85          86          87          88          89          90
 IAtWgt=           1           1           1          12           1           1           1          12           1           1
 AtmWgt=   1.0078250   1.0078250   1.0078250  12.0000000   1.0078250   1.0078250   1.0078250  12.0000000   1.0078250   1.0078250
 NucSpn=           1           1           1           0           1           1           1           0           1           1
 AtZEff=   1.0000000   1.0000000   1.0000000   3.6000000   1.0000000   1.0000000   1.0000000   3.6000000   1.0000000   1.0000000
 NQMom=    0.0000000   0.0000000   0.0000000   0.0000000   0.0000000   0.0000000   0.0000000   0.0000000   0.0000000   0.0000000
 NMagM=    2.7928460   2.7928460   2.7928460   0.0000000   2.7928460   2.7928460   2.7928460   0.0000000   2.7928460   2.7928460
 AtZNuc=   1.0000000   1.0000000   1.0000000   6.0000000   1.0000000   1.0000000   1.0000000   6.0000000   1.0000000   1.0000000

  Atom        91          92          93          94          95
 IAtWgt=           1          12           1           1           1
 AtmWgt=   1.0078250  12.0000000   1.0078250   1.0078250   1.0078250
 NucSpn=           1           0           1           1           1
 AtZEff=   1.0000000   3.6000000   1.0000000   1.0000000   1.0000000
 NQMom=    0.0000000   0.0000000   0.0000000   0.0000000   0.0000000
 NMagM=    2.7928460   0.0000000   2.7928460   2.7928460   2.7928460
 AtZNuc=   1.0000000   6.0000000   1.0000000   1.0000000   1.0000000
 Leave Link  101 at Fri Dec 21 18:13:26 2018, MaxMem=  1342177280 cpu:               4.9 elap:               0.3
 (Enter /gpfs/apps/hpc/Apps/Restricted/Gaussian/Rev_A.03/g16/l103.exe)

 GradGradGradGradGradGradGradGradGradGradGradGradGradGradGradGradGradGrad
 Berny optimization.
 Initialization pass.
                           ----------------------------
                           !    Initial Parameters    !
                           ! (Angstroms and Degrees)  !
 --------------------------                            --------------------------
 ! Name  Definition              Value          Derivative Info.                !
 --------------------------------------------------------------------------------
 ! R1    R(1,2)                  1.404          estimate D2E/DX2                !
 ! R2    R(1,6)                  1.4017         estimate D2E/DX2                !
 ! R3    R(1,35)                 1.383          estimate D2E/DX2                !
 ! R4    R(2,3)                  1.3938         estimate D2E/DX2                !
 ! R5    R(2,21)                 1.3863         estimate D2E/DX2                !
 ! R6    R(3,4)                  1.3935         estimate D2E/DX2                !
 ! R7    R(3,8)                  1.082          estimate D2E/DX2                !
 ! R8    R(4,5)                  1.4047         estimate D2E/DX2                !
 ! R9    R(4,9)                  1.0829         estimate D2E/DX2                !
 ! R10   R(5,6)                  1.3994         estimate D2E/DX2                !
 ! R11   R(5,10)                 1.0831         estimate D2E/DX2                !
 ! R12   R(6,36)                 1.4528         estimate D2E/DX2                !
 ! R13   R(7,16)                 1.4403         estimate D2E/DX2                !
 ! R14   R(7,21)                 1.3489         estimate D2E/DX2                !
 ! R15   R(7,35)                 1.3477         estimate D2E/DX2                !
 ! R16   R(11,12)                1.4183         estimate D2E/DX2                !
 ! R17   R(11,16)                1.4143         estimate D2E/DX2                !
 ! R18   R(11,33)                1.3716         estimate D2E/DX2                !
 ! R19   R(12,13)                1.3936         estimate D2E/DX2                !
 ! R20   R(12,34)                1.3734         estimate D2E/DX2                !
 ! R21   R(13,14)                1.3952         estimate D2E/DX2                !
 ! R22   R(13,18)                1.0826         estimate D2E/DX2                !
 ! R23   R(14,15)                1.403          estimate D2E/DX2                !
 ! R24   R(14,19)                1.0827         estimate D2E/DX2                !
 ! R25   R(15,16)                1.3996         estimate D2E/DX2                !
 ! R26   R(15,20)                1.0828         estimate D2E/DX2                !
 ! R27   R(17,23)                1.4495         estimate D2E/DX2                !
 ! R28   R(17,33)                1.3415         estimate D2E/DX2                !
 ! R29   R(17,34)                1.3673         estimate D2E/DX2                !
 ! R30   R(21,68)                1.0242         estimate D2E/DX2                !
 ! R31   R(22,23)                1.4687         estimate D2E/DX2                !
 ! R32   R(22,27)                1.4685         estimate D2E/DX2                !
 ! R33   R(22,32)                1.2593         estimate D2E/DX2                !
 ! R34   R(23,24)                1.3868         estimate D2E/DX2                !
 ! R35   R(24,25)                1.3999         estimate D2E/DX2                !
 ! R36   R(24,28)                1.0807         estimate D2E/DX2                !
 ! R37   R(25,26)                1.4224         estimate D2E/DX2                !
 ! R38   R(25,30)                1.5239         estimate D2E/DX2                !
 ! R39   R(26,27)                1.3741         estimate D2E/DX2                !
 ! R40   R(26,29)                1.0807         estimate D2E/DX2                !
 ! R41   R(27,31)                1.527          estimate D2E/DX2                !
 ! R42   R(30,84)                1.5447         estimate D2E/DX2                !
 ! R43   R(30,88)                1.5449         estimate D2E/DX2                !
 ! R44   R(30,92)                1.535          estimate D2E/DX2                !
 ! R45   R(31,72)                1.5462         estimate D2E/DX2                !
 ! R46   R(31,76)                1.5359         estimate D2E/DX2                !
 ! R47   R(31,80)                1.545          estimate D2E/DX2                !
 ! R48   R(34,69)                1.0162         estimate D2E/DX2                !
 ! R49   R(35,70)                1.0191         estimate D2E/DX2                !
 ! R50   R(36,37)                1.3323         estimate D2E/DX2                !
 ! R51   R(36,38)                1.3711         estimate D2E/DX2                !
 ! R52   R(37,43)                1.3863         estimate D2E/DX2                !
 ! R53   R(38,44)                1.3717         estimate D2E/DX2                !
 ! R54   R(38,71)                1.0151         estimate D2E/DX2                !
 ! R55   R(39,40)                1.3986         estimate D2E/DX2                !
 ! R56   R(39,44)                1.4035         estimate D2E/DX2                !
 ! R57   R(39,48)                1.4625         estimate D2E/DX2                !
 ! R58   R(40,41)                1.4075         estimate D2E/DX2                !
 ! R59   R(40,45)                1.0846         estimate D2E/DX2                !
 ! R60   R(41,42)                1.3929         estimate D2E/DX2                !
 ! R61   R(41,46)                1.0835         estimate D2E/DX2                !
 ! R62   R(42,43)                1.4017         estimate D2E/DX2                !
 ! R63   R(42,47)                1.0833         estimate D2E/DX2                !
 ! R64   R(43,44)                1.4134         estimate D2E/DX2                !
 ! R65   R(48,49)                1.0931         estimate D2E/DX2                !
 ! R66   R(48,50)                1.2808         estimate D2E/DX2                !
 ! R67   R(50,51)                1.4621         estimate D2E/DX2                !
 ! R68   R(51,52)                1.5328         estimate D2E/DX2                !
 ! R69   R(51,53)                1.5378         estimate D2E/DX2                !
 ! R70   R(51,54)                1.0997         estimate D2E/DX2                !
 ! R71   R(52,55)                1.5337         estimate D2E/DX2                !
 ! R72   R(52,56)                1.0975         estimate D2E/DX2                !
 ! R73   R(52,57)                1.0949         estimate D2E/DX2                !
 ! R74   R(53,58)                1.5316         estimate D2E/DX2                !
 ! R75   R(53,59)                1.0969         estimate D2E/DX2                !
 ! R76   R(53,60)                1.0944         estimate D2E/DX2                !
 ! R77   R(55,61)                1.5325         estimate D2E/DX2                !
 ! R78   R(55,62)                1.0943         estimate D2E/DX2                !
 ! R79   R(55,63)                1.0971         estimate D2E/DX2                !
 ! R80   R(58,61)                1.5326         estimate D2E/DX2                !
 ! R81   R(58,64)                1.0946         estimate D2E/DX2                !
 ! R82   R(58,65)                1.0973         estimate D2E/DX2                !
 ! R83   R(61,66)                1.0946         estimate D2E/DX2                !
 ! R84   R(61,67)                1.0973         estimate D2E/DX2                !
 ! R85   R(72,73)                1.0891         estimate D2E/DX2                !
 ! R86   R(72,74)                1.0937         estimate D2E/DX2                !
 ! R87   R(72,75)                1.0934         estimate D2E/DX2                !
 ! R88   R(76,77)                1.092          estimate D2E/DX2                !
 ! R89   R(76,78)                1.0937         estimate D2E/DX2                !
 ! R90   R(76,79)                1.0931         estimate D2E/DX2                !
 ! R91   R(80,81)                1.0887         estimate D2E/DX2                !
 ! R92   R(80,82)                1.0933         estimate D2E/DX2                !
 ! R93   R(80,83)                1.0935         estimate D2E/DX2                !
 ! R94   R(84,85)                1.0922         estimate D2E/DX2                !
 ! R95   R(84,86)                1.0931         estimate D2E/DX2                !
 ! R96   R(84,87)                1.0927         estimate D2E/DX2                !
 ! R97   R(88,89)                1.0932         estimate D2E/DX2                !
 ! R98   R(88,90)                1.092          estimate D2E/DX2                !
 ! R99   R(88,91)                1.0926         estimate D2E/DX2                !
 ! R100  R(92,93)                1.0931         estimate D2E/DX2                !
 ! R101  R(92,94)                1.0931         estimate D2E/DX2                !
 ! R102  R(92,95)                1.0923         estimate D2E/DX2                !
 ! A1    A(2,1,6)              122.3601         estimate D2E/DX2                !
 ! A2    A(2,1,35)             106.9298         estimate D2E/DX2                !
 ! A3    A(6,1,35)             130.71           estimate D2E/DX2                !
 ! A4    A(1,2,3)              121.5287         estimate D2E/DX2                !
 ! A5    A(1,2,21)             105.6972         estimate D2E/DX2                !
 ! A6    A(3,2,21)             132.7741         estimate D2E/DX2                !
 ! A7    A(2,3,4)              116.4217         estimate D2E/DX2                !
 ! A8    A(2,3,8)              121.4867         estimate D2E/DX2                !
 ! A9    A(4,3,8)              122.091          estimate D2E/DX2                !
 ! A10   A(3,4,5)              122.1793         estimate D2E/DX2                !
 ! A11   A(3,4,9)              119.0802         estimate D2E/DX2                !
 ! A12   A(5,4,9)              118.7403         estimate D2E/DX2                !
 ! A13   A(4,5,6)              121.743          estimate D2E/DX2                !
 ! A14   A(4,5,10)             118.967          estimate D2E/DX2                !
 ! A15   A(6,5,10)             119.2882         estimate D2E/DX2                !
 ! A16   A(1,6,5)              115.7671         estimate D2E/DX2                !
 ! A17   A(1,6,36)             119.5104         estimate D2E/DX2                !
 ! A18   A(5,6,36)             124.7226         estimate D2E/DX2                !
 ! A19   A(16,7,21)            123.5111         estimate D2E/DX2                !
 ! A20   A(16,7,35)            128.4728         estimate D2E/DX2                !
 ! A21   A(21,7,35)            108.0158         estimate D2E/DX2                !
 ! A22   A(12,11,16)           119.8651         estimate D2E/DX2                !
 ! A23   A(12,11,33)           110.4661         estimate D2E/DX2                !
 ! A24   A(16,11,33)           129.6683         estimate D2E/DX2                !
 ! A25   A(11,12,13)           122.2738         estimate D2E/DX2                !
 ! A26   A(11,12,34)           104.4543         estimate D2E/DX2                !
 ! A27   A(13,12,34)           133.2706         estimate D2E/DX2                !
 ! A28   A(12,13,14)           116.9689         estimate D2E/DX2                !
 ! A29   A(12,13,18)           121.5856         estimate D2E/DX2                !
 ! A30   A(14,13,18)           121.4454         estimate D2E/DX2                !
 ! A31   A(13,14,15)           122.0055         estimate D2E/DX2                !
 ! A32   A(13,14,19)           119.2626         estimate D2E/DX2                !
 ! A33   A(15,14,19)           118.7316         estimate D2E/DX2                !
 ! A34   A(14,15,16)           121.1798         estimate D2E/DX2                !
 ! A35   A(14,15,20)           119.1058         estimate D2E/DX2                !
 ! A36   A(16,15,20)           119.7139         estimate D2E/DX2                !
 ! A37   A(7,16,11)            119.1517         estimate D2E/DX2                !
 ! A38   A(7,16,15)            123.1417         estimate D2E/DX2                !
 ! A39   A(11,16,15)           117.7058         estimate D2E/DX2                !
 ! A40   A(23,17,33)           124.881          estimate D2E/DX2                !
 ! A41   A(23,17,34)           123.46           estimate D2E/DX2                !
 ! A42   A(33,17,34)           111.6548         estimate D2E/DX2                !
 ! A43   A(2,21,7)             109.9711         estimate D2E/DX2                !
 ! A44   A(2,21,68)            129.6629         estimate D2E/DX2                !
 ! A45   A(7,21,68)            120.3623         estimate D2E/DX2                !
 ! A46   A(23,22,27)           117.6605         estimate D2E/DX2                !
 ! A47   A(23,22,32)           120.5981         estimate D2E/DX2                !
 ! A48   A(27,22,32)           121.7406         estimate D2E/DX2                !
 ! A49   A(17,23,22)           120.335          estimate D2E/DX2                !
 ! A50   A(17,23,24)           119.1192         estimate D2E/DX2                !
 ! A51   A(22,23,24)           120.5452         estimate D2E/DX2                !
 ! A52   A(23,24,25)           121.2914         estimate D2E/DX2                !
 ! A53   A(23,24,28)           118.2146         estimate D2E/DX2                !
 ! A54   A(25,24,28)           120.4937         estimate D2E/DX2                !
 ! A55   A(24,25,26)           118.4993         estimate D2E/DX2                !
 ! A56   A(24,25,30)           122.5024         estimate D2E/DX2                !
 ! A57   A(26,25,30)           118.9983         estimate D2E/DX2                !
 ! A58   A(25,26,27)           123.8591         estimate D2E/DX2                !
 ! A59   A(25,26,29)           117.3918         estimate D2E/DX2                !
 ! A60   A(27,26,29)           118.7489         estimate D2E/DX2                !
 ! A61   A(22,27,26)           118.1294         estimate D2E/DX2                !
 ! A62   A(22,27,31)           119.7143         estimate D2E/DX2                !
 ! A63   A(26,27,31)           122.1535         estimate D2E/DX2                !
 ! A64   A(25,30,84)           108.7964         estimate D2E/DX2                !
 ! A65   A(25,30,88)           108.9427         estimate D2E/DX2                !
 ! A66   A(25,30,92)           112.3834         estimate D2E/DX2                !
 ! A67   A(84,30,88)           109.2937         estimate D2E/DX2                !
 ! A68   A(84,30,92)           108.842          estimate D2E/DX2                !
 ! A69   A(88,30,92)           108.5424         estimate D2E/DX2                !
 ! A70   A(27,31,72)           109.29           estimate D2E/DX2                !
 ! A71   A(27,31,76)           111.7325         estimate D2E/DX2                !
 ! A72   A(27,31,80)           109.9021         estimate D2E/DX2                !
 ! A73   A(72,31,76)           108.0562         estimate D2E/DX2                !
 ! A74   A(72,31,80)           109.9358         estimate D2E/DX2                !
 ! A75   A(76,31,80)           107.8899         estimate D2E/DX2                !
 ! A76   A(11,33,17)           105.2261         estimate D2E/DX2                !
 ! A77   A(12,34,17)           108.1983         estimate D2E/DX2                !
 ! A78   A(12,34,69)           130.9172         estimate D2E/DX2                !
 ! A79   A(17,34,69)           120.879          estimate D2E/DX2                !
 ! A80   A(1,35,7)             109.3854         estimate D2E/DX2                !
 ! A81   A(1,35,70)            121.2352         estimate D2E/DX2                !
 ! A82   A(7,35,70)            129.3715         estimate D2E/DX2                !
 ! A83   A(6,36,37)            123.5072         estimate D2E/DX2                !
 ! A84   A(6,36,38)            124.3193         estimate D2E/DX2                !
 ! A85   A(37,36,38)           112.1722         estimate D2E/DX2                !
 ! A86   A(36,37,43)           105.4676         estimate D2E/DX2                !
 ! A87   A(36,38,44)           107.3241         estimate D2E/DX2                !
 ! A88   A(36,38,71)           131.1181         estimate D2E/DX2                !
 ! A89   A(44,38,71)           121.5436         estimate D2E/DX2                !
 ! A90   A(40,39,44)           115.6605         estimate D2E/DX2                !
 ! A91   A(40,39,48)           122.6195         estimate D2E/DX2                !
 ! A92   A(44,39,48)           121.7184         estimate D2E/DX2                !
 ! A93   A(39,40,41)           121.8107         estimate D2E/DX2                !
 ! A94   A(39,40,45)           118.6895         estimate D2E/DX2                !
 ! A95   A(41,40,45)           119.4994         estimate D2E/DX2                !
 ! A96   A(40,41,42)           121.7785         estimate D2E/DX2                !
 ! A97   A(40,41,46)           118.8474         estimate D2E/DX2                !
 ! A98   A(42,41,46)           119.374          estimate D2E/DX2                !
 ! A99   A(41,42,43)           117.7695         estimate D2E/DX2                !
 ! A100  A(41,42,47)           121.3885         estimate D2E/DX2                !
 ! A101  A(43,42,47)           120.8416         estimate D2E/DX2                !
 ! A102  A(37,43,42)           131.0764         estimate D2E/DX2                !
 ! A103  A(37,43,44)           109.3052         estimate D2E/DX2                !
 ! A104  A(42,43,44)           119.6183         estimate D2E/DX2                !
 ! A105  A(38,44,39)           130.9086         estimate D2E/DX2                !
 ! A106  A(38,44,43)           105.7306         estimate D2E/DX2                !
 ! A107  A(39,44,43)           123.3598         estimate D2E/DX2                !
 ! A108  A(39,48,49)           115.745          estimate D2E/DX2                !
 ! A109  A(39,48,50)           121.0509         estimate D2E/DX2                !
 ! A110  A(49,48,50)           123.2025         estimate D2E/DX2                !
 ! A111  A(48,50,51)           120.7046         estimate D2E/DX2                !
 ! A112  A(50,51,52)           117.4463         estimate D2E/DX2                !
 ! A113  A(50,51,53)           108.3298         estimate D2E/DX2                !
 ! A114  A(50,51,54)           105.243          estimate D2E/DX2                !
 ! A115  A(52,51,53)           110.6297         estimate D2E/DX2                !
 ! A116  A(52,51,54)           107.7636         estimate D2E/DX2                !
 ! A117  A(53,51,54)           106.8164         estimate D2E/DX2                !
 ! A118  A(51,52,55)           110.7364         estimate D2E/DX2                !
 ! A119  A(51,52,56)           109.1806         estimate D2E/DX2                !
 ! A120  A(51,52,57)           110.282          estimate D2E/DX2                !
 ! A121  A(55,52,56)           109.454          estimate D2E/DX2                !
 ! A122  A(55,52,57)           110.0366         estimate D2E/DX2                !
 ! A123  A(56,52,57)           107.0713         estimate D2E/DX2                !
 ! A124  A(51,53,58)           111.3438         estimate D2E/DX2                !
 ! A125  A(51,53,59)           108.301          estimate D2E/DX2                !
 ! A126  A(51,53,60)           109.1262         estimate D2E/DX2                !
 ! A127  A(58,53,59)           109.7935         estimate D2E/DX2                !
 ! A128  A(58,53,60)           110.975          estimate D2E/DX2                !
 ! A129  A(59,53,60)           107.1742         estimate D2E/DX2                !
 ! A130  A(52,55,61)           111.5417         estimate D2E/DX2                !
 ! A131  A(52,55,62)           109.8241         estimate D2E/DX2                !
 ! A132  A(52,55,63)           109.0491         estimate D2E/DX2                !
 ! A133  A(61,55,62)           110.3716         estimate D2E/DX2                !
 ! A134  A(61,55,63)           109.1935         estimate D2E/DX2                !
 ! A135  A(62,55,63)           106.7303         estimate D2E/DX2                !
 ! A136  A(53,58,61)           111.3051         estimate D2E/DX2                !
 ! A137  A(53,58,64)           109.9246         estimate D2E/DX2                !
 ! A138  A(53,58,65)           109.0256         estimate D2E/DX2                !
 ! A139  A(61,58,64)           110.4362         estimate D2E/DX2                !
 ! A140  A(61,58,65)           109.1708         estimate D2E/DX2                !
 ! A141  A(64,58,65)           106.8621         estimate D2E/DX2                !
 ! A142  A(55,61,58)           111.1122         estimate D2E/DX2                !
 ! A143  A(55,61,66)           110.2789         estimate D2E/DX2                !
 ! A144  A(55,61,67)           108.9961         estimate D2E/DX2                !
 ! A145  A(58,61,66)           110.3206         estimate D2E/DX2                !
 ! A146  A(58,61,67)           109.0696         estimate D2E/DX2                !
 ! A147  A(66,61,67)           106.9551         estimate D2E/DX2                !
 ! A148  A(31,72,73)           110.9755         estimate D2E/DX2                !
 ! A149  A(31,72,74)           109.4667         estimate D2E/DX2                !
 ! A150  A(31,72,75)           110.4996         estimate D2E/DX2                !
 ! A151  A(73,72,74)           108.7993         estimate D2E/DX2                !
 ! A152  A(73,72,75)           108.8385         estimate D2E/DX2                !
 ! A153  A(74,72,75)           108.1984         estimate D2E/DX2                !
 ! A154  A(31,76,77)           108.8144         estimate D2E/DX2                !
 ! A155  A(31,76,78)           111.8596         estimate D2E/DX2                !
 ! A156  A(31,76,79)           111.9653         estimate D2E/DX2                !
 ! A157  A(77,76,78)           107.8853         estimate D2E/DX2                !
 ! A158  A(77,76,79)           107.9065         estimate D2E/DX2                !
 ! A159  A(78,76,79)           108.2547         estimate D2E/DX2                !
 ! A160  A(31,80,81)           111.2293         estimate D2E/DX2                !
 ! A161  A(31,80,82)           110.5484         estimate D2E/DX2                !
 ! A162  A(31,80,83)           109.3589         estimate D2E/DX2                !
 ! A163  A(81,80,82)           108.732          estimate D2E/DX2                !
 ! A164  A(81,80,83)           108.8567         estimate D2E/DX2                !
 ! A165  A(82,80,83)           108.0422         estimate D2E/DX2                !
 ! A166  A(30,84,85)           111.7061         estimate D2E/DX2                !
 ! A167  A(30,84,86)           109.5513         estimate D2E/DX2                !
 ! A168  A(30,84,87)           110.7963         estimate D2E/DX2                !
 ! A169  A(85,84,86)           108.0147         estimate D2E/DX2                !
 ! A170  A(85,84,87)           108.3296         estimate D2E/DX2                !
 ! A171  A(86,84,87)           108.3404         estimate D2E/DX2                !
 ! A172  A(30,88,89)           109.4713         estimate D2E/DX2                !
 ! A173  A(30,88,90)           111.7937         estimate D2E/DX2                !
 ! A174  A(30,88,91)           110.7895         estimate D2E/DX2                !
 ! A175  A(89,88,90)           107.9614         estimate D2E/DX2                !
 ! A176  A(89,88,91)           108.4067         estimate D2E/DX2                !
 ! A177  A(90,88,91)           108.3154         estimate D2E/DX2                !
 ! A178  A(30,92,93)           111.4995         estimate D2E/DX2                !
 ! A179  A(30,92,94)           111.6852         estimate D2E/DX2                !
 ! A180  A(30,92,95)           109.2184         estimate D2E/DX2                !
 ! A181  A(93,92,94)           108.439          estimate D2E/DX2                !
 ! A182  A(93,92,95)           107.9953         estimate D2E/DX2                !
 ! A183  A(94,92,95)           107.8688         estimate D2E/DX2                !
 ! D1    D(6,1,2,3)              0.1057         estimate D2E/DX2                !
 ! D2    D(6,1,2,21)          -179.8308         estimate D2E/DX2                !
 ! D3    D(35,1,2,3)          -179.8415         estimate D2E/DX2                !
 ! D4    D(35,1,2,21)            0.222          estimate D2E/DX2                !
 ! D5    D(2,1,6,5)             -0.128          estimate D2E/DX2                !
 ! D6    D(2,1,6,36)           179.8743         estimate D2E/DX2                !
 ! D7    D(35,1,6,5)           179.8053         estimate D2E/DX2                !
 ! D8    D(35,1,6,36)           -0.1923         estimate D2E/DX2                !
 ! D9    D(2,1,35,7)            -0.1179         estimate D2E/DX2                !
 ! D10   D(2,1,35,70)          178.9477         estimate D2E/DX2                !
 ! D11   D(6,1,35,7)           179.941          estimate D2E/DX2                !
 ! D12   D(6,1,35,70)           -0.9935         estimate D2E/DX2                !
 ! D13   D(1,2,3,4)              0.0039         estimate D2E/DX2                !
 ! D14   D(1,2,3,8)            179.7229         estimate D2E/DX2                !
 ! D15   D(21,2,3,4)           179.9206         estimate D2E/DX2                !
 ! D16   D(21,2,3,8)            -0.3605         estimate D2E/DX2                !
 ! D17   D(1,2,21,7)            -0.2533         estimate D2E/DX2                !
 ! D18   D(1,2,21,68)         -179.5456         estimate D2E/DX2                !
 ! D19   D(3,2,21,7)           179.8205         estimate D2E/DX2                !
 ! D20   D(3,2,21,68)            0.5282         estimate D2E/DX2                !
 ! D21   D(2,3,4,5)             -0.0833         estimate D2E/DX2                !
 ! D22   D(2,3,4,9)            179.7628         estimate D2E/DX2                !
 ! D23   D(8,3,4,5)           -179.8004         estimate D2E/DX2                !
 ! D24   D(8,3,4,9)              0.0457         estimate D2E/DX2                !
 ! D25   D(3,4,5,6)              0.0579         estimate D2E/DX2                !
 ! D26   D(3,4,5,10)           179.5706         estimate D2E/DX2                !
 ! D27   D(9,4,5,6)           -179.7887         estimate D2E/DX2                !
 ! D28   D(9,4,5,10)            -0.276          estimate D2E/DX2                !
 ! D29   D(4,5,6,1)              0.0483         estimate D2E/DX2                !
 ! D30   D(4,5,6,36)          -179.9542         estimate D2E/DX2                !
 ! D31   D(10,5,6,1)          -179.4628         estimate D2E/DX2                !
 ! D32   D(10,5,6,36)            0.5347         estimate D2E/DX2                !
 ! D33   D(1,6,36,37)            2.9413         estimate D2E/DX2                !
 ! D34   D(1,6,36,38)         -177.5083         estimate D2E/DX2                !
 ! D35   D(5,6,36,37)         -177.0561         estimate D2E/DX2                !
 ! D36   D(5,6,36,38)            2.4943         estimate D2E/DX2                !
 ! D37   D(21,7,16,11)           1.1758         estimate D2E/DX2                !
 ! D38   D(21,7,16,15)        -179.1485         estimate D2E/DX2                !
 ! D39   D(35,7,16,11)        -179.0426         estimate D2E/DX2                !
 ! D40   D(35,7,16,15)           0.633          estimate D2E/DX2                !
 ! D41   D(16,7,21,2)         -179.9946         estimate D2E/DX2                !
 ! D42   D(16,7,21,68)          -0.6259         estimate D2E/DX2                !
 ! D43   D(35,7,21,2)            0.1853         estimate D2E/DX2                !
 ! D44   D(35,7,21,68)         179.5539         estimate D2E/DX2                !
 ! D45   D(16,7,35,1)         -179.8474         estimate D2E/DX2                !
 ! D46   D(16,7,35,70)           1.1862         estimate D2E/DX2                !
 ! D47   D(21,7,35,1)           -0.0389         estimate D2E/DX2                !
 ! D48   D(21,7,35,70)        -179.0053         estimate D2E/DX2                !
 ! D49   D(16,11,12,13)         -0.108          estimate D2E/DX2                !
 ! D50   D(16,11,12,34)       -179.7472         estimate D2E/DX2                !
 ! D51   D(33,11,12,13)        179.6568         estimate D2E/DX2                !
 ! D52   D(33,11,12,34)          0.0177         estimate D2E/DX2                !
 ! D53   D(12,11,16,7)         179.8883         estimate D2E/DX2                !
 ! D54   D(12,11,16,15)          0.1951         estimate D2E/DX2                !
 ! D55   D(33,11,16,7)           0.1746         estimate D2E/DX2                !
 ! D56   D(33,11,16,15)       -179.5187         estimate D2E/DX2                !
 ! D57   D(12,11,33,17)         -0.1299         estimate D2E/DX2                !
 ! D58   D(16,11,33,17)        179.6051         estimate D2E/DX2                !
 ! D59   D(11,12,13,14)          0.15           estimate D2E/DX2                !
 ! D60   D(11,12,13,18)       -179.9821         estimate D2E/DX2                !
 ! D61   D(34,12,13,14)        179.67           estimate D2E/DX2                !
 ! D62   D(34,12,13,18)         -0.462          estimate D2E/DX2                !
 ! D63   D(11,12,34,17)          0.1013         estimate D2E/DX2                !
 ! D64   D(11,12,34,69)        179.232          estimate D2E/DX2                !
 ! D65   D(13,12,34,17)       -179.4796         estimate D2E/DX2                !
 ! D66   D(13,12,34,69)         -0.3489         estimate D2E/DX2                !
 ! D67   D(12,13,14,15)         -0.2929         estimate D2E/DX2                !
 ! D68   D(12,13,14,19)        179.9184         estimate D2E/DX2                !
 ! D69   D(18,13,14,15)        179.839          estimate D2E/DX2                !
 ! D70   D(18,13,14,19)          0.0502         estimate D2E/DX2                !
 ! D71   D(13,14,15,16)          0.4003         estimate D2E/DX2                !
 ! D72   D(13,14,15,20)       -179.8367         estimate D2E/DX2                !
 ! D73   D(19,14,15,16)       -179.8098         estimate D2E/DX2                !
 ! D74   D(19,14,15,20)         -0.0469         estimate D2E/DX2                !
 ! D75   D(14,15,16,7)         179.982          estimate D2E/DX2                !
 ! D76   D(14,15,16,11)         -0.338          estimate D2E/DX2                !
 ! D77   D(20,15,16,7)           0.2204         estimate D2E/DX2                !
 ! D78   D(20,15,16,11)        179.9005         estimate D2E/DX2                !
 ! D79   D(33,17,23,22)        178.0151         estimate D2E/DX2                !
 ! D80   D(33,17,23,24)         -1.7007         estimate D2E/DX2                !
 ! D81   D(34,17,23,22)         -1.1754         estimate D2E/DX2                !
 ! D82   D(34,17,23,24)        179.1089         estimate D2E/DX2                !
 ! D83   D(23,17,33,11)       -179.0756         estimate D2E/DX2                !
 ! D84   D(34,17,33,11)          0.1977         estimate D2E/DX2                !
 ! D85   D(23,17,34,12)        179.0918         estimate D2E/DX2                !
 ! D86   D(23,17,34,69)         -0.1428         estimate D2E/DX2                !
 ! D87   D(33,17,34,12)         -0.1937         estimate D2E/DX2                !
 ! D88   D(33,17,34,69)       -179.4282         estimate D2E/DX2                !
 ! D89   D(27,22,23,17)       -178.3253         estimate D2E/DX2                !
 ! D90   D(27,22,23,24)          1.3863         estimate D2E/DX2                !
 ! D91   D(32,22,23,17)          1.3535         estimate D2E/DX2                !
 ! D92   D(32,22,23,24)       -178.9349         estimate D2E/DX2                !
 ! D93   D(23,22,27,26)         -1.235          estimate D2E/DX2                !
 ! D94   D(23,22,27,31)        178.1601         estimate D2E/DX2                !
 ! D95   D(32,22,27,26)        179.0901         estimate D2E/DX2                !
 ! D96   D(32,22,27,31)         -1.5148         estimate D2E/DX2                !
 ! D97   D(17,23,24,25)        179.1305         estimate D2E/DX2                !
 ! D98   D(17,23,24,28)         -0.6614         estimate D2E/DX2                !
 ! D99   D(22,23,24,25)         -0.5847         estimate D2E/DX2                !
 ! D100  D(22,23,24,28)        179.6235         estimate D2E/DX2                !
 ! D101  D(23,24,25,26)         -0.3711         estimate D2E/DX2                !
 ! D102  D(23,24,25,30)        179.5743         estimate D2E/DX2                !
 ! D103  D(28,24,25,26)        179.416          estimate D2E/DX2                !
 ! D104  D(28,24,25,30)         -0.6386         estimate D2E/DX2                !
 ! D105  D(24,25,26,27)          0.51           estimate D2E/DX2                !
 ! D106  D(24,25,26,29)       -179.3688         estimate D2E/DX2                !
 ! D107  D(30,25,26,27)       -179.4373         estimate D2E/DX2                !
 ! D108  D(30,25,26,29)          0.6839         estimate D2E/DX2                !
 ! D109  D(24,25,30,84)        119.8141         estimate D2E/DX2                !
 ! D110  D(24,25,30,88)       -121.1196         estimate D2E/DX2                !
 ! D111  D(24,25,30,92)         -0.7912         estimate D2E/DX2                !
 ! D112  D(26,25,30,84)        -60.2407         estimate D2E/DX2                !
 ! D113  D(26,25,30,88)         58.8255         estimate D2E/DX2                !
 ! D114  D(26,25,30,92)        179.1539         estimate D2E/DX2                !
 ! D115  D(25,26,27,22)          0.3218         estimate D2E/DX2                !
 ! D116  D(25,26,27,31)       -179.0577         estimate D2E/DX2                !
 ! D117  D(29,26,27,22)       -179.8009         estimate D2E/DX2                !
 ! D118  D(29,26,27,31)          0.8196         estimate D2E/DX2                !
 ! D119  D(22,27,31,72)        -59.9929         estimate D2E/DX2                !
 ! D120  D(22,27,31,76)       -179.5324         estimate D2E/DX2                !
 ! D121  D(22,27,31,80)         60.7313         estimate D2E/DX2                !
 ! D122  D(26,27,31,72)        119.377          estimate D2E/DX2                !
 ! D123  D(26,27,31,76)         -0.1625         estimate D2E/DX2                !
 ! D124  D(26,27,31,80)       -119.8988         estimate D2E/DX2                !
 ! D125  D(25,30,84,85)         58.5028         estimate D2E/DX2                !
 ! D126  D(25,30,84,86)        178.1458         estimate D2E/DX2                !
 ! D127  D(25,30,84,87)        -62.3782         estimate D2E/DX2                !
 ! D128  D(88,30,84,85)        -60.3436         estimate D2E/DX2                !
 ! D129  D(88,30,84,86)         59.2994         estimate D2E/DX2                !
 ! D130  D(88,30,84,87)        178.7754         estimate D2E/DX2                !
 ! D131  D(92,30,84,85)       -178.7334         estimate D2E/DX2                !
 ! D132  D(92,30,84,86)        -59.0904         estimate D2E/DX2                !
 ! D133  D(92,30,84,87)         60.3856         estimate D2E/DX2                !
 ! D134  D(25,30,88,89)       -178.2845         estimate D2E/DX2                !
 ! D135  D(25,30,88,90)        -58.7054         estimate D2E/DX2                !
 ! D136  D(25,30,88,91)         62.2126         estimate D2E/DX2                !
 ! D137  D(84,30,88,89)        -59.5291         estimate D2E/DX2                !
 ! D138  D(84,30,88,90)         60.0501         estimate D2E/DX2                !
 ! D139  D(84,30,88,91)       -179.032          estimate D2E/DX2                !
 ! D140  D(92,30,88,89)         59.0475         estimate D2E/DX2                !
 ! D141  D(92,30,88,90)        178.6267         estimate D2E/DX2                !
 ! D142  D(92,30,88,91)        -60.4554         estimate D2E/DX2                !
 ! D143  D(25,30,92,93)        -60.3603         estimate D2E/DX2                !
 ! D144  D(25,30,92,94)         61.138          estimate D2E/DX2                !
 ! D145  D(25,30,92,95)       -179.632          estimate D2E/DX2                !
 ! D146  D(84,30,92,93)        179.0606         estimate D2E/DX2                !
 ! D147  D(84,30,92,94)        -59.441          estimate D2E/DX2                !
 ! D148  D(84,30,92,95)         59.7889         estimate D2E/DX2                !
 ! D149  D(88,30,92,93)         60.1991         estimate D2E/DX2                !
 ! D150  D(88,30,92,94)       -178.3025         estimate D2E/DX2                !
 ! D151  D(88,30,92,95)        -59.0726         estimate D2E/DX2                !
 ! D152  D(27,31,72,73)         62.6632         estimate D2E/DX2                !
 ! D153  D(27,31,72,74)       -177.2337         estimate D2E/DX2                !
 ! D154  D(27,31,72,75)        -58.1695         estimate D2E/DX2                !
 ! D155  D(76,31,72,73)       -175.5527         estimate D2E/DX2                !
 ! D156  D(76,31,72,74)        -55.4496         estimate D2E/DX2                !
 ! D157  D(76,31,72,75)         63.6146         estimate D2E/DX2                !
 ! D158  D(80,31,72,73)        -58.0404         estimate D2E/DX2                !
 ! D159  D(80,31,72,74)         62.0626         estimate D2E/DX2                !
 ! D160  D(80,31,72,75)       -178.8731         estimate D2E/DX2                !
 ! D161  D(27,31,76,77)        179.9418         estimate D2E/DX2                !
 ! D162  D(27,31,76,78)        -60.9625         estimate D2E/DX2                !
 ! D163  D(27,31,76,79)         60.7549         estimate D2E/DX2                !
 ! D164  D(72,31,76,77)         59.6772         estimate D2E/DX2                !
 ! D165  D(72,31,76,78)        178.7728         estimate D2E/DX2                !
 ! D166  D(72,31,76,79)        -59.5097         estimate D2E/DX2                !
 ! D167  D(80,31,76,77)        -59.1443         estimate D2E/DX2                !
 ! D168  D(80,31,76,78)         59.9514         estimate D2E/DX2                !
 ! D169  D(80,31,76,79)       -178.3312         estimate D2E/DX2                !
 ! D170  D(27,31,80,81)        -60.6892         estimate D2E/DX2                !
 ! D171  D(27,31,80,82)         60.2111         estimate D2E/DX2                !
 ! D172  D(27,31,80,83)        179.0459         estimate D2E/DX2                !
 ! D173  D(72,31,80,81)         59.6448         estimate D2E/DX2                !
 ! D174  D(72,31,80,82)       -179.4549         estimate D2E/DX2                !
 ! D175  D(72,31,80,83)        -60.6201         estimate D2E/DX2                !
 ! D176  D(76,31,80,81)        177.2604         estimate D2E/DX2                !
 ! D177  D(76,31,80,82)        -61.8393         estimate D2E/DX2                !
 ! D178  D(76,31,80,83)         56.9955         estimate D2E/DX2                !
 ! D179  D(6,36,37,43)         179.4378         estimate D2E/DX2                !
 ! D180  D(38,36,37,43)         -0.1612         estimate D2E/DX2                !
 ! D181  D(6,36,38,44)        -179.4731         estimate D2E/DX2                !
 ! D182  D(6,36,38,71)           1.9116         estimate D2E/DX2                !
 ! D183  D(37,36,38,44)          0.122          estimate D2E/DX2                !
 ! D184  D(37,36,38,71)       -178.4932         estimate D2E/DX2                !
 ! D185  D(36,37,43,42)       -179.7712         estimate D2E/DX2                !
 ! D186  D(36,37,43,44)          0.1391         estimate D2E/DX2                !
 ! D187  D(36,38,44,39)       -179.6581         estimate D2E/DX2                !
 ! D188  D(36,38,44,43)         -0.0283         estimate D2E/DX2                !
 ! D189  D(71,38,44,39)         -0.8822         estimate D2E/DX2                !
 ! D190  D(71,38,44,43)        178.7476         estimate D2E/DX2                !
 ! D191  D(44,39,40,41)         -0.4831         estimate D2E/DX2                !
 ! D192  D(44,39,40,45)        179.7507         estimate D2E/DX2                !
 ! D193  D(48,39,40,41)        179.0771         estimate D2E/DX2                !
 ! D194  D(48,39,40,45)         -0.6891         estimate D2E/DX2                !
 ! D195  D(40,39,44,38)       -179.8153         estimate D2E/DX2                !
 ! D196  D(40,39,44,43)          0.6113         estimate D2E/DX2                !
 ! D197  D(48,39,44,38)          0.6202         estimate D2E/DX2                !
 ! D198  D(48,39,44,43)       -178.9532         estimate D2E/DX2                !
 ! D199  D(40,39,48,49)          1.1673         estimate D2E/DX2                !
 ! D200  D(40,39,48,50)       -178.3825         estimate D2E/DX2                !
 ! D201  D(44,39,48,49)       -179.2987         estimate D2E/DX2                !
 ! D202  D(44,39,48,50)          1.1515         estimate D2E/DX2                !
 ! D203  D(39,40,41,42)          0.2382         estimate D2E/DX2                !
 ! D204  D(39,40,41,46)       -179.83           estimate D2E/DX2                !
 ! D205  D(45,40,41,42)       -179.9975         estimate D2E/DX2                !
 ! D206  D(45,40,41,46)         -0.0657         estimate D2E/DX2                !
 ! D207  D(40,41,42,43)         -0.0764         estimate D2E/DX2                !
 ! D208  D(40,41,42,47)       -179.8498         estimate D2E/DX2                !
 ! D209  D(46,41,42,43)        179.9921         estimate D2E/DX2                !
 ! D210  D(46,41,42,47)          0.2187         estimate D2E/DX2                !
 ! D211  D(41,42,43,37)       -179.9086         estimate D2E/DX2                !
 ! D212  D(41,42,43,44)          0.1888         estimate D2E/DX2                !
 ! D213  D(47,42,43,37)         -0.1338         estimate D2E/DX2                !
 ! D214  D(47,42,43,44)        179.9636         estimate D2E/DX2                !
 ! D215  D(37,43,44,38)         -0.0685         estimate D2E/DX2                !
 ! D216  D(37,43,44,39)        179.5966         estimate D2E/DX2                !
 ! D217  D(42,43,44,38)        179.8537         estimate D2E/DX2                !
 ! D218  D(42,43,44,39)         -0.4812         estimate D2E/DX2                !
 ! D219  D(39,48,50,51)        179.7712         estimate D2E/DX2                !
 ! D220  D(49,48,50,51)          0.2559         estimate D2E/DX2                !
 ! D221  D(48,50,51,52)          0.8329         estimate D2E/DX2                !
 ! D222  D(48,50,51,53)        127.0112         estimate D2E/DX2                !
 ! D223  D(48,50,51,54)       -119.025          estimate D2E/DX2                !
 ! D224  D(50,51,52,55)       -178.5479         estimate D2E/DX2                !
 ! D225  D(50,51,52,56)         60.8715         estimate D2E/DX2                !
 ! D226  D(50,51,52,57)        -56.5099         estimate D2E/DX2                !
 ! D227  D(53,51,52,55)         56.4098         estimate D2E/DX2                !
 ! D228  D(53,51,52,56)        -64.1708         estimate D2E/DX2                !
 ! D229  D(53,51,52,57)        178.4478         estimate D2E/DX2                !
 ! D230  D(54,51,52,55)        -60.027          estimate D2E/DX2                !
 ! D231  D(54,51,52,56)        179.3925         estimate D2E/DX2                !
 ! D232  D(54,51,52,57)         62.011          estimate D2E/DX2                !
 ! D233  D(50,51,53,58)        173.6551         estimate D2E/DX2                !
 ! D234  D(50,51,53,59)        -65.536          estimate D2E/DX2                !
 ! D235  D(50,51,53,60)         50.8155         estimate D2E/DX2                !
 ! D236  D(52,51,53,58)        -56.2884         estimate D2E/DX2                !
 ! D237  D(52,51,53,59)         64.5205         estimate D2E/DX2                !
 ! D238  D(52,51,53,60)       -179.1279         estimate D2E/DX2                !
 ! D239  D(54,51,53,58)         60.7338         estimate D2E/DX2                !
 ! D240  D(54,51,53,59)       -178.4573         estimate D2E/DX2                !
 ! D241  D(54,51,53,60)        -62.1057         estimate D2E/DX2                !
 ! D242  D(51,52,55,61)        -56.2859         estimate D2E/DX2                !
 ! D243  D(51,52,55,62)       -178.9785         estimate D2E/DX2                !
 ! D244  D(51,52,55,63)         64.393          estimate D2E/DX2                !
 ! D245  D(56,52,55,61)         64.1319         estimate D2E/DX2                !
 ! D246  D(56,52,55,62)        -58.5606         estimate D2E/DX2                !
 ! D247  D(56,52,55,63)       -175.1891         estimate D2E/DX2                !
 ! D248  D(57,52,55,61)       -178.4675         estimate D2E/DX2                !
 ! D249  D(57,52,55,62)         58.84           estimate D2E/DX2                !
 ! D250  D(57,52,55,63)        -57.7885         estimate D2E/DX2                !
 ! D251  D(51,53,58,61)         55.4526         estimate D2E/DX2                !
 ! D252  D(51,53,58,64)        178.1362         estimate D2E/DX2                !
 ! D253  D(51,53,58,65)        -65.0329         estimate D2E/DX2                !
 ! D254  D(59,53,58,61)        -64.4769         estimate D2E/DX2                !
 ! D255  D(59,53,58,64)         58.2068         estimate D2E/DX2                !
 ! D256  D(59,53,58,65)        175.0377         estimate D2E/DX2                !
 ! D257  D(60,53,58,61)        177.2249         estimate D2E/DX2                !
 ! D258  D(60,53,58,64)        -60.0914         estimate D2E/DX2                !
 ! D259  D(60,53,58,65)         56.7395         estimate D2E/DX2                !
 ! D260  D(52,55,61,58)         55.2814         estimate D2E/DX2                !
 ! D261  D(52,55,61,66)        177.9327         estimate D2E/DX2                !
 ! D262  D(52,55,61,67)        -64.9382         estimate D2E/DX2                !
 ! D263  D(62,55,61,58)        177.6599         estimate D2E/DX2                !
 ! D264  D(62,55,61,66)        -59.6888         estimate D2E/DX2                !
 ! D265  D(62,55,61,67)         57.4403         estimate D2E/DX2                !
 ! D266  D(63,55,61,58)        -65.313          estimate D2E/DX2                !
 ! D267  D(63,55,61,66)         57.3383         estimate D2E/DX2                !
 ! D268  D(63,55,61,67)        174.4674         estimate D2E/DX2                !
 ! D269  D(53,58,61,55)        -54.6795         estimate D2E/DX2                !
 ! D270  D(53,58,61,66)       -177.3067         estimate D2E/DX2                !
 ! D271  D(53,58,61,67)         65.4965         estimate D2E/DX2                !
 ! D272  D(64,58,61,55)       -177.0684         estimate D2E/DX2                !
 ! D273  D(64,58,61,66)         60.3044         estimate D2E/DX2                !
 ! D274  D(64,58,61,67)        -56.8924         estimate D2E/DX2                !
 ! D275  D(65,58,61,55)         65.7203         estimate D2E/DX2                !
 ! D276  D(65,58,61,66)        -56.9069         estimate D2E/DX2                !
 ! D277  D(65,58,61,67)       -174.1036         estimate D2E/DX2                !
 --------------------------------------------------------------------------------
 Trust Radius=3.00D-01 FncErr=1.00D-07 GrdErr=1.00D-07 EigMax=2.50D+02 EigMin=1.00D-04
 Number of steps in this run=    570 maximum allowed number of steps=    570.
 GradGradGradGradGradGradGradGradGradGradGradGradGradGradGradGradGradGrad

 Leave Link  103 at Fri Dec 21 18:13:26 2018, MaxMem=  1342177280 cpu:               0.3 elap:               0.0
 (Enter /gpfs/apps/hpc/Apps/Restricted/Gaussian/Rev_A.03/g16/l202.exe)
 Symmetry turned off by external request.
 Stoichiometry    C42H45N7O(1+,2)
 Framework group  C1[X(C42H45N7O)]
 Deg. of freedom   279
 Full point group                 C1      NOp   1
                          Input orientation:                          
 ---------------------------------------------------------------------
 Center     Atomic      Atomic             Coordinates (Angstroms)
 Number     Number       Type             X           Y           Z
 ---------------------------------------------------------------------
      1          6           0        1.590076    0.353309    1.105904
      2          6           0        0.492351    1.177945    0.812503
      3          6           0        0.633962    2.557454    0.672190
      4          6           0        1.919519    3.068944    0.838583
      5          6           0        3.019434    2.246619    1.133778
      6          6           0        2.885387    0.861050    1.276796
      7          6           0       -0.213832   -0.944387    0.938511
      8          1           0       -0.211686    3.191796    0.441712
      9          1           0        2.079306    4.134964    0.735069
     10          1           0        3.997295    2.698653    1.245443
     11          6           0       -2.484304   -1.841410    0.623100
     12          6           0       -3.387661   -2.934367    0.591313
     13          6           0       -2.979665   -4.244318    0.835453
     14          6           0       -1.628403   -4.443541    1.120011
     15          6           0       -0.711583   -3.382115    1.155355
     16          6           0       -1.118147   -2.065080    0.912626
     17          6           0       -4.417542   -1.020855    0.136819
     18          1           0       -3.678857   -5.070455    0.808031
     19          1           0       -1.271294   -5.446508    1.316902
     20          1           0        0.327271   -3.590642    1.378654
     21          7           0       -0.600436    0.329673    0.722078
     22          6           0       -6.842799   -0.603090   -0.456427
     23          6           0       -5.483757   -0.102899   -0.211715
     24          6           0       -5.201471    1.250854   -0.316407
     25          6           0       -6.192369    2.175159   -0.667828
     26          6           0       -7.506448    1.696029   -0.926320
     27          6           0       -7.869415    0.373394   -0.842298
     28          1           0       -4.190074    1.578375   -0.122265
     29          1           0       -8.254886    2.423672   -1.206294
     30          6           0       -5.915115    3.669325   -0.781606
     31          6           0       -9.288102   -0.101067   -1.149020
     32          8           0       -7.104696   -1.829519   -0.342165
     33          7           0       -3.139247   -0.669561    0.341904
     34          7           0       -4.599892   -2.368266    0.281083
     35          7           0        1.113270   -0.943128    1.173115
     36          6           0        3.976165   -0.048739    1.581876
     37          7           0        3.831799   -1.371101    1.657056
     38          7           0        5.268419    0.344844    1.816342
     39          6           0        7.365048   -0.954931    2.352861
     40          6           0        7.787992   -2.275529    2.535078
     41          6           0        6.897020   -3.360529    2.434395
     42          6           0        5.547415   -3.176832    2.143046
     43          6           0        5.093317   -1.864573    1.951695
     44          6           0        6.003737   -0.788399    2.054525
     45          1           0        8.831818   -2.461089    2.763678
     46          1           0        7.275921   -4.364063    2.587369
     47          1           0        4.866719   -4.016370    2.069412
     48          6           0        8.271161    0.186719    2.472751
     49          1           0        9.313420   -0.055712    2.696045
     50          7           0        7.845137    1.386151    2.329888
     51          6           0        8.756791    2.522264    2.456255
     52          6           0       10.230957    2.216560    2.744199
     53          6           0        8.620235    3.394279    1.197032
     54          1           0        8.366469    3.114047    3.296901
     55          6           0       11.037725    3.513639    2.881653
     56          1           0       10.641782    1.615897    1.922677
     57          1           0       10.323367    1.618808    3.656847
     58          6           0        9.429924    4.688145    1.324462
     59          1           0        8.978007    2.815412    0.336744
     60          1           0        7.561478    3.610189    1.023471
     61          6           0       10.901751    4.395594    1.635753
     62          1           0       12.089900    3.278187    3.068716
     63          1           0       10.677712    4.068161    3.757125
     64          1           0        9.343141    5.274637    0.404349
     65          1           0        9.005162    5.297880    2.131818
     66          1           0       11.454890    5.330499    1.770534
     67          1           0       11.352947    3.877322    0.780308
     68          1           0       -1.580292    0.545535    0.516636
     69          1           0       -5.515798   -2.787873    0.147649
     70          1           0        1.737346   -1.726651    1.360575
     71          1           0        5.689365    1.267912    1.850279
     72          6           0       -9.248969   -1.098880   -2.329460
     73          1           0       -8.672350   -1.985926   -2.071166
     74          1           0      -10.268345   -1.402843   -2.583722
     75          1           0       -8.802008   -0.631607   -3.211162
     76          6           0      -10.205549    1.066200   -1.542560
     77          1           0      -11.203314    0.674855   -1.751737
     78          1           0      -10.295234    1.802486   -0.738870
     79          1           0       -9.851195    1.580211   -2.439877
     80          6           0       -9.895604   -0.782897    0.097174
     81          1           0       -9.311168   -1.651693    0.395491
     82          1           0       -9.936945   -0.082734    0.935857
     83          1           0      -10.916738   -1.103794   -0.126782
     84          6           0       -6.222936    4.124135   -2.225421
     85          1           0       -7.258799    3.916115   -2.502290
     86          1           0       -6.059635    5.201475   -2.312244
     87          1           0       -5.568269    3.618522   -2.939327
     88          6           0       -6.837215    4.426649    0.199678
     89          1           0       -6.667023    5.502185    0.103232
     90          1           0       -7.892424    4.233066   -0.004193
     91          1           0       -6.627858    4.135409    1.231720
     92          6           0       -4.457741    4.020198   -0.451412
     93          1           0       -4.197621    3.730977    0.570119
     94          1           0       -3.759671    3.532939   -1.137082
     95          1           0       -4.318358    5.099707   -0.542347
 ---------------------------------------------------------------------
 Rotational constants (GHZ):           0.1218692           0.0181002           0.0159097
 Leave Link  202 at Fri Dec 21 18:13:26 2018, MaxMem=  1342177280 cpu:               0.8 elap:               0.1
 (Enter /gpfs/apps/hpc/Apps/Restricted/Gaussian/Rev_A.03/g16/l716.exe)
 Electric field and nuclear coordinate derivatives read from checkpoint file.
 Dipole        =-3.58450176D-01 1.13384385D+00 1.40735390D+00
 Polarizability= 1.11060601D+03-5.38283206D+01 9.93528498D+02
                 1.63173612D+02-8.78581399D+01 3.74651675D+02
 Full mass-weighted force constant matrix:
 Low frequencies ---   -9.7616   -0.0035    0.0008    0.0033    4.5984    9.6179
 Low frequencies ---   15.6970   19.3005   28.0788
 Diagonal vibrational polarizability:
      171.0750185      74.9656231     130.2510235
 Harmonic frequencies (cm**-1), IR intensities (KM/Mole), Raman scattering
 activities (A**4/AMU), depolarization ratios for plane and unpolarized
 incident light, reduced masses (AMU), force constants (mDyne/A),
 and normal coordinates:
                      1                      2                      3
                      A                      A                      A
 Frequencies --     13.1566                17.3686                22.2094
 Red. masses --      5.8040                 5.3861                 5.3841
 Frc consts  --      0.0006                 0.0010                 0.0016
 IR Inten    --      0.1466                 0.1054                 0.0888
  Atom  AN      X      Y      Z        X      Y      Z        X      Y      Z
     1   6    -0.02   0.07   0.10    -0.02  -0.04   0.10     0.01   0.00  -0.05
     2   6    -0.02   0.07   0.11    -0.02  -0.04   0.11     0.02  -0.00  -0.07
     3   6    -0.03   0.07   0.14    -0.03  -0.04   0.14     0.02  -0.00  -0.08
     4   6    -0.03   0.07   0.15    -0.03  -0.03   0.15     0.02  -0.00  -0.07
     5   6    -0.02   0.07   0.13    -0.03  -0.03   0.13     0.01   0.00  -0.04
     6   6    -0.02   0.07   0.10    -0.02  -0.04   0.10     0.01   0.00  -0.03
     7   6    -0.01   0.06   0.06    -0.01  -0.05   0.07     0.02   0.00  -0.06
     8   1    -0.03   0.07   0.15    -0.03  -0.04   0.15     0.02  -0.00  -0.09
     9   1    -0.03   0.07   0.17    -0.04  -0.03   0.17     0.02  -0.00  -0.07
    10   1    -0.03   0.07   0.14    -0.03  -0.03   0.14     0.01   0.00  -0.02
    11   6     0.01   0.03   0.01    -0.01  -0.04   0.01     0.02  -0.00  -0.06
    12   6     0.02   0.02  -0.03    -0.01  -0.03  -0.02     0.02  -0.00  -0.07
    13   6     0.04   0.02  -0.04    -0.03  -0.03  -0.04     0.02  -0.01  -0.09
    14   6     0.04   0.04  -0.01    -0.03  -0.04  -0.01     0.03  -0.01  -0.10
    15   6     0.02   0.05   0.02    -0.03  -0.05   0.02     0.02  -0.00  -0.08
    16   6     0.00   0.05   0.03    -0.02  -0.04   0.03     0.02  -0.00  -0.06
    17   6     0.00   0.01  -0.02     0.00  -0.02  -0.01     0.01   0.00  -0.03
    18   1     0.05   0.01  -0.07    -0.03  -0.03  -0.06     0.03  -0.01  -0.11
    19   1     0.05   0.04  -0.02    -0.04  -0.05  -0.02     0.03  -0.01  -0.11
    20   1     0.02   0.07   0.04    -0.03  -0.06   0.04     0.02  -0.00  -0.08
    21   7    -0.02   0.06   0.09    -0.02  -0.04   0.09     0.02  -0.00  -0.07
    22   6     0.00  -0.03  -0.04     0.02   0.02  -0.04     0.01  -0.00  -0.02
    23   6    -0.01  -0.01  -0.03     0.02  -0.00  -0.02     0.00   0.00  -0.01
    24   6    -0.03  -0.00  -0.01     0.04  -0.00  -0.01    -0.01   0.01   0.03
    25   6    -0.05  -0.02  -0.01     0.06   0.01  -0.01    -0.02   0.01   0.06
    26   6    -0.04  -0.04  -0.03     0.05   0.03  -0.02    -0.01   0.00   0.04
    27   6    -0.01  -0.04  -0.04     0.03   0.04  -0.04     0.00  -0.00  -0.00
    28   1    -0.04   0.02  -0.00     0.04  -0.02   0.00    -0.01   0.01   0.05
    29   1    -0.05  -0.05  -0.03     0.06   0.05  -0.02    -0.02   0.01   0.06
    30   6    -0.07  -0.01  -0.01     0.08   0.01   0.01    -0.03   0.02   0.11
    31   6    -0.00  -0.07  -0.05     0.03   0.06  -0.05     0.01  -0.01  -0.02
    32   8     0.02  -0.03  -0.06     0.00   0.02  -0.06     0.02  -0.01  -0.05
    33   7    -0.01   0.03   0.01     0.00  -0.03   0.01     0.01   0.00  -0.04
    34   7     0.02   0.00  -0.04    -0.01  -0.02  -0.04     0.02  -0.00  -0.06
    35   7    -0.01   0.06   0.07    -0.02  -0.05   0.07     0.01   0.00  -0.04
    36   6    -0.02   0.05   0.07    -0.01  -0.03   0.08     0.00   0.00   0.02
    37   7    -0.04   0.06   0.08     0.00  -0.04   0.07    -0.01   0.01   0.06
    38   7     0.00   0.03   0.02    -0.01  -0.02   0.04     0.00   0.00   0.03
    39   6    -0.00  -0.01  -0.06     0.02   0.00  -0.02    -0.02   0.00   0.13
    40   6    -0.03  -0.02  -0.07     0.04   0.01  -0.04    -0.04   0.01   0.19
    41   6    -0.06  -0.00  -0.02     0.05  -0.00  -0.02    -0.05   0.01   0.21
    42   6    -0.06   0.02   0.03     0.04  -0.02   0.03    -0.04   0.01   0.17
    43   6    -0.04   0.03   0.04     0.02  -0.02   0.04    -0.02   0.01   0.11
    44   6    -0.01   0.02  -0.01     0.01  -0.01   0.02    -0.02   0.00   0.09
    45   1    -0.02  -0.04  -0.10     0.05   0.02  -0.07    -0.05   0.01   0.22
    46   1    -0.07  -0.01  -0.03     0.07   0.00  -0.03    -0.06   0.01   0.26
    47   1    -0.09   0.04   0.07     0.05  -0.03   0.04    -0.04   0.02   0.19
    48   6     0.03  -0.04  -0.09     0.01   0.02  -0.04    -0.01  -0.00   0.09
    49   1     0.03  -0.06  -0.11     0.02   0.03  -0.08    -0.02  -0.00   0.13
    50   7     0.05  -0.03  -0.07    -0.02   0.01  -0.02     0.01  -0.01   0.01
    51   6     0.08  -0.05  -0.07    -0.04   0.03  -0.06     0.02  -0.01  -0.04
    52   6     0.07  -0.09  -0.07    -0.02   0.07  -0.11     0.03  -0.01  -0.08
    53   6     0.10  -0.03  -0.06    -0.10   0.02  -0.06    -0.02  -0.03  -0.04
    54   1     0.10  -0.05  -0.06    -0.03   0.03  -0.05     0.05   0.01  -0.03
    55   6     0.10  -0.10  -0.04    -0.05   0.09  -0.14     0.03  -0.00  -0.12
    56   1     0.07  -0.08  -0.08    -0.04   0.07  -0.12    -0.00  -0.01  -0.09
    57   1     0.06  -0.10  -0.08     0.02   0.07  -0.11     0.06   0.01  -0.08
    58   6     0.13  -0.05  -0.04    -0.13   0.04  -0.09    -0.02  -0.02  -0.09
    59   1     0.09  -0.03  -0.06    -0.11   0.02  -0.07    -0.04  -0.04  -0.05
    60   1     0.11  -0.01  -0.06    -0.11  -0.01  -0.03    -0.03  -0.03  -0.02
    61   6     0.12  -0.08  -0.03    -0.11   0.07  -0.14    -0.01  -0.02  -0.13
    62   1     0.09  -0.13  -0.04    -0.04   0.11  -0.17     0.04   0.00  -0.15
[...]
 ! R3    R(1,35)                 0.0427                  2.8                    !
 ! R15   R(7,35)                 0.0478                  3.1                    !
 ! R30   R(21,68)               -0.059                   3.8                    !
 ! R49   R(35,70)               -1.0703                 69.0                    !
 ! R54   R(38,71)               -0.0264                  1.7                    !
 ! A2    A(2,1,35)               0.0244                  1.6                    !
 ! A3    A(6,1,35)              -0.0249                  1.6                    !
 ! A20   A(16,7,35)             -0.0255                  1.6                    !
 ! A21   A(21,7,35)              0.026                   1.7                    !
 ! A80   A(1,35,7)              -0.0493                  3.2                    !
 ! A82   A(7,35,70)              0.0554                  3.6                    !
 --------------------------------------------------------------------------------
                           ----------------------------
                           ! Normal Mode   278        !
 --------------------------                            --------------------------
 ! Name  Definition              Value          Relative Weight (%)             !
 --------------------------------------------------------------------------------
 ! R20   R(12,34)                0.0489                  3.3                    !
 ! R29   R(17,34)                0.0423                  2.9                    !
 ! R48   R(34,69)               -1.0714                 73.4                    !
 ! A26   A(11,12,34)             0.0233                  1.6                    !
 ! A27   A(13,12,34)            -0.0244                  1.7                    !
 ! A41   A(23,17,34)            -0.0246                  1.7                    !
 ! A42   A(33,17,34)             0.0242                  1.7                    !
 ! A77   A(12,34,17)            -0.0481                  3.3                    !
 ! A78   A(12,34,69)             0.0542                  3.7                    !
 --------------------------------------------------------------------------------
                           ----------------------------
                           ! Normal Mode   279        !
 --------------------------                            --------------------------
 ! Name  Definition              Value          Relative Weight (%)             !
 --------------------------------------------------------------------------------
 ! R49   R(35,70)               -0.0265                  1.8                    !
 ! R51   R(36,38)               -0.049                   3.4                    !
 ! R53   R(38,44)               -0.0432                  3.0                    !
 ! R54   R(38,71)                1.0714                 73.7                    !
 ! A84   A(6,36,38)              0.0238                  1.6                    !
 ! A85   A(37,36,38)            -0.0229                  1.6                    !
 ! A87   A(36,38,44)             0.0474                  3.3                    !
 ! A88   A(36,38,71)            -0.0504                  3.5                    !
 ! A105  A(38,44,39)             0.0247                  1.7                    !
 ! A106  A(38,44,43)            -0.0239                  1.6                    !
 --------------------------------------------------------------------------------
 -------------------------------------------------------------------
 Center     Atomic                   Forces (Hartrees/Bohr)
 Number     Number              X              Y              Z
 -------------------------------------------------------------------
      1        6          -0.000000748    0.000001122    0.000002160
      2        6           0.000000194   -0.000000084   -0.000001771
      3        6           0.000002061   -0.000000618   -0.000008830
      4        6           0.000003067   -0.000000539   -0.000011320
      5        6           0.000000731   -0.000000882   -0.000007341
      6        6          -0.000000147   -0.000000477   -0.000000226
      7        6          -0.000001352    0.000001898    0.000009047
      8        1           0.000002281   -0.000000585   -0.000012088
      9        1           0.000003390   -0.000002317   -0.000016599
     10        1           0.000002498   -0.000001043   -0.000009355
     11        6          -0.000003204    0.000002022    0.000013213
     12        6          -0.000003456    0.000003755    0.000018780
     13        6          -0.000006164    0.000003926    0.000024797
     14        6          -0.000004856    0.000004005    0.000026405
     15        6          -0.000005025    0.000003134    0.000020824
     16        6          -0.000002950    0.000002504    0.000014121
     17        6          -0.000002334    0.000002206    0.000008838
     18        1          -0.000006108    0.000004806    0.000029290
     19        1          -0.000006778    0.000004853    0.000031170
     20        1          -0.000004409    0.000003274    0.000022020
     21        7           0.000000344    0.000001320    0.000002282
     22        6          -0.000001633    0.000001597    0.000006624
     23        6           0.000000029    0.000002181    0.000004427
     24        6          -0.000000551    0.000000124   -0.000002788
     25        6           0.000002013   -0.000000090   -0.000007006
     26        6           0.000001085    0.000000735   -0.000004823
     27        6          -0.000001053    0.000001041    0.000001720
     28        1           0.000001207    0.000000753   -0.000004005
     29        1           0.000001959   -0.000000657   -0.000008395
     30        6           0.000002883   -0.000000667   -0.000014501
     31        6          -0.000000365    0.000000548    0.000004551
     32        8          -0.000002575    0.000002463    0.000012884
     33        7          -0.000002127    0.000001462    0.000007067
     34        7          -0.000002383    0.000003955    0.000015671
     35        7          -0.000002095    0.000001008    0.000008650
     36        6          -0.000000205    0.000001258    0.000004668
     37        7          -0.000002060    0.000000470    0.000010922
     38        7          -0.000001114   -0.000000586    0.000002200
     39        6          -0.000001292    0.000000631    0.000008976
     40        6          -0.000003741    0.000000782    0.000015616
     41        6          -0.000003865    0.000001407    0.000021219
     42        6          -0.000005024    0.000000992    0.000019930
     43        6          -0.000002958    0.000001669    0.000013578
     44        6          -0.000002653    0.000001011    0.000007973
     45        1          -0.000003459    0.000001160    0.000016641
     46        1          -0.000005647    0.000002205    0.000026059
     47        1          -0.000004818    0.000002284    0.000024348
     48        6          -0.000000919    0.000000104    0.000003424
     49        1          -0.000000727    0.000000232    0.000004655
     50        7           0.000000414    0.000000353   -0.000002567
     51        6           0.000001232    0.000000220   -0.000008432
     52        6           0.000001768   -0.000000032   -0.000006205
     53        6           0.000003555   -0.000006805   -0.000012749
     54        1           0.000002566    0.000003991   -0.000011565
     55        6           0.000002324   -0.000000722   -0.000013146
     56        1           0.000000924   -0.000005209   -0.000003979
     57        1           0.000000792    0.000004065   -0.000003893
     58        6           0.000003718   -0.000006661   -0.000018870
     59        1           0.000002091   -0.000011085   -0.000009749
     60        1           0.000002612   -0.000006058   -0.000013858
     61        6           0.000003614   -0.000007073   -0.000017375
     62        1           0.000002748   -0.000000892   -0.000011957
     63        1           0.000003480    0.000004103   -0.000016220
     64        1           0.000004799   -0.000011081   -0.000022273
     65        1           0.000004901   -0.000002253   -0.000022338
     66        1           0.000004947   -0.000006426   -0.000022394
     67        1           0.000003461   -0.000011412   -0.000015172
     68        1          -0.000000664    0.000001102    0.000001069
     69        1          -0.000004544    0.000003084    0.000017680
     70        1          -0.000002720    0.000001721    0.000012636
     71        1           0.000000664    0.000000101   -0.000002102
     72        6          -0.000002459   -0.000005523    0.000009456
     73        1          -0.000002972   -0.000004186    0.000013715
     74        1          -0.000001994   -0.000005096    0.000010644
     75        1          -0.000001142   -0.000009616    0.000006398
     76        6           0.000000714   -0.000000063   -0.000002189
     77        1          -0.000000055   -0.000000024    0.000000211
     78        1           0.000001037    0.000004248   -0.000005223
     79        1           0.000000849   -0.000004911   -0.000004227
     80        6          -0.000001808    0.000007917    0.000007266
     81        1          -0.000002529    0.000008655    0.000011933
     82        1          -0.000000901    0.000012048    0.000004011
     83        1          -0.000002062    0.000007740    0.000009121
     84        6           0.000003592   -0.000007340   -0.000016861
     85        1           0.000003558   -0.000008035   -0.000015901
     86        1           0.000004781   -0.000008522   -0.000022289
     87        1           0.000003219   -0.000012180   -0.000014520
     88        6           0.000003699    0.000005206   -0.000018421
     89        1           0.000005034    0.000004243   -0.000023912
     90        1           0.000003917    0.000005169   -0.000017519
     91        1           0.000003560    0.000009929   -0.000017100
     92        6           0.000003568   -0.000001167   -0.000016378
     93        1           0.000003192    0.000004151   -0.000014906
     94        1           0.000002976   -0.000004910   -0.000013847
     95        1           0.000004592   -0.000001111   -0.000021709
 -------------------------------------------------------------------
 Cartesian Forces:  Max     0.000031170 RMS     0.000008706
 FormGI is forming the generalized inverse of G from B-inverse, IUseBI=4.
 GSVD:  received Info=                   1 from GESDD.
 Leave Link  716 at Fri Dec 21 18:13:27 2018, MaxMem=  1342177280 cpu:              11.3 elap:               0.7
 (Enter /gpfs/apps/hpc/Apps/Restricted/Gaussian/Rev_A.03/g16/l9999.exe)

 ----------------------------------------------------------------------

 Electric dipole moment (input orientation):
 (Debye = 10**-18 statcoulomb cm , SI units = C m)
                  (au)            (Debye)         (10**-30 SI)
   Tot        0.184248D+01      0.468312D+01      0.156212D+02
   x         -0.358450D+00     -0.911089D+00     -0.303907D+01
   y          0.113384D+01      0.288194D+01      0.961313D+01
   z          0.140735D+01      0.357714D+01      0.119320D+02

 Dipole polarizability, Alpha (input orientation).
 (esu units = cm**3 , SI units = C**2 m**2 J**-1)
 Alpha(0;0):
               (au)            (10**-24 esu)      (10**-40 SI)
   iso        0.826262D+03      0.122439D+03      0.136232D+03
   aniso      0.762167D+03      0.112942D+03      0.125664D+03
   xx         0.111061D+04      0.164575D+03      0.183114D+03
   yx        -0.538283D+02     -0.797653D+01     -0.887509D+01
   yy         0.993528D+03      0.147226D+03      0.163811D+03
   zx         0.163174D+03      0.241798D+02      0.269037D+02
   zy        -0.878581D+02     -0.130192D+02     -0.144859D+02
   zz         0.374652D+03      0.555177D+02      0.617717D+02

 ----------------------------------------------------------------------

 Dipole orientation:
     6          3.39222492         -0.55781323          1.42259957
     6          1.36024582          0.86633908          2.36164624
     6          1.74747083          3.09485635          3.71130697
     6          4.25147255          3.82529729          4.07368238
     6          6.28845732          2.40276912          3.13910762
     6          5.91543664          0.16308338          1.78352327
     6         -0.17151140         -2.52030245          0.33505470
     1          0.18035104          4.19577283          4.42720889
     1          4.64562656          5.54813648          5.10521592
     1          8.19572841          3.06915461          3.46646574
     6         -4.60103090         -3.77590822         -0.32866714
     6         -6.42337413         -5.47675360         -1.31345799
     6         -5.74718591         -7.65229292         -2.63441866
     6         -3.16940313         -8.10553296         -2.95213613
     6         -1.32490114         -6.45388897         -2.00382849
     6         -1.99701395         -4.26929425         -0.67311947
     6         -8.24945477         -2.24067759          0.63439202
     1         -7.15616302         -8.93606788         -3.37767856
     1         -2.56530853         -9.77709083         -3.96559243
     1          0.65146951         -6.88976867         -2.30593534
     7         -0.80255945         -0.42750217          1.64640592
     6        -12.89869805         -1.24190268          1.15552818
     6        -10.23146559         -0.60988223          1.59079655
     6         -9.57431564          1.55703306          2.91020400
     6        -11.41729909          3.21026836          3.84213501
     6        -14.00375170          2.63129458          3.39493796
     6        -14.81370275          0.52424693          2.11154396
     1         -7.59067957          1.94702978          3.19948519
     1        -15.39734240          3.94069773          4.11215828
     6        -10.75478415          5.59547627          5.31356620
     6        -17.61072644         -0.00512834          1.63861763
     8        -13.49829528         -3.22838402         -0.00949395
     7         -5.76520492         -1.79389338          0.86899200
     7         -8.70644367         -4.43138186         -0.65726096
     7          2.36894545         -2.62103528          0.18725798
     6          7.92794083         -1.40190812          0.76486257
     7          7.51900584         -3.47022869         -0.61134371
     7         10.45422932         -0.92474458          1.08591908
     6         14.36179310         -3.20859889         -0.42198759
     6         15.04149166         -5.32600953         -1.85020762
     6         13.21774205         -6.93333775         -2.92974576
     6         10.63853521         -6.49502825         -2.64049537
     6          9.89679976         -4.38336657         -1.22370380
     6         11.75616938         -2.78913831         -0.15848041
     1         17.03195119         -5.73333326         -2.11978195
     1         13.84591543         -8.55186995         -4.01526474
     1          9.24505208         -7.74257697         -3.47284378
     6         16.22786873         -1.53759659          0.74558761
     1         18.20618520         -2.02334699          0.40279414
     7         15.54140122          0.35384410          2.09083902
     6         17.41939414          2.00980804          3.25928721
     6         20.21203482          1.41037798          2.77744388
     6         16.81578636          4.75072950          2.50595785
     1         17.08258321          1.86034095          5.30440505
     6         21.92079783          3.27886747          4.18764632
     1         20.59265117          1.52705744          0.74206595
     1         20.64177248         -0.52616335          3.36568774
     6         18.52585345          6.62648268          3.89688089
     1         17.08684209          4.93803077          0.45947492
     1         14.82184433          5.13717136          2.89576162
     6         21.32443934          6.01912090          3.46489338
     1         23.90502588          2.84687945          3.79702598
     1         21.64805769          3.03749321          6.22855912
     1         18.10233236          8.55571721          3.28269855
     1         18.11542077          6.53795224          5.92748485
     1         22.51675981          7.32072310          4.54330327
     1         21.77780536          6.30269593          1.46152152
     1         -2.66232659          0.00606390          1.96112819
     1        -10.50299293         -5.01638354         -1.00110866
     1          3.49138933         -3.92172928         -0.68276416
     1         11.36350890          0.45960888          2.05360070
     6        -18.10032872         -0.10810003         -1.24004121
     1        -17.05287830         -1.65088272         -2.11076021
     1        -20.11780026         -0.39424565         -1.58577269
     1        -17.53803367          1.66800762         -2.13364806
     6        -19.30220663          2.06706302          2.76529366
     1        -21.27434877          1.60158500          2.37507652
     1        -19.07813836          2.21357605          4.81458616
     1        -18.91090397          3.91881000          1.93754615
     6        -18.36340828         -2.54410359          2.86785683
     1        -17.28444784         -4.10534424          2.07325812
     1        -18.04171197         -2.48568985          4.90787832
     1        -20.37516100         -2.89084804          2.54682376
     6        -11.79646865          7.90996648          3.87157774
     1        -13.84043245          7.79037487          3.61084957
     1        -11.38822833          9.63064492          4.93907612
     1        -10.91318956          8.07382777          2.01242617
     6        -12.00200824          5.45991033          7.94970133
     1        -11.58479446          7.18998630          8.99867814
     1        -14.05305728          5.27437093          7.81824299
     1        -11.27280522          3.85438542          9.02373739
     6         -7.89344443          5.91911418          5.66242727
     1         -7.07397700          4.33532014          6.70497664
     1         -6.91717060          6.08294370          3.84942018
     1         -7.53066623          7.64472542          6.73530584

 Electric dipole moment (dipole orientation):
 (Debye = 10**-18 statcoulomb cm , SI units = C m)
                  (au)            (Debye)         (10**-30 SI)
   Tot        0.184248D+01      0.468312D+01      0.156212D+02
   x          0.000000D+00      0.000000D+00      0.000000D+00
   y          0.000000D+00      0.000000D+00      0.000000D+00
   z          0.184248D+01      0.468312D+01      0.156212D+02

 Dipole polarizability, Alpha (dipole orientation).
 (esu units = cm**3 , SI units = C**2 m**2 J**-1)
 Alpha(0;0):
               (au)            (10**-24 esu)      (10**-40 SI)
   iso        0.826262D+03      0.122439D+03      0.136232D+03
   aniso      0.762167D+03      0.112942D+03      0.125664D+03
   xx         0.113487D+04      0.168170D+03      0.187115D+03
   yx        -0.656010D+02     -0.972106D+01     -0.108161D+02
   yy         0.825243D+03      0.122288D+03      0.136064D+03
   zx        -0.452451D+02     -0.670463D+01     -0.745991D+01
   zy         0.303904D+03      0.450340D+02      0.501070D+02
   zz         0.518674D+03      0.768596D+02      0.855179D+02

 ----------------------------------------------------------------------

 This type of calculation cannot be archived.


 BE CAREFUL NOT TO BECOME TOO GOOD OF A SONGBIRD OR 
 THEY'LL THROW YOU INTO A CAGE.

                                    -- SNOOPY TO WOODSTOCK
 Job cpu time:       0 days  0 hours  0 minutes 27.1 seconds.
 Elapsed time:       0 days  0 hours  0 minutes  1.9 seconds.
 File lengths (MBytes):  RWF=     80 Int=      0 D2E=      0 Chk=    140 Scr=      8
 Normal termination of Gaussian 16 at Fri Dec 21 18:13:27 2018.
