 Entering Gaussian System, Link 0=g16
 Initial command:
 /gpfs/apps/hpc/Apps/Restricted/Gaussian/Rev_A.03/g16/l1.exe "/gpfs/scratch60/fas/hammes_schiffer/jg2487/c23n02/Gau-23309.inp" -scrdir="/gpfs/scratch60/fas/hammes_schiffer/jg2487/c23n02/"
 Entering Link 1 = /gpfs/apps/hpc/Apps/Restricted/Gaussian/Rev_A.03/g16/l1.exe PID=     23311.
  
 Copyright (c) 1988,1990,1992,1993,1995,1998,2003,2009,2016,
            Gaussian, Inc.  All Rights Reserved.
  
 This is part of the Gaussian(R) 16 program.  It is based on
 the Gaussian(R) 09 system (copyright 2009, Gaussian, Inc.),
 the Gaussian(R) 03 system (copyright 2003, Gaussian, Inc.),
 the Gaussian(R) 98 system (copyright 1998, Gaussian, Inc.),
 the Gaussian(R) 94 system (copyright 1995, Gaussian, Inc.),
 the Gaussian 92(TM) system (copyright 1992, Gaussian, Inc.),
 the Gaussian 90(TM) system (copyright 1990, Gaussian, Inc.),
 the Gaussian 88(TM) system (copyright 1988, Gaussian, Inc.),
 the Gaussian 86(TM) system (copyright 1986, Carnegie Mellon
 University), and the Gaussian 82(TM) system (copyright 1983,
 Carnegie Mellon University). Gaussian is a federally registered
 trademark of Gaussian, Inc.
  
 This software contains proprietary and confidential information,
 including trade secrets, belonging to Gaussian, Inc.
  
 This software is provided under written license and may be
 used, copied, transmitted, or stored only in accord with that
 written license.
  
 The following legend is applicable only to US Government
 contracts under FAR:
  
                    RESTRICTED RIGHTS LEGEND
  
 Use, reproduction and disclosure by the US Government is
 subject to restrictions as set forth in subparagraphs (a)
 and (c) of the Commercial Computer Software - Restricted
 Rights clause in FAR 52.227-19.
  
 Gaussian, Inc.
 340 Quinnipiac St., Bldg. 40, Wallingford CT 06492
  
  
 ---------------------------------------------------------------
 Warning -- This program may not be used in any manner that
 competes with the business of Gaussian, Inc. or will provide
 assistance to any competitor of Gaussian, Inc.  The licensee
 of this program is prohibited from giving any competitor of
 Gaussian, Inc. access to this program.  By using this program,
 the user acknowledges that Gaussian, Inc. is engaged in the
 business of creating and licensing software in the field of
 computational chemistry and represents and warrants to the
 licensee that it is not a competitor of Gaussian, Inc. and that
 it will not use this program in any manner prohibited above.
 ---------------------------------------------------------------
  

 Cite this work as:
 Gaussian 16, Revision A.03,
 M. J. Frisch, G. W. Trucks, H. B. Schlegel, G. E. Scuseria, 
 M. A. Robb, J. R. Cheeseman, G. Scalmani, V. Barone, 
 G. A. Petersson, H. Nakatsuji, X. Li, M. Caricato, A. V. Marenich, 
 J. Bloino, B. G. Janesko, R. Gomperts, B. Mennucci, H. P. Hratchian, 
 J. V. Ortiz, A. F. Izmaylov, J. L. Sonnenberg, D. Williams-Young, 
 F. Ding, F. Lipparini, F. Egidi, J. Goings, B. Peng, A. Petrone, 
 T. Henderson, D. Ranasinghe, V. G. Zakrzewski, J. Gao, N. Rega, 
 G. Zheng, W. Liang, M. Hada, M. Ehara, K. Toyota, R. Fukuda, 
 J. Hasegawa, M. Ishida, T. Nakajima, Y. Honda, O. Kitao, H. Nakai, 
 T. Vreven, K. Throssell, J. A. Montgomery, Jr., J. E. Peralta, 
 F. Ogliaro, M. J. Bearpark, J. J. Heyd, E. N. Brothers, K. N. Kudin, 
 V. N. Staroverov, T. A. Keith, R. Kobayashi, J. Normand, 
 K. Raghavachari, A. P. Rendell, J. C. Burant, S. S. Iyengar, 
 J. Tomasi, M. Cossi, J. M. Millam, M. Klene, C. Adamo, R. Cammi, 
 J. W. Ochterski, R. L. Martin, K. Morokuma, O. Farkas, 
 J. B. Foresman, and D. J. Fox, Gaussian, Inc., Wallingford CT, 2016.
 
 ******************************************
 Gaussian 16:  ES64L-G16RevA.03 25-Dec-2016
                18-Dec-2018 
 ******************************************
 %chk=cyclohexyl-diBIP-E3PT.chk
 %mem=10GB
 %nprocshared=16
 Will use up to   16 processors via shared memory.
 ----------------------------------------------------------------------
 #p opt=(calcall,tight) freq=internalmodes b3lyp/6-31g(d,p) scrf=(cpcm,
 solvent=dichloromethane,read) nosymm empiricaldispersion=gd3bj int=gri
 d=ultrafine
 ----------------------------------------------------------------------
 1/7=10,10=4,18=20,19=15,26=6,38=1,40=2/1,3;
 2/9=110,12=2,15=1,17=6,18=5,40=1/2;
 3/5=1,6=6,7=101,11=2,25=1,30=1,70=2103,71=2,72=9,74=-5,75=-5,124=41,140=1/1,2,3;
 4//1;
 5/5=2,38=5,53=9/2;
 8/6=4,10=90,11=11/1;
 11/6=1,8=1,9=11,15=111,16=1,31=1/1,2,10;
 10/6=1,31=1/2;
 6/7=2,8=2,9=2,10=2,18=1,28=1/1;
 7/10=1,25=1,30=1/1,2,3,16;
 1/7=10,10=4,18=20,19=15,26=6/3(3);
 2/9=110,15=1/2;
 7/8=21,9=1,25=1,30=1,44=-1/16;
 99//99;
 2/9=110,15=1/2;
 3/5=1,6=6,7=101,11=2,25=1,30=1,70=2105,71=2,72=9,74=-5,75=-5,124=41,140=1/1,2,3;
 4/5=5,16=3,69=1/1;
 5/5=2,38=5,53=9/2;
 8/6=4,10=90,11=11/1;
 11/6=1,8=1,9=11,15=111,16=1,31=1/1,2,10;
 10/6=1,31=1/2;
 7/10=1,25=1,30=1/1,2,3,16;
 1/7=10,10=4,18=20,19=15,26=6/3(-8);
 2/9=110,15=1/2;
 6/7=2,8=2,9=2,10=2,18=1,19=2,28=1/1;
 7/8=21,9=1,25=1,30=1,44=-1/16;
 99//99;
 Leave Link    1 at Tue Dec 18 14:33:06 2018, MaxMem=  1342177280 cpu:               8.2 elap:               0.6
 (Enter /gpfs/apps/hpc/Apps/Restricted/Gaussian/Rev_A.03/g16/l101.exe)
 ----------------------------------------------------------------------
 cyclohexylimine diBIP oxidized, all three proton transferred, optimiza
 tion
 ----------------------------------------------------------------------
 Symbolic Z-matrix:
 Charge =  1 Multiplicity = 2
 C                     1.53135   1.16625   0.05706 
 C                     0.3305    1.91695   0.01362 
 C                     0.32584   3.30324  -0.09857 
 C                     1.56588   3.9496   -0.17234 
 C                     2.76447   3.23497  -0.12875 
 C                     2.77824   1.83071  -0.01464 
 C                    -0.07657  -0.25754   0.17658 
 H                    -0.59983   3.86379  -0.13126 
 H                     1.59545   5.02807  -0.26151 
 H                     3.70769   3.76575  -0.18531 
 C                    -2.27493  -1.42611   0.23469 
 C                    -3.02429  -2.63044   0.28284 
 C                    -2.41973  -3.88406   0.37431 
 C                    -1.02598  -3.9092    0.40693 
 C                    -0.26206  -2.73283   0.34564 
 C                    -0.86182  -1.47317   0.25881 
 C                    -4.35383  -0.85837   0.14246 
 H                    -3.00422  -4.79459   0.41274 
 H                    -0.51588  -4.86231   0.47543 
 H                     0.81886  -2.79144   0.36249 
 N                    -0.66788   0.97226   0.09743 
 C                    -6.87318  -0.77437  -0.08663 
 C                    -5.58062  -0.09093   0.04401 
 C                    -5.53452   1.2923    0.061 
 C                    -6.70058   2.0705   -0.06143 
 C                    -7.94981   1.42383  -0.21291 
 C                    -8.06835   0.05298  -0.22988 
 H                    -4.57478   1.78334   0.17226 
 H                    -8.84118   2.03477  -0.30965 
 C                    -6.61159   3.56628  -0.03779 
 H                    -6.07044   3.90668   0.84994 
 H                    -6.05371   3.93094  -0.90684 
 H                    -7.60049   4.02532  -0.04496 
 C                    -9.38545  -0.63988  -0.37509 
 H                    -9.35421  -1.36931  -1.18851 
 H                    -9.63116  -1.19808   0.53414 
 H                    -10.18141   0.07949  -0.56767 
 O                    -6.97329  -2.02962  -0.07853 
 N                    -3.1192   -0.34228   0.15384 
 N                    -4.33539  -2.22428   0.22109 
 N                     1.26116  -0.17423   0.15923 
 C                     4.01718   1.12223   0.03418 
 H                     4.94427   1.68444  -0.0047 
 N                     4.10121  -0.17157   0.12829 
 C                     5.37289  -0.92352   0.17405 
 C                     6.13523  -0.77961  -1.15036 
 C                     6.22476  -0.48044   1.37075 
 H                     5.08105  -1.96652   0.30875 
 C                     7.46656  -1.53703  -1.09478 
 H                     6.32751   0.28461  -1.32991 
 H                     5.51433  -1.14332  -1.97309 
 C                     7.55275  -1.24448   1.40918 
 H                     6.42874   0.59267   1.28079 
 H                     5.66004  -0.62972   2.29427 
 C                     8.322    -1.08805   0.09404 
 H                     8.00495  -1.38883  -2.03486 
 H                     7.26687  -2.61199  -1.00879 
 H                     8.14947  -0.88716   2.25317 
 H                     7.35362  -2.30816   1.58807 
 H                     9.25105  -1.66436   0.12825 
 H                     8.6026   -0.03582  -0.03867 
 H                    -5.19635  -2.7632    0.1898 
 H                    -1.68164   1.08548   0.08965 
 H                     3.21216  -0.68417   0.16424 
 
 ITRead=  0  0  0  0  0  0  0  0  0  0  0  0  0  0  0  0  0  0  0  0
 ITRead=  0  0  0  0  0  0  0  0  0  0  0  0  0  0  0  0  0  0  0  0
 ITRead=  0  0  0  0  0  0  0  0  0  0  0  0  0  0  0  0  0  0  0  0
 ITRead=  0  0  0  0
 MicOpt= -1 -1 -1 -1 -1 -1 -1 -1 -1 -1 -1 -1 -1 -1 -1 -1 -1 -1 -1 -1
 MicOpt= -1 -1 -1 -1 -1 -1 -1 -1 -1 -1 -1 -1 -1 -1 -1 -1 -1 -1 -1 -1
 MicOpt= -1 -1 -1 -1 -1 -1 -1 -1 -1 -1 -1 -1 -1 -1 -1 -1 -1 -1 -1 -1
 MicOpt= -1 -1 -1 -1
 NAtoms=     64 NQM=       64 NQMF=       0 NMMI=      0 NMMIF=      0
                NMic=       0 NMicF=      0.
                    Isotopes and Nuclear Properties:
 (Nuclear quadrupole moments (NQMom) in fm**2, nuclear magnetic moments (NMagM)
  in nuclear magnetons)

  Atom         1           2           3           4           5           6           7           8           9          10
 IAtWgt=          12          12          12          12          12          12          12           1           1           1
 AtmWgt=  12.0000000  12.0000000  12.0000000  12.0000000  12.0000000  12.0000000  12.0000000   1.0078250   1.0078250   1.0078250
 NucSpn=           0           0           0           0           0           0           0           1           1           1
 AtZEff=  -0.0000000  -0.0000000  -0.0000000  -0.0000000  -0.0000000  -0.0000000  -0.0000000  -0.0000000  -0.0000000  -0.0000000
 NQMom=    0.0000000   0.0000000   0.0000000   0.0000000   0.0000000   0.0000000   0.0000000   0.0000000   0.0000000   0.0000000
 NMagM=    0.0000000   0.0000000   0.0000000   0.0000000   0.0000000   0.0000000   0.0000000   2.7928460   2.7928460   2.7928460
 AtZNuc=   6.0000000   6.0000000   6.0000000   6.0000000   6.0000000   6.0000000   6.0000000   1.0000000   1.0000000   1.0000000

  Atom        11          12          13          14          15          16          17          18          19          20
 IAtWgt=          12          12          12          12          12          12          12           1           1           1
 AtmWgt=  12.0000000  12.0000000  12.0000000  12.0000000  12.0000000  12.0000000  12.0000000   1.0078250   1.0078250   1.0078250
 NucSpn=           0           0           0           0           0           0           0           1           1           1
 AtZEff=  -0.0000000  -0.0000000  -0.0000000  -0.0000000  -0.0000000  -0.0000000  -0.0000000  -0.0000000  -0.0000000  -0.0000000
 NQMom=    0.0000000   0.0000000   0.0000000   0.0000000   0.0000000   0.0000000   0.0000000   0.0000000   0.0000000   0.0000000
 NMagM=    0.0000000   0.0000000   0.0000000   0.0000000   0.0000000   0.0000000   0.0000000   2.7928460   2.7928460   2.7928460
 AtZNuc=   6.0000000   6.0000000   6.0000000   6.0000000   6.0000000   6.0000000   6.0000000   1.0000000   1.0000000   1.0000000

  Atom        21          22          23          24          25          26          27          28          29          30
 IAtWgt=          14          12          12          12          12          12          12           1           1          12
 AtmWgt=  14.0030740  12.0000000  12.0000000  12.0000000  12.0000000  12.0000000  12.0000000   1.0078250   1.0078250  12.0000000
 NucSpn=           2           0           0           0           0           0           0           1           1           0
 AtZEff=  -0.0000000  -0.0000000  -0.0000000  -0.0000000  -0.0000000  -0.0000000  -0.0000000  -0.0000000  -0.0000000  -0.0000000
 NQMom=    2.0440000   0.0000000   0.0000000   0.0000000   0.0000000   0.0000000   0.0000000   0.0000000   0.0000000   0.0000000
 NMagM=    0.4037610   0.0000000   0.0000000   0.0000000   0.0000000   0.0000000   0.0000000   2.7928460   2.7928460   0.0000000
 AtZNuc=   7.0000000   6.0000000   6.0000000   6.0000000   6.0000000   6.0000000   6.0000000   1.0000000   1.0000000   6.0000000

  Atom        31          32          33          34          35          36          37          38          39          40
 IAtWgt=           1           1           1          12           1           1           1          16          14          14
 AtmWgt=   1.0078250   1.0078250   1.0078250  12.0000000   1.0078250   1.0078250   1.0078250  15.9949146  14.0030740  14.0030740
 NucSpn=           1           1           1           0           1           1           1           0           2           2
 AtZEff=  -0.0000000  -0.0000000  -0.0000000  -0.0000000  -0.0000000  -0.0000000  -0.0000000  -0.0000000  -0.0000000  -0.0000000
 NQMom=    0.0000000   0.0000000   0.0000000   0.0000000   0.0000000   0.0000000   0.0000000   0.0000000   2.0440000   2.0440000
 NMagM=    2.7928460   2.7928460   2.7928460   0.0000000   2.7928460   2.7928460   2.7928460   0.0000000   0.4037610   0.4037610
 AtZNuc=   1.0000000   1.0000000   1.0000000   6.0000000   1.0000000   1.0000000   1.0000000   8.0000000   7.0000000   7.0000000

  Atom        41          42          43          44          45          46          47          48          49          50
 IAtWgt=          14          12           1          14          12          12          12           1          12           1
 AtmWgt=  14.0030740  12.0000000   1.0078250  14.0030740  12.0000000  12.0000000  12.0000000   1.0078250  12.0000000   1.0078250
 NucSpn=           2           0           1           2           0           0           0           1           0           1
 AtZEff=  -0.0000000  -0.0000000  -0.0000000  -0.0000000  -0.0000000  -0.0000000  -0.0000000  -0.0000000  -0.0000000  -0.0000000
 NQMom=    2.0440000   0.0000000   0.0000000   2.0440000   0.0000000   0.0000000   0.0000000   0.0000000   0.0000000   0.0000000
 NMagM=    0.4037610   0.0000000   2.7928460   0.4037610   0.0000000   0.0000000   0.0000000   2.7928460   0.0000000   2.7928460
 AtZNuc=   7.0000000   6.0000000   1.0000000   7.0000000   6.0000000   6.0000000   6.0000000   1.0000000   6.0000000   1.0000000

  Atom        51          52          53          54          55          56          57          58          59          60
 IAtWgt=           1          12           1           1          12           1           1           1           1           1
 AtmWgt=   1.0078250  12.0000000   1.0078250   1.0078250  12.0000000   1.0078250   1.0078250   1.0078250   1.0078250   1.0078250
 NucSpn=           1           0           1           1           0           1           1           1           1           1
 AtZEff=  -0.0000000  -0.0000000  -0.0000000  -0.0000000  -0.0000000  -0.0000000  -0.0000000  -0.0000000  -0.0000000  -0.0000000
 NQMom=    0.0000000   0.0000000   0.0000000   0.0000000   0.0000000   0.0000000   0.0000000   0.0000000   0.0000000   0.0000000
 NMagM=    2.7928460   0.0000000   2.7928460   2.7928460   0.0000000   2.7928460   2.7928460   2.7928460   2.7928460   2.7928460
 AtZNuc=   1.0000000   6.0000000   1.0000000   1.0000000   6.0000000   1.0000000   1.0000000   1.0000000   1.0000000   1.0000000

  Atom        61          62          63          64
 IAtWgt=           1           1           1           1
 AtmWgt=   1.0078250   1.0078250   1.0078250   1.0078250
 NucSpn=           1           1           1           1
 AtZEff=  -0.0000000  -0.0000000  -0.0000000  -0.0000000
 NQMom=    0.0000000   0.0000000   0.0000000   0.0000000
 NMagM=    2.7928460   2.7928460   2.7928460   2.7928460
 AtZNuc=   1.0000000   1.0000000   1.0000000   1.0000000
 Leave Link  101 at Tue Dec 18 14:33:06 2018, MaxMem=  1342177280 cpu:               8.1 elap:               0.6
 (Enter /gpfs/apps/hpc/Apps/Restricted/Gaussian/Rev_A.03/g16/l103.exe)

 GradGradGradGradGradGradGradGradGradGradGradGradGradGradGradGradGradGrad
 Berny optimization.
 Initialization pass.
                           ----------------------------
                           !    Initial Parameters    !
                           ! (Angstroms and Degrees)  !
 --------------------------                            --------------------------
 ! Name  Definition              Value          Derivative Info.                !
 --------------------------------------------------------------------------------
 ! R1    R(1,2)                  1.4169         calculate D2E/DX2 analytically  !
 ! R2    R(1,6)                  1.4147         calculate D2E/DX2 analytically  !
 ! R3    R(1,41)                 1.3713         calculate D2E/DX2 analytically  !
 ! R4    R(2,3)                  1.3908         calculate D2E/DX2 analytically  !
 ! R5    R(2,21)                 1.377          calculate D2E/DX2 analytically  !
 ! R6    R(3,4)                  1.4003         calculate D2E/DX2 analytically  !
 ! R7    R(3,8)                  1.0826         calculate D2E/DX2 analytically  !
 ! R8    R(4,5)                  1.3961         calculate D2E/DX2 analytically  !
 ! R9    R(4,9)                  1.0826         calculate D2E/DX2 analytically  !
 ! R10   R(5,6)                  1.409          calculate D2E/DX2 analytically  !
 ! R11   R(5,10)                 1.0838         calculate D2E/DX2 analytically  !
 ! R12   R(6,42)                 1.428          calculate D2E/DX2 analytically  !
 ! R13   R(7,16)                 1.4495         calculate D2E/DX2 analytically  !
 ! R14   R(7,21)                 1.3669         calculate D2E/DX2 analytically  !
 ! R15   R(7,41)                 1.3404         calculate D2E/DX2 analytically  !
 ! R16   R(11,12)                1.4193         calculate D2E/DX2 analytically  !
 ! R17   R(11,16)                1.4141         calculate D2E/DX2 analytically  !
 ! R18   R(11,39)                1.3762         calculate D2E/DX2 analytically  !
 ! R19   R(12,13)                1.3948         calculate D2E/DX2 analytically  !
 ! R20   R(12,40)                1.374          calculate D2E/DX2 analytically  !
 ! R21   R(13,14)                1.3943         calculate D2E/DX2 analytically  !
 ! R22   R(13,18)                1.0827         calculate D2E/DX2 analytically  !
 ! R23   R(14,15)                1.404          calculate D2E/DX2 analytically  !
 ! R24   R(14,19)                1.0832         calculate D2E/DX2 analytically  !
 ! R25   R(15,16)                1.3979         calculate D2E/DX2 analytically  !
 ! R26   R(15,20)                1.0826         calculate D2E/DX2 analytically  !
 ! R27   R(17,23)                1.4504         calculate D2E/DX2 analytically  !
 ! R28   R(17,39)                1.3382         calculate D2E/DX2 analytically  !
 ! R29   R(17,40)                1.3683         calculate D2E/DX2 analytically  !
 ! R30   R(21,63)                1.0201         calculate D2E/DX2 analytically  !
 ! R31   R(22,23)                1.4679         calculate D2E/DX2 analytically  !
 ! R32   R(22,27)                1.4606         calculate D2E/DX2 analytically  !
 ! R33   R(22,38)                1.2593         calculate D2E/DX2 analytically  !
 ! R34   R(23,24)                1.3841         calculate D2E/DX2 analytically  !
 ! R35   R(24,25)                1.4072         calculate D2E/DX2 analytically  !
 ! R36   R(24,28)                1.0838         calculate D2E/DX2 analytically  !
 ! R37   R(25,26)                1.4148         calculate D2E/DX2 analytically  !
 ! R38   R(25,30)                1.4986         calculate D2E/DX2 analytically  !
 ! R39   R(26,27)                1.3761         calculate D2E/DX2 analytically  !
 ! R40   R(26,29)                1.085          calculate D2E/DX2 analytically  !
 ! R41   R(27,34)                1.4953         calculate D2E/DX2 analytically  !
 ! R42   R(30,31)                1.094          calculate D2E/DX2 analytically  !
 ! R43   R(30,32)                1.0952         calculate D2E/DX2 analytically  !
 ! R44   R(30,33)                1.0903         calculate D2E/DX2 analytically  !
 ! R45   R(34,35)                1.093          calculate D2E/DX2 analytically  !
 ! R46   R(34,36)                1.0948         calculate D2E/DX2 analytically  !
 ! R47   R(34,37)                1.09           calculate D2E/DX2 analytically  !
 ! R48   R(40,62)                1.0162         calculate D2E/DX2 analytically  !
 ! R49   R(42,43)                1.0849         calculate D2E/DX2 analytically  !
 ! R50   R(42,44)                1.2999         calculate D2E/DX2 analytically  !
 ! R51   R(44,45)                1.4781         calculate D2E/DX2 analytically  !
 ! R52   R(44,64)                1.0269         calculate D2E/DX2 analytically  !
 ! R53   R(45,46)                1.5349         calculate D2E/DX2 analytically  !
 ! R54   R(45,47)                1.5343         calculate D2E/DX2 analytically  !
 ! R55   R(45,48)                1.0914         calculate D2E/DX2 analytically  !
 ! R56   R(46,49)                1.5327         calculate D2E/DX2 analytically  !
 ! R57   R(46,50)                1.0962         calculate D2E/DX2 analytically  !
 ! R58   R(46,51)                1.093          calculate D2E/DX2 analytically  !
 ! R59   R(47,52)                1.5326         calculate D2E/DX2 analytically  !
 ! R60   R(47,53)                1.096          calculate D2E/DX2 analytically  !
 ! R61   R(47,54)                1.0927         calculate D2E/DX2 analytically  !
 ! R62   R(49,55)                1.5319         calculate D2E/DX2 analytically  !
 ! R63   R(49,56)                1.0934         calculate D2E/DX2 analytically  !
 ! R64   R(49,57)                1.0967         calculate D2E/DX2 analytically  !
 ! R65   R(52,55)                1.5316         calculate D2E/DX2 analytically  !
 ! R66   R(52,58)                1.0937         calculate D2E/DX2 analytically  !
 ! R67   R(52,59)                1.0969         calculate D2E/DX2 analytically  !
 ! R68   R(55,60)                1.0938         calculate D2E/DX2 analytically  !
 ! R69   R(55,61)                1.0971         calculate D2E/DX2 analytically  !
 ! A1    A(2,1,6)              119.7756         calculate D2E/DX2 analytically  !
 ! A2    A(2,1,41)             110.6849         calculate D2E/DX2 analytically  !
 ! A3    A(6,1,41)             129.5376         calculate D2E/DX2 analytically  !
 ! A4    A(1,2,3)              122.2369         calculate D2E/DX2 analytically  !
 ! A5    A(1,2,21)             104.4263         calculate D2E/DX2 analytically  !
 ! A6    A(3,2,21)             133.3359         calculate D2E/DX2 analytically  !
 ! A7    A(2,3,4)              117.474          calculate D2E/DX2 analytically  !
 ! A8    A(2,3,8)              121.4236         calculate D2E/DX2 analytically  !
 ! A9    A(4,3,8)              121.1021         calculate D2E/DX2 analytically  !
 ! A10   A(3,4,5)              121.4888         calculate D2E/DX2 analytically  !
 ! A11   A(3,4,9)              119.2325         calculate D2E/DX2 analytically  !
 ! A12   A(5,4,9)              119.2784         calculate D2E/DX2 analytically  !
 ! A13   A(4,5,6)              121.4042         calculate D2E/DX2 analytically  !
 ! A14   A(4,5,10)             119.6594         calculate D2E/DX2 analytically  !
 ! A15   A(6,5,10)             118.9363         calculate D2E/DX2 analytically  !
 ! A16   A(1,6,5)              117.6199         calculate D2E/DX2 analytically  !
 ! A17   A(1,6,42)             122.0002         calculate D2E/DX2 analytically  !
 ! A18   A(5,6,42)             120.3786         calculate D2E/DX2 analytically  !
 ! A19   A(16,7,21)            121.5658         calculate D2E/DX2 analytically  !
 ! A20   A(16,7,41)            126.405          calculate D2E/DX2 analytically  !
 ! A21   A(21,7,41)            112.0281         calculate D2E/DX2 analytically  !
 ! A22   A(12,11,16)           119.9212         calculate D2E/DX2 analytically  !
 ! A23   A(12,11,39)           110.265          calculate D2E/DX2 analytically  !
 ! A24   A(16,11,39)           129.8102         calculate D2E/DX2 analytically  !
 ! A25   A(11,12,13)           122.415          calculate D2E/DX2 analytically  !
 ! A26   A(11,12,40)           104.5645         calculate D2E/DX2 analytically  !
 ! A27   A(13,12,40)           133.0205         calculate D2E/DX2 analytically  !
 ! A28   A(12,13,14)           116.8079         calculate D2E/DX2 analytically  !
 ! A29   A(12,13,18)           121.6148         calculate D2E/DX2 analytically  !
 ! A30   A(14,13,18)           121.5765         calculate D2E/DX2 analytically  !
 ! A31   A(13,14,15)           121.8529         calculate D2E/DX2 analytically  !
 ! A32   A(13,14,19)           119.2137         calculate D2E/DX2 analytically  !
 ! A33   A(15,14,19)           118.9323         calculate D2E/DX2 analytically  !
 ! A34   A(14,15,16)           121.6214         calculate D2E/DX2 analytically  !
 ! A35   A(14,15,20)           119.815          calculate D2E/DX2 analytically  !
 ! A36   A(16,15,20)           118.5634         calculate D2E/DX2 analytically  !
 ! A37   A(7,16,11)            120.8284         calculate D2E/DX2 analytically  !
 ! A38   A(7,16,15)            121.7911         calculate D2E/DX2 analytically  !
 ! A39   A(11,16,15)           117.3746         calculate D2E/DX2 analytically  !
 ! A40   A(23,17,39)           125.2317         calculate D2E/DX2 analytically  !
 ! A41   A(23,17,40)           122.922          calculate D2E/DX2 analytically  !
 ! A42   A(39,17,40)           111.8427         calculate D2E/DX2 analytically  !
 ! A43   A(2,21,7)             107.8859         calculate D2E/DX2 analytically  !
 ! A44   A(2,21,63)            130.0837         calculate D2E/DX2 analytically  !
 ! A45   A(7,21,63)            122.0205         calculate D2E/DX2 analytically  !
 ! A46   A(23,22,27)           117.7429         calculate D2E/DX2 analytically  !
 ! A47   A(23,22,38)           122.2435         calculate D2E/DX2 analytically  !
 ! A48   A(27,22,38)           120.0136         calculate D2E/DX2 analytically  !
 ! A49   A(17,23,22)           120.2961         calculate D2E/DX2 analytically  !
 ! A50   A(17,23,24)           119.9851         calculate D2E/DX2 analytically  !
 ! A51   A(22,23,24)           119.7162         calculate D2E/DX2 analytically  !
 ! A52   A(23,24,25)           121.6            calculate D2E/DX2 analytically  !
 ! A53   A(23,24,28)           118.9176         calculate D2E/DX2 analytically  !
 ! A54   A(25,24,28)           119.4823         calculate D2E/DX2 analytically  !
 ! A55   A(24,25,26)           119.2218         calculate D2E/DX2 analytically  !
 ! A56   A(24,25,30)           120.0915         calculate D2E/DX2 analytically  !
 ! A57   A(26,25,30)           120.6859         calculate D2E/DX2 analytically  !
 ! A58   A(25,26,27)           122.1897         calculate D2E/DX2 analytically  !
 ! A59   A(25,26,29)           118.5273         calculate D2E/DX2 analytically  !
 ! A60   A(27,26,29)           119.2808         calculate D2E/DX2 analytically  !
 ! A61   A(22,27,26)           119.5104         calculate D2E/DX2 analytically  !
 ! A62   A(22,27,34)           117.8924         calculate D2E/DX2 analytically  !
 ! A63   A(26,27,34)           122.5936         calculate D2E/DX2 analytically  !
 ! A64   A(25,30,31)           110.6553         calculate D2E/DX2 analytically  !
 ! A65   A(25,30,32)           110.4915         calculate D2E/DX2 analytically  !
 ! A66   A(25,30,33)           111.4858         calculate D2E/DX2 analytically  !
 ! A67   A(31,30,32)           106.7583         calculate D2E/DX2 analytically  !
 ! A68   A(31,30,33)           108.8444         calculate D2E/DX2 analytically  !
 ! A69   A(32,30,33)           108.4585         calculate D2E/DX2 analytically  !
 ! A70   A(27,34,35)           110.8742         calculate D2E/DX2 analytically  !
 ! A71   A(27,34,36)           110.6874         calculate D2E/DX2 analytically  !
 ! A72   A(27,34,37)           110.7672         calculate D2E/DX2 analytically  !
 ! A73   A(35,34,36)           106.5106         calculate D2E/DX2 analytically  !
 ! A74   A(35,34,37)           109.258          calculate D2E/DX2 analytically  !
 ! A75   A(36,34,37)           108.6222         calculate D2E/DX2 analytically  !
 ! A76   A(11,39,17)           105.2342         calculate D2E/DX2 analytically  !
 ! A77   A(12,40,17)           108.0919         calculate D2E/DX2 analytically  !
 ! A78   A(12,40,62)           130.7751         calculate D2E/DX2 analytically  !
 ! A79   A(17,40,62)           121.0781         calculate D2E/DX2 analytically  !
 ! A80   A(1,41,7)             104.973          calculate D2E/DX2 analytically  !
 ! A81   A(6,42,43)            118.8849         calculate D2E/DX2 analytically  !
 ! A82   A(6,42,44)            123.5269         calculate D2E/DX2 analytically  !
 ! A83   A(43,42,44)           117.5877         calculate D2E/DX2 analytically  !
 ! A84   A(42,44,45)           124.3459         calculate D2E/DX2 analytically  !
 ! A85   A(42,44,64)           116.3212         calculate D2E/DX2 analytically  !
 ! A86   A(45,44,64)           119.331          calculate D2E/DX2 analytically  !
 ! A87   A(44,45,46)           110.6651         calculate D2E/DX2 analytically  !
 ! A88   A(44,45,47)           110.7888         calculate D2E/DX2 analytically  !
 ! A89   A(44,45,48)           105.0661         calculate D2E/DX2 analytically  !
 ! A90   A(46,45,47)           111.7256         calculate D2E/DX2 analytically  !
 ! A91   A(46,45,48)           109.2021         calculate D2E/DX2 analytically  !
 ! A92   A(47,45,48)           109.1582         calculate D2E/DX2 analytically  !
 ! A93   A(45,46,49)           110.7189         calculate D2E/DX2 analytically  !
 ! A94   A(45,46,50)           108.6303         calculate D2E/DX2 analytically  !
 ! A95   A(45,46,51)           109.6422         calculate D2E/DX2 analytically  !
 ! A96   A(49,46,50)           109.4706         calculate D2E/DX2 analytically  !
 ! A97   A(49,46,51)           110.8717         calculate D2E/DX2 analytically  !
 ! A98   A(50,46,51)           107.4211         calculate D2E/DX2 analytically  !
 ! A99   A(45,47,52)           110.8971         calculate D2E/DX2 analytically  !
 ! A100  A(45,47,53)           108.787          calculate D2E/DX2 analytically  !
 ! A101  A(45,47,54)           109.4384         calculate D2E/DX2 analytically  !
 ! A102  A(52,47,53)           109.2025         calculate D2E/DX2 analytically  !
 ! A103  A(52,47,54)           111.009          calculate D2E/DX2 analytically  !
 ! A104  A(53,47,54)           107.4155         calculate D2E/DX2 analytically  !
 ! A105  A(46,49,55)           111.6147         calculate D2E/DX2 analytically  !
 ! A106  A(46,49,56)           109.2404         calculate D2E/DX2 analytically  !
 ! A107  A(46,49,57)           109.2118         calculate D2E/DX2 analytically  !
 ! A108  A(55,49,56)           110.6415         calculate D2E/DX2 analytically  !
 ! A109  A(55,49,57)           109.1538         calculate D2E/DX2 analytically  !
 ! A110  A(56,49,57)           106.8526         calculate D2E/DX2 analytically  !
 ! A111  A(47,52,55)           111.2698         calculate D2E/DX2 analytically  !
 ! A112  A(47,52,58)           109.2237         calculate D2E/DX2 analytically  !
 ! A113  A(47,52,59)           109.2828         calculate D2E/DX2 analytically  !
 ! A114  A(55,52,58)           110.8085         calculate D2E/DX2 analytically  !
 ! A115  A(55,52,59)           109.2852         calculate D2E/DX2 analytically  !
 ! A116  A(58,52,59)           106.8599         calculate D2E/DX2 analytically  !
 ! A117  A(49,55,52)           110.8524         calculate D2E/DX2 analytically  !
 ! A118  A(49,55,60)           110.1304         calculate D2E/DX2 analytically  !
 ! A119  A(49,55,61)           109.2734         calculate D2E/DX2 analytically  !
 ! A120  A(52,55,60)           110.2384         calculate D2E/DX2 analytically  !
 ! A121  A(52,55,61)           109.2864         calculate D2E/DX2 analytically  !
 ! A122  A(60,55,61)           106.9709         calculate D2E/DX2 analytically  !
 ! D1    D(6,1,2,3)              0.0051         calculate D2E/DX2 analytically  !
 ! D2    D(6,1,2,21)           179.7009         calculate D2E/DX2 analytically  !
 ! D3    D(41,1,2,3)          -179.5426         calculate D2E/DX2 analytically  !
 ! D4    D(41,1,2,21)            0.1532         calculate D2E/DX2 analytically  !
 ! D5    D(2,1,6,5)             -0.0326         calculate D2E/DX2 analytically  !
 ! D6    D(2,1,6,42)           179.5598         calculate D2E/DX2 analytically  !
 ! D7    D(41,1,6,5)           179.4188         calculate D2E/DX2 analytically  !
 ! D8    D(41,1,6,42)           -0.9888         calculate D2E/DX2 analytically  !
 ! D9    D(2,1,41,7)             0.1084         calculate D2E/DX2 analytically  !
 ! D10   D(6,1,41,7)          -179.3825         calculate D2E/DX2 analytically  !
 ! D11   D(1,2,3,4)              0.162          calculate D2E/DX2 analytically  !
 ! D12   D(1,2,3,8)            179.958          calculate D2E/DX2 analytically  !
 ! D13   D(21,2,3,4)          -179.433          calculate D2E/DX2 analytically  !
 ! D14   D(21,2,3,8)             0.363          calculate D2E/DX2 analytically  !
 ! D15   D(1,2,21,7)            -0.351          calculate D2E/DX2 analytically  !
 ! D16   D(1,2,21,63)         -179.2029         calculate D2E/DX2 analytically  !
 ! D17   D(3,2,21,7)           179.2952         calculate D2E/DX2 analytically  !
 ! D18   D(3,2,21,63)            0.4433         calculate D2E/DX2 analytically  !
 ! D19   D(2,3,4,5)             -0.308          calculate D2E/DX2 analytically  !
 ! D20   D(2,3,4,9)            179.9198         calculate D2E/DX2 analytically  !
 ! D21   D(8,3,4,5)            179.8953         calculate D2E/DX2 analytically  !
 ! D22   D(8,3,4,9)              0.1231         calculate D2E/DX2 analytically  !
 ! D23   D(3,4,5,6)              0.2913         calculate D2E/DX2 analytically  !
 ! D24   D(3,4,5,10)          -179.8235         calculate D2E/DX2 analytically  !
 ! D25   D(9,4,5,6)           -179.9366         calculate D2E/DX2 analytically  !
 ! D26   D(9,4,5,10)            -0.0514         calculate D2E/DX2 analytically  !
 ! D27   D(4,5,6,1)             -0.1123         calculate D2E/DX2 analytically  !
 ! D28   D(4,5,6,42)          -179.7116         calculate D2E/DX2 analytically  !
 ! D29   D(10,5,6,1)          -179.9983         calculate D2E/DX2 analytically  !
 ! D30   D(10,5,6,42)            0.4024         calculate D2E/DX2 analytically  !
 ! D31   D(1,6,42,43)         -178.7731         calculate D2E/DX2 analytically  !
 ! D32   D(1,6,42,44)            0.9726         calculate D2E/DX2 analytically  !
 ! D33   D(5,6,42,43)            0.8083         calculate D2E/DX2 analytically  !
 ! D34   D(5,6,42,44)         -179.446          calculate D2E/DX2 analytically  !
 ! D35   D(21,7,16,11)           1.1835         calculate D2E/DX2 analytically  !
 ! D36   D(21,7,16,15)        -179.7239         calculate D2E/DX2 analytically  !
 ! D37   D(41,7,16,11)        -178.394          calculate D2E/DX2 analytically  !
 ! D38   D(41,7,16,15)           0.6987         calculate D2E/DX2 analytically  !
 ! D39   D(16,7,21,2)         -179.1808         calculate D2E/DX2 analytically  !
 ! D40   D(16,7,21,63)          -0.2169         calculate D2E/DX2 analytically  !
 ! D41   D(41,7,21,2)            0.4523         calculate D2E/DX2 analytically  !
 ! D42   D(41,7,21,63)         179.4163         calculate D2E/DX2 analytically  !
 ! D43   D(16,7,41,1)          179.2692         calculate D2E/DX2 analytically  !
 ! D44   D(21,7,41,1)           -0.3425         calculate D2E/DX2 analytically  !
 ! D45   D(16,11,12,13)          0.9724         calculate D2E/DX2 analytically  !
 ! D46   D(16,11,12,40)       -179.0788         calculate D2E/DX2 analytically  !
 ! D47   D(39,11,12,13)       -179.6533         calculate D2E/DX2 analytically  !
 ! D48   D(39,11,12,40)          0.2955         calculate D2E/DX2 analytically  !
 ! D49   D(12,11,16,7)         178.4333         calculate D2E/DX2 analytically  !
 ! D50   D(12,11,16,15)         -0.6982         calculate D2E/DX2 analytically  !
 ! D51   D(39,11,16,7)          -0.8026         calculate D2E/DX2 analytically  !
 ! D52   D(39,11,16,15)       -179.9341         calculate D2E/DX2 analytically  !
 ! D53   D(12,11,39,17)         -0.4181         calculate D2E/DX2 analytically  !
 ! D54   D(16,11,39,17)        178.876          calculate D2E/DX2 analytically  !
 ! D55   D(11,12,13,14)         -0.4811         calculate D2E/DX2 analytically  !
 ! D56   D(11,12,13,18)        179.8406         calculate D2E/DX2 analytically  !
 ! D57   D(40,12,13,14)        179.5867         calculate D2E/DX2 analytically  !
 ! D58   D(40,12,13,18)         -0.0916         calculate D2E/DX2 analytically  !
 ! D59   D(11,12,40,17)         -0.0549         calculate D2E/DX2 analytically  !
 ! D60   D(11,12,40,62)        177.21           calculate D2E/DX2 analytically  !
 ! D61   D(13,12,40,17)        179.886          calculate D2E/DX2 analytically  !
 ! D62   D(13,12,40,62)         -2.8492         calculate D2E/DX2 analytically  !
 ! D63   D(12,13,14,15)         -0.246          calculate D2E/DX2 analytically  !
 ! D64   D(12,13,14,19)       -179.8688         calculate D2E/DX2 analytically  !
 ! D65   D(18,13,14,15)        179.4324         calculate D2E/DX2 analytically  !
 ! D66   D(18,13,14,19)         -0.1904         calculate D2E/DX2 analytically  !
 ! D67   D(13,14,15,16)          0.4941         calculate D2E/DX2 analytically  !
 ! D68   D(13,14,15,20)       -179.3278         calculate D2E/DX2 analytically  !
 ! D69   D(19,14,15,16)       -179.882          calculate D2E/DX2 analytically  !
 ! D70   D(19,14,15,20)          0.2961         calculate D2E/DX2 analytically  !
 ! D71   D(14,15,16,7)        -179.1262         calculate D2E/DX2 analytically  !
 ! D72   D(14,15,16,11)         -0.0036         calculate D2E/DX2 analytically  !
 ! D73   D(20,15,16,7)           0.6979         calculate D2E/DX2 analytically  !
 ! D74   D(20,15,16,11)        179.8205         calculate D2E/DX2 analytically  !
 ! D75   D(39,17,23,22)        174.2            calculate D2E/DX2 analytically  !
 ! D76   D(39,17,23,24)         -5.2202         calculate D2E/DX2 analytically  !
 ! D77   D(40,17,23,22)         -5.0519         calculate D2E/DX2 analytically  !
 ! D78   D(40,17,23,24)        175.5279         calculate D2E/DX2 analytically  !
 ! D79   D(23,17,39,11)       -178.9363         calculate D2E/DX2 analytically  !
 ! D80   D(40,17,39,11)          0.3871         calculate D2E/DX2 analytically  !
 ! D81   D(23,17,40,12)        179.13           calculate D2E/DX2 analytically  !
 ! D82   D(23,17,40,62)          1.5481         calculate D2E/DX2 analytically  !
 ! D83   D(39,17,40,12)         -0.2117         calculate D2E/DX2 analytically  !
 ! D84   D(39,17,40,62)       -177.7935         calculate D2E/DX2 analytically  !
 ! D85   D(27,22,23,17)       -177.8475         calculate D2E/DX2 analytically  !
 ! D86   D(27,22,23,24)          1.5742         calculate D2E/DX2 analytically  !
 ! D87   D(38,22,23,17)          2.1381         calculate D2E/DX2 analytically  !
 ! D88   D(38,22,23,24)       -178.4402         calculate D2E/DX2 analytically  !
 ! D89   D(23,22,27,26)         -1.1935         calculate D2E/DX2 analytically  !
 ! D90   D(23,22,27,34)        179.4813         calculate D2E/DX2 analytically  !
 ! D91   D(38,22,27,26)        178.8206         calculate D2E/DX2 analytically  !
 ! D92   D(38,22,27,34)         -0.5046         calculate D2E/DX2 analytically  !
 ! D93   D(17,23,24,25)        178.604          calculate D2E/DX2 analytically  !
 ! D94   D(17,23,24,28)         -1.4426         calculate D2E/DX2 analytically  !
 ! D95   D(22,23,24,25)         -0.8195         calculate D2E/DX2 analytically  !
 ! D96   D(22,23,24,28)        179.1339         calculate D2E/DX2 analytically  !
 ! D97   D(23,24,25,26)         -0.3509         calculate D2E/DX2 analytically  !
 ! D98   D(23,24,25,30)        179.959          calculate D2E/DX2 analytically  !
 ! D99   D(28,24,25,26)        179.696          calculate D2E/DX2 analytically  !
 ! D100  D(28,24,25,30)          0.0059         calculate D2E/DX2 analytically  !
 ! D101  D(24,25,26,27)          0.7524         calculate D2E/DX2 analytically  !
 ! D102  D(24,25,26,29)       -179.7986         calculate D2E/DX2 analytically  !
 ! D103  D(30,25,26,27)       -179.5594         calculate D2E/DX2 analytically  !
 ! D104  D(30,25,26,29)         -0.1104         calculate D2E/DX2 analytically  !
 ! D105  D(24,25,30,31)        -53.1735         calculate D2E/DX2 analytically  !
 ! D106  D(24,25,30,32)         64.8504         calculate D2E/DX2 analytically  !
 ! D107  D(24,25,30,33)       -174.4624         calculate D2E/DX2 analytically  !
 ! D108  D(26,25,30,31)        127.141          calculate D2E/DX2 analytically  !
 ! D109  D(26,25,30,32)       -114.8351         calculate D2E/DX2 analytically  !
 ! D110  D(26,25,30,33)          5.8521         calculate D2E/DX2 analytically  !
 ! D111  D(25,26,27,22)          0.0522         calculate D2E/DX2 analytically  !
 ! D112  D(25,26,27,34)        179.3443         calculate D2E/DX2 analytically  !
 ! D113  D(29,26,27,22)       -179.3928         calculate D2E/DX2 analytically  !
 ! D114  D(29,26,27,34)         -0.1007         calculate D2E/DX2 analytically  !
 ! D115  D(22,27,34,35)        -53.1633         calculate D2E/DX2 analytically  !
 ! D116  D(22,27,34,36)         64.8141         calculate D2E/DX2 analytically  !
 ! D117  D(22,27,34,37)       -174.6385         calculate D2E/DX2 analytically  !
 ! D118  D(26,27,34,35)        127.5338         calculate D2E/DX2 analytically  !
 ! D119  D(26,27,34,36)       -114.4888         calculate D2E/DX2 analytically  !
 ! D120  D(26,27,34,37)          6.0586         calculate D2E/DX2 analytically  !
 ! D121  D(6,42,44,45)         179.7121         calculate D2E/DX2 analytically  !
 ! D122  D(6,42,44,64)           0.214          calculate D2E/DX2 analytically  !
 ! D123  D(43,42,44,45)         -0.5392         calculate D2E/DX2 analytically  !
 ! D124  D(43,42,44,64)        179.9628         calculate D2E/DX2 analytically  !
 ! D125  D(42,44,45,46)        -65.3017         calculate D2E/DX2 analytically  !
 ! D126  D(42,44,45,47)         59.1948         calculate D2E/DX2 analytically  !
 ! D127  D(42,44,45,48)        176.9518         calculate D2E/DX2 analytically  !
 ! D128  D(64,44,45,46)        114.1822         calculate D2E/DX2 analytically  !
 ! D129  D(64,44,45,47)       -121.3213         calculate D2E/DX2 analytically  !
 ! D130  D(64,44,45,48)         -3.5643         calculate D2E/DX2 analytically  !
 ! D131  D(44,45,46,49)        178.9264         calculate D2E/DX2 analytically  !
 ! D132  D(44,45,46,50)         58.6884         calculate D2E/DX2 analytically  !
 ! D133  D(44,45,46,51)        -58.4277         calculate D2E/DX2 analytically  !
 ! D134  D(47,45,46,49)         54.9655         calculate D2E/DX2 analytically  !
 ! D135  D(47,45,46,50)        -65.2725         calculate D2E/DX2 analytically  !
 ! D136  D(47,45,46,51)        177.6115         calculate D2E/DX2 analytically  !
 ! D137  D(48,45,46,49)        -65.8891         calculate D2E/DX2 analytically  !
 ! D138  D(48,45,46,50)        173.8729         calculate D2E/DX2 analytically  !
 ! D139  D(48,45,46,51)         56.7569         calculate D2E/DX2 analytically  !
 ! D140  D(44,45,47,52)       -179.1937         calculate D2E/DX2 analytically  !
 ! D141  D(44,45,47,53)        -59.0772         calculate D2E/DX2 analytically  !
 ! D142  D(44,45,47,54)         58.0071         calculate D2E/DX2 analytically  !
 ! D143  D(46,45,47,52)        -55.3024         calculate D2E/DX2 analytically  !
 ! D144  D(46,45,47,53)         64.814          calculate D2E/DX2 analytically  !
 ! D145  D(46,45,47,54)       -178.1016         calculate D2E/DX2 analytically  !
 ! D146  D(48,45,47,52)         65.5777         calculate D2E/DX2 analytically  !
 ! D147  D(48,45,47,53)       -174.3058         calculate D2E/DX2 analytically  !
 ! D148  D(48,45,47,54)        -57.2215         calculate D2E/DX2 analytically  !
 ! D149  D(45,46,49,55)        -55.2932         calculate D2E/DX2 analytically  !
 ! D150  D(45,46,49,56)       -177.9707         calculate D2E/DX2 analytically  !
 ! D151  D(45,46,49,57)         65.491          calculate D2E/DX2 analytically  !
 ! D152  D(50,46,49,55)         64.4419         calculate D2E/DX2 analytically  !
 ! D153  D(50,46,49,56)        -58.2355         calculate D2E/DX2 analytically  !
 ! D154  D(50,46,49,57)       -174.7738         calculate D2E/DX2 analytically  !
 ! D155  D(51,46,49,55)       -177.2211         calculate D2E/DX2 analytically  !
 ! D156  D(51,46,49,56)         60.1014         calculate D2E/DX2 analytically  !
 ! D157  D(51,46,49,57)        -56.4368         calculate D2E/DX2 analytically  !
 ! D158  D(45,47,52,55)         55.6864         calculate D2E/DX2 analytically  !
 ! D159  D(45,47,52,58)        178.3336         calculate D2E/DX2 analytically  !
 ! D160  D(45,47,52,59)        -65.0886         calculate D2E/DX2 analytically  !
 ! D161  D(53,47,52,55)        -64.1823         calculate D2E/DX2 analytically  !
 ! D162  D(53,47,52,58)         58.465          calculate D2E/DX2 analytically  !
 ! D163  D(53,47,52,59)        175.0427         calculate D2E/DX2 analytically  !
 ! D164  D(54,47,52,55)        177.5718         calculate D2E/DX2 analytically  !
 ! D165  D(54,47,52,58)        -59.781          calculate D2E/DX2 analytically  !
 ! D166  D(54,47,52,59)         56.7968         calculate D2E/DX2 analytically  !
 ! D167  D(46,49,55,52)         56.0041         calculate D2E/DX2 analytically  !
 ! D168  D(46,49,55,60)        178.2722         calculate D2E/DX2 analytically  !
 ! D169  D(46,49,55,61)        -64.5014         calculate D2E/DX2 analytically  !
 ! D170  D(56,49,55,52)        177.8766         calculate D2E/DX2 analytically  !
 ! D171  D(56,49,55,60)        -59.8553         calculate D2E/DX2 analytically  !
 ! D172  D(56,49,55,61)         57.3712         calculate D2E/DX2 analytically  !
 ! D173  D(57,49,55,52)        -64.814          calculate D2E/DX2 analytically  !
 ! D174  D(57,49,55,60)         57.454          calculate D2E/DX2 analytically  !
 ! D175  D(57,49,55,61)        174.6805         calculate D2E/DX2 analytically  !
 ! D176  D(47,52,55,49)        -56.0488         calculate D2E/DX2 analytically  !
 ! D177  D(47,52,55,60)       -178.2539         calculate D2E/DX2 analytically  !
 ! D178  D(47,52,55,61)         64.4489         calculate D2E/DX2 analytically  !
 ! D179  D(58,52,55,49)       -177.7788         calculate D2E/DX2 analytically  !
 ! D180  D(58,52,55,60)         60.0161         calculate D2E/DX2 analytically  !
 ! D181  D(58,52,55,61)        -57.2811         calculate D2E/DX2 analytically  !
 ! D182  D(59,52,55,49)         64.7248         calculate D2E/DX2 analytically  !
 ! D183  D(59,52,55,60)        -57.4803         calculate D2E/DX2 analytically  !
 ! D184  D(59,52,55,61)       -174.7775         calculate D2E/DX2 analytically  !
 --------------------------------------------------------------------------------
 Trust Radius=3.00D-01 FncErr=5.00D-06 GrdErr=5.00D-06 EigMax=2.50D+02 EigMin=1.00D-04
 Number of steps in this run=    384 maximum allowed number of steps=    384.
 GradGradGradGradGradGradGradGradGradGradGradGradGradGradGradGradGradGrad

 Leave Link  103 at Tue Dec 18 14:33:06 2018, MaxMem=  1342177280 cpu:               0.7 elap:               0.1
 (Enter /gpfs/apps/hpc/Apps/Restricted/Gaussian/Rev_A.03/g16/l202.exe)
 Symmetry turned off by external request.
 Stoichiometry    C29H29N5O(1+,2)
 Framework group  C1[X(C29H29N5O)]
 Deg. of freedom   186
 Full point group                 C1      NOp   1
                          Input orientation:                          
 ---------------------------------------------------------------------
 Center     Atomic      Atomic             Coordinates (Angstroms)
 Number     Number       Type             X           Y           Z
 ---------------------------------------------------------------------
      1          6           0        1.531350    1.166252    0.057062
      2          6           0        0.330498    1.916953    0.013619
      3          6           0        0.325835    3.303245   -0.098565
      4          6           0        1.565884    3.949600   -0.172336
      5          6           0        2.764473    3.234973   -0.128753
      6          6           0        2.778243    1.830708   -0.014639
      7          6           0       -0.076573   -0.257536    0.176579
      8          1           0       -0.599830    3.863785   -0.131264
      9          1           0        1.595449    5.028070   -0.261511
     10          1           0        3.707685    3.765752   -0.185311
     11          6           0       -2.274930   -1.426107    0.234694
     12          6           0       -3.024293   -2.630442    0.282839
     13          6           0       -2.419725   -3.884058    0.374306
     14          6           0       -1.025984   -3.909200    0.406931
     15          6           0       -0.262064   -2.732829    0.345637
     16          6           0       -0.861821   -1.473170    0.258808
     17          6           0       -4.353830   -0.858368    0.142461
     18          1           0       -3.004225   -4.794588    0.412740
     19          1           0       -0.515876   -4.862305    0.475427
     20          1           0        0.818858   -2.791444    0.362494
     21          7           0       -0.667878    0.972257    0.097428
     22          6           0       -6.873178   -0.774369   -0.086634
     23          6           0       -5.580624   -0.090934    0.044010
     24          6           0       -5.534517    1.292295    0.060998
     25          6           0       -6.700579    2.070500   -0.061429
     26          6           0       -7.949805    1.423825   -0.212914
     27          6           0       -8.068349    0.052976   -0.229875
     28          1           0       -4.574781    1.783335    0.172260
     29          1           0       -8.841180    2.034774   -0.309654
     30          6           0       -6.611588    3.566278   -0.037792
     31          1           0       -6.070437    3.906679    0.849939
     32          1           0       -6.053714    3.930940   -0.906843
     33          1           0       -7.600493    4.025317   -0.044960
     34          6           0       -9.385451   -0.639875   -0.375092
     35          1           0       -9.354207   -1.369308   -1.188508
     36          1           0       -9.631158   -1.198081    0.534143
     37          1           0      -10.181407    0.079489   -0.567670
     38          8           0       -6.973287   -2.029619   -0.078534
     39          7           0       -3.119196   -0.342279    0.153841
     40          7           0       -4.335387   -2.224284    0.221089
     41          7           0        1.261157   -0.174227    0.159231
     42          6           0        4.017180    1.122234    0.034175
     43          1           0        4.944266    1.684435   -0.004695
     44          7           0        4.101205   -0.171572    0.128293
     45          6           0        5.372887   -0.923520    0.174052
     46          6           0        6.135231   -0.779606   -1.150362
     47          6           0        6.224763   -0.480442    1.370753
     48          1           0        5.081047   -1.966517    0.308748
     49          6           0        7.466555   -1.537032   -1.094775
     50          1           0        6.327508    0.284605   -1.329914
     51          1           0        5.514332   -1.143324   -1.973087
     52          6           0        7.552750   -1.244476    1.409178
     53          1           0        6.428735    0.592669    1.280790
     54          1           0        5.660042   -0.629718    2.294271
     55          6           0        8.322002   -1.088049    0.094035
     56          1           0        8.004952   -1.388828   -2.034862
     57          1           0        7.266873   -2.611988   -1.008786
     58          1           0        8.149470   -0.887163    2.253172
     59          1           0        7.353616   -2.308164    1.588066
     60          1           0        9.251053   -1.664359    0.128245
     61          1           0        8.602603   -0.035815   -0.038670
     62          1           0       -5.196353   -2.763197    0.189797
     63          1           0       -1.681636    1.085483    0.089654
     64          1           0        3.212160   -0.684170    0.164241
 ---------------------------------------------------------------------
 Rotational constants (GHZ):           0.2577056           0.0426552           0.0371991
 Leave Link  202 at Tue Dec 18 14:33:07 2018, MaxMem=  1342177280 cpu:               0.7 elap:               0.1
 (Enter /gpfs/apps/hpc/Apps/Restricted/Gaussian/Rev_A.03/g16/l301.exe)
 Standard basis: 6-31G(d,p) (6D, 7F)
 Ernie: Thresh=  0.10000D-02 Tol=  0.10000D-05 Strict=F.
   670 basis functions,  1183 primitive gaussians,   670 cartesian basis functions
   123 alpha electrons      122 beta electrons
       nuclear repulsion energy      3333.0981715332 Hartrees.
 IExCor=  402 DFT=T Ex+Corr=B3LYP ExCW=0 ScaHFX=  0.200000
 ScaDFX=  0.800000  0.720000  1.000000  0.810000 ScalE2=  1.000000  1.000000
 IRadAn=      5 IRanWt=     -1 IRanGd=            0 ICorTp=0 IEmpDi=141
 NAtoms=   64 NActive=   64 NUniq=   64 SFac= 1.00D+00 NAtFMM=   60 NAOKFM=T Big=T
 Integral buffers will be    131072 words long.
 Raffenetti 2 integral format.
 Two-electron integral symmetry is turned off.
 R6Disp:  Grimme-D3(BJ) Dispersion energy=       -0.1433862877 Hartrees.
 Nuclear repulsion after empirical dispersion term =     3332.9547852456 Hartrees.
 Force inversion solution in PCM.
 Using the following non-standard input for PCM:
 radii=bondi
 dis
 rep
 cav
 --- end of non-standard input.
 Force inversion solution in PCM.
 ------------------------------------------------------------------------------
 Polarizable Continuum Model (PCM)
 =================================
 Model                : C-PCM.
 Atomic radii         : Bondi.
 Polarization charges : Total charges.
 Charge compensation  : None.
 Solution method      : Matrix inversion.
 Cavity type          : Scaled VdW (van der Waals Surface) (Alpha=1.100).
 Cavity algorithm     : GePol (No added spheres)
                        Default sphere list used, NSphG=   64.
                        Lebedev-Laikov grids with approx.  5.0 points / Ang**2.
                        Smoothing algorithm: York/Karplus (Gamma=1.0000).
                        Polarization charges: spherical gaussians, with
                                              point-specific exponents (IZeta= 3).
                        Self-potential: point-specific (ISelfS= 7).
                        Self-field    : sphere-specific E.n sum rule (ISelfD= 2).
 1st derivatives      : Analytical E(r).r(x)/FMM algorithm (CHGder, D1EAlg=3).
                        Cavity 1st derivative terms included.
 2nd derivatives      : Analytical E(r).r(xy)/FMM algorithm (CHGder, D2EAlg=3).
                        Cavity 2nd derivative terms included.
 Solvent              : Dichloromethane, Eps=   8.930000 Eps(inf)=   2.028346
 ------------------------------------------------------------------------------
 GePol: Number of generator spheres                  =      64
 GePol: Total number of spheres                      =      64
 GePol: Number of exposed spheres                    =      64 (100.00%)
 GePol: Number of points                             =    4398
 GePol: Average weight of points                     =       0.12
 GePol: Minimum weight of points                     =   0.78D-09
 GePol: Maximum weight of points                     =    0.21770
 GePol: Number of points with low weight             =     271
 GePol: Fraction of low-weight points (<1% of avg)   =       6.16%
 GePol: Cavity surface area                          =    518.224 Ang**2
 GePol: Cavity volume                                =    498.530 Ang**3
 PCM non-electrostatic energy =         0.0188458204 Hartrees.
 Nuclear repulsion after PCM non-electrostatic terms =     3332.9736310660 Hartrees.
 Leave Link  301 at Tue Dec 18 14:33:07 2018, MaxMem=  1342177280 cpu:               4.0 elap:               0.3
 (Enter /gpfs/apps/hpc/Apps/Restricted/Gaussian/Rev_A.03/g16/l302.exe)
 NPDir=0 NMtPBC=     1 NCelOv=     1 NCel=       1 NClECP=     1 NCelD=      1
         NCelK=      1 NCelE2=     1 NClLst=     1 CellRange=     0.0.
 One-electron integrals computed using PRISM.
 NBasis=   670 RedAO= T EigKep=  2.89D-04  NBF=   670
 NBsUse=   670 1.00D-06 EigRej= -1.00D+00 NBFU=   670
 Precomputing XC quadrature grid using
 IXCGrd= 4 IRadAn=           5 IRanWt=          -1 IRanGd=           0 AccXCQ= 0.00D+00.
 Generated NRdTot=       0 NPtTot=           0 NUsed=           0 NTot=          32
 NSgBfM=   618   618   618   618   618 MxSgAt=    64 MxSgA2=    64.
 Leave Link  302 at Tue Dec 18 14:33:09 2018, MaxMem=  1342177280 cpu:              33.1 elap:               2.2
 (Enter /gpfs/apps/hpc/Apps/Restricted/Gaussian/Rev_A.03/g16/l303.exe)
 DipDrv:  MaxL=1.
 Leave Link  303 at Tue Dec 18 14:33:10 2018, MaxMem=  1342177280 cpu:               3.2 elap:               0.3
 (Enter /gpfs/apps/hpc/Apps/Restricted/Gaussian/Rev_A.03/g16/l401.exe)
 ExpMin= 1.61D-01 ExpMax= 5.48D+03 ExpMxC= 8.25D+02 IAcc=3 IRadAn=         5 AccDes= 0.00D+00
 Harris functional with IExCor=  402 and IRadAn=       5 diagonalized for initial guess.
 HarFok:  IExCor=  402 AccDes= 0.00D+00 IRadAn=         5 IDoV= 1 UseB2=F ITyADJ=14
 ICtDFT=  3500011 ScaDFX=  1.000000  1.000000  1.000000  1.000000
 FoFCou: FMM=F IPFlag=           0 FMFlag=      100000 FMFlg1=        2001
         NFxFlg=           0 DoJE=T BraDBF=F KetDBF=T FulRan=T
         wScrn=  0.000000 ICntrl=       500 IOpCl=  0 I1Cent=   200000004 NGrid=           0
         NMat0=    1 NMatS0=      1 NMatT0=    0 NMatD0=    1 NMtDS0=    0 NMtDT0=    0
 Symmetry not used in FoFCou.
 Harris En= -1471.50771601682    
 JPrj=0 DoOrth=F DoCkMO=F.
 Initial guess <Sx>= 0.0000 <Sy>= 0.0000 <Sz>= 0.5000 <S**2>= 0.7500 S= 0.5000
 Leave Link  401 at Tue Dec 18 14:33:15 2018, MaxMem=  1342177280 cpu:              83.6 elap:               5.4
 (Enter /gpfs/apps/hpc/Apps/Restricted/Gaussian/Rev_A.03/g16/l502.exe)
 Two-electron integral symmetry not used.
 UHF open shell SCF:
 Using DIIS extrapolation, IDIIS=  1040.
 NGot=  1342177280 LenX=  1341263254 LenY=  1340813684
 Requested convergence on RMS density matrix=1.00D-08 within 128 cycles.
 Requested convergence on MAX density matrix=1.00D-06.
 Requested convergence on             energy=1.00D-06.
 No special actions if energy rises.
 Fock matrices will be formed incrementally for  20 cycles.

 Cycle   1  Pass 1  IDiag  1:
 FoFJK:  IHMeth= 1 ICntrl=       0 DoSepK=F KAlg= 0 I1Cent=           0 FoldK=F
 IRaf= 680000000 NMat=       1 IRICut=       1 DoRegI=T DoRafI=F ISym2E= 0 IDoP0=0 IntGTp=1.
 FoFCou: FMM=T IPFlag=           0 FMFlag=      100000 FMFlg1=        2001
         NFxFlg=           0 DoJE=F BraDBF=F KetDBF=F FulRan=T
         wScrn=  0.000000 ICntrl=         0 IOpCl=  1 I1Cent=           0 NGrid=           0
         NMat0=    1 NMatS0=      1 NMatT0=    0 NMatD0=    1 NMtDS0=    0 NMtDT0=    0
 Symmetry not used in FoFCou.
 FMM levels:  10  Number of levels for PrismC:   9
 Inv3:  Mode=1 IEnd=    58027212.
 Iteration    1 A*A^-1 deviation from unit magnitude is 1.44D-14 for    550.
 Iteration    1 A*A^-1 deviation from orthogonality  is 5.31D-15 for   3388   1091.
 Iteration    1 A^-1*A deviation from unit magnitude is 1.44D-14 for    550.
 Iteration    1 A^-1*A deviation from orthogonality  is 3.09D-15 for   4209    264.
 E= -1470.94445562591    
 DIIS: error= 2.55D-02 at cycle   1 NSaved=   1.
 NSaved= 1 IEnMin= 1 EnMin= -1470.94445562591     IErMin= 1 ErrMin= 2.55D-02
 ErrMax= 2.55D-02  0.00D+00 EMaxC= 1.00D-01 BMatC= 2.75D+00 BMatP= 2.75D+00
 IDIUse=3 WtCom= 7.45D-01 WtEn= 2.55D-01
 Coeff-Com:  0.100D+01
 Coeff-En:   0.100D+01
 Coeff:      0.100D+01
 Gap=     0.087 Goal=   None    Shift=    0.000
 Gap=     0.071 Goal=   None    Shift=    0.000
 GapD=    0.071 DampG=0.500 DampE=0.500 DampFc=0.2500 IDamp=-1.
 Damping current iteration by 2.50D-01
 RMSDP=3.04D-03 MaxDP=1.89D-01              OVMax= 2.69D-01

 Cycle   2  Pass 1  IDiag  1:
 RMSU=  7.35D-04    CP:  9.85D-01
 E= -1471.19499131907     Delta-E=       -0.250535693164 Rises=F Damp=T
 DIIS: error= 1.39D-02 at cycle   2 NSaved=   2.
 NSaved= 2 IEnMin= 2 EnMin= -1471.19499131907     IErMin= 2 ErrMin= 1.39D-02
 ErrMax= 1.39D-02  0.00D+00 EMaxC= 1.00D-01 BMatC= 7.60D-01 BMatP= 2.75D+00
 IDIUse=3 WtCom= 8.61D-01 WtEn= 1.39D-01
 Coeff-Com: -0.841D+00 0.184D+01
 Coeff-En:   0.000D+00 0.100D+01
 Coeff:     -0.724D+00 0.172D+01
 Gap=     0.124 Goal=   None    Shift=    0.000
 Gap=     0.128 Goal=   None    Shift=    0.000
 RMSDP=1.24D-03 MaxDP=8.03D-02 DE=-2.51D-01 OVMax= 1.55D-01

 Cycle   3  Pass 1  IDiag  1:
 RMSU=  8.80D-04    CP:  9.51D-01  2.05D+00
 E= -1471.61222014826     Delta-E=       -0.417228829187 Rises=F Damp=F
 DIIS: error= 1.11D-02 at cycle   3 NSaved=   3.
 NSaved= 3 IEnMin= 3 EnMin= -1471.61222014826     IErMin= 3 ErrMin= 1.11D-02
 ErrMax= 1.11D-02  0.00D+00 EMaxC= 1.00D-01 BMatC= 1.58D-01 BMatP= 7.60D-01
 IDIUse=3 WtCom= 8.89D-01 WtEn= 1.11D-01
 Coeff-Com: -0.415D+00 0.849D+00 0.566D+00
 Coeff-En:   0.000D+00 0.000D+00 0.100D+01
 Coeff:     -0.369D+00 0.755D+00 0.614D+00
 Gap=     0.109 Goal=   None    Shift=    0.000
 Gap=     0.076 Goal=   None    Shift=    0.000
 RMSDP=4.95D-04 MaxDP=6.96D-02 DE=-4.17D-01 OVMax= 8.29D-02

 Cycle   4  Pass 1  IDiag  1:
 RMSU=  3.74D-04    CP:  9.55D-01  2.14D+00  6.45D-01
 E= -1471.63673728509     Delta-E=       -0.024517136833 Rises=F Damp=F
 DIIS: error= 9.32D-03 at cycle   4 NSaved=   4.
 NSaved= 4 IEnMin= 4 EnMin= -1471.63673728509     IErMin= 4 ErrMin= 9.32D-03
 ErrMax= 9.32D-03  0.00D+00 EMaxC= 1.00D-01 BMatC= 6.33D-02 BMatP= 1.58D-01
 IDIUse=3 WtCom= 9.07D-01 WtEn= 9.32D-02
 Coeff-Com: -0.824D-01 0.175D+00 0.388D+00 0.520D+00
 Coeff-En:   0.000D+00 0.000D+00 0.281D+00 0.719D+00
 Coeff:     -0.747D-01 0.158D+00 0.378D+00 0.538D+00
 Gap=     0.112 Goal=   None    Shift=    0.000
 Gap=     0.074 Goal=   None    Shift=    0.000
 RMSDP=2.36D-04 MaxDP=3.32D-02 DE=-2.45D-02 OVMax= 3.29D-02

 Cycle   5  Pass 1  IDiag  1:
 RMSU=  1.26D-04    CP:  9.54D-01  2.08D+00  7.68D-01  5.72D-01
 E= -1471.64906956849     Delta-E=       -0.012332283401 Rises=F Damp=F
 DIIS: error= 2.07D-03 at cycle   5 NSaved=   5.
 NSaved= 5 IEnMin= 5 EnMin= -1471.64906956849     IErMin= 5 ErrMin= 2.07D-03
 ErrMax= 2.07D-03  0.00D+00 EMaxC= 1.00D-01 BMatC= 4.92D-03 BMatP= 6.33D-02
 IDIUse=3 WtCom= 9.79D-01 WtEn= 2.07D-02
 Coeff-Com: -0.439D-02 0.125D-01 0.165D+00 0.310D+00 0.517D+00
 Coeff-En:   0.000D+00 0.000D+00 0.000D+00 0.000D+00 0.100D+01
 Coeff:     -0.430D-02 0.123D-01 0.161D+00 0.304D+00 0.527D+00
 Gap=     0.111 Goal=   None    Shift=    0.000
 Gap=     0.076 Goal=   None    Shift=    0.000
 RMSDP=7.06D-05 MaxDP=1.20D-02 DE=-1.23D-02 OVMax= 1.58D-02

 Cycle   6  Pass 1  IDiag  1:
 RMSU=  4.43D-05    CP:  9.54D-01  2.08D+00  7.74D-01  6.37D-01  6.13D-01
 E= -1471.65017712293     Delta-E=       -0.001107554436 Rises=F Damp=F
 DIIS: error= 7.27D-04 at cycle   6 NSaved=   6.
 NSaved= 6 IEnMin= 6 EnMin= -1471.65017712293     IErMin= 6 ErrMin= 7.27D-04
 ErrMax= 7.27D-04  0.00D+00 EMaxC= 1.00D-01 BMatC= 4.97D-04 BMatP= 4.92D-03
 IDIUse=3 WtCom= 9.93D-01 WtEn= 7.27D-03
 Coeff-Com:  0.488D-02-0.836D-02 0.504D-01 0.106D+00 0.291D+00 0.556D+00
 Coeff-En:   0.000D+00 0.000D+00 0.000D+00 0.000D+00 0.000D+00 0.100D+01
 Coeff:      0.484D-02-0.830D-02 0.500D-01 0.105D+00 0.289D+00 0.559D+00
 Gap=     0.112 Goal=   None    Shift=    0.000
 Gap=     0.077 Goal=   None    Shift=    0.000
 RMSDP=2.29D-05 MaxDP=3.10D-03 DE=-1.11D-03 OVMax= 6.26D-03

 Cycle   7  Pass 1  IDiag  1:
 RMSU=  1.85D-05    CP:  9.54D-01  2.09D+00  7.77D-01  6.36D-01  7.15D-01
                    CP:  9.30D-01
 E= -1471.65032622699     Delta-E=       -0.000149104061 Rises=F Damp=F
 DIIS: error= 2.67D-04 at cycle   7 NSaved=   7.
 NSaved= 7 IEnMin= 7 EnMin= -1471.65032622699     IErMin= 7 ErrMin= 2.67D-04
 ErrMax= 2.67D-04  0.00D+00 EMaxC= 1.00D-01 BMatC= 6.82D-05 BMatP= 4.97D-04
 IDIUse=3 WtCom= 9.97D-01 WtEn= 2.67D-03
 Coeff-Com:  0.313D-02-0.629D-02-0.155D-01-0.316D-01 0.938D-02 0.225D+00
 Coeff-Com:  0.816D+00
 Coeff-En:   0.000D+00 0.000D+00 0.000D+00 0.000D+00 0.000D+00 0.000D+00
 Coeff-En:   0.100D+01
 Coeff:      0.313D-02-0.628D-02-0.154D-01-0.315D-01 0.936D-02 0.225D+00
 Coeff:      0.816D+00
 Gap=     0.112 Goal=   None    Shift=    0.000
 Gap=     0.078 Goal=   None    Shift=    0.000
 RMSDP=1.48D-05 MaxDP=2.54D-03 DE=-1.49D-04 OVMax= 5.85D-03

 Cycle   8  Pass 1  IDiag  1:
 RMSU=  9.54D-06    CP:  9.54D-01  2.08D+00  7.79D-01  6.42D-01  7.58D-01
                    CP:  1.14D+00  1.10D+00
 E= -1471.65037869079     Delta-E=       -0.000052463798 Rises=F Damp=F
 DIIS: error= 1.65D-04 at cycle   8 NSaved=   8.
 NSaved= 8 IEnMin= 8 EnMin= -1471.65037869079     IErMin= 8 ErrMin= 1.65D-04
 ErrMax= 1.65D-04  0.00D+00 EMaxC= 1.00D-01 BMatC= 2.36D-05 BMatP= 6.82D-05
 IDIUse=3 WtCom= 9.98D-01 WtEn= 1.65D-03
 Coeff-Com:  0.459D-04-0.821D-04-0.219D-01-0.510D-01-0.896D-01-0.127D+00
 Coeff-Com:  0.341D+00 0.948D+00
 Coeff-En:   0.000D+00 0.000D+00 0.000D+00 0.000D+00 0.000D+00 0.000D+00
 Coeff-En:   0.000D+00 0.100D+01
 Coeff:      0.458D-04-0.819D-04-0.218D-01-0.509D-01-0.895D-01-0.127D+00
 Coeff:      0.341D+00 0.948D+00
 Gap=     0.113 Goal=   None    Shift=    0.000
 Gap=     0.078 Goal=   None    Shift=    0.000
 RMSDP=1.22D-05 MaxDP=1.66D-03 DE=-5.25D-05 OVMax= 4.69D-03

 Cycle   9  Pass 1  IDiag  1:
 RMSU=  4.91D-06    CP:  9.54D-01  2.08D+00  7.81D-01  6.42D-01  7.96D-01
                    CP:  1.28D+00  1.48D+00  1.28D+00
 E= -1471.65039858011     Delta-E=       -0.000019889320 Rises=F Damp=F
 DIIS: error= 5.81D-05 at cycle   9 NSaved=   9.
 NSaved= 9 IEnMin= 9 EnMin= -1471.65039858011     IErMin= 9 ErrMin= 5.81D-05
 ErrMax= 5.81D-05  0.00D+00 EMaxC= 1.00D-01 BMatC= 8.99D-06 BMatP= 2.36D-05
 IDIUse=1 WtCom= 1.00D+00 WtEn= 0.00D+00
 Coeff-Com: -0.432D-03 0.995D-03-0.100D-01-0.254D-01-0.569D-01-0.135D+00
 Coeff-Com:  0.424D-01 0.595D+00 0.590D+00
 Coeff:     -0.432D-03 0.995D-03-0.100D-01-0.254D-01-0.569D-01-0.135D+00
 Coeff:      0.424D-01 0.595D+00 0.590D+00
 Gap=     0.113 Goal=   None    Shift=    0.000
 Gap=     0.078 Goal=   None    Shift=    0.000
 RMSDP=4.56D-06 MaxDP=6.96D-04 DE=-1.99D-05 OVMax= 1.58D-03

 Cycle  10  Pass 1  IDiag  1:
 RMSU=  2.43D-06    CP:  9.54D-01  2.08D+00  7.82D-01  6.43D-01  8.08D-01
                    CP:  1.33D+00  1.59D+00  1.49D+00  8.25D-01
 E= -1471.65040259729     Delta-E=       -0.000004017185 Rises=F Damp=F
 DIIS: error= 1.70D-05 at cycle  10 NSaved=  10.
 NSaved=10 IEnMin=10 EnMin= -1471.65040259729     IErMin=10 ErrMin= 1.70D-05
 ErrMax= 1.70D-05  0.00D+00 EMaxC= 1.00D-01 BMatC= 1.04D-06 BMatP= 8.99D-06
 IDIUse=1 WtCom= 1.00D+00 WtEn= 0.00D+00
 Coeff-Com: -0.459D-04 0.204D-03 0.942D-03 0.125D-02-0.162D-02-0.289D-01
 Coeff-Com: -0.562D-01 0.232D-01 0.255D+00 0.806D+00
 Coeff:     -0.459D-04 0.204D-03 0.942D-03 0.125D-02-0.162D-02-0.289D-01
 Coeff:     -0.562D-01 0.232D-01 0.255D+00 0.806D+00
 Gap=     0.113 Goal=   None    Shift=    0.000
 Gap=     0.078 Goal=   None    Shift=    0.000
 RMSDP=1.92D-06 MaxDP=3.55D-04 DE=-4.02D-06 OVMax= 6.23D-04

 Cycle  11  Pass 1  IDiag  1:
 RMSU=  1.07D-06    CP:  9.54D-01  2.08D+00  7.82D-01  6.42D-01  8.10D-01
                    CP:  1.34D+00  1.63D+00  1.57D+00  1.02D+00  1.06D+00
 E= -1471.65040317810     Delta-E=       -0.000000580809 Rises=F Damp=F
 DIIS: error= 9.79D-06 at cycle  11 NSaved=  11.
 NSaved=11 IEnMin=11 EnMin= -1471.65040317810     IErMin=11 ErrMin= 9.79D-06
 ErrMax= 9.79D-06  0.00D+00 EMaxC= 1.00D-01 BMatC= 2.84D-07 BMatP= 1.04D-06
 IDIUse=1 WtCom= 1.00D+00 WtEn= 0.00D+00
 Coeff-Com:  0.145D-04-0.209D-05 0.242D-02 0.553D-02 0.996D-02 0.980D-02
 Coeff-Com: -0.366D-01-0.988D-01 0.290D-01 0.433D+00 0.646D+00
 Coeff:      0.145D-04-0.209D-05 0.242D-02 0.553D-02 0.996D-02 0.980D-02
 Coeff:     -0.366D-01-0.988D-01 0.290D-01 0.433D+00 0.646D+00
 Gap=     0.113 Goal=   None    Shift=    0.000
 Gap=     0.078 Goal=   None    Shift=    0.000
 RMSDP=7.73D-07 MaxDP=1.38D-04 DE=-5.81D-07 OVMax= 2.26D-04

 Cycle  12  Pass 1  IDiag  1:
 RMSU=  4.44D-07    CP:  9.54D-01  2.08D+00  7.82D-01  6.42D-01  8.11D-01
                    CP:  1.34D+00  1.63D+00  1.60D+00  1.08D+00  1.24D+00
                    CP:  9.23D-01
 E= -1471.65040330924     Delta-E=       -0.000000131139 Rises=F Damp=F
 DIIS: error= 5.13D-06 at cycle  12 NSaved=  12.
 NSaved=12 IEnMin=12 EnMin= -1471.65040330924     IErMin=12 ErrMin= 5.13D-06
 ErrMax= 5.13D-06  0.00D+00 EMaxC= 1.00D-01 BMatC= 3.75D-08 BMatP= 2.84D-07
 IDIUse=1 WtCom= 1.00D+00 WtEn= 0.00D+00
 Coeff-Com:  0.824D-05-0.480D-04 0.647D-03 0.183D-02 0.419D-02 0.115D-01
 Coeff-Com: -0.194D-03-0.423D-01-0.509D-01-0.390D-01 0.231D+00 0.883D+00
 Coeff:      0.824D-05-0.480D-04 0.647D-03 0.183D-02 0.419D-02 0.115D-01
 Coeff:     -0.194D-03-0.423D-01-0.509D-01-0.390D-01 0.231D+00 0.883D+00
 Gap=     0.113 Goal=   None    Shift=    0.000
 Gap=     0.078 Goal=   None    Shift=    0.000
 RMSDP=4.03D-07 MaxDP=7.13D-05 DE=-1.31D-07 OVMax= 1.66D-04

 Cycle  13  Pass 1  IDiag  1:
 RMSU=  2.11D-07    CP:  9.54D-01  2.08D+00  7.82D-01  6.42D-01  8.11D-01
                    CP:  1.34D+00  1.64D+00  1.61D+00  1.11D+00  1.32D+00
                    CP:  1.13D+00  1.02D+00
 E= -1471.65040333669     Delta-E=       -0.000000027446 Rises=F Damp=F
 DIIS: error= 2.31D-06 at cycle  13 NSaved=  13.
 NSaved=13 IEnMin=13 EnMin= -1471.65040333669     IErMin=13 ErrMin= 2.31D-06
 ErrMax= 2.31D-06  0.00D+00 EMaxC= 1.00D-01 BMatC= 1.41D-08 BMatP= 3.75D-08
 IDIUse=1 WtCom= 1.00D+00 WtEn= 0.00D+00
 Coeff-Com: -0.525D-05-0.173D-04-0.201D-04 0.188D-03 0.722D-03 0.519D-02
 Coeff-Com:  0.488D-02-0.820D-02-0.336D-01-0.917D-01 0.229D-01 0.488D+00
 Coeff-Com:  0.612D+00
 Coeff:     -0.525D-05-0.173D-04-0.201D-04 0.188D-03 0.722D-03 0.519D-02
 Coeff:      0.488D-02-0.820D-02-0.336D-01-0.917D-01 0.229D-01 0.488D+00
 Coeff:      0.612D+00
 Gap=     0.113 Goal=   None    Shift=    0.000
 Gap=     0.078 Goal=   None    Shift=    0.000
 RMSDP=1.67D-07 MaxDP=3.47D-05 DE=-2.74D-08 OVMax= 5.37D-05

 Cycle  14  Pass 1  IDiag  1:
 RMSU=  1.04D-07    CP:  9.54D-01  2.08D+00  7.82D-01  6.42D-01  8.11D-01
                    CP:  1.34D+00  1.64D+00  1.61D+00  1.12D+00  1.34D+00
                    CP:  1.17D+00  1.22D+00  9.21D-01
 E= -1471.65040334305     Delta-E=       -0.000000006363 Rises=F Damp=F
 DIIS: error= 1.11D-06 at cycle  14 NSaved=  14.
 NSaved=14 IEnMin=14 EnMin= -1471.65040334305     IErMin=14 ErrMin= 1.11D-06
 ErrMax= 1.11D-06  0.00D+00 EMaxC= 1.00D-01 BMatC= 2.14D-09 BMatP= 1.41D-08
 IDIUse=1 WtCom= 1.00D+00 WtEn= 0.00D+00
 Coeff-Com: -0.110D-04 0.150D-04-0.172D-03-0.365D-03-0.796D-03-0.330D-03
 Coeff-Com:  0.194D-02 0.739D-02-0.235D-02-0.322D-01-0.473D-01-0.101D-01
 Coeff-Com:  0.260D+00 0.824D+00
 Coeff:     -0.110D-04 0.150D-04-0.172D-03-0.365D-03-0.796D-03-0.330D-03
 Coeff:      0.194D-02 0.739D-02-0.235D-02-0.322D-01-0.473D-01-0.101D-01
 Coeff:      0.260D+00 0.824D+00
 Gap=     0.113 Goal=   None    Shift=    0.000
 Gap=     0.078 Goal=   None    Shift=    0.000
 RMSDP=8.82D-08 MaxDP=1.47D-05 DE=-6.36D-09 OVMax= 2.97D-05

 Cycle  15  Pass 1  IDiag  1:
 RMSU=  4.17D-08    CP:  9.54D-01  2.08D+00  7.82D-01  6.42D-01  8.11D-01
                    CP:  1.34D+00  1.64D+00  1.61D+00  1.12D+00  1.35D+00
                    CP:  1.20D+00  1.29D+00  1.17D+00  1.06D+00
 E= -1471.65040334458     Delta-E=       -0.000000001532 Rises=F Damp=F
 DIIS: error= 3.70D-07 at cycle  15 NSaved=  15.
 NSaved=15 IEnMin=15 EnMin= -1471.65040334458     IErMin=15 ErrMin= 3.70D-07
 ErrMax= 3.70D-07  0.00D+00 EMaxC= 1.00D-01 BMatC= 4.92D-10 BMatP= 2.14D-09
 IDIUse=1 WtCom= 1.00D+00 WtEn= 0.00D+00
 Coeff-Com: -0.434D-05 0.973D-05-0.693D-04-0.176D-03-0.479D-03-0.918D-03
 Coeff-Com: -0.130D-03 0.441D-02 0.446D-02 0.115D-02-0.228D-01-0.876D-01
 Coeff-Com:  0.535D-02 0.363D+00 0.734D+00
 Coeff:     -0.434D-05 0.973D-05-0.693D-04-0.176D-03-0.479D-03-0.918D-03
 Coeff:     -0.130D-03 0.441D-02 0.446D-02 0.115D-02-0.228D-01-0.876D-01
 Coeff:      0.535D-02 0.363D+00 0.734D+00
 Gap=     0.113 Goal=   None    Shift=    0.000
 Gap=     0.078 Goal=   None    Shift=    0.000
 RMSDP=4.22D-08 MaxDP=5.43D-06 DE=-1.53D-09 OVMax= 1.66D-05

 Cycle  16  Pass 1  IDiag  1:
 RMSU=  2.32D-08    CP:  9.54D-01  2.08D+00  7.82D-01  6.42D-01  8.11D-01
                    CP:  1.34D+00  1.64D+00  1.61D+00  1.12D+00  1.35D+00
                    CP:  1.20D+00  1.32D+00  1.25D+00  1.27D+00  1.06D+00
 E= -1471.65040334487     Delta-E=       -0.000000000285 Rises=F Damp=F
 DIIS: error= 2.24D-07 at cycle  16 NSaved=  16.
 NSaved=16 IEnMin=16 EnMin= -1471.65040334487     IErMin=16 ErrMin= 2.24D-07
 ErrMax= 2.24D-07  0.00D+00 EMaxC= 1.00D-01 BMatC= 1.50D-10 BMatP= 4.92D-10
 IDIUse=1 WtCom= 1.00D+00 WtEn= 0.00D+00
 Coeff-Com:  0.124D-05 0.860D-07 0.227D-04 0.402D-04 0.225D-04-0.272D-03
 Coeff-Com: -0.730D-03-0.333D-03 0.282D-02 0.108D-01 0.463D-02-0.400D-01
 Coeff-Com: -0.834D-01-0.856D-01 0.394D+00 0.798D+00
 Coeff:      0.124D-05 0.860D-07 0.227D-04 0.402D-04 0.225D-04-0.272D-03
 Coeff:     -0.730D-03-0.333D-03 0.282D-02 0.108D-01 0.463D-02-0.400D-01
 Coeff:     -0.834D-01-0.856D-01 0.394D+00 0.798D+00
 Gap=     0.113 Goal=   None    Shift=    0.000
 Gap=     0.078 Goal=   None    Shift=    0.000
 RMSDP=2.71D-08 MaxDP=3.23D-06 DE=-2.85D-10 OVMax= 1.30D-05

 Cycle  17  Pass 1  IDiag  1:
 RMSU=  1.13D-08    CP:  9.54D-01  2.08D+00  7.82D-01  6.42D-01  8.11D-01
                    CP:  1.34D+00  1.64D+00  1.61D+00  1.12D+00  1.35D+00
                    CP:  1.20D+00  1.33D+00  1.31D+00  1.38D+00  1.40D+00
                    CP:  1.06D+00
 E= -1471.65040334504     Delta-E=       -0.000000000169 Rises=F Damp=F
 DIIS: error= 1.21D-07 at cycle  17 NSaved=  17.
 NSaved=17 IEnMin=17 EnMin= -1471.65040334504     IErMin=17 ErrMin= 1.21D-07
 ErrMax= 1.21D-07  0.00D+00 EMaxC= 1.00D-01 BMatC= 2.53D-11 BMatP= 1.50D-10
 IDIUse=1 WtCom= 1.00D+00 WtEn= 0.00D+00
 Coeff-Com:  0.104D-05-0.135D-05 0.207D-04 0.471D-04 0.863D-04 0.427D-04
 Coeff-Com: -0.304D-03-0.846D-03 0.449D-03 0.421D-02 0.527D-02-0.269D-02
 Coeff-Com: -0.344D-01-0.936D-01 0.534D-01 0.314D+00 0.755D+00
 Coeff:      0.104D-05-0.135D-05 0.207D-04 0.471D-04 0.863D-04 0.427D-04
 Coeff:     -0.304D-03-0.846D-03 0.449D-03 0.421D-02 0.527D-02-0.269D-02
 Coeff:     -0.344D-01-0.936D-01 0.534D-01 0.314D+00 0.755D+00
 Gap=     0.113 Goal=   None    Shift=    0.000
 Gap=     0.078 Goal=   None    Shift=    0.000
 RMSDP=1.11D-08 MaxDP=1.53D-06 DE=-1.69D-10 OVMax= 3.49D-06

 Cycle  18  Pass 1  IDiag  1:
 RMSU=  6.38D-09    CP:  9.54D-01  2.08D+00  7.82D-01  6.42D-01  8.11D-01
                    CP:  1.34D+00  1.64D+00  1.61D+00  1.12D+00  1.35D+00
                    CP:  1.21D+00  1.33D+00  1.32D+00  1.41D+00  1.51D+00
                    CP:  1.28D+00  1.12D+00
 E= -1471.65040334498     Delta-E=        0.000000000057 Rises=F Damp=F
 DIIS: error= 7.55D-08 at cycle  18 NSaved=  18.
 NSaved=18 IEnMin=17 EnMin= -1471.65040334504     IErMin=18 ErrMin= 7.55D-08
 ErrMax= 7.55D-08  0.00D+00 EMaxC= 1.00D-01 BMatC= 1.23D-11 BMatP= 2.53D-11
 IDIUse=1 WtCom= 1.00D+00 WtEn= 0.00D+00
 Coeff-Com:  0.308D-07-0.674D-06 0.334D-05 0.122D-04 0.444D-04 0.146D-03
 Coeff-Com:  0.133D-03-0.359D-03-0.920D-03-0.199D-02 0.119D-02 0.148D-01
 Coeff-Com:  0.132D-01-0.247D-01-0.119D+00-0.125D+00 0.476D+00 0.767D+00
 Coeff:      0.308D-07-0.674D-06 0.334D-05 0.122D-04 0.444D-04 0.146D-03
 Coeff:      0.133D-03-0.359D-03-0.920D-03-0.199D-02 0.119D-02 0.148D-01
 Coeff:      0.132D-01-0.247D-01-0.119D+00-0.125D+00 0.476D+00 0.767D+00
 Gap=     0.113 Goal=   None    Shift=    0.000
 Gap=     0.078 Goal=   None    Shift=    0.000
 RMSDP=8.15D-09 MaxDP=1.18D-06 DE= 5.73D-11 OVMax= 3.44D-06

 Cycle  19  Pass 1  IDiag  1:
 RMSU=  3.53D-09    CP:  9.54D-01  2.08D+00  7.82D-01  6.42D-01  8.11D-01
                    CP:  1.34D+00  1.64D+00  1.61D+00  1.12D+00  1.35D+00
                    CP:  1.21D+00  1.34D+00  1.33D+00  1.43D+00  1.59D+00
                    CP:  1.42D+00  1.53D+00  9.60D-01
 E= -1471.65040334494     Delta-E=        0.000000000041 Rises=F Damp=F
 DIIS: error= 3.50D-08 at cycle  19 NSaved=  19.
 NSaved=19 IEnMin=17 EnMin= -1471.65040334504     IErMin=19 ErrMin= 3.50D-08
 ErrMax= 3.50D-08  0.00D+00 EMaxC= 1.00D-01 BMatC= 3.14D-12 BMatP= 1.23D-11
 IDIUse=1 WtCom= 1.00D+00 WtEn= 0.00D+00
 Coeff-Com: -0.247D-06 0.283D-07-0.401D-05-0.759D-05-0.140D-05 0.614D-04
 Coeff-Com:  0.157D-03 0.635D-04-0.594D-03-0.225D-02-0.891D-03 0.804D-02
 Coeff-Com:  0.170D-01 0.149D-01-0.742D-01-0.152D+00 0.144D-01 0.391D+00
 Coeff-Com:  0.784D+00
 Coeff:     -0.247D-06 0.283D-07-0.401D-05-0.759D-05-0.140D-05 0.614D-04
 Coeff:      0.157D-03 0.635D-04-0.594D-03-0.225D-02-0.891D-03 0.804D-02
 Coeff:      0.170D-01 0.149D-01-0.742D-01-0.152D+00 0.144D-01 0.391D+00
 Coeff:      0.784D+00
 Gap=     0.113 Goal=   None    Shift=    0.000
 Gap=     0.078 Goal=   None    Shift=    0.000
 RMSDP=4.39D-09 MaxDP=5.87D-07 DE= 4.09D-11 OVMax= 1.59D-06

 Error on total polarization charges =  0.04374
 SCF Done:  E(UB3LYP) =  -1471.65040334     A.U. after   19 cycles
            NFock= 19  Conv=0.44D-08     -V/T= 2.0096
 <Sx>= 0.0000 <Sy>= 0.0000 <Sz>= 0.5000 <S**2>= 0.7746 S= 0.5122
 <L.S>= 0.000000000000E+00
 KE= 1.457632442669D+03 PE=-1.005432714474D+04 EE= 3.792070667662D+03
 Annihilation of the first spin contaminant:
 S**2 before annihilation     0.7746,   after     0.7504
 Leave Link  502 at Tue Dec 18 14:38:30 2018, MaxMem=  1342177280 cpu:            4939.0 elap:             314.5
 (Enter /gpfs/apps/hpc/Apps/Restricted/Gaussian/Rev_A.03/g16/l801.exe)
 DoSCS=F DFT=T ScalE2(SS,OS)=  1.000000  1.000000
 Range of M.O.s used for correlation:     1   670
 NBasis=   670 NAE=   123 NBE=   122 NFC=     0 NFV=     0
 NROrb=    670 NOA=   123 NOB=   122 NVA=   547 NVB=   548

 **** Warning!!: The smallest beta delta epsilon is  0.78265864D-01

 Leave Link  801 at Tue Dec 18 14:38:30 2018, MaxMem=  1342177280 cpu:               1.8 elap:               0.1
 (Enter /gpfs/apps/hpc/Apps/Restricted/Gaussian/Rev_A.03/g16/l1101.exe)
 Using compressed storage, NAtomX=    64.
 Will process     65 centers per pass.
 R6Disp: Adding Grimme-D3(BJ) dispersion energy 1st derivatives to the gradient.
 Leave Link 1101 at Tue Dec 18 14:38:32 2018, MaxMem=  1342177280 cpu:              30.2 elap:               2.0
 (Enter /gpfs/apps/hpc/Apps/Restricted/Gaussian/Rev_A.03/g16/l1102.exe)
 Symmetrizing basis deriv contribution to polar:
 IMax=3 JMax=2 DiffMx= 0.00D+00
 Leave Link 1102 at Tue Dec 18 14:38:32 2018, MaxMem=  1342177280 cpu:               2.6 elap:               0.3
 (Enter /gpfs/apps/hpc/Apps/Restricted/Gaussian/Rev_A.03/g16/l1110.exe)
 Forming Gx(P) for the SCF density, NAtomX=    64.
 Integral derivatives from FoFJK, PRISM(SPDF).
 Do as many integral derivatives as possible in FoFJK.
 G2DrvN: MDV=    1342172536.
[...]
 0009175,-0.00019244,-0.00035383,-0.00027463,-0.00001370,0.00022317,0.0
 0015534,-0.00001234,0.00003842,0.00122478,-0.00005350,-0.02858214,-0.0
 0782196,-0.00166292,-0.00016624,0.00005545,-0.00028500,0.00007411,-0.0
 0003948,0.00001156,0.00002438,-0.00002500,0.00000262,-0.00032447,-0.00
 015048,0.00000371,0.00244734,-0.00556722,0.00044194,0.00056576,0.00021
 085,-0.00003490,-0.00034396,0.00032191,-0.00004968,0.00014621,-0.00024
 427,0.00003166,-0.00000626,0.00019390,0.00000370,0.00012304,0.00026067
 ,0.00005406,0.00002629,0.00015307,0.00001161,-0.00005222,0.00009414,-0
 .00001030,0.00008726,0.00009773,-0.00003044,-0.00003274,0.00005879,0.0
 0000883,-0.00003122,0.00006872,0.00000214,-0.00002070,0.00005369,0.000
 00629,-0.00002627,0.00002758,-0.00000202,-0.00001427,0.00000486,0.0000
 2567,-0.00003497,-0.00000841,-0.00002236,-0.00007222,0.00001539,-0.000
 00440,-0.00521899,0.00016549,-0.00097337,-0.00132420,-0.00594371,0.000
 67594,-0.16602272,-0.18147062,-0.00306404,0.00016006,0.00022279,-0.000
 01861,-0.00007517,0.00008012,-0.00000520,0.00000184,0.00000104,-0.0000
 0060,0.00001878,-0.00007404,0.00000589,-0.00001700,0.00001985,-0.00000
 280,0.00000353,-0.00000525,0.00000892,0.00000264,-0.00000691,-0.000006
 77,0.00000251,-0.00000271,0.00000038,-0.00000025,0.00000348,-0.0000046
 6,-0.00000061,0.00000003,-0.00000029,-0.00000067,0.00000031,-0.0000002
 9,-0.00000019,0.00000403,0.00000349,-0.00000077,0.00000002,0.00000022,
 -0.00000050,0.00000039,0.00000022,-0.00000046,-0.00000142,0.00000027,0
 .00000270,-0.00000111,-0.00000060,0.00000003,-0.00000102,0.00000063,0.
 00000265,-0.00000089,0.00000066,0.00000006,-0.00000110,-0.00000035,0.0
 0000165,-0.00000030,-0.00000007,-0.00000031,0.00000024,-0.00000004,0.1
 8442830,0.18396585,0.00000546,-0.00000368,-0.00004232,-0.00000114,-0.0
 0000864,0.00000725,-0.00000022,-0.00000215,-0.00000400,0.00000143,0.00
 000028,-0.00000416,0.00000015,0.00000189,0.00000221,0.00000001,-0.0000
 0096,0.00000827,-0.00000408,0.00003403,0.00030204,0.,0.00000067,0.0000
 0518,0.00000031,0.00000030,-0.00000025,0.00000015,0.00000033,0.0000031
 7,-0.00000489,0.00022021,0.00287309,0.00018640,-0.00064101,-0.00675499
 ,-0.00012724,0.00004993,-0.00113674,0.00004487,-0.00002046,0.00003513,
 -0.00000263,-0.00003200,-0.00030742,-0.00000124,0.00010935,0.00119055,
 0.00261013,0.00027291,-0.00492352,0.00002243,-0.00040122,-0.00025504,0
 .00001048,0.00000702,0.00009603,0.00000140,0.00000442,0.00004828,0.000
 03443,0.00001412,-0.00013136,0.00032666,0.00140739,0.00024391,0.000151
 53,-0.00023147,-0.00188212,-0.00003788,-0.00001439,-0.00018951,0.00006
 423,0.00007568,0.00020676,0.00001102,-0.00015083,-0.00002527,-0.000208
 12,-0.00024272,0.00100070,-0.00000664,-0.00004358,-0.00005815,0.000021
 84,-0.00004451,-0.00013084,-0.00003828,-0.00002799,0.00002820,0.000007
 57,-0.00001897,-0.00000514,0.00000758,-0.00001546,-0.00000336,0.000003
 14,-0.00000707,-0.00000616,-0.00001569,-0.00000780,-0.00004355,-0.0000
 1202,0.00000443,-0.00000113,0.00001467,0.00000299,0.00001836,0.0000165
 2,-0.00000675,-0.00000096,0.00002190,-0.00160397,-0.00479584,0.0001079
 0,0.00123000,0.00563617,-0.01183812,-0.00504945,-0.00956374,0.00000527
 ,-0.00000479,-0.00007219,0.00000031,0.00000013,0.00000444,0.00000021,-
 0.00000026,-0.00000194,0.00000042,-0.00000003,-0.00000346,-0.00000018,
 -0.00000004,0.00000146,0.00000007,0.00000054,0.00000095,-0.00000002,-0
 .00000046,0.00000095,0.00000002,0.00000015,0.00000045,0.00000009,-0.00
 000007,-0.00000009,0.00000015,0.00000005,-0.00000007,-0.00000029,-0.00
 000029,-0.00000066,-0.00000024,-0.00000017,-0.00000008,-0.00000009,0.0
 0000014,-0.00000011,0.00000026,0.,-0.00000083,-0.00000006,0.00000002,0
 .00000055,0.00000037,0.00000004,-0.00000043,-0.00000004,0.00000002,0.0
 0000021,-0.00000028,-0.00000013,-0.00000034,0.00000006,0.00000028,0.00
 000017,0.,-0.00000003,-0.00000021,0.00000004,0.00000007,-0.00000015,0.
 00866624,0.00516494,0.01838278,0.00118147,-0.00335361,0.00020903,-0.00
 727910,-0.00224987,0.00013682,0.00112723,0.00080293,0.00010656,-0.0006
 8800,0.00035745,-0.00001416,0.00057379,-0.00002337,0.00000296,0.001072
 17,-0.00017495,0.00000809,-0.00697167,0.00839265,-0.00053209,-0.000283
 25,-0.00014085,0.00017368,0.00010918,0.00010843,-0.00001168,0.00006262
 ,0.00002661,-0.00000013,0.00532291,-0.00316138,0.00024952,0.00109463,0
 .00181235,-0.00004651,0.00070139,-0.00050590,0.00004563,-0.00082696,-0
 .00024518,-0.00000359,-0.00092436,0.00059389,-0.00004012,0.00004952,-0
 .00095525,0.00008295,-0.00606041,0.00105353,-0.00030821,-0.00008414,0.
 00015756,-0.00001257,-0.00007435,-0.00005878,0.00000333,-0.00004066,0.
 00012886,-0.00001050,-0.41427073,0.04994624,-0.00316615,0.00006363,-0.
 00057402,0.00001104,0.00002344,0.00037389,0.00000296,0.00037948,-0.000
 68892,0.00001494,-0.00046647,0.00034628,-0.00006018,0.00017892,0.00018
 734,0.00002602,-0.00010093,-0.00010817,-0.00000063,-0.00008534,0.00036
 822,0.00013209,0.00005346,-0.00001247,0.00000651,-0.00002091,-0.000038
 71,0.00001420,0.00001025,-0.00002345,-0.00000102,0.00001234,-0.0000310
 0,-0.00000313,0.00002169,-0.00004320,-0.00000293,0.00001836,0.00002910
 ,-0.00001825,0.00002897,0.00000979,0.00001053,0.00003775,0.00001407,0.
 00000399,0.00003815,-0.00000013,0.00000715,0.00019810,0.00033373,0.000
 01557,0.00118747,0.00216341,-0.00008597,0.00153343,0.00388261,-0.00016
 353,0.00706399,0.00008505,-0.00011450,-0.00061194,0.00129990,-0.000100
 68,0.00007591,-0.00001351,-0.00000474,0.00023943,-0.00087403,0.0000736
 5,-0.00020563,0.00025876,-0.00003768,0.00004841,-0.00006715,0.00011025
 ,0.00003874,-0.00008896,-0.00008504,0.00003658,-0.00004207,0.00000566,
 -0.00000195,0.00003590,-0.00005715,-0.00001016,0.00000179,-0.00000027,
 -0.00000794,0.00000212,-0.00000689,-0.00000035,0.00004489,0.00004420,-
 0.00001206,0.00000045,-0.00000034,-0.00000614,0.00000421,0.00000732,-0
 .00000904,-0.00001607,0.00000231,0.00003149,-0.00001416,-0.00000472,0.
 00000263,-0.00000927,0.00000556,0.00003057,-0.00001193,0.00000601,0.00
 000278,-0.00001062,-0.00000344,0.00001564,-0.00000218,-0.00000027,-0.0
 0000155,0.00000379,-0.00000029,-0.00053476,0.00035406,-0.00004555,0.41
 732140,-0.00379934,-0.00599781,0.00071693,-0.02071306,0.01157663,-0.00
 146397,0.00081319,0.00063999,-0.00006335,0.00005549,0.00006563,0.00000
 236,-0.00003414,-0.00002727,-0.00001938,-0.00037582,0.00133046,0.00001
 479,0.02815528,0.00931619,-0.00091820,0.00027140,-0.00043448,0.0000979
 6,-0.00000511,-0.00001972,0.00000604,0.00001083,-0.00001149,0.00000404
 ,0.00071446,-0.00626138,0.00046839,0.00094478,0.00041143,0.00003710,0.
 00017323,-0.00008092,0.00000560,-0.00022517,0.00011428,0.00000163,-0.0
 0031448,0.00002869,-0.00002499,-0.00044549,0.00002137,-0.00012456,-0.0
 0351141,0.00108885,-0.00028553,-0.00002088,0.00009519,-0.00000869,-0.0
 0002462,0.00004039,0.00000096,-0.00007594,0.00015888,-0.00001720,0.044
 45485,-0.07828330,0.00510543,0.00014831,-0.00047159,0.00001265,-0.0001
 9063,0.00045217,-0.00002307,0.00066847,-0.00067067,0.00002127,-0.00059
 394,0.00033318,-0.00006447,0.00017478,0.00022927,0.00002130,-0.0001288
 3,-0.00011893,-0.00000283,0.00003033,0.00012564,0.00018142,0.00003957,
 -0.00001588,0.00000449,-0.00003722,-0.00005517,0.00001951,0.00003214,-
 0.00003748,-0.00001039,0.00003417,-0.00004383,0.00000525,0.00000664,-0
 .00004350,-0.00000500,0.00001468,0.00002651,-0.00001670,0.00002468,0.0
 0000813,0.00000814,0.00003192,0.00001229,0.00000505,0.00003331,0.00000
 030,0.00000622,0.00016359,0.00025233,0.00001493,0.00563402,-0.00195819
 ,-0.00033102,0.00167910,0.00288733,-0.00007041,0.00713788,-0.00504525,
 0.00062594,-0.00028797,-0.00037498,0.00004990,-0.00009438,0.00008804,-
 0.00001615,0.00047297,0.00001215,-0.00002439,-0.00002568,0.00012913,-0
 .00000427,0.00001959,-0.00001488,0.00001498,0.00002122,-0.00002289,-0.
 00001405,-0.00000515,-0.00000571,0.00000054,-0.00000125,0.00000728,-0.
 00001087,-0.00000008,0.00000019,-0.00000150,-0.00000117,0.00000188,-0.
 00000094,-0.00000005,0.00001127,0.00001017,-0.00000011,0.00000198,0.00
 000115,-0.00000104,0.00000218,0.00000006,-0.00000150,-0.00000267,0.000
 00058,0.00000558,-0.00000233,-0.00000109,0.00000028,-0.00000207,0.0000
 0086,0.00000603,-0.00000249,0.00000105,-0.00000004,-0.00000219,-0.0000
 0028,0.00000286,-0.00000036,-0.00000019,-0.00000037,0.00000031,-0.0000
 0006,-0.00048498,0.00027168,-0.00002116,-0.05980186,0.07016241,0.00040
 525,0.00078277,0.00258835,0.00196470,-0.00156121,-0.00652881,0.0000314
 3,-0.00015611,-0.00138772,0.00003843,0.00000482,0.00003420,-0.00002404
 ,0.00000150,-0.00028238,0.00004586,-0.00003558,0.00140247,-0.00173054,
 -0.00105971,-0.00496451,0.00012144,0.00013179,-0.00038801,0.00000464,0
 .00000956,0.00008090,0.00000006,0.00000593,0.00004493,-0.00016694,0.00
 039004,0.00038947,-0.00007847,-0.00000153,0.00027217,-0.00000817,0.000
 00718,0.00000895,0.00001662,0.00000073,0.00015132,0.00001838,-0.000027
 19,-0.00027647,0.00003630,-0.00006784,-0.00157147,0.00023345,-0.000145
 30,-0.00081037,0.00000132,-0.00000648,-0.00001363,0.00000088,-0.000000
 92,0.00003243,0.00000527,-0.00001276,-0.00004113,-0.00385891,0.0053129
 0,-0.01476952,-0.00000491,0.00003506,-0.00000551,0.00001123,-0.0000474
 9,-0.00013826,-0.00003547,0.00002606,0.00003946,0.00002723,-0.00002080
 ,0.00001740,-0.00000934,-0.00001055,-0.00000444,0.00000596,0.00000409,
 0.00000577,0.00008366,0.00022231,0.00022907,-0.00000383,0.00000051,0.0
 0000487,0.00000311,0.00000309,0.00000211,0.00000145,-0.00000366,0.0000
 0078,-0.00000514,0.00000829,0.00000164,-0.00000060,0.00000236,-0.00000
 255,-0.00000099,-0.00000141,0.00000176,-0.00000226,-0.00000190,-0.0000
 0070,-0.00000147,0.00000030,-0.00000078,-0.00000240,0.00000001,0.00000
 020,-0.00001211,-0.00002098,-0.00000865,-0.00003415,-0.00035204,-0.003
 56933,-0.00011394,-0.00016366,0.00031590,-0.00047505,0.00067619,0.0056
 7410,0.00004116,0.00003763,0.00020850,0.00001163,-0.00001750,-0.000097
 64,-0.00003176,-0.00000608,-0.00023026,0.00000451,-0.00000339,0.000060
 76,-0.00001106,0.00001301,-0.00000866,0.00000597,-0.00001226,-0.000003
 73,0.00000049,0.00000044,-0.00000067,-0.00000098,-0.00000439,0.0000059
 2,0.00000040,-0.00000228,0.00000034,0.00000009,-0.00000137,-0.00000237
 ,0.00000182,0.00000397,0.00000345,-0.00000064,0.00000246,-0.00000092,0
 .00000006,0.00000018,-0.00000232,0.00000003,0.00000049,0.00000203,-0.0
 0000174,0.00000136,-0.00000110,0.00000041,0.00000030,0.00000025,0.0000
 0079,-0.00000129,-0.00000111,-0.00000050,0.00000022,0.00000038,-0.0000
 0027,-0.00000013,-0.00000129,0.00000005,-0.00000006,-0.00000034,0.0000
 1100,-0.00000261,0.00024359,0.00342352,-0.00395171,0.02298735,0.002331
 84,0.01117963,-0.00075565,0.00240233,-0.00132117,0.00007890,0.00119664
 ,0.00220941,-0.00019475,-0.00320796,-0.00023987,0.00006818,0.00035796,
 -0.00397401,0.00030229,-0.00595021,0.00492383,-0.00039119,-0.00503095,
 -0.00557656,0.00037568,0.00001045,-0.00017937,0.00001516,-0.00010705,0
 .00005220,-0.00000176,0.00006267,-0.00020338,0.00002690,-0.00012114,0.
 00036486,-0.00002747,0.00005204,-0.00004384,0.00000072,0.00000964,0.00
 017204,-0.00001089,0.00016596,-0.00002945,0.00000493,0.00000382,0.0000
 2951,-0.00001859,0.00010262,-0.00006093,0.00000483,-0.00002175,-0.0001
 1204,0.00000448,0.00002269,0.00000988,0.00000114,0.00000393,0.00004582
 ,-0.00000276,0.00019772,-0.00035766,0.00015023,0.00422721,-0.00275404,
 0.00016186,0.00002733,-0.00006994,0.00000211,-0.00007474,0.00011462,-0
 .00000537,0.00012086,-0.00017652,0.00001042,-0.00015030,0.00007679,-0.
 00001600,0.00003844,0.00006373,0.00000499,-0.00003923,-0.00003952,-0.0
 0000179,-0.00000443,0.00000974,-0.00000060,0.00000877,-0.00000371,0.00
 000089,-0.00001134,-0.00001413,0.00000369,0.00000450,-0.00000636,-0.00
 000027,0.00000471,-0.00000783,-0.00000050,0.00000456,-0.00000779,-0.00
 000108,0.00000110,0.00001100,-0.00000486,0.00000562,0.00000209,0.00000
 228,0.00000752,0.00000324,0.00000088,0.00000703,-0.00000123,0.00000155
 ,0.00003674,0.00005677,0.00000319,0.00030561,0.00002537,0.00000550,0.0
 0012132,0.00017095,-0.00000323,0.00189371,0.00047797,-0.00027649,0.018
 04341,-0.00862021,0.00067681,0.00101984,0.00345781,-0.00021403,-0.3126
 0343,-0.14139338,0.00996860,-0.01173627,-0.00772102,0.00042157,-0.0009
 5661,0.00109946,-0.00072908,-0.00097808,0.00144882,0.00064408,0.001540
 62,-0.00009907,0.00017694,-0.00001657,-0.00021614,0.00038908,0.0000255
 9,-0.00010259,-0.00007122,-0.00001602,-0.00007918,0.00003640,-0.000053
 85,-0.00035169,-0.00036929,0.00001532,-0.00008222,0.00009158,0.0000792
 6,0.00004082,-0.00007269,0.00008420,-0.00005427,0.00000158,-0.00006373
 ,0.00006839,-0.00002991,0.00001375,0.00000326,0.00001659,-0.00008096,0
 .00008391,0.00002193,0.00001542,-0.00000491,-0.00001919,0.00002792,-0.
 00000113,0.00000212,-0.00000842,-0.00000033,0.00000112,-0.00004475,-0.
 00002539,-0.00000079,-0.00040904,-0.00077388,0.00005706,0.30708619,0.0
 0459287,-0.00241305,0.00007392,0.00010188,-0.00063034,0.00007070,0.000
 22760,0.00038795,-0.00004093,-0.00057161,0.00017010,0.00000994,0.00000
 612,-0.00078315,0.00002679,-0.00125255,0.00132651,-0.00042143,0.000437
 44,0.00043485,-0.00009024,-0.00001973,0.00000268,-0.00000183,-0.000044
 91,0.00006298,0.00000430,0.00007959,0.00015481,-0.00001305,0.00011139,
 -0.00014673,0.00001103,-0.00000320,-0.00001107,0.00000323,0.00000300,-
 0.00006611,0.00000364,-0.00005301,-0.00003449,0.00000060,-0.00020063,0
 .00009241,-0.00001367,-0.00007785,-0.00009477,-0.00000733,0.00006500,0
 .00007281,-0.00000134,0.00000010,-0.00000352,0.00000040,-0.00000956,-0
 .00002823,0.00000194,0.00004660,-0.00031156,-0.00008467,-0.00089277,0.
 00016575,0.00002553,-0.00000339,0.00003108,-0.00000059,0.00000493,-0.0
 0001896,0.00000026,-0.00002407,0.00003503,-0.00000166,0.00003110,-0.00
 001209,0.00000313,-0.00000869,-0.00001518,-0.00000105,0.00001111,0.000
 00813,0.00000054,0.00000105,-0.00000126,0.,-0.00000171,0.00000086,-0.0
 0000019,0.00000168,0.00000220,-0.00000057,-0.00000027,0.00000124,-0.00
 000095,-0.00000030,0.00000144,0.00000104,-0.00000112,0.00000134,0.0000
 0016,-0.00000056,-0.00000283,0.00000127,-0.00000182,-0.00000043,-0.000
 00089,-0.00000231,-0.00000060,-0.00000008,-0.00000146,-0.00000004,-0.0
 0000033,-0.00000710,-0.00002646,-0.00000045,-0.00016776,0.00001020,-0.
 00000654,-0.00002068,-0.00008314,0.00000352,-0.00237815,-0.00546331,0.
 00026491,-0.03323594,-0.02325223,0.00189795,0.00184859,-0.00378934,0.0
 0102056,-0.13737524,-0.15494496,0.00829349,0.01481399,0.01377297,-0.00
 056939,0.00202853,-0.00126816,0.00097467,0.00215127,-0.00158239,-0.001
 04695,0.00074293,0.00043409,0.00009461,0.00009272,0.00023312,-0.000792
 74,-0.00006334,0.00006312,0.00006264,-0.00025252,-0.00013878,-0.000313
 17,0.00017431,0.00052731,0.00076220,0.00000179,0.00004816,-0.00001041,
 -0.00012100,0.00004091,0.00007252,-0.00019901,-0.00008680,0.00002701,0
 .00029451,-0.00017356,-0.00004672,0.00002417,-0.00007400,0.00001531,0.
 00033111,-0.00018342,0.00005796,0.00000946,-0.00008011,-0.00000281,0.0
 0006949,-0.00000427,-0.00000992,0.00001337,0.00003446,-0.00000534,0.00
 001055,0.00000771,0.00000018,0.00016119,0.00010378,0.00001461,0.148502
 84,0.17749733,-0.00047619,0.00024791,0.00029894,-0.00003077,0.00011858
 ,0.00049382,-0.00003566,-0.00005357,-0.00009241,0.00006582,0.00000627,
 0.00019084,-0.00002065,0.00003324,-0.00045073,0.00006193,-0.00065296,-
 0.00578704,0.00006139,0.00001893,-0.00081834,0.,0.00000148,-0.00002692
 ,0.00000386,0.00000664,0.00010396,-0.00000311,0.00000320,0.00007523,-0
 .00000090,-0.00000315,-0.00001763,-0.00000090,0.00000202,0.00001177,0.
 00000043,-0.00000177,-0.00000879,-0.00000277,0.00000327,0.00001854,0.0
 0001973,-0.00000561,-0.00006435,0.00000057,-0.00000390,-0.00016117,-0.
 00000292,-0.00000066,0.00000034,-0.00000079,0.00000021,0.00000415,0.00
 000056,0.00000068,0.00000024,0.00004431,-0.00009531,-0.00010508,-0.000
 03066,0.00005323,0.00024551,-0.00000037,0.00000172,0.00000090,0.000001
 12,-0.00000221,-0.00000172,-0.00000124,0.00000250,-0.00000099,0.000001
 92,-0.00000099,0.00000053,-0.00000044,-0.00000077,-0.00000049,0.000000
 61,0.00000020,0.00000026,-0.00000004,-0.00000011,0.00000135,-0.0000001
 8,0.00000006,0.00000036,0.00000018,0.00000022,0.00000048,-0.00000024,-
 0.00000023,-0.00000010,0.00000008,0.00000045,-0.00000006,-0.00000004,0
 .00000009,0.00000005,-0.00000006,-0.00000013,0.00000028,-0.00000023,-0
 .00000032,-0.00000008,0.00000002,0.00000017,-0.00000013,-0.00000016,0.
 00000004,0.00000010,-0.00000052,-0.00000121,-0.00000223,0.00000133,-0.
 00000044,-0.00000737,-0.00000228,0.00000019,-0.00000261,0.00002151,0.0
 0003162,-0.00481216,0.00246939,0.00230854,0.00392511,-0.00017652,0.000
 98102,0.00992329,0.01017989,0.00799388,-0.02972985,-0.00093694,-0.0006
 2956,0.00051136,0.00119638,-0.00079916,-0.00088896,-0.00181082,0.00088
 054,-0.00094602,0.00006764,0.00009619,0.00039743,0.00004955,-0.0002879
 6,-0.00015730,-0.00028459,0.00009729,0.00031892,-0.00007020,-0.0001033
 5,-0.00039088,-0.00008946,0.00008736,-0.00030655,0.00032766,-0.0000625
 6,0.00032680,-0.00001227,-0.00002959,0.00019504,0.00000127,0.00001252,
 -0.00003012,0.00002566,0.00000073,-0.00004818,0.00005120,-0.00000635,-
 0.00001283,-0.00009014,0.00001993,-0.00006250,-0.00004709,0.00002028,-
 0.00001329,-0.00000892,-0.00000242,-0.00001620,-0.00000033,-0.00000194
 ,0.00000322,0.00000042,0.00000059,0.00000527,0.00000083,0.00002975,0.0
 0030382,-0.01051682,-0.01031532,0.02760524\\0.00000160,-0.00000216,0.0
 0001483,0.00000259,-0.00000008,0.00002493,0.00000443,0.00000137,0.0000
 4268,0.00000521,0.00000069,0.00005046,0.00000431,-0.00000143,0.0000408
 3,0.00000246,-0.00000304,0.00002285,-0.00000036,-0.00000158,-0.0000027
 5,0.00000516,0.00000304,0.00005023,0.00000667,0.00000176,0.00006426,0.
 00000503,-0.00000202,0.00004725,-0.00000181,0.00000066,-0.00001684,-0.
 00000333,0.00000097,-0.00003196,-0.00000502,-0.00000099,-0.00004826,-0
 .00000503,-0.00000327,-0.00004914,-0.00000348,-0.00000354,-0.00003438,
 -0.00000184,-0.00000160,-0.00001801,-0.00000107,0.00000458,-0.00000874
 ,-0.00000622,-0.00000069,-0.00005968,-0.00000628,-0.00000483,-0.000061
 54,-0.00000355,-0.00000518,-0.00003556,0.00000140,0.00000023,0.0000132
 3,-0.00000104,0.00001078,-0.00000665,-0.00000007,0.00000754,0.00000159
 ,0.00000182,0.00000712,0.00001927,0.00000276,0.00001032,0.00002970,0.0
 0000186,0.00001395,0.00002192,0.00000002,0.00001428,0.00000440,0.00000
 248,0.00000448,0.00002517,0.00000263,0.00001637,0.00003010,0.00000480,
 0.00000991,0.00004882,0.00000561,-0.00000219,0.00005296,0.00000494,0.0
 0002028,0.00005327,0.00000540,0.00001132,0.00005509,-0.00000096,0.0000
 1795,-0.00000393,-0.00000227,0.00002831,-0.00001329,-0.00000136,0.0000
 0662,-0.00001098,-0.00000009,0.00002147,0.00000560,-0.00000270,0.00001
 100,-0.00002270,-0.00000031,0.00000273,-0.00000262,-0.00000289,0.00000
 354,-0.00002624,-0.00000005,-0.00000319,-0.00000222,0.00000159,-0.0000
 0530,0.00001328,0.00000230,-0.00000598,0.00002011,-0.00000013,-0.00000
 662,-0.00000333,-0.00000115,-0.00000885,-0.00001341,-0.00000148,0.0000
 0707,-0.00001192,-0.00000009,-0.00002532,-0.00000813,-0.00000247,-0.00
 001018,-0.00002671,-0.00000244,0.00000457,-0.00002216,-0.00000011,0.00
 000912,0.00000163,-0.00000228,0.00001844,-0.00001633,-0.00000110,-0.00
 002758,-0.00001843,0.00000134,-0.00002446,0.00000554,0.00000012,-0.000
 03640,-0.00000983,-0.00000137,-0.00001179,-0.00001677,-0.00000264,0.00
 001590,-0.00002046,-0.00000387,0.00000375,-0.00003584,-0.00000024,-0.0
 0003921,-0.00001410,-0.00000242,-0.00002963,-0.00003198,-0.00000214,-0
 .00001347,-0.00002449,-0.00000003,-0.00001046,-0.00000338,-0.00000360,
 0.00000509,-0.00003280,0.00000154,0.00000166,0.00001508,-0.00000079,-0
 .00000582,-0.00000953\\\@


 THOSE WITH THE GOLD MAKE THE RULES.

             -- PETER'S GOLDEN RULE
 Job cpu time:       0 days 17 hours  9 minutes 59.3 seconds.
 Elapsed time:       0 days  1 hours  4 minutes 38.9 seconds.
 File lengths (MBytes):  RWF=   5748 Int=      0 D2E=      0 Chk=     76 Scr=      8
 Normal termination of Gaussian 16 at Tue Dec 18 17:52:03 2018.
