 Entering Gaussian System, Link 0=g16
 Initial command:
 /gpfs/apps/hpc/Apps/Restricted/Gaussian/Rev_A.03/g16/l1.exe "/gpfs/scratch60/fas/hammes_schiffer/jg2487/c43n03/Gau-92947.inp" -scrdir="/gpfs/scratch60/fas/hammes_schiffer/jg2487/c43n03/"
 Entering Link 1 = /gpfs/apps/hpc/Apps/Restricted/Gaussian/Rev_A.03/g16/l1.exe PID=     92948.
  
 Copyright (c) 1988,1990,1992,1993,1995,1998,2003,2009,2016,
            Gaussian, Inc.  All Rights Reserved.
  
 This is part of the Gaussian(R) 16 program.  It is based on
 the Gaussian(R) 09 system (copyright 2009, Gaussian, Inc.),
 the Gaussian(R) 03 system (copyright 2003, Gaussian, Inc.),
 the Gaussian(R) 98 system (copyright 1998, Gaussian, Inc.),
 the Gaussian(R) 94 system (copyright 1995, Gaussian, Inc.),
 the Gaussian 92(TM) system (copyright 1992, Gaussian, Inc.),
 the Gaussian 90(TM) system (copyright 1990, Gaussian, Inc.),
 the Gaussian 88(TM) system (copyright 1988, Gaussian, Inc.),
 the Gaussian 86(TM) system (copyright 1986, Carnegie Mellon
 University), and the Gaussian 82(TM) system (copyright 1983,
 Carnegie Mellon University). Gaussian is a federally registered
 trademark of Gaussian, Inc.
  
 This software contains proprietary and confidential information,
 including trade secrets, belonging to Gaussian, Inc.
  
 This software is provided under written license and may be
 used, copied, transmitted, or stored only in accord with that
 written license.
  
 The following legend is applicable only to US Government
 contracts under FAR:
  
                    RESTRICTED RIGHTS LEGEND
  
 Use, reproduction and disclosure by the US Government is
 subject to restrictions as set forth in subparagraphs (a)
 and (c) of the Commercial Computer Software - Restricted
 Rights clause in FAR 52.227-19.
  
 Gaussian, Inc.
 340 Quinnipiac St., Bldg. 40, Wallingford CT 06492
  
  
 ---------------------------------------------------------------
 Warning -- This program may not be used in any manner that
 competes with the business of Gaussian, Inc. or will provide
 assistance to any competitor of Gaussian, Inc.  The licensee
 of this program is prohibited from giving any competitor of
 Gaussian, Inc. access to this program.  By using this program,
 the user acknowledges that Gaussian, Inc. is engaged in the
 business of creating and licensing software in the field of
 computational chemistry and represents and warrants to the
 licensee that it is not a competitor of Gaussian, Inc. and that
 it will not use this program in any manner prohibited above.
 ---------------------------------------------------------------
  

 Cite this work as:
 Gaussian 16, Revision A.03,
 M. J. Frisch, G. W. Trucks, H. B. Schlegel, G. E. Scuseria, 
 M. A. Robb, J. R. Cheeseman, G. Scalmani, V. Barone, 
 G. A. Petersson, H. Nakatsuji, X. Li, M. Caricato, A. V. Marenich, 
 J. Bloino, B. G. Janesko, R. Gomperts, B. Mennucci, H. P. Hratchian, 
 J. V. Ortiz, A. F. Izmaylov, J. L. Sonnenberg, D. Williams-Young, 
 F. Ding, F. Lipparini, F. Egidi, J. Goings, B. Peng, A. Petrone, 
 T. Henderson, D. Ranasinghe, V. G. Zakrzewski, J. Gao, N. Rega, 
 G. Zheng, W. Liang, M. Hada, M. Ehara, K. Toyota, R. Fukuda, 
 J. Hasegawa, M. Ishida, T. Nakajima, Y. Honda, O. Kitao, H. Nakai, 
 T. Vreven, K. Throssell, J. A. Montgomery, Jr., J. E. Peralta, 
 F. Ogliaro, M. J. Bearpark, J. J. Heyd, E. N. Brothers, K. N. Kudin, 
 V. N. Staroverov, T. A. Keith, R. Kobayashi, J. Normand, 
 K. Raghavachari, A. P. Rendell, J. C. Burant, S. S. Iyengar, 
 J. Tomasi, M. Cossi, J. M. Millam, M. Klene, C. Adamo, R. Cammi, 
 J. W. Ochterski, R. L. Martin, K. Morokuma, O. Farkas, 
 J. B. Foresman, and D. J. Fox, Gaussian, Inc., Wallingford CT, 2016.
 
 ******************************************
 Gaussian 16:  ES64L-G16RevA.03 25-Dec-2016
                20-Dec-2018 
 ******************************************
 %chk=cyclohexyl-diBIP-E3PT.chk
 %mem=10GB
 %nprocshared=16
 Will use up to   16 processors via shared memory.
 ----------------------------------------------------------------------
 #p opt=(calcall,tight) freq=internalmodes b3lyp/6-31g(d,p) scrf=(cpcm,
 solvent=dichloromethane,read) nosymm empiricaldispersion=gd3bj int=gri
 d=ultrafine
 ----------------------------------------------------------------------
 1/7=10,10=4,18=20,19=15,26=6,38=1,40=2/1,3;
 2/9=110,12=2,15=1,17=6,18=5,40=1/2;
 3/5=1,6=6,7=101,11=2,25=1,30=1,70=2103,71=2,72=9,74=-5,75=-5,124=41,140=1/1,2,3;
 4//1;
 5/5=2,38=5,53=9/2;
 8/6=4,10=90,11=11/1;
 11/6=1,8=1,9=11,15=111,16=1,31=1/1,2,10;
 10/6=1,31=1/2;
 6/7=2,8=2,9=2,10=2,18=1,28=1/1;
 7/10=1,25=1,30=1/1,2,3,16;
 1/7=10,10=4,18=20,19=15,26=6/3(3);
 2/9=110,15=1/2;
 7/8=21,9=1,25=1,30=1,44=-1/16;
 99//99;
 2/9=110,15=1/2;
 3/5=1,6=6,7=101,11=2,25=1,30=1,70=2105,71=2,72=9,74=-5,75=-5,124=41,140=1/1,2,3;
 4/5=5,16=3,69=1/1;
 5/5=2,38=5,53=9/2;
 8/6=4,10=90,11=11/1;
 11/6=1,8=1,9=11,15=111,16=1,31=1/1,2,10;
 10/6=1,31=1/2;
 7/10=1,25=1,30=1/1,2,3,16;
 1/7=10,10=4,18=20,19=15,26=6/3(-8);
 2/9=110,15=1/2;
 6/7=2,8=2,9=2,10=2,18=1,19=2,28=1/1;
 7/8=21,9=1,25=1,30=1,44=-1/16;
 99//99;
 Leave Link    1 at Thu Dec 20 18:11:15 2018, MaxMem=  1342177280 cpu:              10.4 elap:               0.7
 (Enter /gpfs/apps/hpc/Apps/Restricted/Gaussian/Rev_A.03/g16/l101.exe)
 ----------------------------------------------------------------------
 cyclohexylimine diBIP oxidized, all three proton transferred, optimiza
 tion
 ----------------------------------------------------------------------
 Symbolic Z-matrix:
 Charge =  1 Multiplicity = 2
 C                     1.53135   1.16625   0.05706 
 C                     0.3305    1.91695   0.01362 
 C                     0.32584   3.30324  -0.09857 
 C                     1.56588   3.9496   -0.17234 
 C                     2.76447   3.23497  -0.12875 
 C                     2.77824   1.83071  -0.01464 
 C                    -0.07657  -0.25754   0.17658 
 H                    -0.59983   3.86379  -0.13126 
 H                     1.59545   5.02807  -0.26151 
 H                     3.70769   3.76575  -0.18531 
 C                    -2.27493  -1.42611   0.23469 
 C                    -3.02429  -2.63044   0.28284 
 C                    -2.41973  -3.88406   0.37431 
 C                    -1.02598  -3.9092    0.40693 
 C                    -0.26206  -2.73283   0.34564 
 C                    -0.86182  -1.47317   0.25881 
 C                    -4.35383  -0.85837   0.14246 
 H                    -3.00422  -4.79459   0.41274 
 H                    -0.51588  -4.86231   0.47543 
 H                     0.81886  -2.79144   0.36249 
 N                    -0.66788   0.97226   0.09743 
 C                    -6.87318  -0.77437  -0.08663 
 C                    -5.58062  -0.09093   0.04401 
 C                    -5.53452   1.2923    0.061 
 C                    -6.70058   2.0705   -0.06143 
 C                    -7.94981   1.42383  -0.21291 
 C                    -8.06835   0.05298  -0.22988 
 H                    -4.57478   1.78334   0.17226 
 H                    -8.84118   2.03477  -0.30965 
 C                    -6.61159   3.56628  -0.03779 
 C                    -9.38545  -0.63988  -0.37509 
 O                    -6.97329  -2.02962  -0.07853 
 N                    -3.1192   -0.34228   0.15384 
 N                    -4.33539  -2.22428   0.22109 
 N                     1.26116  -0.17423   0.15923 
 C                     4.01718   1.12223   0.03418 
 H                     4.94427   1.68444  -0.0047 
 N                     4.10121  -0.17157   0.12829 
 C                     5.37289  -0.92352   0.17405 
 C                     6.13523  -0.77961  -1.15036 
 C                     6.22476  -0.48044   1.37075 
 H                     5.08105  -1.96652   0.30875 
 C                     7.46656  -1.53703  -1.09478 
 H                     6.32751   0.28461  -1.32991 
 H                     5.51433  -1.14332  -1.97309 
 C                     7.55275  -1.24448   1.40918 
 H                     6.42874   0.59267   1.28079 
 H                     5.66004  -0.62972   2.29427 
 C                     8.322    -1.08805   0.09404 
 H                     8.00495  -1.38883  -2.03486 
 H                     7.26687  -2.61199  -1.00879 
 H                     8.14947  -0.88716   2.25317 
 H                     7.35362  -2.30816   1.58807 
 H                     9.25105  -1.66436   0.12825 
 H                     8.6026   -0.03582  -0.03867 
 H                    -5.19635  -2.7632    0.1898 
 H                    -1.68164   1.08548   0.08965 
 H                     3.21216  -0.68417   0.16424 
 C                    -5.82714   4.07904  -1.2598 
 H                    -6.21244   5.03209  -1.55671 
 H                    -4.79265   4.17642  -1.00435 
 H                    -5.93128   3.3849   -2.0674 
 C                    -8.0084    4.21466  -0.04792 
 H                    -8.51154   3.96368  -0.95828 
 H                    -8.57546   3.85318   0.78435 
 H                    -7.90872   5.27764   0.02314 
 C                    -5.8498    4.04546   1.21187 
 H                    -6.18349   3.49432   2.06615 
 H                    -4.80079   3.88704   1.07269 
 H                    -6.03584   5.08797   1.36506 
 C                    -9.34143  -1.6676   -1.52115 
 H                    -9.09915  -2.63208  -1.12621 
 H                    -10.29713  -1.70832  -2.00061 
 H                    -8.59743  -1.37647  -2.23291 
 C                    -10.51     0.37647  -0.64717 
 H                    -10.59603   1.04433   0.18437 
 H                    -10.28022   0.93464  -1.53065 
 H                    -11.43512  -0.14341  -0.78428 
 C                    -9.73106  -1.42505   0.90384 
 H                    -10.79397  -1.47063   1.01809 
 H                    -9.33734  -2.41727   0.83055 
 H                    -9.30201  -0.93278   1.75147 
 
 ITRead=  0  0  0  0  0  0  0  0  0  0  0  0  0  0  0  0  0  0  0  0
 ITRead=  0  0  0  0  0  0  0  0  0  0  0  0  0  0  0  0  0  0  0  0
 ITRead=  0  0  0  0  0  0  0  0  0  0  0  0  0  0  0  0  0  0  0  0
 ITRead=  0  0  0  0  0  0  0  0  0  0  0  0  0  0  0  0  0  0  0  0
 ITRead=  0  0
 MicOpt= -1 -1 -1 -1 -1 -1 -1 -1 -1 -1 -1 -1 -1 -1 -1 -1 -1 -1 -1 -1
 MicOpt= -1 -1 -1 -1 -1 -1 -1 -1 -1 -1 -1 -1 -1 -1 -1 -1 -1 -1 -1 -1
 MicOpt= -1 -1 -1 -1 -1 -1 -1 -1 -1 -1 -1 -1 -1 -1 -1 -1 -1 -1 -1 -1
 MicOpt= -1 -1 -1 -1 -1 -1 -1 -1 -1 -1 -1 -1 -1 -1 -1 -1 -1 -1 -1 -1
 MicOpt= -1 -1
 NAtoms=     82 NQM=       82 NQMF=       0 NMMI=      0 NMMIF=      0
                NMic=       0 NMicF=      0.
                    Isotopes and Nuclear Properties:
 (Nuclear quadrupole moments (NQMom) in fm**2, nuclear magnetic moments (NMagM)
  in nuclear magnetons)

  Atom         1           2           3           4           5           6           7           8           9          10
 IAtWgt=          12          12          12          12          12          12          12           1           1           1
 AtmWgt=  12.0000000  12.0000000  12.0000000  12.0000000  12.0000000  12.0000000  12.0000000   1.0078250   1.0078250   1.0078250
 NucSpn=           0           0           0           0           0           0           0           1           1           1
 AtZEff=  -0.0000000  -0.0000000  -0.0000000  -0.0000000  -0.0000000  -0.0000000  -0.0000000  -0.0000000  -0.0000000  -0.0000000
 NQMom=    0.0000000   0.0000000   0.0000000   0.0000000   0.0000000   0.0000000   0.0000000   0.0000000   0.0000000   0.0000000
 NMagM=    0.0000000   0.0000000   0.0000000   0.0000000   0.0000000   0.0000000   0.0000000   2.7928460   2.7928460   2.7928460
 AtZNuc=   6.0000000   6.0000000   6.0000000   6.0000000   6.0000000   6.0000000   6.0000000   1.0000000   1.0000000   1.0000000

  Atom        11          12          13          14          15          16          17          18          19          20
 IAtWgt=          12          12          12          12          12          12          12           1           1           1
 AtmWgt=  12.0000000  12.0000000  12.0000000  12.0000000  12.0000000  12.0000000  12.0000000   1.0078250   1.0078250   1.0078250
 NucSpn=           0           0           0           0           0           0           0           1           1           1
 AtZEff=  -0.0000000  -0.0000000  -0.0000000  -0.0000000  -0.0000000  -0.0000000  -0.0000000  -0.0000000  -0.0000000  -0.0000000
 NQMom=    0.0000000   0.0000000   0.0000000   0.0000000   0.0000000   0.0000000   0.0000000   0.0000000   0.0000000   0.0000000
 NMagM=    0.0000000   0.0000000   0.0000000   0.0000000   0.0000000   0.0000000   0.0000000   2.7928460   2.7928460   2.7928460
 AtZNuc=   6.0000000   6.0000000   6.0000000   6.0000000   6.0000000   6.0000000   6.0000000   1.0000000   1.0000000   1.0000000

  Atom        21          22          23          24          25          26          27          28          29          30
 IAtWgt=          14          12          12          12          12          12          12           1           1          12
 AtmWgt=  14.0030740  12.0000000  12.0000000  12.0000000  12.0000000  12.0000000  12.0000000   1.0078250   1.0078250  12.0000000
 NucSpn=           2           0           0           0           0           0           0           1           1           0
 AtZEff=  -0.0000000  -0.0000000  -0.0000000  -0.0000000  -0.0000000  -0.0000000  -0.0000000  -0.0000000  -0.0000000  -0.0000000
 NQMom=    2.0440000   0.0000000   0.0000000   0.0000000   0.0000000   0.0000000   0.0000000   0.0000000   0.0000000   0.0000000
 NMagM=    0.4037610   0.0000000   0.0000000   0.0000000   0.0000000   0.0000000   0.0000000   2.7928460   2.7928460   0.0000000
 AtZNuc=   7.0000000   6.0000000   6.0000000   6.0000000   6.0000000   6.0000000   6.0000000   1.0000000   1.0000000   6.0000000

  Atom        31          32          33          34          35          36          37          38          39          40
 IAtWgt=          12          16          14          14          14          12           1          14          12          12
 AtmWgt=  12.0000000  15.9949146  14.0030740  14.0030740  14.0030740  12.0000000   1.0078250  14.0030740  12.0000000  12.0000000
 NucSpn=           0           0           2           2           2           0           1           2           0           0
 AtZEff=  -0.0000000  -0.0000000  -0.0000000  -0.0000000  -0.0000000  -0.0000000  -0.0000000  -0.0000000  -0.0000000  -0.0000000
 NQMom=    0.0000000   0.0000000   2.0440000   2.0440000   2.0440000   0.0000000   0.0000000   2.0440000   0.0000000   0.0000000
 NMagM=    0.0000000   0.0000000   0.4037610   0.4037610   0.4037610   0.0000000   2.7928460   0.4037610   0.0000000   0.0000000
 AtZNuc=   6.0000000   8.0000000   7.0000000   7.0000000   7.0000000   6.0000000   1.0000000   7.0000000   6.0000000   6.0000000

  Atom        41          42          43          44          45          46          47          48          49          50
 IAtWgt=          12           1          12           1           1          12           1           1          12           1
 AtmWgt=  12.0000000   1.0078250  12.0000000   1.0078250   1.0078250  12.0000000   1.0078250   1.0078250  12.0000000   1.0078250
 NucSpn=           0           1           0           1           1           0           1           1           0           1
 AtZEff=  -0.0000000  -0.0000000  -0.0000000  -0.0000000  -0.0000000  -0.0000000  -0.0000000  -0.0000000  -0.0000000  -0.0000000
 NQMom=    0.0000000   0.0000000   0.0000000   0.0000000   0.0000000   0.0000000   0.0000000   0.0000000   0.0000000   0.0000000
 NMagM=    0.0000000   2.7928460   0.0000000   2.7928460   2.7928460   0.0000000   2.7928460   2.7928460   0.0000000   2.7928460
 AtZNuc=   6.0000000   1.0000000   6.0000000   1.0000000   1.0000000   6.0000000   1.0000000   1.0000000   6.0000000   1.0000000

  Atom        51          52          53          54          55          56          57          58          59          60
 IAtWgt=           1           1           1           1           1           1           1           1          12           1
 AtmWgt=   1.0078250   1.0078250   1.0078250   1.0078250   1.0078250   1.0078250   1.0078250   1.0078250  12.0000000   1.0078250
 NucSpn=           1           1           1           1           1           1           1           1           0           1
 AtZEff=  -0.0000000  -0.0000000  -0.0000000  -0.0000000  -0.0000000  -0.0000000  -0.0000000  -0.0000000  -0.0000000  -0.0000000
 NQMom=    0.0000000   0.0000000   0.0000000   0.0000000   0.0000000   0.0000000   0.0000000   0.0000000   0.0000000   0.0000000
 NMagM=    2.7928460   2.7928460   2.7928460   2.7928460   2.7928460   2.7928460   2.7928460   2.7928460   0.0000000   2.7928460
 AtZNuc=   1.0000000   1.0000000   1.0000000   1.0000000   1.0000000   1.0000000   1.0000000   1.0000000   6.0000000   1.0000000

  Atom        61          62          63          64          65          66          67          68          69          70
 IAtWgt=           1           1          12           1           1           1          12           1           1           1
 AtmWgt=   1.0078250   1.0078250  12.0000000   1.0078250   1.0078250   1.0078250  12.0000000   1.0078250   1.0078250   1.0078250
 NucSpn=           1           1           0           1           1           1           0           1           1           1
 AtZEff=  -0.0000000  -0.0000000  -0.0000000  -0.0000000  -0.0000000  -0.0000000  -0.0000000  -0.0000000  -0.0000000  -0.0000000
 NQMom=    0.0000000   0.0000000   0.0000000   0.0000000   0.0000000   0.0000000   0.0000000   0.0000000   0.0000000   0.0000000
 NMagM=    2.7928460   2.7928460   0.0000000   2.7928460   2.7928460   2.7928460   0.0000000   2.7928460   2.7928460   2.7928460
 AtZNuc=   1.0000000   1.0000000   6.0000000   1.0000000   1.0000000   1.0000000   6.0000000   1.0000000   1.0000000   1.0000000

  Atom        71          72          73          74          75          76          77          78          79          80
 IAtWgt=          12           1           1           1          12           1           1           1          12           1
 AtmWgt=  12.0000000   1.0078250   1.0078250   1.0078250  12.0000000   1.0078250   1.0078250   1.0078250  12.0000000   1.0078250
 NucSpn=           0           1           1           1           0           1           1           1           0           1
 AtZEff=  -0.0000000  -0.0000000  -0.0000000  -0.0000000  -0.0000000  -0.0000000  -0.0000000  -0.0000000  -0.0000000  -0.0000000
 NQMom=    0.0000000   0.0000000   0.0000000   0.0000000   0.0000000   0.0000000   0.0000000   0.0000000   0.0000000   0.0000000
 NMagM=    0.0000000   2.7928460   2.7928460   2.7928460   0.0000000   2.7928460   2.7928460   2.7928460   0.0000000   2.7928460
 AtZNuc=   6.0000000   1.0000000   1.0000000   1.0000000   6.0000000   1.0000000   1.0000000   1.0000000   6.0000000   1.0000000

  Atom        81          82
 IAtWgt=           1           1
 AtmWgt=   1.0078250   1.0078250
 NucSpn=           1           1
 AtZEff=  -0.0000000  -0.0000000
 NQMom=    0.0000000   0.0000000
 NMagM=    2.7928460   2.7928460
 AtZNuc=   1.0000000   1.0000000
 Leave Link  101 at Thu Dec 20 18:11:16 2018, MaxMem=  1342177280 cpu:               4.4 elap:               0.3
 (Enter /gpfs/apps/hpc/Apps/Restricted/Gaussian/Rev_A.03/g16/l103.exe)

 GradGradGradGradGradGradGradGradGradGradGradGradGradGradGradGradGradGrad
 Berny optimization.
 Initialization pass.
                           ----------------------------
                           !    Initial Parameters    !
                           ! (Angstroms and Degrees)  !
 --------------------------                            --------------------------
 ! Name  Definition              Value          Derivative Info.                !
 --------------------------------------------------------------------------------
 ! R1    R(1,2)                  1.4169         calculate D2E/DX2 analytically  !
 ! R2    R(1,6)                  1.4147         calculate D2E/DX2 analytically  !
 ! R3    R(1,35)                 1.3713         calculate D2E/DX2 analytically  !
 ! R4    R(2,3)                  1.3908         calculate D2E/DX2 analytically  !
 ! R5    R(2,21)                 1.377          calculate D2E/DX2 analytically  !
 ! R6    R(3,4)                  1.4003         calculate D2E/DX2 analytically  !
 ! R7    R(3,8)                  1.0826         calculate D2E/DX2 analytically  !
 ! R8    R(4,5)                  1.3961         calculate D2E/DX2 analytically  !
 ! R9    R(4,9)                  1.0826         calculate D2E/DX2 analytically  !
 ! R10   R(5,6)                  1.409          calculate D2E/DX2 analytically  !
 ! R11   R(5,10)                 1.0838         calculate D2E/DX2 analytically  !
 ! R12   R(6,36)                 1.428          calculate D2E/DX2 analytically  !
 ! R13   R(7,16)                 1.4495         calculate D2E/DX2 analytically  !
 ! R14   R(7,21)                 1.3669         calculate D2E/DX2 analytically  !
 ! R15   R(7,35)                 1.3404         calculate D2E/DX2 analytically  !
 ! R16   R(11,12)                1.4193         calculate D2E/DX2 analytically  !
 ! R17   R(11,16)                1.4141         calculate D2E/DX2 analytically  !
 ! R18   R(11,33)                1.3762         calculate D2E/DX2 analytically  !
 ! R19   R(12,13)                1.3948         calculate D2E/DX2 analytically  !
 ! R20   R(12,34)                1.374          calculate D2E/DX2 analytically  !
 ! R21   R(13,14)                1.3943         calculate D2E/DX2 analytically  !
 ! R22   R(13,18)                1.0827         calculate D2E/DX2 analytically  !
 ! R23   R(14,15)                1.404          calculate D2E/DX2 analytically  !
 ! R24   R(14,19)                1.0832         calculate D2E/DX2 analytically  !
 ! R25   R(15,16)                1.3979         calculate D2E/DX2 analytically  !
 ! R26   R(15,20)                1.0826         calculate D2E/DX2 analytically  !
 ! R27   R(17,23)                1.4504         calculate D2E/DX2 analytically  !
 ! R28   R(17,33)                1.3382         calculate D2E/DX2 analytically  !
 ! R29   R(17,34)                1.3683         calculate D2E/DX2 analytically  !
 ! R30   R(21,57)                1.0201         calculate D2E/DX2 analytically  !
 ! R31   R(22,23)                1.4679         calculate D2E/DX2 analytically  !
 ! R32   R(22,27)                1.4606         calculate D2E/DX2 analytically  !
 ! R33   R(22,32)                1.2593         calculate D2E/DX2 analytically  !
 ! R34   R(23,24)                1.3841         calculate D2E/DX2 analytically  !
 ! R35   R(24,25)                1.4072         calculate D2E/DX2 analytically  !
 ! R36   R(24,28)                1.0838         calculate D2E/DX2 analytically  !
 ! R37   R(25,26)                1.4148         calculate D2E/DX2 analytically  !
 ! R38   R(25,30)                1.4986         calculate D2E/DX2 analytically  !
 ! R39   R(26,27)                1.3761         calculate D2E/DX2 analytically  !
 ! R40   R(26,29)                1.085          calculate D2E/DX2 analytically  !
 ! R41   R(27,31)                1.4953         calculate D2E/DX2 analytically  !
 ! R42   R(30,59)                1.54           calculate D2E/DX2 analytically  !
 ! R43   R(30,63)                1.54           calculate D2E/DX2 analytically  !
 ! R44   R(30,67)                1.54           calculate D2E/DX2 analytically  !
 ! R45   R(31,71)                1.54           calculate D2E/DX2 analytically  !
 ! R46   R(31,75)                1.54           calculate D2E/DX2 analytically  !
 ! R47   R(31,79)                1.54           calculate D2E/DX2 analytically  !
 ! R48   R(34,56)                1.0162         calculate D2E/DX2 analytically  !
 ! R49   R(36,37)                1.0849         calculate D2E/DX2 analytically  !
 ! R50   R(36,38)                1.2999         calculate D2E/DX2 analytically  !
 ! R51   R(38,39)                1.4781         calculate D2E/DX2 analytically  !
 ! R52   R(38,58)                1.0269         calculate D2E/DX2 analytically  !
 ! R53   R(39,40)                1.5349         calculate D2E/DX2 analytically  !
 ! R54   R(39,41)                1.5343         calculate D2E/DX2 analytically  !
 ! R55   R(39,42)                1.0914         calculate D2E/DX2 analytically  !
 ! R56   R(40,43)                1.5327         calculate D2E/DX2 analytically  !
 ! R57   R(40,44)                1.0962         calculate D2E/DX2 analytically  !
 ! R58   R(40,45)                1.093          calculate D2E/DX2 analytically  !
 ! R59   R(41,46)                1.5326         calculate D2E/DX2 analytically  !
 ! R60   R(41,47)                1.096          calculate D2E/DX2 analytically  !
 ! R61   R(41,48)                1.0927         calculate D2E/DX2 analytically  !
 ! R62   R(43,49)                1.5319         calculate D2E/DX2 analytically  !
 ! R63   R(43,50)                1.0934         calculate D2E/DX2 analytically  !
 ! R64   R(43,51)                1.0967         calculate D2E/DX2 analytically  !
 ! R65   R(46,49)                1.5316         calculate D2E/DX2 analytically  !
 ! R66   R(46,52)                1.0937         calculate D2E/DX2 analytically  !
 ! R67   R(46,53)                1.0969         calculate D2E/DX2 analytically  !
 ! R68   R(49,54)                1.0938         calculate D2E/DX2 analytically  !
 ! R69   R(49,55)                1.0971         calculate D2E/DX2 analytically  !
 ! R70   R(59,60)                1.07           calculate D2E/DX2 analytically  !
 ! R71   R(59,61)                1.07           calculate D2E/DX2 analytically  !
 ! R72   R(59,62)                1.07           calculate D2E/DX2 analytically  !
 ! R73   R(63,64)                1.07           calculate D2E/DX2 analytically  !
 ! R74   R(63,65)                1.07           calculate D2E/DX2 analytically  !
 ! R75   R(63,66)                1.07           calculate D2E/DX2 analytically  !
 ! R76   R(67,68)                1.07           calculate D2E/DX2 analytically  !
 ! R77   R(67,69)                1.07           calculate D2E/DX2 analytically  !
 ! R78   R(67,70)                1.07           calculate D2E/DX2 analytically  !
 ! R79   R(71,72)                1.07           calculate D2E/DX2 analytically  !
 ! R80   R(71,73)                1.07           calculate D2E/DX2 analytically  !
 ! R81   R(71,74)                1.07           calculate D2E/DX2 analytically  !
 ! R82   R(75,76)                1.07           calculate D2E/DX2 analytically  !
 ! R83   R(75,77)                1.07           calculate D2E/DX2 analytically  !
 ! R84   R(75,78)                1.07           calculate D2E/DX2 analytically  !
 ! R85   R(79,80)                1.07           calculate D2E/DX2 analytically  !
 ! R86   R(79,81)                1.07           calculate D2E/DX2 analytically  !
 ! R87   R(79,82)                1.07           calculate D2E/DX2 analytically  !
 ! A1    A(2,1,6)              119.7756         calculate D2E/DX2 analytically  !
 ! A2    A(2,1,35)             110.6849         calculate D2E/DX2 analytically  !
 ! A3    A(6,1,35)             129.5376         calculate D2E/DX2 analytically  !
 ! A4    A(1,2,3)              122.2369         calculate D2E/DX2 analytically  !
 ! A5    A(1,2,21)             104.4263         calculate D2E/DX2 analytically  !
 ! A6    A(3,2,21)             133.3359         calculate D2E/DX2 analytically  !
 ! A7    A(2,3,4)              117.474          calculate D2E/DX2 analytically  !
 ! A8    A(2,3,8)              121.4236         calculate D2E/DX2 analytically  !
 ! A9    A(4,3,8)              121.1021         calculate D2E/DX2 analytically  !
 ! A10   A(3,4,5)              121.4888         calculate D2E/DX2 analytically  !
 ! A11   A(3,4,9)              119.2325         calculate D2E/DX2 analytically  !
 ! A12   A(5,4,9)              119.2784         calculate D2E/DX2 analytically  !
 ! A13   A(4,5,6)              121.4042         calculate D2E/DX2 analytically  !
 ! A14   A(4,5,10)             119.6594         calculate D2E/DX2 analytically  !
 ! A15   A(6,5,10)             118.9363         calculate D2E/DX2 analytically  !
 ! A16   A(1,6,5)              117.6199         calculate D2E/DX2 analytically  !
 ! A17   A(1,6,36)             122.0002         calculate D2E/DX2 analytically  !
 ! A18   A(5,6,36)             120.3786         calculate D2E/DX2 analytically  !
 ! A19   A(16,7,21)            121.5658         calculate D2E/DX2 analytically  !
 ! A20   A(16,7,35)            126.405          calculate D2E/DX2 analytically  !
 ! A21   A(21,7,35)            112.0281         calculate D2E/DX2 analytically  !
 ! A22   A(12,11,16)           119.9212         calculate D2E/DX2 analytically  !
 ! A23   A(12,11,33)           110.265          calculate D2E/DX2 analytically  !
 ! A24   A(16,11,33)           129.8102         calculate D2E/DX2 analytically  !
 ! A25   A(11,12,13)           122.415          calculate D2E/DX2 analytically  !
 ! A26   A(11,12,34)           104.5645         calculate D2E/DX2 analytically  !
 ! A27   A(13,12,34)           133.0205         calculate D2E/DX2 analytically  !
 ! A28   A(12,13,14)           116.8079         calculate D2E/DX2 analytically  !
 ! A29   A(12,13,18)           121.6148         calculate D2E/DX2 analytically  !
 ! A30   A(14,13,18)           121.5765         calculate D2E/DX2 analytically  !
 ! A31   A(13,14,15)           121.8529         calculate D2E/DX2 analytically  !
 ! A32   A(13,14,19)           119.2137         calculate D2E/DX2 analytically  !
 ! A33   A(15,14,19)           118.9323         calculate D2E/DX2 analytically  !
 ! A34   A(14,15,16)           121.6214         calculate D2E/DX2 analytically  !
 ! A35   A(14,15,20)           119.815          calculate D2E/DX2 analytically  !
 ! A36   A(16,15,20)           118.5634         calculate D2E/DX2 analytically  !
 ! A37   A(7,16,11)            120.8284         calculate D2E/DX2 analytically  !
 ! A38   A(7,16,15)            121.7911         calculate D2E/DX2 analytically  !
 ! A39   A(11,16,15)           117.3746         calculate D2E/DX2 analytically  !
 ! A40   A(23,17,33)           125.2317         calculate D2E/DX2 analytically  !
 ! A41   A(23,17,34)           122.922          calculate D2E/DX2 analytically  !
 ! A42   A(33,17,34)           111.8427         calculate D2E/DX2 analytically  !
 ! A43   A(2,21,7)             107.8859         calculate D2E/DX2 analytically  !
 ! A44   A(2,21,57)            130.0837         calculate D2E/DX2 analytically  !
 ! A45   A(7,21,57)            122.0205         calculate D2E/DX2 analytically  !
 ! A46   A(23,22,27)           117.7429         calculate D2E/DX2 analytically  !
 ! A47   A(23,22,32)           122.2435         calculate D2E/DX2 analytically  !
 ! A48   A(27,22,32)           120.0136         calculate D2E/DX2 analytically  !
 ! A49   A(17,23,22)           120.2961         calculate D2E/DX2 analytically  !
 ! A50   A(17,23,24)           119.9851         calculate D2E/DX2 analytically  !
 ! A51   A(22,23,24)           119.7162         calculate D2E/DX2 analytically  !
 ! A52   A(23,24,25)           121.6            calculate D2E/DX2 analytically  !
 ! A53   A(23,24,28)           118.9176         calculate D2E/DX2 analytically  !
 ! A54   A(25,24,28)           119.4823         calculate D2E/DX2 analytically  !
 ! A55   A(24,25,26)           119.2218         calculate D2E/DX2 analytically  !
 ! A56   A(24,25,30)           120.0915         calculate D2E/DX2 analytically  !
 ! A57   A(26,25,30)           120.6859         calculate D2E/DX2 analytically  !
 ! A58   A(25,26,27)           122.1897         calculate D2E/DX2 analytically  !
 ! A59   A(25,26,29)           118.5273         calculate D2E/DX2 analytically  !
 ! A60   A(27,26,29)           119.2808         calculate D2E/DX2 analytically  !
 ! A61   A(22,27,26)           119.5104         calculate D2E/DX2 analytically  !
 ! A62   A(22,27,31)           117.8924         calculate D2E/DX2 analytically  !
 ! A63   A(26,27,31)           122.5936         calculate D2E/DX2 analytically  !
 ! A64   A(25,30,59)           110.4915         calculate D2E/DX2 analytically  !
 ! A65   A(25,30,63)           111.4858         calculate D2E/DX2 analytically  !
 ! A66   A(25,30,67)           110.6553         calculate D2E/DX2 analytically  !
 ! A67   A(59,30,63)           108.4585         calculate D2E/DX2 analytically  !
 ! A68   A(59,30,67)           106.7583         calculate D2E/DX2 analytically  !
 ! A69   A(63,30,67)           108.8444         calculate D2E/DX2 analytically  !
 ! A70   A(27,31,71)           110.8742         calculate D2E/DX2 analytically  !
 ! A71   A(27,31,75)           110.7672         calculate D2E/DX2 analytically  !
 ! A72   A(27,31,79)           110.6874         calculate D2E/DX2 analytically  !
 ! A73   A(71,31,75)           109.258          calculate D2E/DX2 analytically  !
 ! A74   A(71,31,79)           106.5106         calculate D2E/DX2 analytically  !
 ! A75   A(75,31,79)           108.6222         calculate D2E/DX2 analytically  !
 ! A76   A(11,33,17)           105.2342         calculate D2E/DX2 analytically  !
 ! A77   A(12,34,17)           108.0919         calculate D2E/DX2 analytically  !
 ! A78   A(12,34,56)           130.7751         calculate D2E/DX2 analytically  !
 ! A79   A(17,34,56)           121.0781         calculate D2E/DX2 analytically  !
 ! A80   A(1,35,7)             104.973          calculate D2E/DX2 analytically  !
 ! A81   A(6,36,37)            118.8849         calculate D2E/DX2 analytically  !
 ! A82   A(6,36,38)            123.5269         calculate D2E/DX2 analytically  !
 ! A83   A(37,36,38)           117.5877         calculate D2E/DX2 analytically  !
 ! A84   A(36,38,39)           124.3459         calculate D2E/DX2 analytically  !
 ! A85   A(36,38,58)           116.3212         calculate D2E/DX2 analytically  !
 ! A86   A(39,38,58)           119.331          calculate D2E/DX2 analytically  !
 ! A87   A(38,39,40)           110.6651         calculate D2E/DX2 analytically  !
 ! A88   A(38,39,41)           110.7888         calculate D2E/DX2 analytically  !
 ! A89   A(38,39,42)           105.0661         calculate D2E/DX2 analytically  !
 ! A90   A(40,39,41)           111.7256         calculate D2E/DX2 analytically  !
 ! A91   A(40,39,42)           109.2021         calculate D2E/DX2 analytically  !
 ! A92   A(41,39,42)           109.1582         calculate D2E/DX2 analytically  !
 ! A93   A(39,40,43)           110.7189         calculate D2E/DX2 analytically  !
 ! A94   A(39,40,44)           108.6303         calculate D2E/DX2 analytically  !
 ! A95   A(39,40,45)           109.6422         calculate D2E/DX2 analytically  !
 ! A96   A(43,40,44)           109.4706         calculate D2E/DX2 analytically  !
 ! A97   A(43,40,45)           110.8717         calculate D2E/DX2 analytically  !
 ! A98   A(44,40,45)           107.4211         calculate D2E/DX2 analytically  !
 ! A99   A(39,41,46)           110.8971         calculate D2E/DX2 analytically  !
 ! A100  A(39,41,47)           108.787          calculate D2E/DX2 analytically  !
 ! A101  A(39,41,48)           109.4384         calculate D2E/DX2 analytically  !
 ! A102  A(46,41,47)           109.2025         calculate D2E/DX2 analytically  !
 ! A103  A(46,41,48)           111.009          calculate D2E/DX2 analytically  !
 ! A104  A(47,41,48)           107.4155         calculate D2E/DX2 analytically  !
 ! A105  A(40,43,49)           111.6147         calculate D2E/DX2 analytically  !
 ! A106  A(40,43,50)           109.2404         calculate D2E/DX2 analytically  !
 ! A107  A(40,43,51)           109.2118         calculate D2E/DX2 analytically  !
 ! A108  A(49,43,50)           110.6415         calculate D2E/DX2 analytically  !
 ! A109  A(49,43,51)           109.1538         calculate D2E/DX2 analytically  !
 ! A110  A(50,43,51)           106.8526         calculate D2E/DX2 analytically  !
 ! A111  A(41,46,49)           111.2698         calculate D2E/DX2 analytically  !
 ! A112  A(41,46,52)           109.2237         calculate D2E/DX2 analytically  !
 ! A113  A(41,46,53)           109.2828         calculate D2E/DX2 analytically  !
 ! A114  A(49,46,52)           110.8085         calculate D2E/DX2 analytically  !
 ! A115  A(49,46,53)           109.2852         calculate D2E/DX2 analytically  !
 ! A116  A(52,46,53)           106.8599         calculate D2E/DX2 analytically  !
 ! A117  A(43,49,46)           110.8524         calculate D2E/DX2 analytically  !
 ! A118  A(43,49,54)           110.1304         calculate D2E/DX2 analytically  !
 ! A119  A(43,49,55)           109.2734         calculate D2E/DX2 analytically  !
 ! A120  A(46,49,54)           110.2384         calculate D2E/DX2 analytically  !
 ! A121  A(46,49,55)           109.2864         calculate D2E/DX2 analytically  !
 ! A122  A(54,49,55)           106.9709         calculate D2E/DX2 analytically  !
 ! A123  A(30,59,60)           109.4712         calculate D2E/DX2 analytically  !
 ! A124  A(30,59,61)           109.4712         calculate D2E/DX2 analytically  !
 ! A125  A(30,59,62)           109.4712         calculate D2E/DX2 analytically  !
 ! A126  A(60,59,61)           109.4713         calculate D2E/DX2 analytically  !
 ! A127  A(60,59,62)           109.4712         calculate D2E/DX2 analytically  !
 ! A128  A(61,59,62)           109.4712         calculate D2E/DX2 analytically  !
 ! A129  A(30,63,64)           109.4712         calculate D2E/DX2 analytically  !
 ! A130  A(30,63,65)           109.4712         calculate D2E/DX2 analytically  !
 ! A131  A(30,63,66)           109.4712         calculate D2E/DX2 analytically  !
 ! A132  A(64,63,65)           109.4713         calculate D2E/DX2 analytically  !
 ! A133  A(64,63,66)           109.4712         calculate D2E/DX2 analytically  !
 ! A134  A(65,63,66)           109.4712         calculate D2E/DX2 analytically  !
 ! A135  A(30,67,68)           109.4712         calculate D2E/DX2 analytically  !
 ! A136  A(30,67,69)           109.4712         calculate D2E/DX2 analytically  !
 ! A137  A(30,67,70)           109.4712         calculate D2E/DX2 analytically  !
 ! A138  A(68,67,69)           109.4713         calculate D2E/DX2 analytically  !
 ! A139  A(68,67,70)           109.4712         calculate D2E/DX2 analytically  !
 ! A140  A(69,67,70)           109.4712         calculate D2E/DX2 analytically  !
 ! A141  A(31,71,72)           109.4712         calculate D2E/DX2 analytically  !
 ! A142  A(31,71,73)           109.4712         calculate D2E/DX2 analytically  !
 ! A143  A(31,71,74)           109.4712         calculate D2E/DX2 analytically  !
 ! A144  A(72,71,73)           109.4713         calculate D2E/DX2 analytically  !
 ! A145  A(72,71,74)           109.4712         calculate D2E/DX2 analytically  !
 ! A146  A(73,71,74)           109.4712         calculate D2E/DX2 analytically  !
 ! A147  A(31,75,76)           109.4712         calculate D2E/DX2 analytically  !
 ! A148  A(31,75,77)           109.4712         calculate D2E/DX2 analytically  !
 ! A149  A(31,75,78)           109.4712         calculate D2E/DX2 analytically  !
 ! A150  A(76,75,77)           109.4713         calculate D2E/DX2 analytically  !
 ! A151  A(76,75,78)           109.4712         calculate D2E/DX2 analytically  !
 ! A152  A(77,75,78)           109.4712         calculate D2E/DX2 analytically  !
 ! A153  A(31,79,80)           109.4712         calculate D2E/DX2 analytically  !
 ! A154  A(31,79,81)           109.4712         calculate D2E/DX2 analytically  !
 ! A155  A(31,79,82)           109.4712         calculate D2E/DX2 analytically  !
 ! A156  A(80,79,81)           109.4713         calculate D2E/DX2 analytically  !
 ! A157  A(80,79,82)           109.4712         calculate D2E/DX2 analytically  !
 ! A158  A(81,79,82)           109.4712         calculate D2E/DX2 analytically  !
 ! D1    D(6,1,2,3)              0.0051         calculate D2E/DX2 analytically  !
 ! D2    D(6,1,2,21)           179.7009         calculate D2E/DX2 analytically  !
 ! D3    D(35,1,2,3)          -179.5426         calculate D2E/DX2 analytically  !
 ! D4    D(35,1,2,21)            0.1532         calculate D2E/DX2 analytically  !
 ! D5    D(2,1,6,5)             -0.0326         calculate D2E/DX2 analytically  !
 ! D6    D(2,1,6,36)           179.5598         calculate D2E/DX2 analytically  !
 ! D7    D(35,1,6,5)           179.4188         calculate D2E/DX2 analytically  !
 ! D8    D(35,1,6,36)           -0.9888         calculate D2E/DX2 analytically  !
 ! D9    D(2,1,35,7)             0.1084         calculate D2E/DX2 analytically  !
 ! D10   D(6,1,35,7)          -179.3825         calculate D2E/DX2 analytically  !
 ! D11   D(1,2,3,4)              0.162          calculate D2E/DX2 analytically  !
 ! D12   D(1,2,3,8)            179.958          calculate D2E/DX2 analytically  !
 ! D13   D(21,2,3,4)          -179.433          calculate D2E/DX2 analytically  !
 ! D14   D(21,2,3,8)             0.363          calculate D2E/DX2 analytically  !
 ! D15   D(1,2,21,7)            -0.351          calculate D2E/DX2 analytically  !
 ! D16   D(1,2,21,57)         -179.2029         calculate D2E/DX2 analytically  !
 ! D17   D(3,2,21,7)           179.2952         calculate D2E/DX2 analytically  !
 ! D18   D(3,2,21,57)            0.4433         calculate D2E/DX2 analytically  !
 ! D19   D(2,3,4,5)             -0.308          calculate D2E/DX2 analytically  !
 ! D20   D(2,3,4,9)            179.9198         calculate D2E/DX2 analytically  !
 ! D21   D(8,3,4,5)            179.8953         calculate D2E/DX2 analytically  !
 ! D22   D(8,3,4,9)              0.1231         calculate D2E/DX2 analytically  !
 ! D23   D(3,4,5,6)              0.2913         calculate D2E/DX2 analytically  !
 ! D24   D(3,4,5,10)          -179.8235         calculate D2E/DX2 analytically  !
 ! D25   D(9,4,5,6)           -179.9366         calculate D2E/DX2 analytically  !
 ! D26   D(9,4,5,10)            -0.0514         calculate D2E/DX2 analytically  !
 ! D27   D(4,5,6,1)             -0.1123         calculate D2E/DX2 analytically  !
 ! D28   D(4,5,6,36)          -179.7116         calculate D2E/DX2 analytically  !
 ! D29   D(10,5,6,1)          -179.9983         calculate D2E/DX2 analytically  !
 ! D30   D(10,5,6,36)            0.4024         calculate D2E/DX2 analytically  !
 ! D31   D(1,6,36,37)         -178.7731         calculate D2E/DX2 analytically  !
 ! D32   D(1,6,36,38)            0.9726         calculate D2E/DX2 analytically  !
 ! D33   D(5,6,36,37)            0.8083         calculate D2E/DX2 analytically  !
 ! D34   D(5,6,36,38)         -179.446          calculate D2E/DX2 analytically  !
 ! D35   D(21,7,16,11)           1.1835         calculate D2E/DX2 analytically  !
 ! D36   D(21,7,16,15)        -179.7239         calculate D2E/DX2 analytically  !
 ! D37   D(35,7,16,11)        -178.394          calculate D2E/DX2 analytically  !
 ! D38   D(35,7,16,15)           0.6987         calculate D2E/DX2 analytically  !
 ! D39   D(16,7,21,2)         -179.1808         calculate D2E/DX2 analytically  !
 ! D40   D(16,7,21,57)          -0.2169         calculate D2E/DX2 analytically  !
 ! D41   D(35,7,21,2)            0.4523         calculate D2E/DX2 analytically  !
 ! D42   D(35,7,21,57)         179.4163         calculate D2E/DX2 analytically  !
 ! D43   D(16,7,35,1)          179.2692         calculate D2E/DX2 analytically  !
 ! D44   D(21,7,35,1)           -0.3425         calculate D2E/DX2 analytically  !
 ! D45   D(16,11,12,13)          0.9724         calculate D2E/DX2 analytically  !
 ! D46   D(16,11,12,34)       -179.0788         calculate D2E/DX2 analytically  !
 ! D47   D(33,11,12,13)       -179.6533         calculate D2E/DX2 analytically  !
 ! D48   D(33,11,12,34)          0.2955         calculate D2E/DX2 analytically  !
 ! D49   D(12,11,16,7)         178.4333         calculate D2E/DX2 analytically  !
 ! D50   D(12,11,16,15)         -0.6982         calculate D2E/DX2 analytically  !
 ! D51   D(33,11,16,7)          -0.8026         calculate D2E/DX2 analytically  !
 ! D52   D(33,11,16,15)       -179.9341         calculate D2E/DX2 analytically  !
 ! D53   D(12,11,33,17)         -0.4181         calculate D2E/DX2 analytically  !
 ! D54   D(16,11,33,17)        178.876          calculate D2E/DX2 analytically  !
 ! D55   D(11,12,13,14)         -0.4811         calculate D2E/DX2 analytically  !
 ! D56   D(11,12,13,18)        179.8406         calculate D2E/DX2 analytically  !
 ! D57   D(34,12,13,14)        179.5867         calculate D2E/DX2 analytically  !
 ! D58   D(34,12,13,18)         -0.0916         calculate D2E/DX2 analytically  !
 ! D59   D(11,12,34,17)         -0.0549         calculate D2E/DX2 analytically  !
 ! D60   D(11,12,34,56)        177.21           calculate D2E/DX2 analytically  !
 ! D61   D(13,12,34,17)        179.886          calculate D2E/DX2 analytically  !
 ! D62   D(13,12,34,56)         -2.8492         calculate D2E/DX2 analytically  !
 ! D63   D(12,13,14,15)         -0.246          calculate D2E/DX2 analytically  !
 ! D64   D(12,13,14,19)       -179.8688         calculate D2E/DX2 analytically  !
 ! D65   D(18,13,14,15)        179.4324         calculate D2E/DX2 analytically  !
 ! D66   D(18,13,14,19)         -0.1904         calculate D2E/DX2 analytically  !
 ! D67   D(13,14,15,16)          0.4941         calculate D2E/DX2 analytically  !
 ! D68   D(13,14,15,20)       -179.3278         calculate D2E/DX2 analytically  !
 ! D69   D(19,14,15,16)       -179.882          calculate D2E/DX2 analytically  !
 ! D70   D(19,14,15,20)          0.2961         calculate D2E/DX2 analytically  !
 ! D71   D(14,15,16,7)        -179.1262         calculate D2E/DX2 analytically  !
 ! D72   D(14,15,16,11)         -0.0036         calculate D2E/DX2 analytically  !
 ! D73   D(20,15,16,7)           0.6979         calculate D2E/DX2 analytically  !
 ! D74   D(20,15,16,11)        179.8205         calculate D2E/DX2 analytically  !
 ! D75   D(33,17,23,22)        174.2            calculate D2E/DX2 analytically  !
 ! D76   D(33,17,23,24)         -5.2202         calculate D2E/DX2 analytically  !
 ! D77   D(34,17,23,22)         -5.0519         calculate D2E/DX2 analytically  !
 ! D78   D(34,17,23,24)        175.5279         calculate D2E/DX2 analytically  !
 ! D79   D(23,17,33,11)       -178.9363         calculate D2E/DX2 analytically  !
 ! D80   D(34,17,33,11)          0.3871         calculate D2E/DX2 analytically  !
 ! D81   D(23,17,34,12)        179.13           calculate D2E/DX2 analytically  !
 ! D82   D(23,17,34,56)          1.5481         calculate D2E/DX2 analytically  !
 ! D83   D(33,17,34,12)         -0.2117         calculate D2E/DX2 analytically  !
 ! D84   D(33,17,34,56)       -177.7935         calculate D2E/DX2 analytically  !
 ! D85   D(27,22,23,17)       -177.8475         calculate D2E/DX2 analytically  !
 ! D86   D(27,22,23,24)          1.5742         calculate D2E/DX2 analytically  !
 ! D87   D(32,22,23,17)          2.1381         calculate D2E/DX2 analytically  !
 ! D88   D(32,22,23,24)       -178.4402         calculate D2E/DX2 analytically  !
 ! D89   D(23,22,27,26)         -1.1935         calculate D2E/DX2 analytically  !
 ! D90   D(23,22,27,31)        179.4813         calculate D2E/DX2 analytically  !
 ! D91   D(32,22,27,26)        178.8206         calculate D2E/DX2 analytically  !
 ! D92   D(32,22,27,31)         -0.5046         calculate D2E/DX2 analytically  !
 ! D93   D(17,23,24,25)        178.604          calculate D2E/DX2 analytically  !
 ! D94   D(17,23,24,28)         -1.4426         calculate D2E/DX2 analytically  !
 ! D95   D(22,23,24,25)         -0.8195         calculate D2E/DX2 analytically  !
 ! D96   D(22,23,24,28)        179.1339         calculate D2E/DX2 analytically  !
 ! D97   D(23,24,25,26)         -0.3509         calculate D2E/DX2 analytically  !
 ! D98   D(23,24,25,30)        179.959          calculate D2E/DX2 analytically  !
 ! D99   D(28,24,25,26)        179.696          calculate D2E/DX2 analytically  !
 ! D100  D(28,24,25,30)          0.0059         calculate D2E/DX2 analytically  !
 ! D101  D(24,25,26,27)          0.7524         calculate D2E/DX2 analytically  !
 ! D102  D(24,25,26,29)       -179.7986         calculate D2E/DX2 analytically  !
 ! D103  D(30,25,26,27)       -179.5594         calculate D2E/DX2 analytically  !
 ! D104  D(30,25,26,29)         -0.1104         calculate D2E/DX2 analytically  !
 ! D105  D(24,25,30,59)         64.8504         calculate D2E/DX2 analytically  !
 ! D106  D(24,25,30,63)       -174.4624         calculate D2E/DX2 analytically  !
 ! D107  D(24,25,30,67)        -53.1735         calculate D2E/DX2 analytically  !
 ! D108  D(26,25,30,59)       -114.8351         calculate D2E/DX2 analytically  !
 ! D109  D(26,25,30,63)          5.8521         calculate D2E/DX2 analytically  !
 ! D110  D(26,25,30,67)        127.141          calculate D2E/DX2 analytically  !
 ! D111  D(25,26,27,22)          0.0522         calculate D2E/DX2 analytically  !
 ! D112  D(25,26,27,31)        179.3443         calculate D2E/DX2 analytically  !
 ! D113  D(29,26,27,22)       -179.3928         calculate D2E/DX2 analytically  !
 ! D114  D(29,26,27,31)         -0.1007         calculate D2E/DX2 analytically  !
 ! D115  D(22,27,31,71)        -53.1633         calculate D2E/DX2 analytically  !
 ! D116  D(22,27,31,75)       -174.6385         calculate D2E/DX2 analytically  !
 ! D117  D(22,27,31,79)         64.8141         calculate D2E/DX2 analytically  !
 ! D118  D(26,27,31,71)        127.5338         calculate D2E/DX2 analytically  !
 ! D119  D(26,27,31,75)          6.0586         calculate D2E/DX2 analytically  !
 ! D120  D(26,27,31,79)       -114.4888         calculate D2E/DX2 analytically  !
 ! D121  D(25,30,59,60)        147.708          calculate D2E/DX2 analytically  !
 ! D122  D(25,30,59,61)        -92.2919         calculate D2E/DX2 analytically  !
 ! D123  D(25,30,59,62)         27.708          calculate D2E/DX2 analytically  !
 ! D124  D(63,30,59,60)         25.231          calculate D2E/DX2 analytically  !
 ! D125  D(63,30,59,61)        145.231          calculate D2E/DX2 analytically  !
 ! D126  D(63,30,59,62)        -94.769          calculate D2E/DX2 analytically  !
 ! D127  D(67,30,59,60)        -91.9068         calculate D2E/DX2 analytically  !
 ! D128  D(67,30,59,61)         28.0932         calculate D2E/DX2 analytically  !
 ! D129  D(67,30,59,62)        148.0932         calculate D2E/DX2 analytically  !
 ! D130  D(25,30,63,64)        -63.0531         calculate D2E/DX2 analytically  !
 ! D131  D(25,30,63,65)         56.9469         calculate D2E/DX2 analytically  !
 ! D132  D(25,30,63,66)        176.9469         calculate D2E/DX2 analytically  !
 ! D133  D(59,30,63,64)         58.8176         calculate D2E/DX2 analytically  !
 ! D134  D(59,30,63,65)        178.8176         calculate D2E/DX2 analytically  !
 ! D135  D(59,30,63,66)        -61.1824         calculate D2E/DX2 analytically  !
 ! D136  D(67,30,63,64)        174.6098         calculate D2E/DX2 analytically  !
 ! D137  D(67,30,63,65)        -65.3902         calculate D2E/DX2 analytically  !
 ! D138  D(67,30,63,66)         54.6098         calculate D2E/DX2 analytically  !
 ! D139  D(25,30,67,68)        -43.7172         calculate D2E/DX2 analytically  !
 ! D140  D(25,30,67,69)         76.2828         calculate D2E/DX2 analytically  !
 ! D141  D(25,30,67,70)       -163.7172         calculate D2E/DX2 analytically  !
 ! D142  D(59,30,67,68)       -163.9973         calculate D2E/DX2 analytically  !
 ! D143  D(59,30,67,69)        -43.9973         calculate D2E/DX2 analytically  !
 ! D144  D(59,30,67,70)         76.0027         calculate D2E/DX2 analytically  !
 ! D145  D(63,30,67,68)         79.1204         calculate D2E/DX2 analytically  !
 ! D146  D(63,30,67,69)       -160.8796         calculate D2E/DX2 analytically  !
 ! D147  D(63,30,67,70)        -40.8796         calculate D2E/DX2 analytically  !
 ! D148  D(27,31,71,72)         94.1399         calculate D2E/DX2 analytically  !
 ! D149  D(27,31,71,73)       -145.86           calculate D2E/DX2 analytically  !
 ! D150  D(27,31,71,74)        -25.8601         calculate D2E/DX2 analytically  !
 ! D151  D(75,31,71,72)       -143.5023         calculate D2E/DX2 analytically  !
 ! D152  D(75,31,71,73)        -23.5023         calculate D2E/DX2 analytically  !
 ! D153  D(75,31,71,74)         96.4977         calculate D2E/DX2 analytically  !
 ! D154  D(79,31,71,72)        -26.3497         calculate D2E/DX2 analytically  !
 ! D155  D(79,31,71,73)         93.6503         calculate D2E/DX2 analytically  !
 ! D156  D(79,31,71,74)       -146.3497         calculate D2E/DX2 analytically  !
 ! D157  D(27,31,75,76)        -62.1327         calculate D2E/DX2 analytically  !
 ! D158  D(27,31,75,77)         57.8673         calculate D2E/DX2 analytically  !
 ! D159  D(27,31,75,78)        177.8673         calculate D2E/DX2 analytically  !
 ! D160  D(71,31,75,76)        175.4454         calculate D2E/DX2 analytically  !
 ! D161  D(71,31,75,77)        -64.5546         calculate D2E/DX2 analytically  !
 ! D162  D(71,31,75,78)         55.4454         calculate D2E/DX2 analytically  !
 ! D163  D(79,31,75,76)         59.6348         calculate D2E/DX2 analytically  !
 ! D164  D(79,31,75,77)        179.6348         calculate D2E/DX2 analytically  !
 ! D165  D(79,31,75,78)        -60.3652         calculate D2E/DX2 analytically  !
 ! D166  D(27,31,79,80)        150.3601         calculate D2E/DX2 analytically  !
 ! D167  D(27,31,79,81)        -89.6399         calculate D2E/DX2 analytically  !
 ! D168  D(27,31,79,82)         30.3601         calculate D2E/DX2 analytically  !
 ! D169  D(71,31,79,80)        -89.0302         calculate D2E/DX2 analytically  !
 ! D170  D(71,31,79,81)         30.9698         calculate D2E/DX2 analytically  !
 ! D171  D(71,31,79,82)        150.9698         calculate D2E/DX2 analytically  !
 ! D172  D(75,31,79,80)         28.5439         calculate D2E/DX2 analytically  !
 ! D173  D(75,31,79,81)        148.5439         calculate D2E/DX2 analytically  !
 ! D174  D(75,31,79,82)        -91.4561         calculate D2E/DX2 analytically  !
 ! D175  D(6,36,38,39)         179.7121         calculate D2E/DX2 analytically  !
 ! D176  D(6,36,38,58)           0.214          calculate D2E/DX2 analytically  !
 ! D177  D(37,36,38,39)         -0.5392         calculate D2E/DX2 analytically  !
 ! D178  D(37,36,38,58)        179.9628         calculate D2E/DX2 analytically  !
 ! D179  D(36,38,39,40)        -65.3017         calculate D2E/DX2 analytically  !
 ! D180  D(36,38,39,41)         59.1948         calculate D2E/DX2 analytically  !
 ! D181  D(36,38,39,42)        176.9518         calculate D2E/DX2 analytically  !
 ! D182  D(58,38,39,40)        114.1822         calculate D2E/DX2 analytically  !
 ! D183  D(58,38,39,41)       -121.3213         calculate D2E/DX2 analytically  !
 ! D184  D(58,38,39,42)         -3.5643         calculate D2E/DX2 analytically  !
 ! D185  D(38,39,40,43)        178.9264         calculate D2E/DX2 analytically  !
 ! D186  D(38,39,40,44)         58.6884         calculate D2E/DX2 analytically  !
 ! D187  D(38,39,40,45)        -58.4277         calculate D2E/DX2 analytically  !
 ! D188  D(41,39,40,43)         54.9655         calculate D2E/DX2 analytically  !
 ! D189  D(41,39,40,44)        -65.2725         calculate D2E/DX2 analytically  !
 ! D190  D(41,39,40,45)        177.6115         calculate D2E/DX2 analytically  !
 ! D191  D(42,39,40,43)        -65.8891         calculate D2E/DX2 analytically  !
 ! D192  D(42,39,40,44)        173.8729         calculate D2E/DX2 analytically  !
 ! D193  D(42,39,40,45)         56.7569         calculate D2E/DX2 analytically  !
 ! D194  D(38,39,41,46)       -179.1937         calculate D2E/DX2 analytically  !
 ! D195  D(38,39,41,47)        -59.0772         calculate D2E/DX2 analytically  !
 ! D196  D(38,39,41,48)         58.0071         calculate D2E/DX2 analytically  !
 ! D197  D(40,39,41,46)        -55.3024         calculate D2E/DX2 analytically  !
 ! D198  D(40,39,41,47)         64.814          calculate D2E/DX2 analytically  !
 ! D199  D(40,39,41,48)       -178.1016         calculate D2E/DX2 analytically  !
 ! D200  D(42,39,41,46)         65.5777         calculate D2E/DX2 analytically  !
 ! D201  D(42,39,41,47)       -174.3058         calculate D2E/DX2 analytically  !
 ! D202  D(42,39,41,48)        -57.2215         calculate D2E/DX2 analytically  !
 ! D203  D(39,40,43,49)        -55.2932         calculate D2E/DX2 analytically  !
 ! D204  D(39,40,43,50)       -177.9707         calculate D2E/DX2 analytically  !
 ! D205  D(39,40,43,51)         65.491          calculate D2E/DX2 analytically  !
 ! D206  D(44,40,43,49)         64.4419         calculate D2E/DX2 analytically  !
 ! D207  D(44,40,43,50)        -58.2355         calculate D2E/DX2 analytically  !
 ! D208  D(44,40,43,51)       -174.7738         calculate D2E/DX2 analytically  !
 ! D209  D(45,40,43,49)       -177.2211         calculate D2E/DX2 analytically  !
 ! D210  D(45,40,43,50)         60.1014         calculate D2E/DX2 analytically  !
 ! D211  D(45,40,43,51)        -56.4368         calculate D2E/DX2 analytically  !
 ! D212  D(39,41,46,49)         55.6864         calculate D2E/DX2 analytically  !
 ! D213  D(39,41,46,52)        178.3336         calculate D2E/DX2 analytically  !
 ! D214  D(39,41,46,53)        -65.0886         calculate D2E/DX2 analytically  !
 ! D215  D(47,41,46,49)        -64.1823         calculate D2E/DX2 analytically  !
 ! D216  D(47,41,46,52)         58.465          calculate D2E/DX2 analytically  !
 ! D217  D(47,41,46,53)        175.0427         calculate D2E/DX2 analytically  !
 ! D218  D(48,41,46,49)        177.5718         calculate D2E/DX2 analytically  !
 ! D219  D(48,41,46,52)        -59.781          calculate D2E/DX2 analytically  !
 ! D220  D(48,41,46,53)         56.7968         calculate D2E/DX2 analytically  !
 ! D221  D(40,43,49,46)         56.0041         calculate D2E/DX2 analytically  !
 ! D222  D(40,43,49,54)        178.2722         calculate D2E/DX2 analytically  !
 ! D223  D(40,43,49,55)        -64.5014         calculate D2E/DX2 analytically  !
 ! D224  D(50,43,49,46)        177.8766         calculate D2E/DX2 analytically  !
 ! D225  D(50,43,49,54)        -59.8553         calculate D2E/DX2 analytically  !
 ! D226  D(50,43,49,55)         57.3712         calculate D2E/DX2 analytically  !
 ! D227  D(51,43,49,46)        -64.814          calculate D2E/DX2 analytically  !
 ! D228  D(51,43,49,54)         57.454          calculate D2E/DX2 analytically  !
 ! D229  D(51,43,49,55)        174.6805         calculate D2E/DX2 analytically  !
 ! D230  D(41,46,49,43)        -56.0488         calculate D2E/DX2 analytically  !
 ! D231  D(41,46,49,54)       -178.2539         calculate D2E/DX2 analytically  !
 ! D232  D(41,46,49,55)         64.4489         calculate D2E/DX2 analytically  !
 ! D233  D(52,46,49,43)       -177.7788         calculate D2E/DX2 analytically  !
 ! D234  D(52,46,49,54)         60.0161         calculate D2E/DX2 analytically  !
 ! D235  D(52,46,49,55)        -57.2811         calculate D2E/DX2 analytically  !
 ! D236  D(53,46,49,43)         64.7248         calculate D2E/DX2 analytically  !
 ! D237  D(53,46,49,54)        -57.4803         calculate D2E/DX2 analytically  !
 ! D238  D(53,46,49,55)       -174.7775         calculate D2E/DX2 analytically  !
 --------------------------------------------------------------------------------
 Trust Radius=3.00D-01 FncErr=5.00D-06 GrdErr=5.00D-06 EigMax=2.50D+02 EigMin=1.00D-04
 Number of steps in this run=    492 maximum allowed number of steps=    492.
 GradGradGradGradGradGradGradGradGradGradGradGradGradGradGradGradGradGrad

 Leave Link  103 at Thu Dec 20 18:11:16 2018, MaxMem=  1342177280 cpu:               0.3 elap:               0.0
 (Enter /gpfs/apps/hpc/Apps/Restricted/Gaussian/Rev_A.03/g16/l202.exe)
 Symmetry turned off by external request.
 Stoichiometry    C35H41N5O(1+,2)
 Framework group  C1[X(C35H41N5O)]
 Deg. of freedom   240
 Full point group                 C1      NOp   1
                          Input orientation:                          
 ---------------------------------------------------------------------
 Center     Atomic      Atomic             Coordinates (Angstroms)
 Number     Number       Type             X           Y           Z
 ---------------------------------------------------------------------
      1          6           0        1.531350    1.166252    0.057062
      2          6           0        0.330498    1.916953    0.013619
      3          6           0        0.325835    3.303245   -0.098565
      4          6           0        1.565884    3.949600   -0.172336
      5          6           0        2.764473    3.234973   -0.128753
      6          6           0        2.778243    1.830708   -0.014639
      7          6           0       -0.076573   -0.257536    0.176579
      8          1           0       -0.599830    3.863785   -0.131264
      9          1           0        1.595449    5.028070   -0.261511
     10          1           0        3.707685    3.765752   -0.185311
     11          6           0       -2.274930   -1.426107    0.234694
     12          6           0       -3.024293   -2.630442    0.282839
     13          6           0       -2.419725   -3.884058    0.374306
     14          6           0       -1.025984   -3.909200    0.406931
     15          6           0       -0.262064   -2.732829    0.345637
     16          6           0       -0.861821   -1.473170    0.258808
     17          6           0       -4.353830   -0.858368    0.142461
     18          1           0       -3.004225   -4.794588    0.412740
     19          1           0       -0.515876   -4.862305    0.475427
     20          1           0        0.818858   -2.791444    0.362494
     21          7           0       -0.667878    0.972257    0.097428
     22          6           0       -6.873178   -0.774369   -0.086634
     23          6           0       -5.580624   -0.090934    0.044010
     24          6           0       -5.534517    1.292295    0.060998
     25          6           0       -6.700579    2.070500   -0.061429
     26          6           0       -7.949805    1.423825   -0.212914
     27          6           0       -8.068349    0.052976   -0.229875
     28          1           0       -4.574781    1.783335    0.172260
     29          1           0       -8.841180    2.034774   -0.309654
     30          6           0       -6.611588    3.566278   -0.037792
     31          6           0       -9.385451   -0.639875   -0.375092
     32          8           0       -6.973287   -2.029619   -0.078534
     33          7           0       -3.119196   -0.342279    0.153841
     34          7           0       -4.335387   -2.224284    0.221089
     35          7           0        1.261157   -0.174227    0.159231
     36          6           0        4.017180    1.122234    0.034175
     37          1           0        4.944266    1.684435   -0.004695
     38          7           0        4.101205   -0.171572    0.128293
     39          6           0        5.372887   -0.923520    0.174052
     40          6           0        6.135231   -0.779606   -1.150362
     41          6           0        6.224763   -0.480442    1.370753
     42          1           0        5.081047   -1.966517    0.308748
     43          6           0        7.466555   -1.537032   -1.094775
     44          1           0        6.327508    0.284605   -1.329914
     45          1           0        5.514332   -1.143324   -1.973087
     46          6           0        7.552750   -1.244476    1.409178
     47          1           0        6.428735    0.592669    1.280790
     48          1           0        5.660042   -0.629718    2.294271
     49          6           0        8.322002   -1.088049    0.094035
     50          1           0        8.004952   -1.388828   -2.034862
     51          1           0        7.266873   -2.611988   -1.008786
     52          1           0        8.149470   -0.887163    2.253172
     53          1           0        7.353616   -2.308164    1.588066
     54          1           0        9.251053   -1.664359    0.128245
     55          1           0        8.602603   -0.035815   -0.038670
     56          1           0       -5.196353   -2.763197    0.189797
     57          1           0       -1.681636    1.085483    0.089654
     58          1           0        3.212160   -0.684170    0.164241
     59          6           0       -5.827138    4.079045   -1.259802
     60          1           0       -6.212438    5.032086   -1.556712
     61          1           0       -4.792651    4.176418   -1.004348
     62          1           0       -5.931284    3.384903   -2.067404
     63          6           0       -8.008403    4.214664   -0.047917
     64          1           0       -8.511538    3.963676   -0.958279
     65          1           0       -8.575460    3.853181    0.784355
     66          1           0       -7.908725    5.277639    0.023139
     67          6           0       -5.849805    4.045464    1.211875
     68          1           0       -6.183494    3.494320    2.066154
     69          1           0       -4.800792    3.887038    1.072687
     70          1           0       -6.035838    5.087973    1.365059
     71          6           0       -9.341430   -1.667602   -1.521146
     72          1           0       -9.099151   -2.632083   -1.126206
     73          1           0      -10.297127   -1.708319   -2.000609
     74          1           0       -8.597426   -1.376474   -2.232906
     75          6           0      -10.510005    0.376467   -0.647173
     76          1           0      -10.596028    1.044327    0.184369
     77          1           0      -10.280216    0.934643   -1.530652
     78          1           0      -11.435115   -0.143411   -0.784278
     79          6           0       -9.731062   -1.425047    0.903837
     80          1           0      -10.793968   -1.470629    1.018092
     81          1           0       -9.337341   -2.417273    0.830551
     82          1           0       -9.302010   -0.932779    1.751473
 ---------------------------------------------------------------------
 Rotational constants (GHZ):           0.1783858           0.0309661           0.0270105
 Leave Link  202 at Thu Dec 20 18:11:16 2018, MaxMem=  1342177280 cpu:               0.3 elap:               0.0
 (Enter /gpfs/apps/hpc/Apps/Restricted/Gaussian/Rev_A.03/g16/l301.exe)
 Standard basis: 6-31G(d,p) (6D, 7F)
 Ernie: Thresh=  0.10000D-02 Tol=  0.10000D-05 Strict=F.
   820 basis functions,  1435 primitive gaussians,   820 cartesian basis functions
   147 alpha electrons      146 beta electrons
       nuclear repulsion energy      4427.1519005987 Hartrees.
 IExCor=  402 DFT=T Ex+Corr=B3LYP ExCW=0 ScaHFX=  0.200000
 ScaDFX=  0.800000  0.720000  1.000000  0.810000 ScalE2=  1.000000  1.000000
 IRadAn=      5 IRanWt=     -1 IRanGd=            0 ICorTp=0 IEmpDi=141
 NAtoms=   82 NActive=   82 NUniq=   82 SFac= 1.00D+00 NAtFMM=   60 NAOKFM=T Big=T
 Integral buffers will be    131072 words long.
 Raffenetti 2 integral format.
 Two-electron integral symmetry is turned off.
 R6Disp:  Grimme-D3(BJ) Dispersion energy=       -0.1864878355 Hartrees.
 Nuclear repulsion after empirical dispersion term =     4426.9654127632 Hartrees.
 Force inversion solution in PCM.
 Using the following non-standard input for PCM:
 radii=bondi
 dis
 rep
 cav
 --- end of non-standard input.
 Force inversion solution in PCM.
 ------------------------------------------------------------------------------
 Polarizable Continuum Model (PCM)
 =================================
 Model                : C-PCM.
 Atomic radii         : Bondi.
 Polarization charges : Total charges.
 Charge compensation  : None.
 Solution method      : Matrix inversion.
 Cavity type          : Scaled VdW (van der Waals Surface) (Alpha=1.100).
 Cavity algorithm     : GePol (No added spheres)
                        Default sphere list used, NSphG=   82.
                        Lebedev-Laikov grids with approx.  5.0 points / Ang**2.
                        Smoothing algorithm: York/Karplus (Gamma=1.0000).
                        Polarization charges: spherical gaussians, with
                                              point-specific exponents (IZeta= 3).
                        Self-potential: point-specific (ISelfS= 7).
                        Self-field    : sphere-specific E.n sum rule (ISelfD= 2).
 1st derivatives      : Analytical E(r).r(x)/FMM algorithm (CHGder, D1EAlg=3).
                        Cavity 1st derivative terms included.
 2nd derivatives      : Analytical E(r).r(xy)/FMM algorithm (CHGder, D2EAlg=3).
                        Cavity 2nd derivative terms included.
 Solvent              : Dichloromethane, Eps=   8.930000 Eps(inf)=   2.028346
 ------------------------------------------------------------------------------
 GePol: Number of generator spheres                  =      82
 GePol: Total number of spheres                      =      82
 GePol: Number of exposed spheres                    =      82 (100.00%)
 GePol: Number of points                             =    5198
 GePol: Average weight of points                     =       0.12
 GePol: Minimum weight of points                     =   0.78D-09
 GePol: Maximum weight of points                     =    0.21770
 GePol: Number of points with low weight             =     335
 GePol: Fraction of low-weight points (<1% of avg)   =       6.44%
 GePol: Cavity surface area                          =    619.417 Ang**2
 GePol: Cavity volume                                =    606.352 Ang**3
 PCM non-electrostatic energy =         0.0278851244 Hartrees.
 Nuclear repulsion after PCM non-electrostatic terms =     4426.9932978876 Hartrees.
 Leave Link  301 at Thu Dec 20 18:11:16 2018, MaxMem=  1342177280 cpu:               3.8 elap:               0.3
 (Enter /gpfs/apps/hpc/Apps/Restricted/Gaussian/Rev_A.03/g16/l302.exe)
 NPDir=0 NMtPBC=     1 NCelOv=     1 NCel=       1 NClECP=     1 NCelD=      1
         NCelK=      1 NCelE2=     1 NClLst=     1 CellRange=     0.0.
 One-electron integrals computed using PRISM.
 NBasis=   820 RedAO= T EigKep=  2.89D-04  NBF=   820
 NBsUse=   820 1.00D-06 EigRej= -1.00D+00 NBFU=   820
 Precomputing XC quadrature grid using
 IXCGrd= 4 IRadAn=           5 IRanWt=          -1 IRanGd=           0 AccXCQ= 0.00D+00.
 Generated NRdTot=       0 NPtTot=           0 NUsed=           0 NTot=          32
 NSgBfM=   753   751   753   753   753 MxSgAt=    82 MxSgA2=    82.
 Leave Link  302 at Thu Dec 20 18:11:18 2018, MaxMem=  1342177280 cpu:              26.5 elap:               1.7
 (Enter /gpfs/apps/hpc/Apps/Restricted/Gaussian/Rev_A.03/g16/l303.exe)
 DipDrv:  MaxL=1.
 Leave Link  303 at Thu Dec 20 18:11:18 2018, MaxMem=  1342177280 cpu:               2.8 elap:               0.2
 (Enter /gpfs/apps/hpc/Apps/Restricted/Gaussian/Rev_A.03/g16/l401.exe)
 ExpMin= 1.61D-01 ExpMax= 5.48D+03 ExpMxC= 8.25D+02 IAcc=3 IRadAn=         5 AccDes= 0.00D+00
 Harris functional with IExCor=  402 and IRadAn=       5 diagonalized for initial guess.
 HarFok:  IExCor=  402 AccDes= 0.00D+00 IRadAn=         5 IDoV= 1 UseB2=F ITyADJ=14
 ICtDFT=  3500011 ScaDFX=  1.000000  1.000000  1.000000  1.000000
 FoFCou: FMM=F IPFlag=           0 FMFlag=      100000 FMFlg1=        2001
         NFxFlg=           0 DoJE=T BraDBF=F KetDBF=T FulRan=T
         wScrn=  0.000000 ICntrl=       500 IOpCl=  0 I1Cent=   200000004 NGrid=           0
         NMat0=    1 NMatS0=      1 NMatT0=    0 NMatD0=    1 NMtDS0=    0 NMtDT0=    0
 Symmetry not used in FoFCou.
 Harris En= -1707.49346348507    
 JPrj=0 DoOrth=F DoCkMO=F.
 Initial guess <Sx>= 0.0000 <Sy>= 0.0000 <Sz>= 0.5000 <S**2>= 0.7500 S= 0.5000
 Leave Link  401 at Thu Dec 20 18:11:23 2018, MaxMem=  1342177280 cpu:              80.9 elap:               5.1
 (Enter /gpfs/apps/hpc/Apps/Restricted/Gaussian/Rev_A.03/g16/l502.exe)
 Two-electron integral symmetry not used.
 UHF open shell SCF:
 Using DIIS extrapolation, IDIIS=  1040.
 NGot=  1342177280 LenX=  1340812546 LenY=  1340139326
 Requested convergence on RMS density matrix=1.00D-08 within 128 cycles.
 Requested convergence on MAX density matrix=1.00D-06.
 Requested convergence on             energy=1.00D-06.
 No special actions if energy rises.
 Fock matrices will be formed incrementally for  20 cycles.

 Cycle   1  Pass 1  IDiag  1:
 FoFJK:  IHMeth= 1 ICntrl=       0 DoSepK=F KAlg= 0 I1Cent=           0 FoldK=F
 IRaf= 630000000 NMat=       1 IRICut=       1 DoRegI=T DoRafI=F ISym2E= 0 IDoP0=0 IntGTp=1.
 FoFCou: FMM=T IPFlag=           0 FMFlag=      100000 FMFlg1=        2001
         NFxFlg=           0 DoJE=F BraDBF=F KetDBF=F FulRan=T
         wScrn=  0.000000 ICntrl=         0 IOpCl=  1 I1Cent=           0 NGrid=           0
         NMat0=    1 NMatS0=      1 NMatT0=    0 NMatD0=    1 NMtDS0=    0 NMtDT0=    0
 Symmetry not used in FoFCou.
 FMM levels:  10  Number of levels for PrismC:   9
 Inv3:  Mode=1 IEnd=    81057612.
 Iteration    1 A*A^-1 deviation from unit magnitude is 1.22D-14 for   1287.
 Iteration    1 A*A^-1 deviation from orthogonality  is 3.42D-15 for   4512   2145.
 Iteration    1 A^-1*A deviation from unit magnitude is 1.22D-14 for   1287.
 Iteration    1 A^-1*A deviation from orthogonality  is 4.13D-15 for   3169   1232.
 E= -1706.54994022458    
 DIIS: error= 3.34D-02 at cycle   1 NSaved=   1.
 NSaved= 1 IEnMin= 1 EnMin= -1706.54994022458     IErMin= 1 ErrMin= 3.34D-02
 ErrMax= 3.34D-02  0.00D+00 EMaxC= 1.00D-01 BMatC= 3.81D+00 BMatP= 3.81D+00
 IDIUse=3 WtCom= 6.66D-01 WtEn= 3.34D-01
 Coeff-Com:  0.100D+01
 Coeff-En:   0.100D+01
 Coeff:      0.100D+01
 Gap=     0.082 Goal=   None    Shift=    0.000
 Gap=     0.072 Goal=   None    Shift=    0.000
 GapD=    0.072 DampG=0.500 DampE=0.500 DampFc=0.2500 IDamp=-1.
 Damping current iteration by 2.50D-01
 RMSDP=2.90D-03 MaxDP=1.92D-01              OVMax= 3.82D-01

 Cycle   2  Pass 1  IDiag  1:
 RMSU=  7.03D-04    CP:  9.84D-01
 E= -1706.90712934953     Delta-E=       -0.357189124944 Rises=F Damp=T
 DIIS: error= 1.77D-02 at cycle   2 NSaved=   2.
 NSaved= 2 IEnMin= 2 EnMin= -1706.90712934953     IErMin= 2 ErrMin= 1.77D-02
 ErrMax= 1.77D-02  0.00D+00 EMaxC= 1.00D-01 BMatC= 1.02D+00 BMatP= 3.81D+00
 IDIUse=3 WtCom= 8.23D-01 WtEn= 1.77D-01
 Coeff-Com: -0.846D+00 0.185D+01
 Coeff-En:   0.000D+00 0.100D+01
 Coeff:     -0.696D+00 0.170D+01
 Gap=     0.121 Goal=   None    Shift=    0.000
 Gap=     0.122 Goal=   None    Shift=    0.000
 RMSDP=1.12D-03 MaxDP=8.30D-02 DE=-3.57D-01 OVMax= 1.91D-01

 Cycle   3  Pass 1  IDiag  1:
 RMSU=  7.78D-04    CP:  9.51D-01  2.03D+00
 E= -1707.50337599060     Delta-E=       -0.596246641072 Rises=F Damp=F
 DIIS: error= 6.66D-03 at cycle   3 NSaved=   3.
 NSaved= 3 IEnMin= 3 EnMin= -1707.50337599060     IErMin= 3 ErrMin= 6.66D-03
 ErrMax= 6.66D-03  0.00D+00 EMaxC= 1.00D-01 BMatC= 1.71D-01 BMatP= 1.02D+00
 IDIUse=3 WtCom= 9.33D-01 WtEn= 6.66D-02
 Coeff-Com: -0.360D+00 0.785D+00 0.574D+00
 Coeff-En:   0.000D+00 0.000D+00 0.100D+01
 Coeff:     -0.336D+00 0.733D+00 0.603D+00
 Gap=     0.107 Goal=   None    Shift=    0.000
 Gap=     0.076 Goal=   None    Shift=    0.000
 RMSDP=4.21D-04 MaxDP=7.18D-02 DE=-5.96D-01 OVMax= 7.42D-02

 Cycle   4  Pass 1  IDiag  1:
 RMSU=  3.40D-04    CP:  9.55D-01  2.04D+00  6.86D-01
 E= -1707.53004035785     Delta-E=       -0.026664367248 Rises=F Damp=F
 DIIS: error= 5.80D-03 at cycle   4 NSaved=   4.
 NSaved= 4 IEnMin= 4 EnMin= -1707.53004035785     IErMin= 4 ErrMin= 5.80D-03
 ErrMax= 5.80D-03  0.00D+00 EMaxC= 1.00D-01 BMatC= 7.13D-02 BMatP= 1.71D-01
 IDIUse=3 WtCom= 9.42D-01 WtEn= 5.80D-02
 Coeff-Com: -0.528D-01 0.134D+00 0.387D+00 0.531D+00
 Coeff-En:   0.000D+00 0.000D+00 0.282D+00 0.718D+00
 Coeff:     -0.497D-01 0.127D+00 0.381D+00 0.542D+00
 Gap=     0.111 Goal=   None    Shift=    0.000
 Gap=     0.074 Goal=   None    Shift=    0.000
 RMSDP=1.98D-04 MaxDP=3.58D-02 DE=-2.67D-02 OVMax= 3.35D-02

 Cycle   5  Pass 1  IDiag  1:
 RMSU=  1.13D-04    CP:  9.54D-01  2.01D+00  7.87D-01  5.90D-01
 E= -1707.54394118041     Delta-E=       -0.013900822563 Rises=F Damp=F
 DIIS: error= 1.15D-03 at cycle   5 NSaved=   5.
 NSaved= 5 IEnMin= 5 EnMin= -1707.54394118041     IErMin= 5 ErrMin= 1.15D-03
 ErrMax= 1.15D-03  0.00D+00 EMaxC= 1.00D-01 BMatC= 5.37D-03 BMatP= 7.13D-02
 IDIUse=3 WtCom= 9.89D-01 WtEn= 1.15D-02
 Coeff-Com:  0.428D-02 0.191D-02 0.165D+00 0.305D+00 0.524D+00
 Coeff-En:   0.000D+00 0.000D+00 0.000D+00 0.000D+00 0.100D+01
 Coeff:      0.423D-02 0.188D-02 0.163D+00 0.301D+00 0.530D+00
 Gap=     0.109 Goal=   None    Shift=    0.000
 Gap=     0.077 Goal=   None    Shift=    0.000
 RMSDP=6.13D-05 MaxDP=1.27D-02 DE=-1.39D-02 OVMax= 1.66D-02

 Cycle   6  Pass 1  IDiag  1:
 RMSU=  4.11D-05    CP:  9.54D-01  2.01D+00  7.99D-01  6.47D-01  6.46D-01
 E= -1707.54514885899     Delta-E=       -0.001207678578 Rises=F Damp=F
 DIIS: error= 4.74D-04 at cycle   6 NSaved=   6.
 NSaved= 6 IEnMin= 6 EnMin= -1707.54514885899     IErMin= 6 ErrMin= 4.74D-04
 ErrMax= 4.74D-04  0.00D+00 EMaxC= 1.00D-01 BMatC= 6.23D-04 BMatP= 5.37D-03
 IDIUse=3 WtCom= 9.95D-01 WtEn= 4.74D-03
 Coeff-Com:  0.741D-02-0.115D-01 0.512D-01 0.105D+00 0.297D+00 0.551D+00
 Coeff-En:   0.000D+00 0.000D+00 0.000D+00 0.000D+00 0.000D+00 0.100D+01
 Coeff:      0.737D-02-0.114D-01 0.510D-01 0.104D+00 0.296D+00 0.553D+00
 Gap=     0.110 Goal=   None    Shift=    0.000
 Gap=     0.078 Goal=   None    Shift=    0.000
 RMSDP=2.11D-05 MaxDP=3.34D-03 DE=-1.21D-03 OVMax= 7.66D-03

 Cycle   7  Pass 1  IDiag  1:
 RMSU=  1.77D-05    CP:  9.54D-01  2.01D+00  8.01D-01  6.47D-01  7.40D-01
                    CP:  9.20D-01
 E= -1707.54533643063     Delta-E=       -0.000187571639 Rises=F Damp=F
 DIIS: error= 2.41D-04 at cycle   7 NSaved=   7.
 NSaved= 7 IEnMin= 7 EnMin= -1707.54533643063     IErMin= 7 ErrMin= 2.41D-04
 ErrMax= 2.41D-04  0.00D+00 EMaxC= 1.00D-01 BMatC= 8.09D-05 BMatP= 6.23D-04
 IDIUse=3 WtCom= 9.98D-01 WtEn= 2.41D-03
 Coeff-Com:  0.220D-02-0.497D-02-0.131D-01-0.274D-01 0.151D-01 0.217D+00
 Coeff-Com:  0.811D+00
 Coeff-En:   0.000D+00 0.000D+00 0.000D+00 0.000D+00 0.000D+00 0.000D+00
 Coeff-En:   0.100D+01
 Coeff:      0.219D-02-0.496D-02-0.131D-01-0.274D-01 0.150D-01 0.216D+00
 Coeff:      0.812D+00
 Gap=     0.111 Goal=   None    Shift=    0.000
 Gap=     0.079 Goal=   None    Shift=    0.000
 RMSDP=1.36D-05 MaxDP=2.64D-03 DE=-1.88D-04 OVMax= 6.01D-03

 Cycle   8  Pass 1  IDiag  1:
 RMSU=  8.52D-06    CP:  9.54D-01  2.01D+00  8.03D-01  6.53D-01  7.87D-01
                    CP:  1.13D+00  1.08D+00
 E= -1707.54539743358     Delta-E=       -0.000061002954 Rises=F Damp=F
 DIIS: error= 1.15D-04 at cycle   8 NSaved=   8.
 NSaved= 8 IEnMin= 8 EnMin= -1707.54539743358     IErMin= 8 ErrMin= 1.15D-04
 ErrMax= 1.15D-04  0.00D+00 EMaxC= 1.00D-01 BMatC= 2.94D-05 BMatP= 8.09D-05
 IDIUse=3 WtCom= 9.99D-01 WtEn= 1.15D-03
 Coeff-Com: -0.122D-02 0.158D-02-0.208D-01-0.486D-01-0.850D-01-0.111D+00
 Coeff-Com:  0.365D+00 0.900D+00
 Coeff-En:   0.000D+00 0.000D+00 0.000D+00 0.000D+00 0.000D+00 0.000D+00
 Coeff-En:   0.000D+00 0.100D+01
 Coeff:     -0.122D-02 0.158D-02-0.207D-01-0.485D-01-0.850D-01-0.111D+00
 Coeff:      0.365D+00 0.900D+00
 Gap=     0.111 Goal=   None    Shift=    0.000
 Gap=     0.079 Goal=   None    Shift=    0.000
 RMSDP=1.07D-05 MaxDP=1.70D-03 DE=-6.10D-05 OVMax= 4.90D-03

 Cycle   9  Pass 1  IDiag  1:
 RMSU=  4.51D-06    CP:  9.54D-01  2.01D+00  8.05D-01  6.54D-01  8.24D-01
                    CP:  1.26D+00  1.44D+00  1.25D+00
 E= -1707.54542097237     Delta-E=       -0.000023538786 Rises=F Damp=F
 DIIS: error= 5.57D-05 at cycle   9 NSaved=   9.
 NSaved= 9 IEnMin= 9 EnMin= -1707.54542097237     IErMin= 9 ErrMin= 5.57D-05
 ErrMax= 5.57D-05  0.00D+00 EMaxC= 1.00D-01 BMatC= 1.03D-05 BMatP= 2.94D-05
[...]
      3          6           0        0.307139    3.179151   -0.574794
      4          6           0        1.545364    3.809915   -0.740230
      5          6           0        2.741664    3.102221   -0.612964
      6          6           0        2.755493    1.729759   -0.299921
      7          6           0       -0.098489   -0.330642    0.067636
      8          1           0       -0.620838    3.728719   -0.676427
      9          1           0        1.577406    4.868697   -0.964607
     10          1           0        3.686869    3.617076   -0.736628
     11          6           0       -2.302508   -1.476426   -0.020682
     12          6           0       -3.061430   -2.670192   -0.123056
     13          6           0       -2.474707   -3.934074   -0.062691
     14          6           0       -1.091667   -3.978101    0.108039
     15          6           0       -0.316477   -2.810226    0.191128
     16          6           0       -0.895692   -1.540860    0.110418
     17          6           0       -4.367126   -0.875505   -0.213349
     18          1           0       -3.064453   -4.838671   -0.140770
     19          1           0       -0.597645   -4.940333    0.164357
     20          1           0        0.758581   -2.882751    0.295880
     21          7           0       -0.685794    0.886702   -0.135150
     22          6           0       -6.879945   -0.728049   -0.483433
     23          6           0       -5.585691   -0.085656   -0.228812
     24          6           0       -5.527856    1.266561    0.048623
     25          6           0       -6.692707    2.052782    0.133486
     26          6           0       -7.948492    1.438301   -0.090332
     27          6           0       -8.085453    0.099106   -0.384517
     28          1           0       -4.563626    1.716093    0.251424
     29          1           0       -8.835204    2.049546   -0.012034
     30          6           0       -6.549102    3.530664    0.471463
     31          6           0       -9.439541   -0.566477   -0.597971
     32          8           0       -6.951973   -1.950958   -0.775967
     33          7           0       -3.131872   -0.379463   -0.081004
     34          7           0       -4.360522   -2.243167   -0.262507
     35          7           0        1.240281   -0.244006    0.106468
     36          6           0        4.000715    1.059441   -0.120807
     37          1           0        4.905005    1.626799   -0.321694
     38          7           0        4.113695   -0.145246    0.361826
     39          6           0        5.406318   -0.815298    0.636143
     40          6           0        5.960745   -1.514584   -0.615247
     41          6           0        6.388077    0.220858    1.200342
     42          1           0        5.199964   -1.588181    1.378298
     43          6           0        7.342082   -2.106631   -0.301398
     44          1           0        6.062261   -0.787042   -1.428473
     45          1           0        5.251117   -2.280410   -0.944142
     46          6           0        7.778456   -0.360279    1.453703
     47          1           0        6.492376    1.024013    0.466068
     48          1           0        5.956158    0.652555    2.103387
     49          6           0        8.308237   -1.013080    0.171452
     50          1           0        7.741927   -2.586026   -1.194883
     51          1           0        7.267836   -2.876718    0.476608
     52          1           0        8.448961    0.433981    1.789109
     53          1           0        7.737362   -1.110504    2.255259
     54          1           0        9.298909   -1.438880    0.352644
     55          1           0        8.416583   -0.265469   -0.625915
     56          1           0       -5.219063   -2.767876   -0.398664
     57          1           0       -1.699893    0.992424   -0.192517
     58          1           0        3.236128   -0.620200    0.603028
     59          6           0       -5.835609    4.242527   -0.703688
     60          1           0       -5.998045    5.321041   -0.623870
     61          1           0       -4.759849    4.053908   -0.686302
     62          1           0       -6.231165    3.920558   -1.671169
     63          6           0       -7.901517    4.217876    0.706423
     64          1           0       -8.505263    4.227639   -0.203810
     65          1           0       -8.481437    3.726348    1.492463
     66          1           0       -7.728060    5.253563    1.002029
     67          6           0       -5.683131    3.674481    1.745292
     68          1           0       -6.038733    3.025931    2.548023
     69          1           0       -4.638945    3.429458    1.540860
     70          1           0       -5.728896    4.708072    2.100281
     71          6           0       -9.527673   -1.079264   -2.061953
     72          1           0       -9.082268   -2.068803   -2.155256
     73          1           0      -10.573044   -1.128831   -2.376135
     74          1           0       -9.010916   -0.402275   -2.746291
     75          6           0      -10.596599    0.418964   -0.362919
     76          1           0      -10.580204    0.825983    0.652000
     77          1           0      -10.569365    1.253098   -1.069397
     78          1           0      -11.542192   -0.108329   -0.505831
     79          6           0       -9.591080   -1.744457    0.406958
     80          1           0      -10.641248   -1.864546    0.682481
     81          1           0       -9.232604   -2.677843   -0.022001
     82          1           0       -9.029090   -1.553528    1.323921
 ---------------------------------------------------------------------
 Rotational constants (GHZ):           0.1790644           0.0308853           0.0270255
 Leave Link  202 at Fri Dec 21 08:28:51 2018, MaxMem=  1342177280 cpu:               1.3 elap:               0.1
 (Enter /gpfs/apps/hpc/Apps/Restricted/Gaussian/Rev_A.03/g16/l301.exe)
 Standard basis: 6-31G(d,p) (6D, 7F)
 Ernie: Thresh=  0.10000D-02 Tol=  0.10000D-05 Strict=F.
   820 basis functions,  1435 primitive gaussians,   820 cartesian basis functions
   147 alpha electrons      146 beta electrons
       nuclear repulsion energy      4420.6526449999 Hartrees.
 IExCor=  402 DFT=T Ex+Corr=B3LYP ExCW=0 ScaHFX=  0.200000
 ScaDFX=  0.800000  0.720000  1.000000  0.810000 ScalE2=  1.000000  1.000000
 IRadAn=      5 IRanWt=     -1 IRanGd=            0 ICorTp=0 IEmpDi=141
 NAtoms=   82 NActive=   82 NUniq=   82 SFac= 1.00D+00 NAtFMM=   60 NAOKFM=T Big=T
 Integral buffers will be    131072 words long.
 Raffenetti 2 integral format.
 Two-electron integral symmetry is turned off.
 R6Disp:  Grimme-D3(BJ) Dispersion energy=       -0.1854811408 Hartrees.
 Nuclear repulsion after empirical dispersion term =     4420.4671638591 Hartrees.
 Force inversion solution in PCM.
 ------------------------------------------------------------------------------
 Polarizable Continuum Model (PCM)
 =================================
 Model                : C-PCM.
 Atomic radii         : Bondi.
 Polarization charges : Total charges.
 Charge compensation  : None.
 Solution method      : Matrix inversion.
 Cavity type          : Scaled VdW (van der Waals Surface) (Alpha=1.100).
 Cavity algorithm     : GePol (No added spheres)
                        Default sphere list used, NSphG=   82.
                        Lebedev-Laikov grids with approx.  5.0 points / Ang**2.
                        Smoothing algorithm: York/Karplus (Gamma=1.0000).
                        Polarization charges: spherical gaussians, with
                                              point-specific exponents (IZeta= 3).
                        Self-potential: point-specific (ISelfS= 7).
                        Self-field    : sphere-specific E.n sum rule (ISelfD= 2).
 1st derivatives      : Analytical E(r).r(x)/FMM algorithm (CHGder, D1EAlg=3).
                        Cavity 1st derivative terms included.
 2nd derivatives      : Analytical E(r).r(xy)/FMM algorithm (CHGder, D2EAlg=3).
                        Cavity 2nd derivative terms included.
 Solvent              : Dichloromethane, Eps=   8.930000 Eps(inf)=   2.028346
 ------------------------------------------------------------------------------
 GePol: Number of generator spheres                  =      82
 GePol: Total number of spheres                      =      82
 GePol: Number of exposed spheres                    =      82 (100.00%)
 GePol: Number of points                             =    5253
 GePol: Average weight of points                     =       0.12
 GePol: Minimum weight of points                     =   0.41D-10
 GePol: Maximum weight of points                     =    0.21770
 GePol: Number of points with low weight             =     352
 GePol: Fraction of low-weight points (<1% of avg)   =       6.70%
 GePol: Cavity surface area                          =    624.900 Ang**2
 GePol: Cavity volume                                =    611.763 Ang**3
 PCM non-electrostatic energy =         0.0292336128 Hartrees.
 Nuclear repulsion after PCM non-electrostatic terms =     4420.4963974720 Hartrees.
 Leave Link  301 at Fri Dec 21 08:28:52 2018, MaxMem=  1342177280 cpu:               3.9 elap:               0.3
 (Enter /gpfs/apps/hpc/Apps/Restricted/Gaussian/Rev_A.03/g16/l302.exe)
 NPDir=0 NMtPBC=     1 NCelOv=     1 NCel=       1 NClECP=     1 NCelD=      1
         NCelK=      1 NCelE2=     1 NClLst=     1 CellRange=     0.0.
 One-electron integrals computed using PRISM.
 NBasis=   820 RedAO= T EigKep=  2.92D-04  NBF=   820
 NBsUse=   820 1.00D-06 EigRej= -1.00D+00 NBFU=   820
 Precomputing XC quadrature grid using
 IXCGrd= 4 IRadAn=           5 IRanWt=          -1 IRanGd=           0 AccXCQ= 0.00D+00.
 Generated NRdTot=       0 NPtTot=           0 NUsed=           0 NTot=          32
 NSgBfM=   750   750   750   750   750 MxSgAt=    82 MxSgA2=    82.
 Leave Link  302 at Fri Dec 21 08:28:53 2018, MaxMem=  1342177280 cpu:              28.1 elap:               1.8
 (Enter /gpfs/apps/hpc/Apps/Restricted/Gaussian/Rev_A.03/g16/l303.exe)
 DipDrv:  MaxL=1.
 Leave Link  303 at Fri Dec 21 08:28:54 2018, MaxMem=  1342177280 cpu:               2.1 elap:               0.2
 (Enter /gpfs/apps/hpc/Apps/Restricted/Gaussian/Rev_A.03/g16/l401.exe)
 Initial guess from the checkpoint file:  "cyclohexyl-diBIP-E3PT.chk"
 B after Tr=    -0.001110   -0.004759   -0.046957
         Rot=    0.999987   -0.005046    0.000514    0.000145 Ang=  -0.58 deg.
 Guess basis will be translated and rotated to current coordinates.
 JPrj=2 DoOrth=T DoCkMO=T.
 Initial guess <Sx>= 0.0000 <Sy>= 0.0000 <Sz>= 0.5000 <S**2>= 0.7741 S= 0.5120
 Generating alternative initial guess.
 ExpMin= 1.61D-01 ExpMax= 5.48D+03 ExpMxC= 8.25D+02 IAcc=2 IRadAn=         4 AccDes= 0.00D+00
 Harris functional with IExCor=  402 and IRadAn=       4 diagonalized for initial guess.
 HarFok:  IExCor=  402 AccDes= 0.00D+00 IRadAn=         4 IDoV= 1 UseB2=F ITyADJ=14
 ICtDFT=  3500011 ScaDFX=  1.000000  1.000000  1.000000  1.000000
 FoFCou: FMM=F IPFlag=           0 FMFlag=      100000 FMFlg1=        2001
         NFxFlg=           0 DoJE=T BraDBF=F KetDBF=T FulRan=T
         wScrn=  0.000000 ICntrl=       500 IOpCl=  0 I1Cent=   200000004 NGrid=           0
         NMat0=    1 NMatS0=      1 NMatT0=    0 NMatD0=    1 NMtDS0=    0 NMtDT0=    0
 Symmetry not used in FoFCou.
 Harris En= -1707.46936235201    
 Leave Link  401 at Fri Dec 21 08:28:59 2018, MaxMem=  1342177280 cpu:              76.8 elap:               4.9
 (Enter /gpfs/apps/hpc/Apps/Restricted/Gaussian/Rev_A.03/g16/l502.exe)
 Two-electron integral symmetry not used.
 UHF open shell SCF:
 Using DIIS extrapolation, IDIIS=  1040.
 NGot=  1342177280 LenX=  1340812546 LenY=  1340139326
 Requested convergence on RMS density matrix=1.00D-08 within 128 cycles.
 Requested convergence on MAX density matrix=1.00D-06.
 Requested convergence on             energy=1.00D-06.
 No special actions if energy rises.
 Fock matrices will be formed incrementally for  20 cycles.

 Cycle   1  Pass 1  IDiag  1:
 FoFJK:  IHMeth= 1 ICntrl=       0 DoSepK=F KAlg= 0 I1Cent=           0 FoldK=F
 IRaf= 630000000 NMat=       1 IRICut=       1 DoRegI=T DoRafI=F ISym2E= 0 IDoP0=0 IntGTp=1.
 FoFCou: FMM=T IPFlag=           0 FMFlag=      100000 FMFlg1=        2001
         NFxFlg=           0 DoJE=F BraDBF=F KetDBF=F FulRan=T
         wScrn=  0.000000 ICntrl=         0 IOpCl=  1 I1Cent=           0 NGrid=           0
         NMat0=    1 NMatS0=      1 NMatT0=    0 NMatD0=    1 NMtDS0=    0 NMtDT0=    0
 Symmetry not used in FoFCou.
 FMM levels:  10  Number of levels for PrismC:   9
 Inv3:  Mode=1 IEnd=    82782027.
 Iteration    1 A*A^-1 deviation from unit magnitude is 1.69D-14 for    638.
 Iteration    1 A*A^-1 deviation from orthogonality  is 6.26D-15 for   4261   1953.
 Iteration    1 A^-1*A deviation from unit magnitude is 1.69D-14 for    638.
 Iteration    1 A^-1*A deviation from orthogonality  is 4.38D-15 for   5227   3358.
 E= -1706.48702973391    
 DIIS: error= 2.91D-02 at cycle   1 NSaved=   1.
 NSaved= 1 IEnMin= 1 EnMin= -1706.48702973391     IErMin= 1 ErrMin= 2.91D-02
 ErrMax= 2.91D-02  0.00D+00 EMaxC= 1.00D-01 BMatC= 2.12D+00 BMatP= 2.12D+00
 IDIUse=3 WtCom= 7.09D-01 WtEn= 2.91D-01
 Coeff-Com:  0.100D+01
 Coeff-En:   0.100D+01
 Coeff:      0.100D+01
 Recover alternate guess density for next cycle.
 RMSDP=2.19D-03 MaxDP=1.16D-01              OVMax= 0.00D+00

 Cycle   2  Pass 1  IDiag  1:
 RMSU=  2.19D-03    CP:  1.01D+00
 E= -1706.59162583877     Delta-E=       -0.104596104868 Rises=F Damp=F
 DIIS: error= 2.56D-02 at cycle   2 NSaved=   2.
 NSaved= 2 IEnMin= 2 EnMin= -1706.59162583877     IErMin= 2 ErrMin= 2.56D-02
 ErrMax= 2.56D-02  0.00D+00 EMaxC= 1.00D-01 BMatC= 3.69D+00 BMatP= 2.12D+00
 IDIUse=2 WtCom= 0.00D+00 WtEn= 1.00D+00
 Coeff-En:   0.336D+00 0.664D+00
 Coeff:      0.336D+00 0.664D+00
 Gap=     0.094 Goal=   None    Shift=    0.000
 Gap=     0.070 Goal=   None    Shift=    0.000
 RMSDP=2.37D-03 MaxDP=1.65D-01 DE=-1.05D-01 OVMax= 2.50D-01

 Cycle   3  Pass 1  IDiag  1:
 RMSU=  1.67D-03    CP:  9.79D-01  2.41D-01
 E= -1706.99933996311     Delta-E=       -0.407714124338 Rises=F Damp=F
 DIIS: error= 1.75D-02 at cycle   3 NSaved=   3.
 NSaved= 3 IEnMin= 3 EnMin= -1706.99933996311     IErMin= 3 ErrMin= 1.75D-02
 ErrMax= 1.75D-02  0.00D+00 EMaxC= 1.00D-01 BMatC= 2.20D+00 BMatP= 2.12D+00
 IDIUse=3 WtCom= 8.25D-01 WtEn= 1.75D-01
 Coeff-Com:  0.659D-01 0.403D+00 0.531D+00
 Coeff-En:   0.000D+00 0.361D+00 0.639D+00
 Coeff:      0.543D-01 0.396D+00 0.550D+00
 Gap=     0.123 Goal=   None    Shift=    0.000
 Gap=     0.097 Goal=   None    Shift=    0.000
 RMSDP=1.15D-03 MaxDP=1.02D-01 DE=-4.08D-01 OVMax= 1.33D-01

 Cycle   4  Pass 1  IDiag  1:
 RMSU=  6.18D-04    CP:  9.80D-01  4.91D-01  5.22D-01
 E= -1707.51248273060     Delta-E=       -0.513142767491 Rises=F Damp=F
 DIIS: error= 6.39D-03 at cycle   4 NSaved=   4.
 NSaved= 4 IEnMin= 4 EnMin= -1707.51248273060     IErMin= 4 ErrMin= 6.39D-03
 ErrMax= 6.39D-03  0.00D+00 EMaxC= 1.00D-01 BMatC= 1.81D-01 BMatP= 2.12D+00
 IDIUse=3 WtCom= 9.36D-01 WtEn= 6.39D-02
 Coeff-Com:  0.843D-03 0.163D+00 0.293D+00 0.542D+00
 Coeff-En:   0.000D+00 0.000D+00 0.000D+00 0.100D+01
 Coeff:      0.789D-03 0.153D+00 0.275D+00 0.572D+00
 Gap=     0.110 Goal=   None    Shift=    0.000
 Gap=     0.076 Goal=   None    Shift=    0.000
 RMSDP=3.87D-04 MaxDP=6.49D-02 DE=-5.13D-01 OVMax= 6.75D-02

 Cycle   5  Pass 1  IDiag  1:
 RMSU=  2.54D-04    CP:  9.83D-01  4.72D-01  6.02D-01  5.89D-01
 E= -1707.54441630748     Delta-E=       -0.031933576882 Rises=F Damp=F
 DIIS: error= 4.39D-03 at cycle   5 NSaved=   5.
 NSaved= 5 IEnMin= 5 EnMin= -1707.54441630748     IErMin= 5 ErrMin= 4.39D-03
 ErrMax= 4.39D-03  0.00D+00 EMaxC= 1.00D-01 BMatC= 4.88D-02 BMatP= 1.81D-01
 IDIUse=3 WtCom= 9.56D-01 WtEn= 4.39D-02
 Coeff-Com: -0.379D-02 0.318D-01 0.817D-01 0.372D+00 0.519D+00
 Coeff-En:   0.000D+00 0.000D+00 0.000D+00 0.215D+00 0.785D+00
 Coeff:     -0.362D-02 0.305D-01 0.781D-01 0.365D+00 0.530D+00
 Gap=     0.112 Goal=   None    Shift=    0.000
 Gap=     0.076 Goal=   None    Shift=    0.000
 RMSDP=1.60D-04 MaxDP=2.73D-02 DE=-3.19D-02 OVMax= 2.59D-02

 Cycle   6  Pass 1  IDiag  1:
 RMSU=  8.56D-05    CP:  9.82D-01  4.76D-01  5.87D-01  7.02D-01  5.57D-01
 E= -1707.55407795086     Delta-E=       -0.009661643374 Rises=F Damp=F
 DIIS: error= 1.07D-03 at cycle   6 NSaved=   6.
 NSaved= 6 IEnMin= 6 EnMin= -1707.55407795086     IErMin= 6 ErrMin= 1.07D-03
 ErrMax= 1.07D-03  0.00D+00 EMaxC= 1.00D-01 BMatC= 3.21D-03 BMatP= 4.88D-02
 IDIUse=3 WtCom= 9.89D-01 WtEn= 1.07D-02
 Coeff-Com: -0.163D-02 0.223D-02 0.168D-01 0.156D+00 0.297D+00 0.530D+00
 Coeff-En:   0.000D+00 0.000D+00 0.000D+00 0.000D+00 0.000D+00 0.100D+01
 Coeff:     -0.161D-02 0.221D-02 0.166D-01 0.154D+00 0.294D+00 0.535D+00
 Gap=     0.111 Goal=   None    Shift=    0.000
 Gap=     0.078 Goal=   None    Shift=    0.000
 RMSDP=4.67D-05 MaxDP=9.30D-03 DE=-9.66D-03 OVMax= 1.28D-02

 Cycle   7  Pass 1  IDiag  1:
 RMSU=  3.00D-05    CP:  9.82D-01  4.74D-01  5.87D-01  7.12D-01  6.14D-01
                    CP:  6.26D-01
 E= -1707.55478342793     Delta-E=       -0.000705477069 Rises=F Damp=F
 DIIS: error= 3.67D-04 at cycle   7 NSaved=   7.
 NSaved= 7 IEnMin= 7 EnMin= -1707.55478342793     IErMin= 7 ErrMin= 3.67D-04
 ErrMax= 3.67D-04  0.00D+00 EMaxC= 1.00D-01 BMatC= 3.60D-04 BMatP= 3.21D-03
 IDIUse=3 WtCom= 9.96D-01 WtEn= 3.67D-03
 Coeff-Com: -0.483D-03-0.139D-02 0.174D-02 0.504D-01 0.108D+00 0.302D+00
 Coeff-Com:  0.539D+00
 Coeff-En:   0.000D+00 0.000D+00 0.000D+00 0.000D+00 0.000D+00 0.000D+00
 Coeff-En:   0.100D+01
 Coeff:     -0.482D-03-0.139D-02 0.173D-02 0.502D-01 0.108D+00 0.301D+00
 Coeff:      0.541D+00
 Gap=     0.111 Goal=   None    Shift=    0.000
 Gap=     0.078 Goal=   None    Shift=    0.000
 RMSDP=1.56D-05 MaxDP=2.45D-03 DE=-7.05D-04 OVMax= 4.96D-03

 Cycle   8  Pass 1  IDiag  1:
 RMSU=  1.29D-05    CP:  9.82D-01  4.74D-01  5.87D-01  7.14D-01  6.15D-01
                    CP:  7.18D-01  8.88D-01
 E= -1707.55488580339     Delta-E=       -0.000102375464 Rises=F Damp=F
 DIIS: error= 1.38D-04 at cycle   8 NSaved=   8.
 NSaved= 8 IEnMin= 8 EnMin= -1707.55488580339     IErMin= 8 ErrMin= 1.38D-04
 ErrMax= 1.38D-04  0.00D+00 EMaxC= 1.00D-01 BMatC= 4.43D-05 BMatP= 3.60D-04
 IDIUse=3 WtCom= 9.99D-01 WtEn= 1.38D-03
 Coeff-Com:  0.126D-03-0.968D-03-0.267D-02-0.954D-02-0.180D-01 0.274D-01
 Coeff-Com:  0.221D+00 0.782D+00
 Coeff-En:   0.000D+00 0.000D+00 0.000D+00 0.000D+00 0.000D+00 0.000D+00
 Coeff-En:   0.000D+00 0.100D+01
 Coeff:      0.126D-03-0.967D-03-0.267D-02-0.953D-02-0.180D-01 0.274D-01
 Coeff:      0.221D+00 0.783D+00
 Gap=     0.112 Goal=   None    Shift=    0.000
 Gap=     0.079 Goal=   None    Shift=    0.000
 RMSDP=9.34D-06 MaxDP=1.78D-03 DE=-1.02D-04 OVMax= 4.03D-03

 Cycle   9  Pass 1  IDiag  1:
 RMSU=  6.17D-06    CP:  9.82D-01  4.74D-01  5.87D-01  7.15D-01  6.21D-01
                    CP:  7.58D-01  1.08D+00  1.05D+00
 E= -1707.55491707406     Delta-E=       -0.000031270668 Rises=F Damp=F
 DIIS: error= 7.85D-05 at cycle   9 NSaved=   9.
 NSaved= 9 IEnMin= 9 EnMin= -1707.55491707406     IErMin= 9 ErrMin= 7.85D-05
 ErrMax= 7.85D-05  0.00D+00 EMaxC= 1.00D-01 BMatC= 1.57D-05 BMatP= 4.43D-05
 IDIUse=1 WtCom= 1.00D+00 WtEn= 0.00D+00
 Coeff-Com:  0.241D-03 0.364D-04-0.176D-02-0.195D-01-0.455D-01-0.823D-01
 Coeff-Com: -0.112D+00 0.335D+00 0.925D+00
 Coeff:      0.241D-03 0.364D-04-0.176D-02-0.195D-01-0.455D-01-0.823D-01
 Coeff:     -0.112D+00 0.335D+00 0.925D+00
 Gap=     0.112 Goal=   None    Shift=    0.000
 Gap=     0.079 Goal=   None    Shift=    0.000
 RMSDP=7.78D-06 MaxDP=1.25D-03 DE=-3.13D-05 OVMax= 3.53D-03

 Cycle  10  Pass 1  IDiag  1:
 RMSU=  3.29D-06    CP:  9.82D-01  4.73D-01  5.87D-01  7.17D-01  6.22D-01
                    CP:  7.92D-01  1.21D+00  1.41D+00  1.26D+00
