 Entering Gaussian System, Link 0=g16
 Initial command:
 /gpfs/apps/hpc/Apps/Restricted/Gaussian/Rev_A.03/g16/l1.exe "/gpfs/scratch60/fas/hammes_schiffer/jg2487/c27n01/Gau-27888.inp" -scrdir="/gpfs/scratch60/fas/hammes_schiffer/jg2487/c27n01/"
 Entering Link 1 = /gpfs/apps/hpc/Apps/Restricted/Gaussian/Rev_A.03/g16/l1.exe PID=     27889.
  
 Copyright (c) 1988,1990,1992,1993,1995,1998,2003,2009,2016,
            Gaussian, Inc.  All Rights Reserved.
  
 This is part of the Gaussian(R) 16 program.  It is based on
 the Gaussian(R) 09 system (copyright 2009, Gaussian, Inc.),
 the Gaussian(R) 03 system (copyright 2003, Gaussian, Inc.),
 the Gaussian(R) 98 system (copyright 1998, Gaussian, Inc.),
 the Gaussian(R) 94 system (copyright 1995, Gaussian, Inc.),
 the Gaussian 92(TM) system (copyright 1992, Gaussian, Inc.),
 the Gaussian 90(TM) system (copyright 1990, Gaussian, Inc.),
 the Gaussian 88(TM) system (copyright 1988, Gaussian, Inc.),
 the Gaussian 86(TM) system (copyright 1986, Carnegie Mellon
 University), and the Gaussian 82(TM) system (copyright 1983,
 Carnegie Mellon University). Gaussian is a federally registered
 trademark of Gaussian, Inc.
  
 This software contains proprietary and confidential information,
 including trade secrets, belonging to Gaussian, Inc.
  
 This software is provided under written license and may be
 used, copied, transmitted, or stored only in accord with that
 written license.
  
 The following legend is applicable only to US Government
 contracts under FAR:
  
                    RESTRICTED RIGHTS LEGEND
  
 Use, reproduction and disclosure by the US Government is
 subject to restrictions as set forth in subparagraphs (a)
 and (c) of the Commercial Computer Software - Restricted
 Rights clause in FAR 52.227-19.
  
 Gaussian, Inc.
 340 Quinnipiac St., Bldg. 40, Wallingford CT 06492
  
  
 ---------------------------------------------------------------
 Warning -- This program may not be used in any manner that
 competes with the business of Gaussian, Inc. or will provide
 assistance to any competitor of Gaussian, Inc.  The licensee
 of this program is prohibited from giving any competitor of
 Gaussian, Inc. access to this program.  By using this program,
 the user acknowledges that Gaussian, Inc. is engaged in the
 business of creating and licensing software in the field of
 computational chemistry and represents and warrants to the
 licensee that it is not a competitor of Gaussian, Inc. and that
 it will not use this program in any manner prohibited above.
 ---------------------------------------------------------------
  

 Cite this work as:
 Gaussian 16, Revision A.03,
 M. J. Frisch, G. W. Trucks, H. B. Schlegel, G. E. Scuseria, 
 M. A. Robb, J. R. Cheeseman, G. Scalmani, V. Barone, 
 G. A. Petersson, H. Nakatsuji, X. Li, M. Caricato, A. V. Marenich, 
 J. Bloino, B. G. Janesko, R. Gomperts, B. Mennucci, H. P. Hratchian, 
 J. V. Ortiz, A. F. Izmaylov, J. L. Sonnenberg, D. Williams-Young, 
 F. Ding, F. Lipparini, F. Egidi, J. Goings, B. Peng, A. Petrone, 
 T. Henderson, D. Ranasinghe, V. G. Zakrzewski, J. Gao, N. Rega, 
 G. Zheng, W. Liang, M. Hada, M. Ehara, K. Toyota, R. Fukuda, 
 J. Hasegawa, M. Ishida, T. Nakajima, Y. Honda, O. Kitao, H. Nakai, 
 T. Vreven, K. Throssell, J. A. Montgomery, Jr., J. E. Peralta, 
 F. Ogliaro, M. J. Bearpark, J. J. Heyd, E. N. Brothers, K. N. Kudin, 
 V. N. Staroverov, T. A. Keith, R. Kobayashi, J. Normand, 
 K. Raghavachari, A. P. Rendell, J. C. Burant, S. S. Iyengar, 
 J. Tomasi, M. Cossi, J. M. Millam, M. Klene, C. Adamo, R. Cammi, 
 J. W. Ochterski, R. L. Martin, K. Morokuma, O. Farkas, 
 J. B. Foresman, and D. J. Fox, Gaussian, Inc., Wallingford CT, 2016.
 
 ******************************************
 Gaussian 16:  ES64L-G16RevA.03 25-Dec-2016
                14-Dec-2018 
 ******************************************
 %chk=cyclohexyl-diBIP-E3PT.chk
 %mem=10GB
 %nprocshared=16
 Will use up to   16 processors via shared memory.
 ----------------------------------------------------------------------
 #p opt=tight freq=internalmodes b3lyp/6-31g(d,p) scrf=(cpcm,solvent=di
 chloromethane,read) nosymm empiricaldispersion=gd3bj int=grid=ultrafin
 e
 ----------------------------------------------------------------------
 1/7=10,18=20,19=15,26=6,38=1,40=2/1,3;
 2/9=110,12=2,15=1,17=6,18=5,40=1/2;
 3/5=1,6=6,7=101,11=2,25=1,30=1,70=2103,71=1,72=9,74=-5,75=-5,124=41/1,2,3;
 4//1;
 5/5=2,38=5,53=9/2;
 6/7=2,8=2,9=2,10=2,28=1/1;
 7/30=1/1,2,3,16;
 1/7=10,18=20,19=15,26=6/3(2);
 2/9=110,15=1/2;
 99//99;
 2/9=110,15=1/2;
 3/5=1,6=6,7=101,11=2,25=1,30=1,70=2105,71=1,72=9,74=-5,75=-5,124=41/1,2,3;
 4/5=5,16=3,69=1/1;
 5/5=2,38=5,53=9/2;
 7/30=1/1,2,3,16;
 1/7=10,18=20,19=15,26=6/3(-5);
 2/9=110,15=1/2;
 6/7=2,8=2,9=2,10=2,19=2,28=1/1;
 99/9=1/99;
 Leave Link    1 at Fri Dec 14 11:55:54 2018, MaxMem=  1342177280 cpu:               7.1 elap:               0.5
 (Enter /gpfs/apps/hpc/Apps/Restricted/Gaussian/Rev_A.03/g16/l101.exe)
 ----------------------------------------------------------------------
 cyclohexylimine diBIP oxidized, all three proton transferred, optimiza
 tion
 ----------------------------------------------------------------------
 Symbolic Z-matrix:
 Charge =  1 Multiplicity = 2
 C                     1.53135   1.16625   0.05706 
 C                     0.3305    1.91695   0.01362 
 C                     0.32584   3.30324  -0.09857 
 C                     1.56588   3.9496   -0.17234 
 C                     2.76447   3.23497  -0.12875 
 C                     2.77824   1.83071  -0.01464 
 C                    -0.07657  -0.25754   0.17658 
 H                    -0.59983   3.86379  -0.13126 
 H                     1.59545   5.02807  -0.26151 
 H                     3.70769   3.76575  -0.18531 
 C                    -2.27493  -1.42611   0.23469 
 C                    -3.02429  -2.63044   0.28284 
 C                    -2.41973  -3.88406   0.37431 
 C                    -1.02598  -3.9092    0.40693 
 C                    -0.26206  -2.73283   0.34564 
 C                    -0.86182  -1.47317   0.25881 
 C                    -4.35383  -0.85837   0.14246 
 H                    -3.00422  -4.79459   0.41274 
 H                    -0.51588  -4.86231   0.47543 
 H                     0.81886  -2.79144   0.36249 
 N                    -0.66788   0.97226   0.09743 
 C                    -6.87318  -0.77437  -0.08663 
 C                    -5.58062  -0.09093   0.04401 
 C                    -5.53452   1.2923    0.061 
 C                    -6.70058   2.0705   -0.06143 
 C                    -7.94981   1.42383  -0.21291 
 C                    -8.06835   0.05298  -0.22988 
 H                    -4.57478   1.78334   0.17226 
 H                    -8.84118   2.03477  -0.30965 
 C                    -6.61159   3.56628  -0.03779 
 H                    -6.07044   3.90668   0.84994 
 H                    -6.05371   3.93094  -0.90684 
 H                    -7.60049   4.02532  -0.04496 
 C                    -9.38545  -0.63988  -0.37509 
 H                    -9.35421  -1.36931  -1.18851 
 H                    -9.63116  -1.19808   0.53414 
 H                    -10.18141   0.07949  -0.56767 
 O                    -6.97329  -2.02962  -0.07853 
 N                    -3.1192   -0.34228   0.15384 
 N                    -4.33539  -2.22428   0.22109 
 N                     1.26116  -0.17423   0.15923 
 C                     4.01718   1.12223   0.03418 
 H                     4.94427   1.68444  -0.0047 
 N                     4.10121  -0.17157   0.12829 
 C                     5.37289  -0.92352   0.17405 
 C                     6.13523  -0.77961  -1.15036 
 C                     6.22476  -0.48044   1.37075 
 H                     5.08105  -1.96652   0.30875 
 C                     7.46656  -1.53703  -1.09478 
 H                     6.32751   0.28461  -1.32991 
 H                     5.51433  -1.14332  -1.97309 
 C                     7.55275  -1.24448   1.40918 
 H                     6.42874   0.59267   1.28079 
 H                     5.66004  -0.62972   2.29427 
 C                     8.322    -1.08805   0.09404 
 H                     8.00495  -1.38883  -2.03486 
 H                     7.26687  -2.61199  -1.00879 
 H                     8.14947  -0.88716   2.25317 
 H                     7.35362  -2.30816   1.58807 
 H                     9.25105  -1.66436   0.12825 
 H                     8.6026   -0.03582  -0.03867 
 H                    -5.19635  -2.7632    0.1898 
 H                    -1.68164   1.08548   0.08965 
 H                     3.21216  -0.68417   0.16424 
 
 ITRead=  0  0  0  0  0  0  0  0  0  0  0  0  0  0  0  0  0  0  0  0
 ITRead=  0  0  0  0  0  0  0  0  0  0  0  0  0  0  0  0  0  0  0  0
 ITRead=  0  0  0  0  0  0  0  0  0  0  0  0  0  0  0  0  0  0  0  0
 ITRead=  0  0  0  0
 MicOpt= -1 -1 -1 -1 -1 -1 -1 -1 -1 -1 -1 -1 -1 -1 -1 -1 -1 -1 -1 -1
 MicOpt= -1 -1 -1 -1 -1 -1 -1 -1 -1 -1 -1 -1 -1 -1 -1 -1 -1 -1 -1 -1
 MicOpt= -1 -1 -1 -1 -1 -1 -1 -1 -1 -1 -1 -1 -1 -1 -1 -1 -1 -1 -1 -1
 MicOpt= -1 -1 -1 -1
 NAtoms=     64 NQM=       64 NQMF=       0 NMMI=      0 NMMIF=      0
                NMic=       0 NMicF=      0.
                    Isotopes and Nuclear Properties:
 (Nuclear quadrupole moments (NQMom) in fm**2, nuclear magnetic moments (NMagM)
  in nuclear magnetons)

  Atom         1           2           3           4           5           6           7           8           9          10
 IAtWgt=          12          12          12          12          12          12          12           1           1           1
 AtmWgt=  12.0000000  12.0000000  12.0000000  12.0000000  12.0000000  12.0000000  12.0000000   1.0078250   1.0078250   1.0078250
 NucSpn=           0           0           0           0           0           0           0           1           1           1
 AtZEff=  -0.0000000  -0.0000000  -0.0000000  -0.0000000  -0.0000000  -0.0000000  -0.0000000  -0.0000000  -0.0000000  -0.0000000
 NQMom=    0.0000000   0.0000000   0.0000000   0.0000000   0.0000000   0.0000000   0.0000000   0.0000000   0.0000000   0.0000000
 NMagM=    0.0000000   0.0000000   0.0000000   0.0000000   0.0000000   0.0000000   0.0000000   2.7928460   2.7928460   2.7928460
 AtZNuc=   6.0000000   6.0000000   6.0000000   6.0000000   6.0000000   6.0000000   6.0000000   1.0000000   1.0000000   1.0000000

  Atom        11          12          13          14          15          16          17          18          19          20
 IAtWgt=          12          12          12          12          12          12          12           1           1           1
 AtmWgt=  12.0000000  12.0000000  12.0000000  12.0000000  12.0000000  12.0000000  12.0000000   1.0078250   1.0078250   1.0078250
 NucSpn=           0           0           0           0           0           0           0           1           1           1
 AtZEff=  -0.0000000  -0.0000000  -0.0000000  -0.0000000  -0.0000000  -0.0000000  -0.0000000  -0.0000000  -0.0000000  -0.0000000
 NQMom=    0.0000000   0.0000000   0.0000000   0.0000000   0.0000000   0.0000000   0.0000000   0.0000000   0.0000000   0.0000000
 NMagM=    0.0000000   0.0000000   0.0000000   0.0000000   0.0000000   0.0000000   0.0000000   2.7928460   2.7928460   2.7928460
 AtZNuc=   6.0000000   6.0000000   6.0000000   6.0000000   6.0000000   6.0000000   6.0000000   1.0000000   1.0000000   1.0000000

  Atom        21          22          23          24          25          26          27          28          29          30
 IAtWgt=          14          12          12          12          12          12          12           1           1          12
 AtmWgt=  14.0030740  12.0000000  12.0000000  12.0000000  12.0000000  12.0000000  12.0000000   1.0078250   1.0078250  12.0000000
 NucSpn=           2           0           0           0           0           0           0           1           1           0
 AtZEff=  -0.0000000  -0.0000000  -0.0000000  -0.0000000  -0.0000000  -0.0000000  -0.0000000  -0.0000000  -0.0000000  -0.0000000
 NQMom=    2.0440000   0.0000000   0.0000000   0.0000000   0.0000000   0.0000000   0.0000000   0.0000000   0.0000000   0.0000000
 NMagM=    0.4037610   0.0000000   0.0000000   0.0000000   0.0000000   0.0000000   0.0000000   2.7928460   2.7928460   0.0000000
 AtZNuc=   7.0000000   6.0000000   6.0000000   6.0000000   6.0000000   6.0000000   6.0000000   1.0000000   1.0000000   6.0000000

  Atom        31          32          33          34          35          36          37          38          39          40
 IAtWgt=           1           1           1          12           1           1           1          16          14          14
 AtmWgt=   1.0078250   1.0078250   1.0078250  12.0000000   1.0078250   1.0078250   1.0078250  15.9949146  14.0030740  14.0030740
 NucSpn=           1           1           1           0           1           1           1           0           2           2
 AtZEff=  -0.0000000  -0.0000000  -0.0000000  -0.0000000  -0.0000000  -0.0000000  -0.0000000  -0.0000000  -0.0000000  -0.0000000
 NQMom=    0.0000000   0.0000000   0.0000000   0.0000000   0.0000000   0.0000000   0.0000000   0.0000000   2.0440000   2.0440000
 NMagM=    2.7928460   2.7928460   2.7928460   0.0000000   2.7928460   2.7928460   2.7928460   0.0000000   0.4037610   0.4037610
 AtZNuc=   1.0000000   1.0000000   1.0000000   6.0000000   1.0000000   1.0000000   1.0000000   8.0000000   7.0000000   7.0000000

  Atom        41          42          43          44          45          46          47          48          49          50
 IAtWgt=          14          12           1          14          12          12          12           1          12           1
 AtmWgt=  14.0030740  12.0000000   1.0078250  14.0030740  12.0000000  12.0000000  12.0000000   1.0078250  12.0000000   1.0078250
 NucSpn=           2           0           1           2           0           0           0           1           0           1
 AtZEff=  -0.0000000  -0.0000000  -0.0000000  -0.0000000  -0.0000000  -0.0000000  -0.0000000  -0.0000000  -0.0000000  -0.0000000
 NQMom=    2.0440000   0.0000000   0.0000000   2.0440000   0.0000000   0.0000000   0.0000000   0.0000000   0.0000000   0.0000000
 NMagM=    0.4037610   0.0000000   2.7928460   0.4037610   0.0000000   0.0000000   0.0000000   2.7928460   0.0000000   2.7928460
 AtZNuc=   7.0000000   6.0000000   1.0000000   7.0000000   6.0000000   6.0000000   6.0000000   1.0000000   6.0000000   1.0000000

  Atom        51          52          53          54          55          56          57          58          59          60
 IAtWgt=           1          12           1           1          12           1           1           1           1           1
 AtmWgt=   1.0078250  12.0000000   1.0078250   1.0078250  12.0000000   1.0078250   1.0078250   1.0078250   1.0078250   1.0078250
 NucSpn=           1           0           1           1           0           1           1           1           1           1
 AtZEff=  -0.0000000  -0.0000000  -0.0000000  -0.0000000  -0.0000000  -0.0000000  -0.0000000  -0.0000000  -0.0000000  -0.0000000
 NQMom=    0.0000000   0.0000000   0.0000000   0.0000000   0.0000000   0.0000000   0.0000000   0.0000000   0.0000000   0.0000000
 NMagM=    2.7928460   0.0000000   2.7928460   2.7928460   0.0000000   2.7928460   2.7928460   2.7928460   2.7928460   2.7928460
 AtZNuc=   1.0000000   6.0000000   1.0000000   1.0000000   6.0000000   1.0000000   1.0000000   1.0000000   1.0000000   1.0000000

  Atom        61          62          63          64
 IAtWgt=           1           1           1           1
 AtmWgt=   1.0078250   1.0078250   1.0078250   1.0078250
 NucSpn=           1           1           1           1
 AtZEff=  -0.0000000  -0.0000000  -0.0000000  -0.0000000
 NQMom=    0.0000000   0.0000000   0.0000000   0.0000000
 NMagM=    2.7928460   2.7928460   2.7928460   2.7928460
 AtZNuc=   1.0000000   1.0000000   1.0000000   1.0000000
 Leave Link  101 at Fri Dec 14 11:55:55 2018, MaxMem=  1342177280 cpu:               5.1 elap:               0.4
 (Enter /gpfs/apps/hpc/Apps/Restricted/Gaussian/Rev_A.03/g16/l103.exe)

 GradGradGradGradGradGradGradGradGradGradGradGradGradGradGradGradGradGrad
 Berny optimization.
 Initialization pass.
                           ----------------------------
                           !    Initial Parameters    !
                           ! (Angstroms and Degrees)  !
 --------------------------                            --------------------------
 ! Name  Definition              Value          Derivative Info.                !
 --------------------------------------------------------------------------------
 ! R1    R(1,2)                  1.4169         estimate D2E/DX2                !
 ! R2    R(1,6)                  1.4147         estimate D2E/DX2                !
 ! R3    R(1,41)                 1.3713         estimate D2E/DX2                !
 ! R4    R(2,3)                  1.3908         estimate D2E/DX2                !
 ! R5    R(2,21)                 1.377          estimate D2E/DX2                !
 ! R6    R(3,4)                  1.4003         estimate D2E/DX2                !
 ! R7    R(3,8)                  1.0826         estimate D2E/DX2                !
 ! R8    R(4,5)                  1.3961         estimate D2E/DX2                !
 ! R9    R(4,9)                  1.0826         estimate D2E/DX2                !
 ! R10   R(5,6)                  1.409          estimate D2E/DX2                !
 ! R11   R(5,10)                 1.0838         estimate D2E/DX2                !
 ! R12   R(6,42)                 1.428          estimate D2E/DX2                !
 ! R13   R(7,16)                 1.4495         estimate D2E/DX2                !
 ! R14   R(7,21)                 1.3669         estimate D2E/DX2                !
 ! R15   R(7,41)                 1.3404         estimate D2E/DX2                !
 ! R16   R(11,12)                1.4193         estimate D2E/DX2                !
 ! R17   R(11,16)                1.4141         estimate D2E/DX2                !
 ! R18   R(11,39)                1.3762         estimate D2E/DX2                !
 ! R19   R(12,13)                1.3948         estimate D2E/DX2                !
 ! R20   R(12,40)                1.374          estimate D2E/DX2                !
 ! R21   R(13,14)                1.3943         estimate D2E/DX2                !
 ! R22   R(13,18)                1.0827         estimate D2E/DX2                !
 ! R23   R(14,15)                1.404          estimate D2E/DX2                !
 ! R24   R(14,19)                1.0832         estimate D2E/DX2                !
 ! R25   R(15,16)                1.3979         estimate D2E/DX2                !
 ! R26   R(15,20)                1.0826         estimate D2E/DX2                !
 ! R27   R(17,23)                1.4504         estimate D2E/DX2                !
 ! R28   R(17,39)                1.3382         estimate D2E/DX2                !
 ! R29   R(17,40)                1.3683         estimate D2E/DX2                !
 ! R30   R(21,63)                1.0201         estimate D2E/DX2                !
 ! R31   R(22,23)                1.4679         estimate D2E/DX2                !
 ! R32   R(22,27)                1.4606         estimate D2E/DX2                !
 ! R33   R(22,38)                1.2593         estimate D2E/DX2                !
 ! R34   R(23,24)                1.3841         estimate D2E/DX2                !
 ! R35   R(24,25)                1.4072         estimate D2E/DX2                !
 ! R36   R(24,28)                1.0838         estimate D2E/DX2                !
 ! R37   R(25,26)                1.4148         estimate D2E/DX2                !
 ! R38   R(25,30)                1.4986         estimate D2E/DX2                !
 ! R39   R(26,27)                1.3761         estimate D2E/DX2                !
 ! R40   R(26,29)                1.085          estimate D2E/DX2                !
 ! R41   R(27,34)                1.4953         estimate D2E/DX2                !
 ! R42   R(30,31)                1.094          estimate D2E/DX2                !
 ! R43   R(30,32)                1.0952         estimate D2E/DX2                !
 ! R44   R(30,33)                1.0903         estimate D2E/DX2                !
 ! R45   R(34,35)                1.093          estimate D2E/DX2                !
 ! R46   R(34,36)                1.0948         estimate D2E/DX2                !
 ! R47   R(34,37)                1.09           estimate D2E/DX2                !
 ! R48   R(40,62)                1.0162         estimate D2E/DX2                !
 ! R49   R(42,43)                1.0849         estimate D2E/DX2                !
 ! R50   R(42,44)                1.2999         estimate D2E/DX2                !
 ! R51   R(44,45)                1.4781         estimate D2E/DX2                !
 ! R52   R(44,64)                1.0269         estimate D2E/DX2                !
 ! R53   R(45,46)                1.5349         estimate D2E/DX2                !
 ! R54   R(45,47)                1.5343         estimate D2E/DX2                !
 ! R55   R(45,48)                1.0914         estimate D2E/DX2                !
 ! R56   R(46,49)                1.5327         estimate D2E/DX2                !
 ! R57   R(46,50)                1.0962         estimate D2E/DX2                !
 ! R58   R(46,51)                1.093          estimate D2E/DX2                !
 ! R59   R(47,52)                1.5326         estimate D2E/DX2                !
 ! R60   R(47,53)                1.096          estimate D2E/DX2                !
 ! R61   R(47,54)                1.0927         estimate D2E/DX2                !
 ! R62   R(49,55)                1.5319         estimate D2E/DX2                !
 ! R63   R(49,56)                1.0934         estimate D2E/DX2                !
 ! R64   R(49,57)                1.0967         estimate D2E/DX2                !
 ! R65   R(52,55)                1.5316         estimate D2E/DX2                !
 ! R66   R(52,58)                1.0937         estimate D2E/DX2                !
 ! R67   R(52,59)                1.0969         estimate D2E/DX2                !
 ! R68   R(55,60)                1.0938         estimate D2E/DX2                !
 ! R69   R(55,61)                1.0971         estimate D2E/DX2                !
 ! A1    A(2,1,6)              119.7756         estimate D2E/DX2                !
 ! A2    A(2,1,41)             110.6849         estimate D2E/DX2                !
 ! A3    A(6,1,41)             129.5376         estimate D2E/DX2                !
 ! A4    A(1,2,3)              122.2369         estimate D2E/DX2                !
 ! A5    A(1,2,21)             104.4263         estimate D2E/DX2                !
 ! A6    A(3,2,21)             133.3359         estimate D2E/DX2                !
 ! A7    A(2,3,4)              117.474          estimate D2E/DX2                !
 ! A8    A(2,3,8)              121.4236         estimate D2E/DX2                !
 ! A9    A(4,3,8)              121.1021         estimate D2E/DX2                !
 ! A10   A(3,4,5)              121.4888         estimate D2E/DX2                !
 ! A11   A(3,4,9)              119.2325         estimate D2E/DX2                !
 ! A12   A(5,4,9)              119.2784         estimate D2E/DX2                !
 ! A13   A(4,5,6)              121.4042         estimate D2E/DX2                !
 ! A14   A(4,5,10)             119.6594         estimate D2E/DX2                !
 ! A15   A(6,5,10)             118.9363         estimate D2E/DX2                !
 ! A16   A(1,6,5)              117.6199         estimate D2E/DX2                !
 ! A17   A(1,6,42)             122.0002         estimate D2E/DX2                !
 ! A18   A(5,6,42)             120.3786         estimate D2E/DX2                !
 ! A19   A(16,7,21)            121.5658         estimate D2E/DX2                !
 ! A20   A(16,7,41)            126.405          estimate D2E/DX2                !
 ! A21   A(21,7,41)            112.0281         estimate D2E/DX2                !
 ! A22   A(12,11,16)           119.9212         estimate D2E/DX2                !
 ! A23   A(12,11,39)           110.265          estimate D2E/DX2                !
 ! A24   A(16,11,39)           129.8102         estimate D2E/DX2                !
 ! A25   A(11,12,13)           122.415          estimate D2E/DX2                !
 ! A26   A(11,12,40)           104.5645         estimate D2E/DX2                !
 ! A27   A(13,12,40)           133.0205         estimate D2E/DX2                !
 ! A28   A(12,13,14)           116.8079         estimate D2E/DX2                !
 ! A29   A(12,13,18)           121.6148         estimate D2E/DX2                !
 ! A30   A(14,13,18)           121.5765         estimate D2E/DX2                !
 ! A31   A(13,14,15)           121.8529         estimate D2E/DX2                !
 ! A32   A(13,14,19)           119.2137         estimate D2E/DX2                !
 ! A33   A(15,14,19)           118.9323         estimate D2E/DX2                !
 ! A34   A(14,15,16)           121.6214         estimate D2E/DX2                !
 ! A35   A(14,15,20)           119.815          estimate D2E/DX2                !
 ! A36   A(16,15,20)           118.5634         estimate D2E/DX2                !
 ! A37   A(7,16,11)            120.8284         estimate D2E/DX2                !
 ! A38   A(7,16,15)            121.7911         estimate D2E/DX2                !
 ! A39   A(11,16,15)           117.3746         estimate D2E/DX2                !
 ! A40   A(23,17,39)           125.2317         estimate D2E/DX2                !
 ! A41   A(23,17,40)           122.922          estimate D2E/DX2                !
 ! A42   A(39,17,40)           111.8427         estimate D2E/DX2                !
 ! A43   A(2,21,7)             107.8859         estimate D2E/DX2                !
 ! A44   A(2,21,63)            130.0837         estimate D2E/DX2                !
 ! A45   A(7,21,63)            122.0205         estimate D2E/DX2                !
 ! A46   A(23,22,27)           117.7429         estimate D2E/DX2                !
 ! A47   A(23,22,38)           122.2435         estimate D2E/DX2                !
 ! A48   A(27,22,38)           120.0136         estimate D2E/DX2                !
 ! A49   A(17,23,22)           120.2961         estimate D2E/DX2                !
 ! A50   A(17,23,24)           119.9851         estimate D2E/DX2                !
 ! A51   A(22,23,24)           119.7162         estimate D2E/DX2                !
 ! A52   A(23,24,25)           121.6            estimate D2E/DX2                !
 ! A53   A(23,24,28)           118.9176         estimate D2E/DX2                !
 ! A54   A(25,24,28)           119.4823         estimate D2E/DX2                !
 ! A55   A(24,25,26)           119.2218         estimate D2E/DX2                !
 ! A56   A(24,25,30)           120.0915         estimate D2E/DX2                !
 ! A57   A(26,25,30)           120.6859         estimate D2E/DX2                !
 ! A58   A(25,26,27)           122.1897         estimate D2E/DX2                !
 ! A59   A(25,26,29)           118.5273         estimate D2E/DX2                !
 ! A60   A(27,26,29)           119.2808         estimate D2E/DX2                !
 ! A61   A(22,27,26)           119.5104         estimate D2E/DX2                !
 ! A62   A(22,27,34)           117.8924         estimate D2E/DX2                !
 ! A63   A(26,27,34)           122.5936         estimate D2E/DX2                !
 ! A64   A(25,30,31)           110.6553         estimate D2E/DX2                !
 ! A65   A(25,30,32)           110.4915         estimate D2E/DX2                !
 ! A66   A(25,30,33)           111.4858         estimate D2E/DX2                !
 ! A67   A(31,30,32)           106.7583         estimate D2E/DX2                !
 ! A68   A(31,30,33)           108.8444         estimate D2E/DX2                !
 ! A69   A(32,30,33)           108.4585         estimate D2E/DX2                !
 ! A70   A(27,34,35)           110.8742         estimate D2E/DX2                !
 ! A71   A(27,34,36)           110.6874         estimate D2E/DX2                !
 ! A72   A(27,34,37)           110.7672         estimate D2E/DX2                !
 ! A73   A(35,34,36)           106.5106         estimate D2E/DX2                !
 ! A74   A(35,34,37)           109.258          estimate D2E/DX2                !
 ! A75   A(36,34,37)           108.6222         estimate D2E/DX2                !
 ! A76   A(11,39,17)           105.2342         estimate D2E/DX2                !
 ! A77   A(12,40,17)           108.0919         estimate D2E/DX2                !
 ! A78   A(12,40,62)           130.7751         estimate D2E/DX2                !
 ! A79   A(17,40,62)           121.0781         estimate D2E/DX2                !
 ! A80   A(1,41,7)             104.973          estimate D2E/DX2                !
 ! A81   A(6,42,43)            118.8849         estimate D2E/DX2                !
 ! A82   A(6,42,44)            123.5269         estimate D2E/DX2                !
 ! A83   A(43,42,44)           117.5877         estimate D2E/DX2                !
 ! A84   A(42,44,45)           124.3459         estimate D2E/DX2                !
 ! A85   A(42,44,64)           116.3212         estimate D2E/DX2                !
 ! A86   A(45,44,64)           119.331          estimate D2E/DX2                !
 ! A87   A(44,45,46)           110.6651         estimate D2E/DX2                !
 ! A88   A(44,45,47)           110.7888         estimate D2E/DX2                !
 ! A89   A(44,45,48)           105.0661         estimate D2E/DX2                !
 ! A90   A(46,45,47)           111.7256         estimate D2E/DX2                !
 ! A91   A(46,45,48)           109.2021         estimate D2E/DX2                !
 ! A92   A(47,45,48)           109.1582         estimate D2E/DX2                !
 ! A93   A(45,46,49)           110.7189         estimate D2E/DX2                !
 ! A94   A(45,46,50)           108.6303         estimate D2E/DX2                !
 ! A95   A(45,46,51)           109.6422         estimate D2E/DX2                !
 ! A96   A(49,46,50)           109.4706         estimate D2E/DX2                !
 ! A97   A(49,46,51)           110.8717         estimate D2E/DX2                !
 ! A98   A(50,46,51)           107.4211         estimate D2E/DX2                !
 ! A99   A(45,47,52)           110.8971         estimate D2E/DX2                !
 ! A100  A(45,47,53)           108.787          estimate D2E/DX2                !
 ! A101  A(45,47,54)           109.4384         estimate D2E/DX2                !
 ! A102  A(52,47,53)           109.2025         estimate D2E/DX2                !
 ! A103  A(52,47,54)           111.009          estimate D2E/DX2                !
 ! A104  A(53,47,54)           107.4155         estimate D2E/DX2                !
 ! A105  A(46,49,55)           111.6147         estimate D2E/DX2                !
 ! A106  A(46,49,56)           109.2404         estimate D2E/DX2                !
 ! A107  A(46,49,57)           109.2118         estimate D2E/DX2                !
 ! A108  A(55,49,56)           110.6415         estimate D2E/DX2                !
 ! A109  A(55,49,57)           109.1538         estimate D2E/DX2                !
 ! A110  A(56,49,57)           106.8526         estimate D2E/DX2                !
 ! A111  A(47,52,55)           111.2698         estimate D2E/DX2                !
 ! A112  A(47,52,58)           109.2237         estimate D2E/DX2                !
 ! A113  A(47,52,59)           109.2828         estimate D2E/DX2                !
 ! A114  A(55,52,58)           110.8085         estimate D2E/DX2                !
 ! A115  A(55,52,59)           109.2852         estimate D2E/DX2                !
 ! A116  A(58,52,59)           106.8599         estimate D2E/DX2                !
 ! A117  A(49,55,52)           110.8524         estimate D2E/DX2                !
 ! A118  A(49,55,60)           110.1304         estimate D2E/DX2                !
 ! A119  A(49,55,61)           109.2734         estimate D2E/DX2                !
 ! A120  A(52,55,60)           110.2384         estimate D2E/DX2                !
 ! A121  A(52,55,61)           109.2864         estimate D2E/DX2                !
 ! A122  A(60,55,61)           106.9709         estimate D2E/DX2                !
 ! D1    D(6,1,2,3)              0.0051         estimate D2E/DX2                !
 ! D2    D(6,1,2,21)           179.7009         estimate D2E/DX2                !
 ! D3    D(41,1,2,3)          -179.5426         estimate D2E/DX2                !
 ! D4    D(41,1,2,21)            0.1532         estimate D2E/DX2                !
 ! D5    D(2,1,6,5)             -0.0326         estimate D2E/DX2                !
 ! D6    D(2,1,6,42)           179.5598         estimate D2E/DX2                !
 ! D7    D(41,1,6,5)           179.4188         estimate D2E/DX2                !
 ! D8    D(41,1,6,42)           -0.9888         estimate D2E/DX2                !
 ! D9    D(2,1,41,7)             0.1084         estimate D2E/DX2                !
 ! D10   D(6,1,41,7)          -179.3825         estimate D2E/DX2                !
 ! D11   D(1,2,3,4)              0.162          estimate D2E/DX2                !
 ! D12   D(1,2,3,8)            179.958          estimate D2E/DX2                !
 ! D13   D(21,2,3,4)          -179.433          estimate D2E/DX2                !
 ! D14   D(21,2,3,8)             0.363          estimate D2E/DX2                !
 ! D15   D(1,2,21,7)            -0.351          estimate D2E/DX2                !
 ! D16   D(1,2,21,63)         -179.2029         estimate D2E/DX2                !
 ! D17   D(3,2,21,7)           179.2952         estimate D2E/DX2                !
 ! D18   D(3,2,21,63)            0.4433         estimate D2E/DX2                !
 ! D19   D(2,3,4,5)             -0.308          estimate D2E/DX2                !
 ! D20   D(2,3,4,9)            179.9198         estimate D2E/DX2                !
 ! D21   D(8,3,4,5)            179.8953         estimate D2E/DX2                !
 ! D22   D(8,3,4,9)              0.1231         estimate D2E/DX2                !
 ! D23   D(3,4,5,6)              0.2913         estimate D2E/DX2                !
 ! D24   D(3,4,5,10)          -179.8235         estimate D2E/DX2                !
 ! D25   D(9,4,5,6)           -179.9366         estimate D2E/DX2                !
 ! D26   D(9,4,5,10)            -0.0514         estimate D2E/DX2                !
 ! D27   D(4,5,6,1)             -0.1123         estimate D2E/DX2                !
 ! D28   D(4,5,6,42)          -179.7116         estimate D2E/DX2                !
 ! D29   D(10,5,6,1)          -179.9983         estimate D2E/DX2                !
 ! D30   D(10,5,6,42)            0.4024         estimate D2E/DX2                !
 ! D31   D(1,6,42,43)         -178.7731         estimate D2E/DX2                !
 ! D32   D(1,6,42,44)            0.9726         estimate D2E/DX2                !
 ! D33   D(5,6,42,43)            0.8083         estimate D2E/DX2                !
 ! D34   D(5,6,42,44)         -179.446          estimate D2E/DX2                !
 ! D35   D(21,7,16,11)           1.1835         estimate D2E/DX2                !
 ! D36   D(21,7,16,15)        -179.7239         estimate D2E/DX2                !
 ! D37   D(41,7,16,11)        -178.394          estimate D2E/DX2                !
 ! D38   D(41,7,16,15)           0.6987         estimate D2E/DX2                !
 ! D39   D(16,7,21,2)         -179.1808         estimate D2E/DX2                !
 ! D40   D(16,7,21,63)          -0.2169         estimate D2E/DX2                !
 ! D41   D(41,7,21,2)            0.4523         estimate D2E/DX2                !
 ! D42   D(41,7,21,63)         179.4163         estimate D2E/DX2                !
 ! D43   D(16,7,41,1)          179.2692         estimate D2E/DX2                !
 ! D44   D(21,7,41,1)           -0.3425         estimate D2E/DX2                !
 ! D45   D(16,11,12,13)          0.9724         estimate D2E/DX2                !
 ! D46   D(16,11,12,40)       -179.0788         estimate D2E/DX2                !
 ! D47   D(39,11,12,13)       -179.6533         estimate D2E/DX2                !
 ! D48   D(39,11,12,40)          0.2955         estimate D2E/DX2                !
 ! D49   D(12,11,16,7)         178.4333         estimate D2E/DX2                !
 ! D50   D(12,11,16,15)         -0.6982         estimate D2E/DX2                !
 ! D51   D(39,11,16,7)          -0.8026         estimate D2E/DX2                !
 ! D52   D(39,11,16,15)       -179.9341         estimate D2E/DX2                !
 ! D53   D(12,11,39,17)         -0.4181         estimate D2E/DX2                !
 ! D54   D(16,11,39,17)        178.876          estimate D2E/DX2                !
 ! D55   D(11,12,13,14)         -0.4811         estimate D2E/DX2                !
 ! D56   D(11,12,13,18)        179.8406         estimate D2E/DX2                !
 ! D57   D(40,12,13,14)        179.5867         estimate D2E/DX2                !
 ! D58   D(40,12,13,18)         -0.0916         estimate D2E/DX2                !
 ! D59   D(11,12,40,17)         -0.0549         estimate D2E/DX2                !
 ! D60   D(11,12,40,62)        177.21           estimate D2E/DX2                !
 ! D61   D(13,12,40,17)        179.886          estimate D2E/DX2                !
 ! D62   D(13,12,40,62)         -2.8492         estimate D2E/DX2                !
 ! D63   D(12,13,14,15)         -0.246          estimate D2E/DX2                !
 ! D64   D(12,13,14,19)       -179.8688         estimate D2E/DX2                !
 ! D65   D(18,13,14,15)        179.4324         estimate D2E/DX2                !
 ! D66   D(18,13,14,19)         -0.1904         estimate D2E/DX2                !
 ! D67   D(13,14,15,16)          0.4941         estimate D2E/DX2                !
 ! D68   D(13,14,15,20)       -179.3278         estimate D2E/DX2                !
 ! D69   D(19,14,15,16)       -179.882          estimate D2E/DX2                !
 ! D70   D(19,14,15,20)          0.2961         estimate D2E/DX2                !
 ! D71   D(14,15,16,7)        -179.1262         estimate D2E/DX2                !
 ! D72   D(14,15,16,11)         -0.0036         estimate D2E/DX2                !
 ! D73   D(20,15,16,7)           0.6979         estimate D2E/DX2                !
 ! D74   D(20,15,16,11)        179.8205         estimate D2E/DX2                !
 ! D75   D(39,17,23,22)        174.2            estimate D2E/DX2                !
 ! D76   D(39,17,23,24)         -5.2202         estimate D2E/DX2                !
 ! D77   D(40,17,23,22)         -5.0519         estimate D2E/DX2                !
 ! D78   D(40,17,23,24)        175.5279         estimate D2E/DX2                !
 ! D79   D(23,17,39,11)       -178.9363         estimate D2E/DX2                !
 ! D80   D(40,17,39,11)          0.3871         estimate D2E/DX2                !
 ! D81   D(23,17,40,12)        179.13           estimate D2E/DX2                !
 ! D82   D(23,17,40,62)          1.5481         estimate D2E/DX2                !
 ! D83   D(39,17,40,12)         -0.2117         estimate D2E/DX2                !
 ! D84   D(39,17,40,62)       -177.7935         estimate D2E/DX2                !
 ! D85   D(27,22,23,17)       -177.8475         estimate D2E/DX2                !
 ! D86   D(27,22,23,24)          1.5742         estimate D2E/DX2                !
 ! D87   D(38,22,23,17)          2.1381         estimate D2E/DX2                !
 ! D88   D(38,22,23,24)       -178.4402         estimate D2E/DX2                !
 ! D89   D(23,22,27,26)         -1.1935         estimate D2E/DX2                !
 ! D90   D(23,22,27,34)        179.4813         estimate D2E/DX2                !
 ! D91   D(38,22,27,26)        178.8206         estimate D2E/DX2                !
 ! D92   D(38,22,27,34)         -0.5046         estimate D2E/DX2                !
 ! D93   D(17,23,24,25)        178.604          estimate D2E/DX2                !
 ! D94   D(17,23,24,28)         -1.4426         estimate D2E/DX2                !
 ! D95   D(22,23,24,25)         -0.8195         estimate D2E/DX2                !
 ! D96   D(22,23,24,28)        179.1339         estimate D2E/DX2                !
 ! D97   D(23,24,25,26)         -0.3509         estimate D2E/DX2                !
 ! D98   D(23,24,25,30)        179.959          estimate D2E/DX2                !
 ! D99   D(28,24,25,26)        179.696          estimate D2E/DX2                !
 ! D100  D(28,24,25,30)          0.0059         estimate D2E/DX2                !
 ! D101  D(24,25,26,27)          0.7524         estimate D2E/DX2                !
 ! D102  D(24,25,26,29)       -179.7986         estimate D2E/DX2                !
 ! D103  D(30,25,26,27)       -179.5594         estimate D2E/DX2                !
 ! D104  D(30,25,26,29)         -0.1104         estimate D2E/DX2                !
 ! D105  D(24,25,30,31)        -53.1735         estimate D2E/DX2                !
 ! D106  D(24,25,30,32)         64.8504         estimate D2E/DX2                !
 ! D107  D(24,25,30,33)       -174.4624         estimate D2E/DX2                !
 ! D108  D(26,25,30,31)        127.141          estimate D2E/DX2                !
 ! D109  D(26,25,30,32)       -114.8351         estimate D2E/DX2                !
 ! D110  D(26,25,30,33)          5.8521         estimate D2E/DX2                !
 ! D111  D(25,26,27,22)          0.0522         estimate D2E/DX2                !
 ! D112  D(25,26,27,34)        179.3443         estimate D2E/DX2                !
 ! D113  D(29,26,27,22)       -179.3928         estimate D2E/DX2                !
 ! D114  D(29,26,27,34)         -0.1007         estimate D2E/DX2                !
 ! D115  D(22,27,34,35)        -53.1633         estimate D2E/DX2                !
 ! D116  D(22,27,34,36)         64.8141         estimate D2E/DX2                !
 ! D117  D(22,27,34,37)       -174.6385         estimate D2E/DX2                !
 ! D118  D(26,27,34,35)        127.5338         estimate D2E/DX2                !
 ! D119  D(26,27,34,36)       -114.4888         estimate D2E/DX2                !
 ! D120  D(26,27,34,37)          6.0586         estimate D2E/DX2                !
 ! D121  D(6,42,44,45)         179.7121         estimate D2E/DX2                !
 ! D122  D(6,42,44,64)           0.214          estimate D2E/DX2                !
 ! D123  D(43,42,44,45)         -0.5392         estimate D2E/DX2                !
 ! D124  D(43,42,44,64)        179.9628         estimate D2E/DX2                !
 ! D125  D(42,44,45,46)        -65.3017         estimate D2E/DX2                !
 ! D126  D(42,44,45,47)         59.1948         estimate D2E/DX2                !
 ! D127  D(42,44,45,48)        176.9518         estimate D2E/DX2                !
 ! D128  D(64,44,45,46)        114.1822         estimate D2E/DX2                !
 ! D129  D(64,44,45,47)       -121.3213         estimate D2E/DX2                !
 ! D130  D(64,44,45,48)         -3.5643         estimate D2E/DX2                !
 ! D131  D(44,45,46,49)        178.9264         estimate D2E/DX2                !
 ! D132  D(44,45,46,50)         58.6884         estimate D2E/DX2                !
 ! D133  D(44,45,46,51)        -58.4277         estimate D2E/DX2                !
 ! D134  D(47,45,46,49)         54.9655         estimate D2E/DX2                !
 ! D135  D(47,45,46,50)        -65.2725         estimate D2E/DX2                !
 ! D136  D(47,45,46,51)        177.6115         estimate D2E/DX2                !
 ! D137  D(48,45,46,49)        -65.8891         estimate D2E/DX2                !
 ! D138  D(48,45,46,50)        173.8729         estimate D2E/DX2                !
 ! D139  D(48,45,46,51)         56.7569         estimate D2E/DX2                !
 ! D140  D(44,45,47,52)       -179.1937         estimate D2E/DX2                !
 ! D141  D(44,45,47,53)        -59.0772         estimate D2E/DX2                !
 ! D142  D(44,45,47,54)         58.0071         estimate D2E/DX2                !
 ! D143  D(46,45,47,52)        -55.3024         estimate D2E/DX2                !
 ! D144  D(46,45,47,53)         64.814          estimate D2E/DX2                !
 ! D145  D(46,45,47,54)       -178.1016         estimate D2E/DX2                !
 ! D146  D(48,45,47,52)         65.5777         estimate D2E/DX2                !
 ! D147  D(48,45,47,53)       -174.3058         estimate D2E/DX2                !
 ! D148  D(48,45,47,54)        -57.2215         estimate D2E/DX2                !
 ! D149  D(45,46,49,55)        -55.2932         estimate D2E/DX2                !
 ! D150  D(45,46,49,56)       -177.9707         estimate D2E/DX2                !
 ! D151  D(45,46,49,57)         65.491          estimate D2E/DX2                !
 ! D152  D(50,46,49,55)         64.4419         estimate D2E/DX2                !
 ! D153  D(50,46,49,56)        -58.2355         estimate D2E/DX2                !
 ! D154  D(50,46,49,57)       -174.7738         estimate D2E/DX2                !
 ! D155  D(51,46,49,55)       -177.2211         estimate D2E/DX2                !
 ! D156  D(51,46,49,56)         60.1014         estimate D2E/DX2                !
 ! D157  D(51,46,49,57)        -56.4368         estimate D2E/DX2                !
 ! D158  D(45,47,52,55)         55.6864         estimate D2E/DX2                !
 ! D159  D(45,47,52,58)        178.3336         estimate D2E/DX2                !
 ! D160  D(45,47,52,59)        -65.0886         estimate D2E/DX2                !
 ! D161  D(53,47,52,55)        -64.1823         estimate D2E/DX2                !
 ! D162  D(53,47,52,58)         58.465          estimate D2E/DX2                !
 ! D163  D(53,47,52,59)        175.0427         estimate D2E/DX2                !
 ! D164  D(54,47,52,55)        177.5718         estimate D2E/DX2                !
 ! D165  D(54,47,52,58)        -59.781          estimate D2E/DX2                !
 ! D166  D(54,47,52,59)         56.7968         estimate D2E/DX2                !
 ! D167  D(46,49,55,52)         56.0041         estimate D2E/DX2                !
 ! D168  D(46,49,55,60)        178.2722         estimate D2E/DX2                !
 ! D169  D(46,49,55,61)        -64.5014         estimate D2E/DX2                !
 ! D170  D(56,49,55,52)        177.8766         estimate D2E/DX2                !
 ! D171  D(56,49,55,60)        -59.8553         estimate D2E/DX2                !
 ! D172  D(56,49,55,61)         57.3712         estimate D2E/DX2                !
 ! D173  D(57,49,55,52)        -64.814          estimate D2E/DX2                !
 ! D174  D(57,49,55,60)         57.454          estimate D2E/DX2                !
 ! D175  D(57,49,55,61)        174.6805         estimate D2E/DX2                !
 ! D176  D(47,52,55,49)        -56.0488         estimate D2E/DX2                !
 ! D177  D(47,52,55,60)       -178.2539         estimate D2E/DX2                !
 ! D178  D(47,52,55,61)         64.4489         estimate D2E/DX2                !
 ! D179  D(58,52,55,49)       -177.7788         estimate D2E/DX2                !
 ! D180  D(58,52,55,60)         60.0161         estimate D2E/DX2                !
 ! D181  D(58,52,55,61)        -57.2811         estimate D2E/DX2                !
 ! D182  D(59,52,55,49)         64.7248         estimate D2E/DX2                !
 ! D183  D(59,52,55,60)        -57.4803         estimate D2E/DX2                !
 ! D184  D(59,52,55,61)       -174.7775         estimate D2E/DX2                !
 --------------------------------------------------------------------------------
 Trust Radius=3.00D-01 FncErr=5.00D-06 GrdErr=5.00D-06 EigMax=2.50D+02 EigMin=1.00D-04
 Number of steps in this run=    384 maximum allowed number of steps=    384.
 GradGradGradGradGradGradGradGradGradGradGradGradGradGradGradGradGradGrad

 Leave Link  103 at Fri Dec 14 11:55:55 2018, MaxMem=  1342177280 cpu:               0.7 elap:               0.1
 (Enter /gpfs/apps/hpc/Apps/Restricted/Gaussian/Rev_A.03/g16/l202.exe)
 Symmetry turned off by external request.
 Stoichiometry    C29H29N5O(1+,2)
 Framework group  C1[X(C29H29N5O)]
 Deg. of freedom   186
 Full point group                 C1      NOp   1
                          Input orientation:                          
 ---------------------------------------------------------------------
 Center     Atomic      Atomic             Coordinates (Angstroms)
 Number     Number       Type             X           Y           Z
 ---------------------------------------------------------------------
      1          6           0        1.531350    1.166252    0.057062
      2          6           0        0.330498    1.916953    0.013619
      3          6           0        0.325835    3.303245   -0.098565
      4          6           0        1.565884    3.949600   -0.172336
      5          6           0        2.764473    3.234973   -0.128753
      6          6           0        2.778243    1.830708   -0.014639
      7          6           0       -0.076573   -0.257536    0.176579
      8          1           0       -0.599830    3.863785   -0.131264
      9          1           0        1.595449    5.028070   -0.261511
     10          1           0        3.707685    3.765752   -0.185311
     11          6           0       -2.274930   -1.426107    0.234694
     12          6           0       -3.024293   -2.630442    0.282839
     13          6           0       -2.419725   -3.884058    0.374306
     14          6           0       -1.025984   -3.909200    0.406931
     15          6           0       -0.262064   -2.732829    0.345637
     16          6           0       -0.861821   -1.473170    0.258808
     17          6           0       -4.353830   -0.858368    0.142461
     18          1           0       -3.004225   -4.794588    0.412740
     19          1           0       -0.515876   -4.862305    0.475427
     20          1           0        0.818858   -2.791444    0.362494
     21          7           0       -0.667878    0.972257    0.097428
     22          6           0       -6.873178   -0.774369   -0.086634
     23          6           0       -5.580624   -0.090934    0.044010
     24          6           0       -5.534517    1.292295    0.060998
     25          6           0       -6.700579    2.070500   -0.061429
     26          6           0       -7.949805    1.423825   -0.212914
     27          6           0       -8.068349    0.052976   -0.229875
     28          1           0       -4.574781    1.783335    0.172260
     29          1           0       -8.841180    2.034774   -0.309654
     30          6           0       -6.611588    3.566278   -0.037792
     31          1           0       -6.070437    3.906679    0.849939
     32          1           0       -6.053714    3.930940   -0.906843
     33          1           0       -7.600493    4.025317   -0.044960
     34          6           0       -9.385451   -0.639875   -0.375092
     35          1           0       -9.354207   -1.369308   -1.188508
     36          1           0       -9.631158   -1.198081    0.534143
     37          1           0      -10.181407    0.079489   -0.567670
     38          8           0       -6.973287   -2.029619   -0.078534
     39          7           0       -3.119196   -0.342279    0.153841
     40          7           0       -4.335387   -2.224284    0.221089
     41          7           0        1.261157   -0.174227    0.159231
     42          6           0        4.017180    1.122234    0.034175
     43          1           0        4.944266    1.684435   -0.004695
     44          7           0        4.101205   -0.171572    0.128293
     45          6           0        5.372887   -0.923520    0.174052
     46          6           0        6.135231   -0.779606   -1.150362
     47          6           0        6.224763   -0.480442    1.370753
     48          1           0        5.081047   -1.966517    0.308748
     49          6           0        7.466555   -1.537032   -1.094775
     50          1           0        6.327508    0.284605   -1.329914
     51          1           0        5.514332   -1.143324   -1.973087
     52          6           0        7.552750   -1.244476    1.409178
     53          1           0        6.428735    0.592669    1.280790
     54          1           0        5.660042   -0.629718    2.294271
     55          6           0        8.322002   -1.088049    0.094035
     56          1           0        8.004952   -1.388828   -2.034862
     57          1           0        7.266873   -2.611988   -1.008786
     58          1           0        8.149470   -0.887163    2.253172
     59          1           0        7.353616   -2.308164    1.588066
     60          1           0        9.251053   -1.664359    0.128245
     61          1           0        8.602603   -0.035815   -0.038670
     62          1           0       -5.196353   -2.763197    0.189797
     63          1           0       -1.681636    1.085483    0.089654
     64          1           0        3.212160   -0.684170    0.164241
 ---------------------------------------------------------------------
 Rotational constants (GHZ):           0.2577056           0.0426552           0.0371991
 Leave Link  202 at Fri Dec 14 11:55:55 2018, MaxMem=  1342177280 cpu:               1.3 elap:               0.1
 (Enter /gpfs/apps/hpc/Apps/Restricted/Gaussian/Rev_A.03/g16/l301.exe)
 Standard basis: 6-31G(d,p) (6D, 7F)
 Ernie: Thresh=  0.10000D-02 Tol=  0.10000D-05 Strict=F.
   670 basis functions,  1183 primitive gaussians,   670 cartesian basis functions
   123 alpha electrons      122 beta electrons
       nuclear repulsion energy      3333.0981715332 Hartrees.
 IExCor=  402 DFT=T Ex+Corr=B3LYP ExCW=0 ScaHFX=  0.200000
 ScaDFX=  0.800000  0.720000  1.000000  0.810000 ScalE2=  1.000000  1.000000
 IRadAn=      5 IRanWt=     -1 IRanGd=            0 ICorTp=0 IEmpDi=141
 NAtoms=   64 NActive=   64 NUniq=   64 SFac= 1.00D+00 NAtFMM=   60 NAOKFM=T Big=T
 Integral buffers will be    131072 words long.
 Raffenetti 2 integral format.
 Two-electron integral symmetry is turned off.
 R6Disp:  Grimme-D3(BJ) Dispersion energy=       -0.1433862877 Hartrees.
 Nuclear repulsion after empirical dispersion term =     3332.9547852456 Hartrees.
 Using the following non-standard input for PCM:
 radii=bondi
 dis
 rep
 cav
 --- end of non-standard input.
 ------------------------------------------------------------------------------
 Polarizable Continuum Model (PCM)
 =================================
 Model                : C-PCM.
 Atomic radii         : Bondi.
 Polarization charges : Total charges.
 Charge compensation  : None.
 Solution method      : On-the-fly selection.
 Cavity type          : Scaled VdW (van der Waals Surface) (Alpha=1.100).
 Cavity algorithm     : GePol (No added spheres)
                        Default sphere list used, NSphG=   64.
                        Lebedev-Laikov grids with approx.  5.0 points / Ang**2.
                        Smoothing algorithm: York/Karplus (Gamma=1.0000).
                        Polarization charges: spherical gaussians, with
                                              point-specific exponents (IZeta= 3).
                        Self-potential: point-specific (ISelfS= 7).
                        Self-field    : sphere-specific E.n sum rule (ISelfD= 2).
 1st derivatives      : Analytical E(r).r(x)/FMM algorithm (CHGder, D1EAlg=3).
                        Cavity 1st derivative terms included.
 Solvent              : Dichloromethane, Eps=   8.930000 Eps(inf)=   2.028346
 ------------------------------------------------------------------------------
 GePol: Number of generator spheres                  =      64
 GePol: Total number of spheres                      =      64
 GePol: Number of exposed spheres                    =      64 (100.00%)
 GePol: Number of points                             =    4398
 GePol: Average weight of points                     =       0.12
 GePol: Minimum weight of points                     =   0.78D-09
 GePol: Maximum weight of points                     =    0.21770
 GePol: Number of points with low weight             =     271
 GePol: Fraction of low-weight points (<1% of avg)   =       6.16%
 GePol: Cavity surface area                          =    518.224 Ang**2
 GePol: Cavity volume                                =    498.530 Ang**3
 PCM non-electrostatic energy =         0.0188458204 Hartrees.
 Nuclear repulsion after PCM non-electrostatic terms =     3332.9736310660 Hartrees.
 Leave Link  301 at Fri Dec 14 11:55:55 2018, MaxMem=  1342177280 cpu:               7.4 elap:               0.5
 (Enter /gpfs/apps/hpc/Apps/Restricted/Gaussian/Rev_A.03/g16/l302.exe)
 NPDir=0 NMtPBC=     1 NCelOv=     1 NCel=       1 NClECP=     1 NCelD=      1
         NCelK=      1 NCelE2=     1 NClLst=     1 CellRange=     0.0.
 One-electron integrals computed using PRISM.
 NBasis=   670 RedAO= T EigKep=  2.89D-04  NBF=   670
 NBsUse=   670 1.00D-06 EigRej= -1.00D+00 NBFU=   670
 Precomputing XC quadrature grid using
 IXCGrd= 4 IRadAn=           5 IRanWt=          -1 IRanGd=           0 AccXCQ= 0.00D+00.
 Generated NRdTot=       0 NPtTot=           0 NUsed=           0 NTot=          32
 NSgBfM=   618   618   618   618   618 MxSgAt=    64 MxSgA2=    64.
 Leave Link  302 at Fri Dec 14 11:55:57 2018, MaxMem=  1342177280 cpu:              21.6 elap:               1.5
 (Enter /gpfs/apps/hpc/Apps/Restricted/Gaussian/Rev_A.03/g16/l303.exe)
 DipDrv:  MaxL=1.
 Leave Link  303 at Fri Dec 14 11:55:58 2018, MaxMem=  1342177280 cpu:               3.8 elap:               0.4
 (Enter /gpfs/apps/hpc/Apps/Restricted/Gaussian/Rev_A.03/g16/l401.exe)
 ExpMin= 1.61D-01 ExpMax= 5.48D+03 ExpMxC= 8.25D+02 IAcc=3 IRadAn=         5 AccDes= 0.00D+00
 Harris functional with IExCor=  402 and IRadAn=       5 diagonalized for initial guess.
 HarFok:  IExCor=  402 AccDes= 0.00D+00 IRadAn=         5 IDoV= 1 UseB2=F ITyADJ=14
 ICtDFT=  3500011 ScaDFX=  1.000000  1.000000  1.000000  1.000000
 FoFCou: FMM=F IPFlag=           0 FMFlag=      100000 FMFlg1=        2001
         NFxFlg=           0 DoJE=T BraDBF=F KetDBF=T FulRan=T
         wScrn=  0.000000 ICntrl=       500 IOpCl=  0 I1Cent=   200000004 NGrid=           0
         NMat0=    1 NMatS0=      1 NMatT0=    0 NMatD0=    1 NMtDS0=    0 NMtDT0=    0
 Symmetry not used in FoFCou.
 Harris En= -1471.50771601682    
 JPrj=0 DoOrth=F DoCkMO=F.
 Initial guess <Sx>= 0.0000 <Sy>= 0.0000 <Sz>= 0.5000 <S**2>= 0.7500 S= 0.5000
 Leave Link  401 at Fri Dec 14 11:56:03 2018, MaxMem=  1342177280 cpu:              80.2 elap:               5.1
 (Enter /gpfs/apps/hpc/Apps/Restricted/Gaussian/Rev_A.03/g16/l502.exe)
 Two-electron integral symmetry not used.
 UHF open shell SCF:
 Using DIIS extrapolation, IDIIS=  1040.
 NGot=  1342177280 LenX=  1341263254 LenY=  1340813684
 Requested convergence on RMS density matrix=1.00D-08 within 128 cycles.
 Requested convergence on MAX density matrix=1.00D-06.
 Requested convergence on             energy=1.00D-06.
 No special actions if energy rises.
 Fock matrices will be formed incrementally for  20 cycles.

 Cycle   1  Pass 1  IDiag  1:
 FoFJK:  IHMeth= 1 ICntrl=       0 DoSepK=F KAlg= 0 I1Cent=           0 FoldK=F
 IRaf= 680000000 NMat=       1 IRICut=       1 DoRegI=T DoRafI=F ISym2E= 0 IDoP0=0 IntGTp=1.
 FoFCou: FMM=T IPFlag=           0 FMFlag=      100000 FMFlg1=        2001
         NFxFlg=           0 DoJE=F BraDBF=F KetDBF=F FulRan=T
         wScrn=  0.000000 ICntrl=         0 IOpCl=  1 I1Cent=           0 NGrid=           0
         NMat0=    1 NMatS0=      1 NMatT0=    0 NMatD0=    1 NMtDS0=    0 NMtDT0=    0
 Symmetry not used in FoFCou.
 FMM levels:  10  Number of levels for PrismC:   9
 Inv3:  Mode=1 IEnd=    58027212.
 Iteration    1 A*A^-1 deviation from unit magnitude is 1.44D-14 for    550.
 Iteration    1 A*A^-1 deviation from orthogonality  is 5.31D-15 for   3388   1091.
 Iteration    1 A^-1*A deviation from unit magnitude is 1.44D-14 for    550.
 Iteration    1 A^-1*A deviation from orthogonality  is 3.09D-15 for   4209    264.
 E= -1470.94445562589    
 DIIS: error= 2.55D-02 at cycle   1 NSaved=   1.
 NSaved= 1 IEnMin= 1 EnMin= -1470.94445562589     IErMin= 1 ErrMin= 2.55D-02
 ErrMax= 2.55D-02  0.00D+00 EMaxC= 1.00D-01 BMatC= 2.75D+00 BMatP= 2.75D+00
 IDIUse=3 WtCom= 7.45D-01 WtEn= 2.55D-01
 Coeff-Com:  0.100D+01
 Coeff-En:   0.100D+01
 Coeff:      0.100D+01
 Gap=     0.087 Goal=   None    Shift=    0.000
 Gap=     0.071 Goal=   None    Shift=    0.000
 GapD=    0.071 DampG=0.500 DampE=0.500 DampFc=0.2500 IDamp=-1.
 Damping current iteration by 2.50D-01
 RMSDP=3.04D-03 MaxDP=1.89D-01              OVMax= 2.69D-01

 Cycle   2  Pass 1  IDiag  1:
 RMSU=  7.35D-04    CP:  9.85D-01
 E= -1471.19499131908     Delta-E=       -0.250535693197 Rises=F Damp=T
 DIIS: error= 1.39D-02 at cycle   2 NSaved=   2.
 NSaved= 2 IEnMin= 2 EnMin= -1471.19499131908     IErMin= 2 ErrMin= 1.39D-02
 ErrMax= 1.39D-02  0.00D+00 EMaxC= 1.00D-01 BMatC= 7.60D-01 BMatP= 2.75D+00
 IDIUse=3 WtCom= 8.61D-01 WtEn= 1.39D-01
 Coeff-Com: -0.841D+00 0.184D+01
 Coeff-En:   0.000D+00 0.100D+01
 Coeff:     -0.724D+00 0.172D+01
 Gap=     0.124 Goal=   None    Shift=    0.000
 Gap=     0.128 Goal=   None    Shift=    0.000
 RMSDP=1.24D-03 MaxDP=8.03D-02 DE=-2.51D-01 OVMax= 1.55D-01

 Cycle   3  Pass 1  IDiag  1:
 RMSU=  8.80D-04    CP:  9.51D-01  2.05D+00
 E= -1471.61222014820     Delta-E=       -0.417228829120 Rises=F Damp=F
 DIIS: error= 1.11D-02 at cycle   3 NSaved=   3.
 NSaved= 3 IEnMin= 3 EnMin= -1471.61222014820     IErMin= 3 ErrMin= 1.11D-02
 ErrMax= 1.11D-02  0.00D+00 EMaxC= 1.00D-01 BMatC= 1.58D-01 BMatP= 7.60D-01
 IDIUse=3 WtCom= 8.89D-01 WtEn= 1.11D-01
 Coeff-Com: -0.415D+00 0.849D+00 0.566D+00
 Coeff-En:   0.000D+00 0.000D+00 0.100D+01
 Coeff:     -0.369D+00 0.755D+00 0.614D+00
 Gap=     0.109 Goal=   None    Shift=    0.000
 Gap=     0.076 Goal=   None    Shift=    0.000
 RMSDP=4.95D-04 MaxDP=6.96D-02 DE=-4.17D-01 OVMax= 8.29D-02

 Cycle   4  Pass 1  IDiag  1:
 RMSU=  3.74D-04    CP:  9.55D-01  2.14D+00  6.45D-01
 E= -1471.63673728510     Delta-E=       -0.024517136895 Rises=F Damp=F
 DIIS: error= 9.32D-03 at cycle   4 NSaved=   4.
 NSaved= 4 IEnMin= 4 EnMin= -1471.63673728510     IErMin= 4 ErrMin= 9.32D-03
 ErrMax= 9.32D-03  0.00D+00 EMaxC= 1.00D-01 BMatC= 6.33D-02 BMatP= 1.58D-01
 IDIUse=3 WtCom= 9.07D-01 WtEn= 9.32D-02
 Coeff-Com: -0.824D-01 0.175D+00 0.388D+00 0.520D+00
 Coeff-En:   0.000D+00 0.000D+00 0.281D+00 0.719D+00
 Coeff:     -0.747D-01 0.158D+00 0.378D+00 0.538D+00
 Gap=     0.112 Goal=   None    Shift=    0.000
 Gap=     0.074 Goal=   None    Shift=    0.000
 RMSDP=2.36D-04 MaxDP=3.32D-02 DE=-2.45D-02 OVMax= 3.29D-02

 Cycle   5  Pass 1  IDiag  1:
 RMSU=  1.26D-04    CP:  9.54D-01  2.08D+00  7.68D-01  5.72D-01
 E= -1471.64906956847     Delta-E=       -0.012332283366 Rises=F Damp=F
 DIIS: error= 2.07D-03 at cycle   5 NSaved=   5.
 NSaved= 5 IEnMin= 5 EnMin= -1471.64906956847     IErMin= 5 ErrMin= 2.07D-03
 ErrMax= 2.07D-03  0.00D+00 EMaxC= 1.00D-01 BMatC= 4.92D-03 BMatP= 6.33D-02
 IDIUse=3 WtCom= 9.79D-01 WtEn= 2.07D-02
 Coeff-Com: -0.439D-02 0.125D-01 0.165D+00 0.310D+00 0.517D+00
 Coeff-En:   0.000D+00 0.000D+00 0.000D+00 0.000D+00 0.100D+01
 Coeff:     -0.430D-02 0.123D-01 0.161D+00 0.304D+00 0.527D+00
 Gap=     0.111 Goal=   None    Shift=    0.000
 Gap=     0.076 Goal=   None    Shift=    0.000
 RMSDP=7.06D-05 MaxDP=1.20D-02 DE=-1.23D-02 OVMax= 1.58D-02

 Cycle   6  Pass 1  IDiag  1:
 RMSU=  4.43D-05    CP:  9.54D-01  2.08D+00  7.74D-01  6.37D-01  6.13D-01
 E= -1471.65017712288     Delta-E=       -0.001107554411 Rises=F Damp=F
 DIIS: error= 7.27D-04 at cycle   6 NSaved=   6.
 NSaved= 6 IEnMin= 6 EnMin= -1471.65017712288     IErMin= 6 ErrMin= 7.27D-04
 ErrMax= 7.27D-04  0.00D+00 EMaxC= 1.00D-01 BMatC= 4.97D-04 BMatP= 4.92D-03
 IDIUse=3 WtCom= 9.93D-01 WtEn= 7.27D-03
 Coeff-Com:  0.488D-02-0.836D-02 0.504D-01 0.106D+00 0.291D+00 0.556D+00
 Coeff-En:   0.000D+00 0.000D+00 0.000D+00 0.000D+00 0.000D+00 0.100D+01
 Coeff:      0.484D-02-0.830D-02 0.500D-01 0.105D+00 0.289D+00 0.559D+00
 Gap=     0.112 Goal=   None    Shift=    0.000
 Gap=     0.077 Goal=   None    Shift=    0.000
 RMSDP=2.29D-05 MaxDP=3.10D-03 DE=-1.11D-03 OVMax= 6.26D-03

 Cycle   7  Pass 1  IDiag  1:
 RMSU=  1.85D-05    CP:  9.54D-01  2.09D+00  7.77D-01  6.36D-01  7.15D-01
                    CP:  9.30D-01
 E= -1471.65032622699     Delta-E=       -0.000149104117 Rises=F Damp=F
 DIIS: error= 2.67D-04 at cycle   7 NSaved=   7.
 NSaved= 7 IEnMin= 7 EnMin= -1471.65032622699     IErMin= 7 ErrMin= 2.67D-04
 ErrMax= 2.67D-04  0.00D+00 EMaxC= 1.00D-01 BMatC= 6.82D-05 BMatP= 4.97D-04
 IDIUse=3 WtCom= 9.97D-01 WtEn= 2.67D-03
 Coeff-Com:  0.313D-02-0.629D-02-0.155D-01-0.316D-01 0.938D-02 0.225D+00
 Coeff-Com:  0.816D+00
 Coeff-En:   0.000D+00 0.000D+00 0.000D+00 0.000D+00 0.000D+00 0.000D+00
 Coeff-En:   0.100D+01
 Coeff:      0.313D-02-0.628D-02-0.154D-01-0.315D-01 0.936D-02 0.225D+00
 Coeff:      0.816D+00
 Gap=     0.112 Goal=   None    Shift=    0.000
 Gap=     0.078 Goal=   None    Shift=    0.000
 RMSDP=1.48D-05 MaxDP=2.54D-03 DE=-1.49D-04 OVMax= 5.85D-03

 Cycle   8  Pass 1  IDiag  1:
 RMSU=  9.54D-06    CP:  9.54D-01  2.08D+00  7.79D-01  6.42D-01  7.58D-01
                    CP:  1.14D+00  1.10D+00
 E= -1471.65037869081     Delta-E=       -0.000052463817 Rises=F Damp=F
 DIIS: error= 1.65D-04 at cycle   8 NSaved=   8.
 NSaved= 8 IEnMin= 8 EnMin= -1471.65037869081     IErMin= 8 ErrMin= 1.65D-04
 ErrMax= 1.65D-04  0.00D+00 EMaxC= 1.00D-01 BMatC= 2.36D-05 BMatP= 6.82D-05
 IDIUse=3 WtCom= 9.98D-01 WtEn= 1.65D-03
 Coeff-Com:  0.459D-04-0.821D-04-0.219D-01-0.510D-01-0.896D-01-0.127D+00
 Coeff-Com:  0.341D+00 0.948D+00
 Coeff-En:   0.000D+00 0.000D+00 0.000D+00 0.000D+00 0.000D+00 0.000D+00
 Coeff-En:   0.000D+00 0.100D+01
 Coeff:      0.458D-04-0.819D-04-0.218D-01-0.509D-01-0.895D-01-0.127D+00
 Coeff:      0.341D+00 0.948D+00
 Gap=     0.113 Goal=   None    Shift=    0.000
 Gap=     0.078 Goal=   None    Shift=    0.000
 RMSDP=1.22D-05 MaxDP=1.66D-03 DE=-5.25D-05 OVMax= 4.69D-03

 Cycle   9  Pass 1  IDiag  1:
 RMSU=  4.91D-06    CP:  9.54D-01  2.08D+00  7.81D-01  6.42D-01  7.96D-01
                    CP:  1.28D+00  1.48D+00  1.28D+00
 E= -1471.65039858014     Delta-E=       -0.000019889330 Rises=F Damp=F
 DIIS: error= 5.81D-05 at cycle   9 NSaved=   9.
 NSaved= 9 IEnMin= 9 EnMin= -1471.65039858014     IErMin= 9 ErrMin= 5.81D-05
 ErrMax= 5.81D-05  0.00D+00 EMaxC= 1.00D-01 BMatC= 8.99D-06 BMatP= 2.36D-05
 IDIUse=1 WtCom= 1.00D+00 WtEn= 0.00D+00
 Coeff-Com: -0.432D-03 0.995D-03-0.100D-01-0.254D-01-0.569D-01-0.135D+00
 Coeff-Com:  0.424D-01 0.595D+00 0.590D+00
 Coeff:     -0.432D-03 0.995D-03-0.100D-01-0.254D-01-0.569D-01-0.135D+00
 Coeff:      0.424D-01 0.595D+00 0.590D+00
 Gap=     0.113 Goal=   None    Shift=    0.000
 Gap=     0.078 Goal=   None    Shift=    0.000
 RMSDP=4.56D-06 MaxDP=6.96D-04 DE=-1.99D-05 OVMax= 1.58D-03

 Cycle  10  Pass 1  IDiag  1:
 RMSU=  2.43D-06    CP:  9.54D-01  2.08D+00  7.82D-01  6.43D-01  8.08D-01
                    CP:  1.33D+00  1.59D+00  1.49D+00  8.25D-01
 E= -1471.65040259730     Delta-E=       -0.000004017164 Rises=F Damp=F
 DIIS: error= 1.70D-05 at cycle  10 NSaved=  10.
 NSaved=10 IEnMin=10 EnMin= -1471.65040259730     IErMin=10 ErrMin= 1.70D-05
 ErrMax= 1.70D-05  0.00D+00 EMaxC= 1.00D-01 BMatC= 1.04D-06 BMatP= 8.99D-06
 IDIUse=1 WtCom= 1.00D+00 WtEn= 0.00D+00
 Coeff-Com: -0.459D-04 0.204D-03 0.942D-03 0.125D-02-0.162D-02-0.289D-01
 Coeff-Com: -0.562D-01 0.232D-01 0.255D+00 0.806D+00
 Coeff:     -0.459D-04 0.204D-03 0.942D-03 0.125D-02-0.162D-02-0.289D-01
 Coeff:     -0.562D-01 0.232D-01 0.255D+00 0.806D+00
 Gap=     0.113 Goal=   None    Shift=    0.000
 Gap=     0.078 Goal=   None    Shift=    0.000
 RMSDP=1.92D-06 MaxDP=3.55D-04 DE=-4.02D-06 OVMax= 6.23D-04

 Cycle  11  Pass 1  IDiag  1:
 RMSU=  1.07D-06    CP:  9.54D-01  2.08D+00  7.82D-01  6.42D-01  8.10D-01
                    CP:  1.34D+00  1.63D+00  1.57D+00  1.02D+00  1.06D+00
 E= -1471.65040317810     Delta-E=       -0.000000580799 Rises=F Damp=F
 DIIS: error= 9.79D-06 at cycle  11 NSaved=  11.
 NSaved=11 IEnMin=11 EnMin= -1471.65040317810     IErMin=11 ErrMin= 9.79D-06
 ErrMax= 9.79D-06  0.00D+00 EMaxC= 1.00D-01 BMatC= 2.84D-07 BMatP= 1.04D-06
 IDIUse=1 WtCom= 1.00D+00 WtEn= 0.00D+00
 Coeff-Com:  0.145D-04-0.209D-05 0.242D-02 0.553D-02 0.996D-02 0.980D-02
 Coeff-Com: -0.366D-01-0.988D-01 0.290D-01 0.433D+00 0.646D+00
 Coeff:      0.145D-04-0.209D-05 0.242D-02 0.553D-02 0.996D-02 0.980D-02
 Coeff:     -0.366D-01-0.988D-01 0.290D-01 0.433D+00 0.646D+00
 Gap=     0.113 Goal=   None    Shift=    0.000
 Gap=     0.078 Goal=   None    Shift=    0.000
 RMSDP=7.73D-07 MaxDP=1.38D-04 DE=-5.81D-07 OVMax= 2.26D-04

 Cycle  12  Pass 1  IDiag  1:
 RMSU=  4.44D-07    CP:  9.54D-01  2.08D+00  7.82D-01  6.42D-01  8.11D-01
                    CP:  1.34D+00  1.63D+00  1.60D+00  1.08D+00  1.24D+00
                    CP:  9.23D-01
 E= -1471.65040330929     Delta-E=       -0.000000131189 Rises=F Damp=F
 DIIS: error= 5.13D-06 at cycle  12 NSaved=  12.
 NSaved=12 IEnMin=12 EnMin= -1471.65040330929     IErMin=12 ErrMin= 5.13D-06
 ErrMax= 5.13D-06  0.00D+00 EMaxC= 1.00D-01 BMatC= 3.75D-08 BMatP= 2.84D-07
 IDIUse=1 WtCom= 1.00D+00 WtEn= 0.00D+00
 Coeff-Com:  0.824D-05-0.480D-04 0.647D-03 0.183D-02 0.419D-02 0.115D-01
 Coeff-Com: -0.194D-03-0.423D-01-0.509D-01-0.390D-01 0.231D+00 0.883D+00
 Coeff:      0.824D-05-0.480D-04 0.647D-03 0.183D-02 0.419D-02 0.115D-01
 Coeff:     -0.194D-03-0.423D-01-0.509D-01-0.390D-01 0.231D+00 0.883D+00
 Gap=     0.113 Goal=   None    Shift=    0.000
 Gap=     0.078 Goal=   None    Shift=    0.000
 RMSDP=4.03D-07 MaxDP=7.13D-05 DE=-1.31D-07 OVMax= 1.66D-04

 Cycle  13  Pass 1  IDiag  1:
 RMSU=  2.11D-07    CP:  9.54D-01  2.08D+00  7.82D-01  6.42D-01  8.11D-01
                    CP:  1.34D+00  1.64D+00  1.61D+00  1.11D+00  1.32D+00
                    CP:  1.13D+00  1.02D+00
 E= -1471.65040333668     Delta-E=       -0.000000027391 Rises=F Damp=F
 DIIS: error= 2.31D-06 at cycle  13 NSaved=  13.
 NSaved=13 IEnMin=13 EnMin= -1471.65040333668     IErMin=13 ErrMin= 2.31D-06
 ErrMax= 2.31D-06  0.00D+00 EMaxC= 1.00D-01 BMatC= 1.41D-08 BMatP= 3.75D-08
 IDIUse=1 WtCom= 1.00D+00 WtEn= 0.00D+00
 Coeff-Com: -0.525D-05-0.173D-04-0.201D-04 0.188D-03 0.722D-03 0.519D-02
 Coeff-Com:  0.488D-02-0.820D-02-0.336D-01-0.917D-01 0.229D-01 0.488D+00
 Coeff-Com:  0.612D+00
 Coeff:     -0.525D-05-0.173D-04-0.201D-04 0.188D-03 0.722D-03 0.519D-02
 Coeff:      0.488D-02-0.820D-02-0.336D-01-0.917D-01 0.229D-01 0.488D+00
 Coeff:      0.612D+00
 Gap=     0.113 Goal=   None    Shift=    0.000
 Gap=     0.078 Goal=   None    Shift=    0.000
 RMSDP=1.67D-07 MaxDP=3.47D-05 DE=-2.74D-08 OVMax= 5.37D-05

 Cycle  14  Pass 1  IDiag  1:
 RMSU=  1.04D-07    CP:  9.54D-01  2.08D+00  7.82D-01  6.42D-01  8.11D-01
                    CP:  1.34D+00  1.64D+00  1.61D+00  1.12D+00  1.34D+00
                    CP:  1.17D+00  1.22D+00  9.21D-01
 E= -1471.65040334302     Delta-E=       -0.000000006334 Rises=F Damp=F
 DIIS: error= 1.11D-06 at cycle  14 NSaved=  14.
 NSaved=14 IEnMin=14 EnMin= -1471.65040334302     IErMin=14 ErrMin= 1.11D-06
 ErrMax= 1.11D-06  0.00D+00 EMaxC= 1.00D-01 BMatC= 2.14D-09 BMatP= 1.41D-08
 IDIUse=1 WtCom= 1.00D+00 WtEn= 0.00D+00
 Coeff-Com: -0.110D-04 0.150D-04-0.172D-03-0.365D-03-0.796D-03-0.330D-03
 Coeff-Com:  0.194D-02 0.739D-02-0.235D-02-0.322D-01-0.473D-01-0.101D-01
 Coeff-Com:  0.260D+00 0.824D+00
 Coeff:     -0.110D-04 0.150D-04-0.172D-03-0.365D-03-0.796D-03-0.330D-03
 Coeff:      0.194D-02 0.739D-02-0.235D-02-0.322D-01-0.473D-01-0.101D-01
 Coeff:      0.260D+00 0.824D+00
 Gap=     0.113 Goal=   None    Shift=    0.000
 Gap=     0.078 Goal=   None    Shift=    0.000
 RMSDP=8.82D-08 MaxDP=1.47D-05 DE=-6.33D-09 OVMax= 2.97D-05

 Cycle  15  Pass 1  IDiag  1:
 RMSU=  4.17D-08    CP:  9.54D-01  2.08D+00  7.82D-01  6.42D-01  8.11D-01
                    CP:  1.34D+00  1.64D+00  1.61D+00  1.12D+00  1.35D+00
                    CP:  1.20D+00  1.29D+00  1.17D+00  1.06D+00
 E= -1471.65040334459     Delta-E=       -0.000000001571 Rises=F Damp=F
 DIIS: error= 3.70D-07 at cycle  15 NSaved=  15.
 NSaved=15 IEnMin=15 EnMin= -1471.65040334459     IErMin=15 ErrMin= 3.70D-07
 ErrMax= 3.70D-07  0.00D+00 EMaxC= 1.00D-01 BMatC= 4.92D-10 BMatP= 2.14D-09
 IDIUse=1 WtCom= 1.00D+00 WtEn= 0.00D+00
 Coeff-Com: -0.434D-05 0.973D-05-0.693D-04-0.176D-03-0.479D-03-0.918D-03
 Coeff-Com: -0.130D-03 0.441D-02 0.446D-02 0.115D-02-0.228D-01-0.876D-01
 Coeff-Com:  0.535D-02 0.363D+00 0.734D+00
 Coeff:     -0.434D-05 0.973D-05-0.693D-04-0.176D-03-0.479D-03-0.918D-03
 Coeff:     -0.130D-03 0.441D-02 0.446D-02 0.115D-02-0.228D-01-0.876D-01
 Coeff:      0.535D-02 0.363D+00 0.734D+00
 Gap=     0.113 Goal=   None    Shift=    0.000
 Gap=     0.078 Goal=   None    Shift=    0.000
 RMSDP=4.22D-08 MaxDP=5.43D-06 DE=-1.57D-09 OVMax= 1.66D-05

 Cycle  16  Pass 1  IDiag  1:
 RMSU=  2.32D-08    CP:  9.54D-01  2.08D+00  7.82D-01  6.42D-01  8.11D-01
                    CP:  1.34D+00  1.64D+00  1.61D+00  1.12D+00  1.35D+00
                    CP:  1.20D+00  1.32D+00  1.25D+00  1.27D+00  1.06D+00
 E= -1471.65040334487     Delta-E=       -0.000000000285 Rises=F Damp=F
 DIIS: error= 2.24D-07 at cycle  16 NSaved=  16.
 NSaved=16 IEnMin=16 EnMin= -1471.65040334487     IErMin=16 ErrMin= 2.24D-07
 ErrMax= 2.24D-07  0.00D+00 EMaxC= 1.00D-01 BMatC= 1.50D-10 BMatP= 4.92D-10
 IDIUse=1 WtCom= 1.00D+00 WtEn= 0.00D+00
 Coeff-Com:  0.124D-05 0.860D-07 0.227D-04 0.402D-04 0.225D-04-0.272D-03
 Coeff-Com: -0.730D-03-0.333D-03 0.282D-02 0.108D-01 0.463D-02-0.400D-01
 Coeff-Com: -0.834D-01-0.856D-01 0.394D+00 0.798D+00
 Coeff:      0.124D-05 0.860D-07 0.227D-04 0.402D-04 0.225D-04-0.272D-03
 Coeff:     -0.730D-03-0.333D-03 0.282D-02 0.108D-01 0.463D-02-0.400D-01
 Coeff:     -0.834D-01-0.856D-01 0.394D+00 0.798D+00
 Gap=     0.113 Goal=   None    Shift=    0.000
 Gap=     0.078 Goal=   None    Shift=    0.000
 RMSDP=2.71D-08 MaxDP=3.23D-06 DE=-2.85D-10 OVMax= 1.30D-05

 Cycle  17  Pass 1  IDiag  1:
 RMSU=  1.13D-08    CP:  9.54D-01  2.08D+00  7.82D-01  6.42D-01  8.11D-01
                    CP:  1.34D+00  1.64D+00  1.61D+00  1.12D+00  1.35D+00
                    CP:  1.20D+00  1.33D+00  1.31D+00  1.38D+00  1.40D+00
                    CP:  1.06D+00
 E= -1471.65040334502     Delta-E=       -0.000000000148 Rises=F Damp=F
 DIIS: error= 1.21D-07 at cycle  17 NSaved=  17.
 NSaved=17 IEnMin=17 EnMin= -1471.65040334502     IErMin=17 ErrMin= 1.21D-07
 ErrMax= 1.21D-07  0.00D+00 EMaxC= 1.00D-01 BMatC= 2.53D-11 BMatP= 1.50D-10
 IDIUse=1 WtCom= 1.00D+00 WtEn= 0.00D+00
 Coeff-Com:  0.104D-05-0.135D-05 0.207D-04 0.471D-04 0.863D-04 0.427D-04
 Coeff-Com: -0.304D-03-0.846D-03 0.449D-03 0.421D-02 0.527D-02-0.269D-02
 Coeff-Com: -0.344D-01-0.936D-01 0.534D-01 0.314D+00 0.755D+00
 Coeff:      0.104D-05-0.135D-05 0.207D-04 0.471D-04 0.863D-04 0.427D-04
 Coeff:     -0.304D-03-0.846D-03 0.449D-03 0.421D-02 0.527D-02-0.269D-02
 Coeff:     -0.344D-01-0.936D-01 0.534D-01 0.314D+00 0.755D+00
 Gap=     0.113 Goal=   None    Shift=    0.000
 Gap=     0.078 Goal=   None    Shift=    0.000
 RMSDP=1.11D-08 MaxDP=1.53D-06 DE=-1.48D-10 OVMax= 3.49D-06

 Cycle  18  Pass 1  IDiag  1:
 RMSU=  6.38D-09    CP:  9.54D-01  2.08D+00  7.82D-01  6.42D-01  8.11D-01
                    CP:  1.34D+00  1.64D+00  1.61D+00  1.12D+00  1.35D+00
                    CP:  1.21D+00  1.33D+00  1.32D+00  1.41D+00  1.51D+00
                    CP:  1.28D+00  1.12D+00
 E= -1471.65040334501     Delta-E=        0.000000000010 Rises=F Damp=F
 DIIS: error= 7.55D-08 at cycle  18 NSaved=  18.
 NSaved=18 IEnMin=17 EnMin= -1471.65040334502     IErMin=18 ErrMin= 7.55D-08
 ErrMax= 7.55D-08  0.00D+00 EMaxC= 1.00D-01 BMatC= 1.23D-11 BMatP= 2.53D-11
 IDIUse=1 WtCom= 1.00D+00 WtEn= 0.00D+00
 Coeff-Com:  0.308D-07-0.674D-06 0.334D-05 0.122D-04 0.444D-04 0.146D-03
 Coeff-Com:  0.133D-03-0.359D-03-0.920D-03-0.199D-02 0.119D-02 0.148D-01
 Coeff-Com:  0.132D-01-0.247D-01-0.119D+00-0.125D+00 0.476D+00 0.767D+00
 Coeff:      0.308D-07-0.674D-06 0.334D-05 0.122D-04 0.444D-04 0.146D-03
 Coeff:      0.133D-03-0.359D-03-0.920D-03-0.199D-02 0.119D-02 0.148D-01
 Coeff:      0.132D-01-0.247D-01-0.119D+00-0.125D+00 0.476D+00 0.767D+00
 Gap=     0.113 Goal=   None    Shift=    0.000
 Gap=     0.078 Goal=   None    Shift=    0.000
 RMSDP=8.15D-09 MaxDP=1.18D-06 DE= 1.00D-11 OVMax= 3.44D-06

 Cycle  19  Pass 1  IDiag  1:
 RMSU=  3.53D-09    CP:  9.54D-01  2.08D+00  7.82D-01  6.42D-01  8.11D-01
                    CP:  1.34D+00  1.64D+00  1.61D+00  1.12D+00  1.35D+00
                    CP:  1.21D+00  1.34D+00  1.33D+00  1.43D+00  1.59D+00
                    CP:  1.42D+00  1.53D+00  9.60D-01
 E= -1471.65040334494     Delta-E=        0.000000000075 Rises=F Damp=F
 DIIS: error= 3.50D-08 at cycle  19 NSaved=  19.
 NSaved=19 IEnMin=17 EnMin= -1471.65040334502     IErMin=19 ErrMin= 3.50D-08
 ErrMax= 3.50D-08  0.00D+00 EMaxC= 1.00D-01 BMatC= 3.14D-12 BMatP= 1.23D-11
 IDIUse=1 WtCom= 1.00D+00 WtEn= 0.00D+00
 Coeff-Com: -0.247D-06 0.283D-07-0.401D-05-0.759D-05-0.140D-05 0.614D-04
 Coeff-Com:  0.157D-03 0.635D-04-0.594D-03-0.225D-02-0.891D-03 0.804D-02
 Coeff-Com:  0.170D-01 0.149D-01-0.742D-01-0.152D+00 0.144D-01 0.391D+00
 Coeff-Com:  0.784D+00
 Coeff:     -0.247D-06 0.283D-07-0.401D-05-0.759D-05-0.140D-05 0.614D-04
 Coeff:      0.157D-03 0.635D-04-0.594D-03-0.225D-02-0.891D-03 0.804D-02
 Coeff:      0.170D-01 0.149D-01-0.742D-01-0.152D+00 0.144D-01 0.391D+00
 Coeff:      0.784D+00
 Gap=     0.113 Goal=   None    Shift=    0.000
 Gap=     0.078 Goal=   None    Shift=    0.000
 RMSDP=4.39D-09 MaxDP=5.87D-07 DE= 7.55D-11 OVMax= 1.59D-06

 Error on total polarization charges =  0.04374
 SCF Done:  E(UB3LYP) =  -1471.65040334     A.U. after   19 cycles
            NFock= 19  Conv=0.44D-08     -V/T= 2.0096
 <Sx>= 0.0000 <Sy>= 0.0000 <Sz>= 0.5000 <S**2>= 0.7746 S= 0.5122
 <L.S>= 0.000000000000E+00
 KE= 1.457632442669D+03 PE=-1.005432714474D+04 EE= 3.792070667662D+03
 Annihilation of the first spin contaminant:
 S**2 before annihilation     0.7746,   after     0.7504
 Leave Link  502 at Fri Dec 14 12:01:19 2018, MaxMem=  1342177280 cpu:            4955.8 elap:             315.9
 (Enter /gpfs/apps/hpc/Apps/Restricted/Gaussian/Rev_A.03/g16/l601.exe)
 Copying SCF densities to generalized density rwf, IOpCl= 1 IROHF=0.

 **********************************************************************

            Population analysis using the SCF density.

 **********************************************************************

 Alpha  occ. eigenvalues --  -19.16112 -14.42533 -14.40312 -14.39786 -14.35106
 Alpha  occ. eigenvalues --  -14.34709 -10.29621 -10.28870 -10.28220 -10.28125
 Alpha  occ. eigenvalues --  -10.25177 -10.24916 -10.24702 -10.24611 -10.23815
 Alpha  occ. eigenvalues --  -10.23561 -10.23364 -10.23284 -10.22773 -10.22545
 Alpha  occ. eigenvalues --  -10.22498 -10.22453 -10.21411 -10.21391 -10.21385
 Alpha  occ. eigenvalues --  -10.21021 -10.20816 -10.20784 -10.19689 -10.19688
 Alpha  occ. eigenvalues --  -10.19412 -10.18926 -10.18824 -10.18809 -10.18421
 Alpha  occ. eigenvalues --   -1.05315  -1.04493  -1.03490  -1.00708  -0.90817
 Alpha  occ. eigenvalues --   -0.89887  -0.88499  -0.87925  -0.86642  -0.84586
 Alpha  occ. eigenvalues --   -0.81044  -0.80225  -0.79508  -0.79261  -0.75806
 Alpha  occ. eigenvalues --   -0.75535  -0.75000  -0.74534  -0.70774  -0.70078
 Alpha  occ. eigenvalues --   -0.68610  -0.67325  -0.65847  -0.64866  -0.63960
 Alpha  occ. eigenvalues --   -0.62890  -0.62465  -0.61882  -0.61334  -0.59385
 Alpha  occ. eigenvalues --   -0.58897  -0.58291  -0.56234  -0.55237  -0.53595
 Alpha  occ. eigenvalues --   -0.52959  -0.51949  -0.51502  -0.50579  -0.49847
 Alpha  occ. eigenvalues --   -0.49246  -0.48477  -0.47891  -0.47806  -0.46928
 Alpha  occ. eigenvalues --   -0.46598  -0.45806  -0.45617  -0.45320  -0.44926
 Alpha  occ. eigenvalues --   -0.44729  -0.44673  -0.43948  -0.43512  -0.43406
[...]
 01235,0.00003841,0.00122478,-0.00005347,-0.02858221,-0.00782182,-0.001
 66170,-0.00016623,0.00005541,-0.00028507,0.00007412,-0.00003948,0.0000
 1155,0.00002438,-0.00002499,0.00000262,-0.00032446,-0.00015048,0.00000
 373,0.00244737,-0.00556723,0.00044201,0.00056577,0.00021085,-0.0000350
 0,-0.00034394,0.00032185,-0.00004968,0.00014613,-0.00024425,0.00003165
 ,-0.00000623,0.00019393,0.00000370,0.00012302,0.00026066,0.00005408,0.
 00002629,0.00015307,0.00001160,-0.00005222,0.00009414,-0.00001030,0.00
 008725,0.00009775,-0.00003044,-0.00003273,0.00005879,0.00000883,-0.000
 03122,0.00006872,0.00000214,-0.00002070,0.00005369,0.00000628,-0.00002
 627,0.00002759,-0.00000203,-0.00001426,0.00000486,0.00002568,-0.000034
 97,-0.00000842,-0.00002235,-0.00007223,0.00001539,-0.00000440,-0.00521
 882,0.00016512,-0.00097306,-0.00132423,-0.00594375,0.00067590,-0.16602
 320,-0.18147030,-0.00305497,0.00016005,0.00022280,-0.00001862,-0.00007
 517,0.00008012,-0.00000521,0.00000184,0.00000104,-0.00000060,0.0000187
 6,-0.00007402,0.00000589,-0.00001700,0.00001983,-0.00000279,0.00000353
 ,-0.00000524,0.00000892,0.00000263,-0.00000692,-0.00000678,0.00000251,
 -0.00000271,0.00000038,-0.00000026,0.00000348,-0.00000465,-0.00000061,
 0.00000002,-0.00000030,-0.00000067,0.00000031,-0.00000029,-0.00000019,
 0.00000404,0.00000349,-0.00000077,0.00000003,0.00000023,-0.00000050,0.
 00000040,0.00000022,-0.00000046,-0.00000142,0.00000027,0.00000271,-0.0
 0000111,-0.00000060,0.00000004,-0.00000102,0.00000062,0.00000265,-0.00
 000089,0.00000066,0.00000006,-0.00000110,-0.00000035,0.00000165,-0.000
 00030,-0.00000007,-0.00000031,0.00000023,-0.00000004,0.18442870,0.1839
 6595,0.00000546,-0.00000369,-0.00004232,-0.00000115,-0.00000865,0.0000
 0725,-0.00000022,-0.00000215,-0.00000401,0.00000142,0.00000028,-0.0000
 0417,0.00000016,0.00000189,0.00000221,0.00000003,-0.00000096,0.0000082
 7,-0.00000412,0.00003404,0.00030204,0.,0.00000067,0.00000518,0.0000003
 1,0.00000030,-0.00000024,0.00000015,0.00000033,0.00000317,-0.00000526,
 0.00022054,0.00287308,0.00018530,-0.00064156,-0.00675526,-0.00012715,0
 .00004991,-0.00113679,0.00004475,-0.00002048,0.00003514,-0.00000261,-0
 .00003191,-0.00030743,-0.00000119,0.00010922,0.00119056,0.00260953,0.0
 0027216,-0.00492358,0.00002263,-0.00040137,-0.00025502,0.00001047,0.00
 000702,0.00009603,0.00000139,0.00000442,0.00004828,0.00003442,0.000014
 11,-0.00013136,0.00032646,0.00140726,0.00024383,0.00015147,-0.00023147
 ,-0.00188215,-0.00003791,-0.00001432,-0.00018952,0.00006429,0.00007563
 ,0.00020677,0.00001101,-0.00015082,-0.00002527,-0.00020808,-0.00024266
 ,0.00100075,-0.00000664,-0.00004358,-0.00005814,0.00002183,-0.00004450
 ,-0.00013084,-0.00003827,-0.00002799,0.00002820,0.00000757,-0.00001896
 ,-0.00000514,0.00000758,-0.00001545,-0.00000337,0.00000313,-0.00000706
 ,-0.00000616,-0.00001569,-0.00000781,-0.00004356,-0.00001202,0.0000044
 3,-0.00000113,0.00001467,0.00000299,0.00001836,0.00001652,-0.00000675,
 -0.00000096,0.00002197,-0.00160354,-0.00479536,0.00010809,0.00122964,0
 .00563623,-0.01182214,-0.00503850,-0.00956304,0.00000527,-0.00000479,-
 0.00007219,0.00000030,0.00000014,0.00000444,0.00000021,-0.00000026,-0.
 00000194,0.00000043,-0.00000004,-0.00000346,-0.00000018,-0.00000004,0.
 00000145,0.00000007,0.00000054,0.00000096,-0.00000001,-0.00000047,0.00
 000095,0.00000002,0.00000016,0.00000045,0.00000009,-0.00000008,-0.0000
 0008,0.00000015,0.00000006,-0.00000006,-0.00000029,-0.00000029,-0.0000
 0066,-0.00000024,-0.00000017,-0.00000007,-0.00000008,0.00000014,-0.000
 00011,0.00000026,0.,-0.00000083,-0.00000006,0.00000002,0.00000055,0.00
 000037,0.00000004,-0.00000044,-0.00000004,0.00000002,0.00000021,-0.000
 00028,-0.00000013,-0.00000034,0.00000006,0.00000028,0.00000016,0.,-0.0
 0000003,-0.00000021,0.00000004,0.00000007,-0.00000014,0.00865210,0.005
 15517,0.01838196,0.00118143,-0.00335359,0.00020887,-0.00727901,-0.0022
 4977,0.00013672,0.00112717,0.00080288,0.00010658,-0.00068796,0.0003574
 5,-0.00001416,0.00057374,-0.00002339,0.00000296,0.00107219,-0.00017496
 ,0.00000810,-0.00697169,0.00839252,-0.00053213,-0.00028307,-0.00014076
 ,0.00017371,0.00010918,0.00010843,-0.00001168,0.00006263,0.00002661,-0
 .00000013,0.00532290,-0.00316135,0.00024938,0.00109464,0.00181229,-0.0
 0004650,0.00070135,-0.00050587,0.00004561,-0.00082692,-0.00024515,-0.0
 0000357,-0.00092435,0.00059385,-0.00004015,0.00004952,-0.00095522,0.00
 008309,-0.00606037,0.00105350,-0.00030816,-0.00008414,0.00015756,-0.00
 001256,-0.00007434,-0.00005878,0.00000334,-0.00004066,0.00012886,-0.00
 001049,-0.41426850,0.04994532,-0.00316991,0.00006369,-0.00057400,0.000
 01107,0.00002339,0.00037394,0.00000302,0.00037953,-0.00068901,0.000014
 90,-0.00046656,0.00034630,-0.00006018,0.00017894,0.00018738,0.00002602
 ,-0.00010093,-0.00010818,-0.00000069,-0.00008537,0.00036820,0.00013203
 ,0.00005346,-0.00001247,0.00000653,-0.00002093,-0.00003871,0.00001418,
 0.00001025,-0.00002345,-0.00000102,0.00001234,-0.00003100,-0.00000312,
 0.00002170,-0.00004321,-0.00000293,0.00001836,0.00002911,-0.00001823,0
 .00002898,0.00000978,0.00001053,0.00003775,0.00001407,0.00000398,0.000
 03815,-0.00000013,0.00000715,0.00019808,0.00033372,0.00001554,0.001187
 56,0.00216346,-0.00008597,0.00153338,0.00388260,-0.00016352,0.00706398
 ,0.00008506,-0.00011458,-0.00061194,0.00129991,-0.00010067,0.00007591,
 -0.00001351,-0.00000475,0.00023942,-0.00087403,0.00007366,-0.00020562,
 0.00025872,-0.00003770,0.00004842,-0.00006701,0.00011024,0.00003873,-0
 .00008894,-0.00008503,0.00003658,-0.00004208,0.00000567,-0.00000195,0.
 00003589,-0.00005716,-0.00001016,0.00000171,-0.00000028,-0.00000795,0.
 00000212,-0.00000689,-0.00000035,0.00004487,0.00004419,-0.00001206,0.0
 0000044,-0.00000034,-0.00000614,0.00000421,0.00000732,-0.00000903,-0.0
 0001607,0.00000232,0.00003149,-0.00001417,-0.00000472,0.00000263,-0.00
 000928,0.00000557,0.00003057,-0.00001192,0.00000602,0.00000278,-0.0000
 1062,-0.00000344,0.00001564,-0.00000218,-0.00000027,-0.00000155,0.0000
 0378,-0.00000028,-0.00053475,0.00035405,-0.00004554,0.41731896,-0.0037
 9935,-0.00599779,0.00071689,-0.02071287,0.01157664,-0.00146419,0.00081
 314,0.00063993,-0.00006319,0.00005550,0.00006563,0.00000238,-0.0000341
 6,-0.00002727,-0.00001939,-0.00037582,0.00133046,0.00001484,0.02815521
 ,0.00931630,-0.00091764,0.00027146,-0.00043443,0.00009795,-0.00000511,
 -0.00001972,0.00000604,0.00001084,-0.00001148,0.00000404,0.00071447,-0
 .00626136,0.00046832,0.00094477,0.00041141,0.00003709,0.00017322,-0.00
 008091,0.00000559,-0.00022516,0.00011429,0.00000163,-0.00031447,0.0000
 2868,-0.00002500,-0.00044548,0.00002136,-0.00012452,-0.00351146,0.0010
 8884,-0.00028551,-0.00002088,0.00009519,-0.00000869,-0.00002462,0.0000
 4039,0.00000097,-0.00007594,0.00015888,-0.00001719,0.04445384,-0.07828
 336,0.00510557,0.00014836,-0.00047170,0.00001267,-0.00019062,0.0004522
 5,-0.00002305,0.00066853,-0.00067080,0.00002126,-0.00059403,0.00033323
 ,-0.00006447,0.00017478,0.00022929,0.00002129,-0.00012886,-0.00011890,
 -0.00000285,0.00003030,0.00012564,0.00018150,0.00003958,-0.00001588,0.
 00000449,-0.00003723,-0.00005517,0.00001950,0.00003214,-0.00003748,-0.
 00001039,0.00003417,-0.00004384,0.00000525,0.00000664,-0.00004350,-0.0
 0000500,0.00001469,0.00002651,-0.00001669,0.00002469,0.00000813,0.0000
 0814,0.00003192,0.00001229,0.00000505,0.00003331,0.00000030,0.00000622
 ,0.00016359,0.00025240,0.00001491,0.00563407,-0.00195812,-0.00033104,0
 .00167908,0.00288732,-0.00007041,0.00713788,-0.00504531,0.00062564,-0.
 00028797,-0.00037498,0.00004989,-0.00009438,0.00008804,-0.00001615,0.0
 0047297,0.00001215,-0.00002437,-0.00002568,0.00012913,-0.00000427,0.00
 001959,-0.00001484,0.00001497,0.00002122,-0.00002288,-0.00001405,-0.00
 000516,-0.00000571,0.00000054,-0.00000125,0.00000728,-0.00001088,-0.00
 000008,0.00000016,-0.00000150,-0.00000117,0.00000188,-0.00000095,-0.00
 000005,0.00001126,0.00001016,-0.00000010,0.00000198,0.00000115,-0.0000
 0104,0.00000218,0.00000007,-0.00000150,-0.00000267,0.00000058,0.000005
 57,-0.00000233,-0.00000108,0.00000028,-0.00000208,0.00000086,0.0000060
 3,-0.00000249,0.00000105,-0.00000004,-0.00000219,-0.00000028,0.0000028
 6,-0.00000036,-0.00000019,-0.00000037,0.00000031,-0.00000006,-0.000484
 98,0.00027168,-0.00002116,-0.05980098,0.07016237,0.00040528,0.00078309
 ,0.00258830,0.00196533,-0.00156097,-0.00652888,0.00003133,-0.00015617,
 -0.00138775,0.00003855,0.00000485,0.00003420,-0.00002412,0.00000155,-0
 .00028238,0.00004585,-0.00003568,0.00140249,-0.00172941,-0.00106010,-0
 .00496461,0.00012150,0.00013183,-0.00038779,0.00000464,0.00000954,0.00
 008090,0.00000007,0.00000594,0.00004493,-0.00016693,0.00038995,0.00038
 947,-0.00007841,-0.00000152,0.00027217,-0.00000816,0.00000721,0.000008
 95,0.00001665,0.00000075,0.00015131,0.00001838,-0.00002726,-0.00027646
 ,0.00003625,-0.00006777,-0.00157144,0.00023357,-0.00014532,-0.00081036
 ,0.00000132,-0.00000649,-0.00001362,0.00000088,-0.00000092,0.00003243,
 0.00000527,-0.00001276,-0.00004113,-0.00386469,0.00531352,-0.01476971,
 -0.00000483,0.00003529,-0.00000550,0.00001111,-0.00004744,-0.00013826,
 -0.00003539,0.00002592,0.00003947,0.00002707,-0.00002076,0.00001738,-0
 .00000929,-0.00001046,-0.00000443,0.00000598,0.00000399,0.00000577,0.0
 0008360,0.00022235,0.00022908,-0.00000382,0.00000051,0.00000487,0.0000
 0311,0.00000312,0.00000211,0.00000145,-0.00000366,0.00000078,-0.000005
 14,0.00000829,0.00000165,-0.00000060,0.00000236,-0.00000255,-0.0000010
 0,-0.00000142,0.00000176,-0.00000226,-0.00000190,-0.00000070,-0.000001
 47,0.00000030,-0.00000078,-0.00000240,0.00000001,0.00000020,-0.0000121
 5,-0.00002109,-0.00000866,-0.00003427,-0.00035203,-0.00356933,-0.00011
 400,-0.00016363,0.00031589,-0.00047511,0.00067577,0.00567417,0.0000411
 8,0.00003759,0.00020850,0.00001164,-0.00001750,-0.00009763,-0.00003175
 ,-0.00000606,-0.00023026,0.00000451,-0.00000338,0.00006077,-0.00001106
 ,0.00001299,-0.00000868,0.00000597,-0.00001226,-0.00000372,0.00000048,
 0.00000043,-0.00000067,-0.00000098,-0.00000438,0.00000593,0.00000040,-
 0.00000228,0.00000034,0.00000010,-0.00000136,-0.00000236,0.00000182,0.
 00000397,0.00000345,-0.00000064,0.00000245,-0.00000092,0.00000006,0.00
 000018,-0.00000233,0.00000004,0.00000049,0.00000203,-0.00000174,0.0000
 0136,-0.00000110,0.00000041,0.00000030,0.00000025,0.00000079,-0.000001
 30,-0.00000111,-0.00000050,0.00000022,0.00000038,-0.00000028,-0.000000
 12,-0.00000129,0.00000005,-0.00000006,-0.00000034,0.00001104,-0.000002
 63,0.00024359,0.00342764,-0.00395207,0.02298746,0.00233190,0.01117968,
 -0.00075549,0.00240235,-0.00132119,0.00007883,0.00119665,0.00220943,-0
 .00019470,-0.00320798,-0.00023987,0.00006816,0.00035797,-0.00397402,0.
 00030223,-0.00595024,0.00492383,-0.00039098,-0.00503102,-0.00557659,0.
 00037569,0.00001046,-0.00017937,0.00001516,-0.00010706,0.00005220,-0.0
 0000177,0.00006267,-0.00020338,0.00002689,-0.00012115,0.00036488,-0.00
 002744,0.00005202,-0.00004384,0.00000072,0.00000964,0.00017203,-0.0000
 1088,0.00016595,-0.00002946,0.00000492,0.00000383,0.00002952,-0.000018
 58,0.00010264,-0.00006092,0.00000481,-0.00002178,-0.00011202,0.0000044
 8,0.00002270,0.00000989,0.00000114,0.00000393,0.00004582,-0.00000276,0
 .00019767,-0.00035767,0.00015020,0.00422724,-0.00275407,0.00016178,0.0
 0002736,-0.00007008,0.00000213,-0.00007471,0.00011468,-0.00000538,0.00
 012090,-0.00017661,0.00001043,-0.00015034,0.00007684,-0.00001601,0.000
 03843,0.00006372,0.00000499,-0.00003927,-0.00003945,-0.00000179,-0.000
 00443,0.00000974,-0.00000061,0.00000878,-0.00000371,0.00000088,-0.0000
 1134,-0.00001415,0.00000370,0.00000451,-0.00000636,-0.00000028,0.00000
 471,-0.00000783,-0.00000049,0.00000456,-0.00000779,-0.00000108,0.00000
 111,0.00001101,-0.00000486,0.00000563,0.00000208,0.00000228,0.00000752
 ,0.00000324,0.00000088,0.00000704,-0.00000124,0.00000155,0.00003675,0.
 00005685,0.00000317,0.00030562,0.00002536,0.00000549,0.00012133,0.0001
 7095,-0.00000323,0.00189384,0.00047789,-0.00027653,0.01804336,-0.00862
 033,0.00067696,0.00101986,0.00345778,-0.00021426,-0.31259857,-0.141391
 11,0.00995661,-0.01173617,-0.00772088,0.00042079,-0.00095660,0.0010993
 8,-0.00072898,-0.00097806,0.00144888,0.00064413,0.00154073,-0.00009904
 ,0.00017677,-0.00001657,-0.00021610,0.00038906,0.00002560,-0.00010257,
 -0.00007121,-0.00001592,-0.00007914,0.00003639,-0.00005386,-0.00035171
 ,-0.00036929,0.00001530,-0.00008221,0.00009157,0.00007934,0.00004085,-
 0.00007268,0.00008420,-0.00005427,0.00000158,-0.00006373,0.00006839,-0
 .00002991,0.00001374,0.00000325,0.00001659,-0.00008096,0.00008391,0.00
 002193,0.00001542,-0.00000491,-0.00001919,0.00002792,-0.00000113,0.000
 00212,-0.00000841,-0.00000033,0.00000112,-0.00004477,-0.00002539,-0.00
 000080,-0.00040904,-0.00077389,0.00005706,0.30708084,0.00459291,-0.002
 41315,0.00007388,0.00010187,-0.00063033,0.00007066,0.00022760,0.000387
 94,-0.00004091,-0.00057161,0.00017010,0.00000994,0.00000612,-0.0007831
 4,0.00002679,-0.00125252,0.00132655,-0.00042130,0.00043745,0.00043487,
 -0.00009026,-0.00001973,0.00000268,-0.00000183,-0.00004491,0.00006298,
 0.00000429,0.00007958,0.00015481,-0.00001304,0.00011139,-0.00014674,0.
 00001105,-0.00000320,-0.00001106,0.00000323,0.00000300,-0.00006611,0.0
 0000365,-0.00005300,-0.00003450,0.00000060,-0.00020064,0.00009241,-0.0
 0001367,-0.00007785,-0.00009476,-0.00000733,0.00006501,0.00007281,-0.0
 0000133,0.00000010,-0.00000352,0.00000040,-0.00000956,-0.00002823,0.00
 000194,0.00004660,-0.00031157,-0.00008473,-0.00089278,0.00016577,0.000
 02554,-0.00000339,0.00003113,-0.00000057,0.00000491,-0.00001898,0.0000
 0027,-0.00002408,0.00003506,-0.00000165,0.00003113,-0.00001210,0.00000
 314,-0.00000869,-0.00001519,-0.00000104,0.00001112,0.00000814,0.000000
 53,0.00000105,-0.00000126,-0.00000001,-0.00000170,0.00000086,-0.000000
 19,0.00000169,0.00000220,-0.00000057,-0.00000027,0.00000124,-0.0000009
 5,-0.00000030,0.00000143,0.00000105,-0.00000112,0.00000134,0.00000016,
 -0.00000056,-0.00000283,0.00000128,-0.00000182,-0.00000043,-0.00000089
 ,-0.00000232,-0.00000060,-0.00000008,-0.00000145,-0.00000004,-0.000000
 33,-0.00000710,-0.00002649,-0.00000048,-0.00016776,0.00001020,-0.00000
 655,-0.00002068,-0.00008313,0.00000351,-0.00237828,-0.00546340,0.00026
 487,-0.03323584,-0.02325214,0.00189652,0.00184857,-0.00378937,0.001020
 38,-0.13737337,-0.15494510,0.00828665,0.01481418,0.01377307,-0.0005685
 8,0.00202832,-0.00126807,0.00097465,0.00215144,-0.00158250,-0.00104696
 ,0.00074308,0.00043385,0.00009463,0.00009270,0.00023309,-0.00079269,-0
 .00006334,0.00006312,0.00006264,-0.00025249,-0.00013883,-0.00031333,0.
 00017433,0.00052734,0.00076224,0.00000179,0.00004816,-0.00001041,-0.00
 012094,0.00004096,0.00007251,-0.00019901,-0.00008679,0.00002702,0.0002
 9449,-0.00017355,-0.00004672,0.00002417,-0.00007400,0.00001530,0.00033
 112,-0.00018343,0.00005797,0.00000946,-0.00008011,-0.00000281,0.000069
 49,-0.00000427,-0.00000993,0.00001337,0.00003446,-0.00000535,0.0000105
 5,0.00000771,0.00000018,0.00016119,0.00010378,0.00001461,0.14850057,0.
 17749769,-0.00047610,0.00024790,0.00029898,-0.00003075,0.00011857,0.00
 049382,-0.00003567,-0.00005358,-0.00009241,0.00006583,0.00000626,0.000
 19084,-0.00002067,0.00003328,-0.00045073,0.00006208,-0.00065286,-0.005
 78706,0.00006127,0.00001888,-0.00081835,0.,0.00000148,-0.00002692,0.00
 000386,0.00000664,0.00010395,-0.00000312,0.00000319,0.00007523,-0.0000
 0092,-0.00000314,-0.00001762,-0.00000090,0.00000202,0.00001178,0.00000
 043,-0.00000176,-0.00000879,-0.00000276,0.00000327,0.00001854,0.000019
 74,-0.00000562,-0.00006436,0.00000057,-0.00000388,-0.00016116,-0.00000
 293,-0.00000065,0.00000034,-0.00000079,0.00000021,0.00000415,0.0000005
 6,0.00000068,0.00000024,0.00004431,-0.00009534,-0.00010510,-0.00003060
 ,0.00005320,0.00024552,-0.00000035,0.00000170,0.00000091,0.00000111,-0
 .00000219,-0.00000171,-0.00000123,0.00000247,-0.00000099,0.00000191,-0
 .00000098,0.00000053,-0.00000045,-0.00000077,-0.00000049,0.00000060,0.
 00000022,0.00000024,-0.00000005,-0.00000011,0.00000134,-0.00000018,0.0
 0000006,0.00000036,0.00000018,0.00000021,0.00000048,-0.00000024,-0.000
 00023,-0.00000010,0.00000008,0.00000045,-0.00000006,-0.00000004,0.0000
 0009,0.00000005,-0.00000006,-0.00000013,0.00000028,-0.00000022,-0.0000
 0032,-0.00000008,0.00000002,0.00000018,-0.00000013,-0.00000016,0.00000
 004,0.00000010,-0.00000052,-0.00000121,-0.00000224,0.00000134,-0.00000
 045,-0.00000738,-0.00000227,0.00000019,-0.00000262,0.00002159,0.000031
 62,-0.00481205,0.00246912,0.00230870,0.00392506,-0.00017667,0.00098097
 ,0.00992328,0.01016769,0.00798606,-0.02972891,-0.00093706,-0.00062938,
 0.00051146,0.00119628,-0.00079912,-0.00088890,-0.00181089,0.00088055,-
 0.00094605,0.00006744,0.00009610,0.00039741,0.00004955,-0.00028799,-0.
 00015730,-0.00028458,0.00009728,0.00031891,-0.00007021,-0.00010345,-0.
 00039113,-0.00008947,0.00008733,-0.00030654,0.00032766,-0.00006257,0.0
 0032679,-0.00001221,-0.00002959,0.00019499,0.00000126,0.00001252,-0.00
 003012,0.00002566,0.00000073,-0.00004818,0.00005120,-0.00000635,-0.000
 01283,-0.00009014,0.00001993,-0.00006250,-0.00004708,0.00002028,-0.000
 01330,-0.00000892,-0.00000242,-0.00001620,-0.00000033,-0.00000194,0.00
 000322,0.00000041,0.00000059,0.00000527,0.00000082,0.00002974,0.000303
 82,-0.01050403,-0.01030756,0.02760440\\0.00000056,-0.00000184,0.000014
 32,0.00000434,-0.00000017,0.00002403,0.00000413,0.00000212,0.00004294,
 0.00000500,0.00000147,0.00005046,0.00000439,-0.00000123,0.00004060,0.0
 0000317,-0.00000411,0.00002327,0.00000192,-0.00000150,-0.00000351,0.00
 000552,0.00000295,0.00005013,0.00000674,0.00000140,0.00006430,0.000004
 93,-0.00000203,0.00004739,-0.00000103,0.00000127,-0.00001662,-0.000002
 64,0.00000019,-0.00003242,-0.00000437,-0.00000041,-0.00004836,-0.00000
 535,-0.00000365,-0.00004900,-0.00000325,-0.00000357,-0.00003447,-0.000
 00406,-0.00000205,-0.00001758,0.00000046,0.00000686,-0.00000941,-0.000
 00632,-0.00000109,-0.00005967,-0.00000640,-0.00000467,-0.00006162,-0.0
 0000347,-0.00000534,-0.00003546,0.00000072,-0.00000005,0.00001515,-0.0
 0000021,0.00001094,-0.00000729,-0.00000186,0.00000686,0.00000148,0.000
 00240,0.00000956,0.00001921,0.00000456,0.00000991,0.00003004,0.0000001
 3,0.00001339,0.00002218,0.00000030,0.00001535,0.00000458,0.00000207,0.
 00000422,0.00002518,0.00000331,0.00001625,0.00002986,0.00000485,0.0000
 0954,0.00004888,0.00000554,-0.00000213,0.00005291,0.00000504,0.0000202
 9,0.00005316,0.00000511,0.00001140,0.00005512,-0.00000117,0.00001833,-
 0.00000390,-0.00000229,0.00002781,-0.00001337,-0.00000165,0.00000641,-
 0.00001099,-0.00000020,0.00002156,0.00000564,-0.00000285,0.00000959,-0
 .00002248,-0.00000093,0.00000193,-0.00000214,-0.00000435,0.00000166,-0
 .00002651,0.00000030,-0.00000294,-0.00000223,-0.00000059,-0.00000333,0
 .00001321,0.00000305,-0.00000613,0.00001996,0.00000136,-0.00000610,-0.
 00000272,-0.00000053,-0.00001032,-0.00001283,-0.00000131,0.00000706,-0
 .00001268,-0.00000087,-0.00002476,-0.00000793,-0.00000248,-0.00000965,
 -0.00002659,-0.00000269,0.00000442,-0.00002229,-0.00000013,0.00000926,
 0.00000194,-0.00000230,0.00001828,-0.00001645,-0.00000111,-0.00002809,
 -0.00001861,0.00000145,-0.00002478,0.00000552,0.00000037,-0.00003634,-
 0.00001008,-0.00000158,-0.00001090,-0.00001718,-0.00000253,0.00001596,
 -0.00002035,-0.00000373,0.00000374,-0.00003581,0.00000010,-0.00003901,
 -0.00001380,-0.00000244,-0.00002951,-0.00003203,-0.00000213,-0.0000137
 5,-0.00002432,-0.00000011,-0.00001083,-0.00000325,-0.00000348,0.000005
 62,-0.00003197,0.00000072,0.00000174,0.00001448,-0.00000214,-0.0000070
 4,-0.00001002\\\@


 Discoveries are often made by not following instructions,
 by going off the main road, by trying the untried.
 -- Frank Tyger
 Job cpu time:       0 days 16 hours 53 minutes 51.3 seconds.
 Elapsed time:       0 days  1 hours  3 minutes 30.9 seconds.
 File lengths (MBytes):  RWF=   5668 Int=      0 D2E=      0 Chk=     76 Scr=      8
 Normal termination of Gaussian 16 at Fri Dec 14 13:05:25 2018.
