 Entering Gaussian System, Link 0=g16
 Initial command:
 /gpfs/apps/hpc/Apps/Restricted/Gaussian/Rev_A.03/g16/l1.exe "/gpfs/scratch60/fas/hammes_schiffer/jg2487/c23n07/Gau-29367.inp" -scrdir="/gpfs/scratch60/fas/hammes_schiffer/jg2487/c23n07/"
 Entering Link 1 = /gpfs/apps/hpc/Apps/Restricted/Gaussian/Rev_A.03/g16/l1.exe PID=     29369.
  
 Copyright (c) 1988,1990,1992,1993,1995,1998,2003,2009,2016,
            Gaussian, Inc.  All Rights Reserved.
  
 This is part of the Gaussian(R) 16 program.  It is based on
 the Gaussian(R) 09 system (copyright 2009, Gaussian, Inc.),
 the Gaussian(R) 03 system (copyright 2003, Gaussian, Inc.),
 the Gaussian(R) 98 system (copyright 1998, Gaussian, Inc.),
 the Gaussian(R) 94 system (copyright 1995, Gaussian, Inc.),
 the Gaussian 92(TM) system (copyright 1992, Gaussian, Inc.),
 the Gaussian 90(TM) system (copyright 1990, Gaussian, Inc.),
 the Gaussian 88(TM) system (copyright 1988, Gaussian, Inc.),
 the Gaussian 86(TM) system (copyright 1986, Carnegie Mellon
 University), and the Gaussian 82(TM) system (copyright 1983,
 Carnegie Mellon University). Gaussian is a federally registered
 trademark of Gaussian, Inc.
  
 This software contains proprietary and confidential information,
 including trade secrets, belonging to Gaussian, Inc.
  
 This software is provided under written license and may be
 used, copied, transmitted, or stored only in accord with that
 written license.
  
 The following legend is applicable only to US Government
 contracts under FAR:
  
                    RESTRICTED RIGHTS LEGEND
  
 Use, reproduction and disclosure by the US Government is
 subject to restrictions as set forth in subparagraphs (a)
 and (c) of the Commercial Computer Software - Restricted
 Rights clause in FAR 52.227-19.
  
 Gaussian, Inc.
 340 Quinnipiac St., Bldg. 40, Wallingford CT 06492
  
  
 ---------------------------------------------------------------
 Warning -- This program may not be used in any manner that
 competes with the business of Gaussian, Inc. or will provide
 assistance to any competitor of Gaussian, Inc.  The licensee
 of this program is prohibited from giving any competitor of
 Gaussian, Inc. access to this program.  By using this program,
 the user acknowledges that Gaussian, Inc. is engaged in the
 business of creating and licensing software in the field of
 computational chemistry and represents and warrants to the
 licensee that it is not a competitor of Gaussian, Inc. and that
 it will not use this program in any manner prohibited above.
 ---------------------------------------------------------------
  

 Cite this work as:
 Gaussian 16, Revision A.03,
 M. J. Frisch, G. W. Trucks, H. B. Schlegel, G. E. Scuseria, 
 M. A. Robb, J. R. Cheeseman, G. Scalmani, V. Barone, 
 G. A. Petersson, H. Nakatsuji, X. Li, M. Caricato, A. V. Marenich, 
 J. Bloino, B. G. Janesko, R. Gomperts, B. Mennucci, H. P. Hratchian, 
 J. V. Ortiz, A. F. Izmaylov, J. L. Sonnenberg, D. Williams-Young, 
 F. Ding, F. Lipparini, F. Egidi, J. Goings, B. Peng, A. Petrone, 
 T. Henderson, D. Ranasinghe, V. G. Zakrzewski, J. Gao, N. Rega, 
 G. Zheng, W. Liang, M. Hada, M. Ehara, K. Toyota, R. Fukuda, 
 J. Hasegawa, M. Ishida, T. Nakajima, Y. Honda, O. Kitao, H. Nakai, 
 T. Vreven, K. Throssell, J. A. Montgomery, Jr., J. E. Peralta, 
 F. Ogliaro, M. J. Bearpark, J. J. Heyd, E. N. Brothers, K. N. Kudin, 
 V. N. Staroverov, T. A. Keith, R. Kobayashi, J. Normand, 
 K. Raghavachari, A. P. Rendell, J. C. Burant, S. S. Iyengar, 
 J. Tomasi, M. Cossi, J. M. Millam, M. Klene, C. Adamo, R. Cammi, 
 J. W. Ochterski, R. L. Martin, K. Morokuma, O. Farkas, 
 J. B. Foresman, and D. J. Fox, Gaussian, Inc., Wallingford CT, 2016.
 
 ******************************************
 Gaussian 16:  ES64L-G16RevA.03 25-Dec-2016
                21-Dec-2018 
 ******************************************
 %chk=cyclohexyl-diBIP-E3PT.chk
 %mem=10GB
 %nprocshared=16
 Will use up to   16 processors via shared memory.
 ----------------------------------------------------------------------
 #p opt=(calcfc,tight) freq=internalmodes b3lyp/6-31g(d,p) scrf=(cpcm,s
 olvent=dichloromethane,read) nosymm empiricaldispersion=gd3bj int=grid
 =ultrafine
 ----------------------------------------------------------------------
 1/7=10,10=4,18=20,19=15,26=6,38=1,40=2/1,3;
 2/9=110,12=2,15=1,17=6,18=5,40=1/2;
 3/5=1,6=6,7=101,11=2,25=1,30=1,70=2103,71=2,72=9,74=-5,75=-5,124=41,140=1/1,2,3;
 4//1;
 5/5=2,38=5,53=9/2;
 8/6=4,10=90,11=11/1;
 11/6=1,8=1,9=11,15=111,16=1,31=1/1,2,10;
 10/6=1,13=1,31=1/2;
 6/7=2,8=2,9=2,10=2,28=1/1;
 7/10=1,18=20,25=1,30=1/1,2,3,16;
 1/7=10,10=4,18=20,19=15,26=6/3(2);
 2/9=110,15=1/2;
 99//99;
 2/9=110,15=1/2;
 3/5=1,6=6,7=101,11=2,25=1,30=1,70=2105,71=1,72=9,74=-5,75=-5,124=41/1,2,3;
 4/5=5,16=3,69=1/1;
 5/5=2,38=5,53=9/2;
 7/30=1/1,2,3,16;
 1/7=10,18=20,19=15,26=6/3(-5);
 2/9=110,15=1/2;
 6/7=2,8=2,9=2,10=2,19=2,28=1/1;
 99/9=1/99;
 Leave Link    1 at Fri Dec 21 10:48:49 2018, MaxMem=  1342177280 cpu:               7.0 elap:               0.5
 (Enter /gpfs/apps/hpc/Apps/Restricted/Gaussian/Rev_A.03/g16/l101.exe)
 ----------------------------------------------------------------------
 cyclohexylimine diBIP oxidized, all three proton transferred, optimiza
 tion
 ----------------------------------------------------------------------
 Symbolic Z-matrix:
 Charge =  1 Multiplicity = 2
 C                     1.50886   1.14407  -0.09306 
 C                     0.30036   1.87425  -0.21135 
 C                     0.28058   3.24869  -0.42366 
 C                     1.51391   3.90425  -0.52728 
 C                     2.7201    3.20907  -0.41496 
 C                     2.74826   1.81748  -0.1997 
 C                    -0.08464  -0.28763   0.1055 
 H                    -0.65228   3.7914   -0.51234 
 H                     1.53248   4.974    -0.69353 
 H                     3.65886   3.74402  -0.4969 
 C                    -2.27344  -1.46785   0.22826 
 C                    -3.01586  -2.67336   0.32531 
 C                    -2.40335  -3.91823   0.46848 
 C                    -1.00933  -3.93276   0.50428 
 C                    -0.2523   -2.75552   0.39115 
 C                    -0.85994  -1.5043    0.25192 
 C                    -4.35658  -0.91462   0.12123 
 H                    -2.98163  -4.83032   0.5462 
 H                    -0.49336  -4.87863   0.61613 
 H                     0.82894  -2.80814   0.40712 
 N                    -0.68782   0.92585  -0.07404 
 C                    -6.88033  -0.81376  -0.11355 
 C                    -5.58149  -0.14081   0.02369 
 C                    -5.51237   1.23859   0.06587 
 C                    -6.66655   2.03732  -0.02426 
 C                    -7.91882   1.39833  -0.18356 
 C                    -8.07589   0.02841  -0.23355 
 H                    -4.54097   1.70219   0.18353 
 H                    -8.7969    2.02045  -0.26159 
 C                    -6.53104   3.55333   0.07357 
 C                    -9.44736  -0.62026  -0.40143 
 O                    -6.95074  -2.07192  -0.12483 
 N                    -3.12404  -0.39375   0.10666 
 N                    -4.32983  -2.27644   0.25047 
 N                     1.25253  -0.18863   0.10441 
 C                     3.99414   1.12819  -0.09618 
 H                     4.91675   1.69342  -0.17951 
 N                     4.08976  -0.15478   0.09033 
 C                     5.36909  -0.88735   0.19469 
 C                     6.18257  -0.74854  -1.09906 
 C                     6.16843  -0.41563   1.41731 
 H                     5.08685  -1.93263   0.33194 
 C                     7.51458  -1.49624  -0.98521 
 H                     6.37804   0.31509  -1.27782 
 H                     5.59394  -1.119    -1.942 
 C                     7.50157  -1.16508   1.51513 
 H                     6.3592    0.65936   1.31421 
 H                     5.57246  -0.5568    2.3225 
 C                     8.32001  -1.0197    0.22819 
 H                     8.08486  -1.36017  -1.90821 
 H                     7.31894  -2.57105  -0.88789 
 H                     8.06381  -0.79404   2.37624 
 H                     7.30503  -2.22847   1.69869 
 H                     9.25329  -1.5845    0.30713 
 H                     8.59408   0.03364   0.08945 
 H                    -5.18594  -2.82187   0.2289 
 H                    -1.70273   1.02888  -0.09106 
 H                     3.20544  -0.67108   0.16644 
 C                    -5.58344   4.04882  -1.0383 
 H                    -5.46295   5.13238  -0.95824 
 H                    -4.59511   3.59104  -0.95868 
 H                    -5.99204   3.81899  -2.02513 
 C                    -7.87785   4.2752   -0.06676 
 H                    -8.34622   4.06817  -1.03194 
 H                    -8.57372   3.98358   0.72386 
 H                    -7.71749   5.35262   0.00757 
 C                    -5.9231    3.9017    1.44894 
 H                    -6.56606   3.54879   2.25855 
 H                    -4.93602   3.45164   1.57349 
 H                    -5.81572   4.98568   1.54014 
 C                    -9.46497  -1.45395  -1.7016 
 H                    -8.71     -2.23847  -1.67451 
 H                    -10.44759  -1.91729  -1.82447 
 H                    -9.27893  -0.81565  -2.56905 
 C                    -10.56713   0.4281   -0.48889 
 H                    -10.62392   1.03422   0.41875 
 H                    -10.4377   1.09894  -1.34214 
 H                    -11.52292  -0.08629  -0.61243 
 C                    -9.75095  -1.5298    0.8115 
 H                    -10.73638  -1.98514   0.68171 
 H                    -9.00653  -2.31726   0.9102 
 H                    -9.7682   -0.94278   1.73364 
 
 ITRead=  0  0  0  0  0  0  0  0  0  0  0  0  0  0  0  0  0  0  0  0
 ITRead=  0  0  0  0  0  0  0  0  0  0  0  0  0  0  0  0  0  0  0  0
 ITRead=  0  0  0  0  0  0  0  0  0  0  0  0  0  0  0  0  0  0  0  0
 ITRead=  0  0  0  0  0  0  0  0  0  0  0  0  0  0  0  0  0  0  0  0
 ITRead=  0  0
 MicOpt= -1 -1 -1 -1 -1 -1 -1 -1 -1 -1 -1 -1 -1 -1 -1 -1 -1 -1 -1 -1
 MicOpt= -1 -1 -1 -1 -1 -1 -1 -1 -1 -1 -1 -1 -1 -1 -1 -1 -1 -1 -1 -1
 MicOpt= -1 -1 -1 -1 -1 -1 -1 -1 -1 -1 -1 -1 -1 -1 -1 -1 -1 -1 -1 -1
 MicOpt= -1 -1 -1 -1 -1 -1 -1 -1 -1 -1 -1 -1 -1 -1 -1 -1 -1 -1 -1 -1
 MicOpt= -1 -1
 NAtoms=     82 NQM=       82 NQMF=       0 NMMI=      0 NMMIF=      0
                NMic=       0 NMicF=      0.
                    Isotopes and Nuclear Properties:
 (Nuclear quadrupole moments (NQMom) in fm**2, nuclear magnetic moments (NMagM)
  in nuclear magnetons)

  Atom         1           2           3           4           5           6           7           8           9          10
 IAtWgt=          12          12          12          12          12          12          12           1           1           1
 AtmWgt=  12.0000000  12.0000000  12.0000000  12.0000000  12.0000000  12.0000000  12.0000000   1.0078250   1.0078250   1.0078250
 NucSpn=           0           0           0           0           0           0           0           1           1           1
 AtZEff=  -0.0000000  -0.0000000  -0.0000000  -0.0000000  -0.0000000  -0.0000000  -0.0000000  -0.0000000  -0.0000000  -0.0000000
 NQMom=    0.0000000   0.0000000   0.0000000   0.0000000   0.0000000   0.0000000   0.0000000   0.0000000   0.0000000   0.0000000
 NMagM=    0.0000000   0.0000000   0.0000000   0.0000000   0.0000000   0.0000000   0.0000000   2.7928460   2.7928460   2.7928460
 AtZNuc=   6.0000000   6.0000000   6.0000000   6.0000000   6.0000000   6.0000000   6.0000000   1.0000000   1.0000000   1.0000000

  Atom        11          12          13          14          15          16          17          18          19          20
 IAtWgt=          12          12          12          12          12          12          12           1           1           1
 AtmWgt=  12.0000000  12.0000000  12.0000000  12.0000000  12.0000000  12.0000000  12.0000000   1.0078250   1.0078250   1.0078250
 NucSpn=           0           0           0           0           0           0           0           1           1           1
 AtZEff=  -0.0000000  -0.0000000  -0.0000000  -0.0000000  -0.0000000  -0.0000000  -0.0000000  -0.0000000  -0.0000000  -0.0000000
 NQMom=    0.0000000   0.0000000   0.0000000   0.0000000   0.0000000   0.0000000   0.0000000   0.0000000   0.0000000   0.0000000
 NMagM=    0.0000000   0.0000000   0.0000000   0.0000000   0.0000000   0.0000000   0.0000000   2.7928460   2.7928460   2.7928460
 AtZNuc=   6.0000000   6.0000000   6.0000000   6.0000000   6.0000000   6.0000000   6.0000000   1.0000000   1.0000000   1.0000000

  Atom        21          22          23          24          25          26          27          28          29          30
 IAtWgt=          14          12          12          12          12          12          12           1           1          12
 AtmWgt=  14.0030740  12.0000000  12.0000000  12.0000000  12.0000000  12.0000000  12.0000000   1.0078250   1.0078250  12.0000000
 NucSpn=           2           0           0           0           0           0           0           1           1           0
 AtZEff=  -0.0000000  -0.0000000  -0.0000000  -0.0000000  -0.0000000  -0.0000000  -0.0000000  -0.0000000  -0.0000000  -0.0000000
 NQMom=    2.0440000   0.0000000   0.0000000   0.0000000   0.0000000   0.0000000   0.0000000   0.0000000   0.0000000   0.0000000
 NMagM=    0.4037610   0.0000000   0.0000000   0.0000000   0.0000000   0.0000000   0.0000000   2.7928460   2.7928460   0.0000000
 AtZNuc=   7.0000000   6.0000000   6.0000000   6.0000000   6.0000000   6.0000000   6.0000000   1.0000000   1.0000000   6.0000000

  Atom        31          32          33          34          35          36          37          38          39          40
 IAtWgt=          12          16          14          14          14          12           1          14          12          12
 AtmWgt=  12.0000000  15.9949146  14.0030740  14.0030740  14.0030740  12.0000000   1.0078250  14.0030740  12.0000000  12.0000000
 NucSpn=           0           0           2           2           2           0           1           2           0           0
 AtZEff=  -0.0000000  -0.0000000  -0.0000000  -0.0000000  -0.0000000  -0.0000000  -0.0000000  -0.0000000  -0.0000000  -0.0000000
 NQMom=    0.0000000   0.0000000   2.0440000   2.0440000   2.0440000   0.0000000   0.0000000   2.0440000   0.0000000   0.0000000
 NMagM=    0.0000000   0.0000000   0.4037610   0.4037610   0.4037610   0.0000000   2.7928460   0.4037610   0.0000000   0.0000000
 AtZNuc=   6.0000000   8.0000000   7.0000000   7.0000000   7.0000000   6.0000000   1.0000000   7.0000000   6.0000000   6.0000000

  Atom        41          42          43          44          45          46          47          48          49          50
 IAtWgt=          12           1          12           1           1          12           1           1          12           1
 AtmWgt=  12.0000000   1.0078250  12.0000000   1.0078250   1.0078250  12.0000000   1.0078250   1.0078250  12.0000000   1.0078250
 NucSpn=           0           1           0           1           1           0           1           1           0           1
 AtZEff=  -0.0000000  -0.0000000  -0.0000000  -0.0000000  -0.0000000  -0.0000000  -0.0000000  -0.0000000  -0.0000000  -0.0000000
 NQMom=    0.0000000   0.0000000   0.0000000   0.0000000   0.0000000   0.0000000   0.0000000   0.0000000   0.0000000   0.0000000
 NMagM=    0.0000000   2.7928460   0.0000000   2.7928460   2.7928460   0.0000000   2.7928460   2.7928460   0.0000000   2.7928460
 AtZNuc=   6.0000000   1.0000000   6.0000000   1.0000000   1.0000000   6.0000000   1.0000000   1.0000000   6.0000000   1.0000000

  Atom        51          52          53          54          55          56          57          58          59          60
 IAtWgt=           1           1           1           1           1           1           1           1          12           1
 AtmWgt=   1.0078250   1.0078250   1.0078250   1.0078250   1.0078250   1.0078250   1.0078250   1.0078250  12.0000000   1.0078250
 NucSpn=           1           1           1           1           1           1           1           1           0           1
 AtZEff=  -0.0000000  -0.0000000  -0.0000000  -0.0000000  -0.0000000  -0.0000000  -0.0000000  -0.0000000  -0.0000000  -0.0000000
 NQMom=    0.0000000   0.0000000   0.0000000   0.0000000   0.0000000   0.0000000   0.0000000   0.0000000   0.0000000   0.0000000
 NMagM=    2.7928460   2.7928460   2.7928460   2.7928460   2.7928460   2.7928460   2.7928460   2.7928460   0.0000000   2.7928460
 AtZNuc=   1.0000000   1.0000000   1.0000000   1.0000000   1.0000000   1.0000000   1.0000000   1.0000000   6.0000000   1.0000000

  Atom        61          62          63          64          65          66          67          68          69          70
 IAtWgt=           1           1          12           1           1           1          12           1           1           1
 AtmWgt=   1.0078250   1.0078250  12.0000000   1.0078250   1.0078250   1.0078250  12.0000000   1.0078250   1.0078250   1.0078250
 NucSpn=           1           1           0           1           1           1           0           1           1           1
 AtZEff=  -0.0000000  -0.0000000  -0.0000000  -0.0000000  -0.0000000  -0.0000000  -0.0000000  -0.0000000  -0.0000000  -0.0000000
 NQMom=    0.0000000   0.0000000   0.0000000   0.0000000   0.0000000   0.0000000   0.0000000   0.0000000   0.0000000   0.0000000
 NMagM=    2.7928460   2.7928460   0.0000000   2.7928460   2.7928460   2.7928460   0.0000000   2.7928460   2.7928460   2.7928460
 AtZNuc=   1.0000000   1.0000000   6.0000000   1.0000000   1.0000000   1.0000000   6.0000000   1.0000000   1.0000000   1.0000000

  Atom        71          72          73          74          75          76          77          78          79          80
 IAtWgt=          12           1           1           1          12           1           1           1          12           1
 AtmWgt=  12.0000000   1.0078250   1.0078250   1.0078250  12.0000000   1.0078250   1.0078250   1.0078250  12.0000000   1.0078250
 NucSpn=           0           1           1           1           0           1           1           1           0           1
 AtZEff=  -0.0000000  -0.0000000  -0.0000000  -0.0000000  -0.0000000  -0.0000000  -0.0000000  -0.0000000  -0.0000000  -0.0000000
 NQMom=    0.0000000   0.0000000   0.0000000   0.0000000   0.0000000   0.0000000   0.0000000   0.0000000   0.0000000   0.0000000
 NMagM=    0.0000000   2.7928460   2.7928460   2.7928460   0.0000000   2.7928460   2.7928460   2.7928460   0.0000000   2.7928460
 AtZNuc=   6.0000000   1.0000000   1.0000000   1.0000000   6.0000000   1.0000000   1.0000000   1.0000000   6.0000000   1.0000000

  Atom        81          82
 IAtWgt=           1           1
 AtmWgt=   1.0078250   1.0078250
 NucSpn=           1           1
 AtZEff=  -0.0000000  -0.0000000
 NQMom=    0.0000000   0.0000000
 NMagM=    2.7928460   2.7928460
 AtZNuc=   1.0000000   1.0000000
 Leave Link  101 at Fri Dec 21 10:48:49 2018, MaxMem=  1342177280 cpu:               4.1 elap:               0.3
 (Enter /gpfs/apps/hpc/Apps/Restricted/Gaussian/Rev_A.03/g16/l103.exe)

 GradGradGradGradGradGradGradGradGradGradGradGradGradGradGradGradGradGrad
 Berny optimization.
 Initialization pass.
                           ----------------------------
                           !    Initial Parameters    !
                           ! (Angstroms and Degrees)  !
 --------------------------                            --------------------------
 ! Name  Definition              Value          Derivative Info.                !
 --------------------------------------------------------------------------------
 ! R1    R(1,2)                  1.4169         calculate D2E/DX2 analytically  !
 ! R2    R(1,6)                  1.4146         calculate D2E/DX2 analytically  !
 ! R3    R(1,35)                 1.3714         calculate D2E/DX2 analytically  !
 ! R4    R(2,3)                  1.3909         calculate D2E/DX2 analytically  !
 ! R5    R(2,21)                 1.3765         calculate D2E/DX2 analytically  !
 ! R6    R(3,4)                  1.4006         calculate D2E/DX2 analytically  !
 ! R7    R(3,8)                  1.0829         calculate D2E/DX2 analytically  !
 ! R8    R(4,5)                  1.3967         calculate D2E/DX2 analytically  !
 ! R9    R(4,9)                  1.0828         calculate D2E/DX2 analytically  !
 ! R10   R(5,6)                  1.4084         calculate D2E/DX2 analytically  !
 ! R11   R(5,10)                 1.0836         calculate D2E/DX2 analytically  !
 ! R12   R(6,36)                 1.4276         calculate D2E/DX2 analytically  !
 ! R13   R(7,16)                 1.4501         calculate D2E/DX2 analytically  !
 ! R14   R(7,21)                 1.367          calculate D2E/DX2 analytically  !
 ! R15   R(7,35)                 1.3408         calculate D2E/DX2 analytically  !
 ! R16   R(11,12)                1.4191         calculate D2E/DX2 analytically  !
 ! R17   R(11,16)                1.4142         calculate D2E/DX2 analytically  !
 ! R18   R(11,33)                1.3755         calculate D2E/DX2 analytically  !
 ! R19   R(12,13)                1.3948         calculate D2E/DX2 analytically  !
 ! R20   R(12,34)                1.3746         calculate D2E/DX2 analytically  !
 ! R21   R(13,14)                1.3946         calculate D2E/DX2 analytically  !
 ! R22   R(13,18)                1.0827         calculate D2E/DX2 analytically  !
 ! R23   R(14,15)                1.4042         calculate D2E/DX2 analytically  !
 ! R24   R(14,19)                1.0832         calculate D2E/DX2 analytically  !
 ! R25   R(15,16)                1.3979         calculate D2E/DX2 analytically  !
 ! R26   R(15,20)                1.0826         calculate D2E/DX2 analytically  !
 ! R27   R(17,23)                1.4521         calculate D2E/DX2 analytically  !
 ! R28   R(17,33)                1.3382         calculate D2E/DX2 analytically  !
 ! R29   R(17,34)                1.3682         calculate D2E/DX2 analytically  !
 ! R30   R(21,57)                1.0203         calculate D2E/DX2 analytically  !
 ! R31   R(22,23)                1.4692         calculate D2E/DX2 analytically  !
 ! R32   R(22,27)                1.4673         calculate D2E/DX2 analytically  !
 ! R33   R(22,32)                1.2602         calculate D2E/DX2 analytically  !
 ! R34   R(23,24)                1.3818         calculate D2E/DX2 analytically  !
 ! R35   R(24,25)                1.4065         calculate D2E/DX2 analytically  !
 ! R36   R(24,28)                1.0828         calculate D2E/DX2 analytically  !
 ! R37   R(25,26)                1.4149         calculate D2E/DX2 analytically  !
 ! R38   R(25,30)                1.5252         calculate D2E/DX2 analytically  !
 ! R39   R(26,27)                1.3798         calculate D2E/DX2 analytically  !
 ! R40   R(26,29)                1.079          calculate D2E/DX2 analytically  !
 ! R41   R(27,31)                1.5264         calculate D2E/DX2 analytically  !
 ! R42   R(30,59)                1.5426         calculate D2E/DX2 analytically  !
 ! R43   R(30,63)                1.5345         calculate D2E/DX2 analytically  !
 ! R44   R(30,67)                1.5436         calculate D2E/DX2 analytically  !
 ! R45   R(31,71)                1.5446         calculate D2E/DX2 analytically  !
 ! R46   R(31,75)                1.5364         calculate D2E/DX2 analytically  !
 ! R47   R(31,79)                1.5462         calculate D2E/DX2 analytically  !
 ! R48   R(34,56)                1.0153         calculate D2E/DX2 analytically  !
 ! R49   R(36,37)                1.0852         calculate D2E/DX2 analytically  !
 ! R50   R(36,38)                1.3            calculate D2E/DX2 analytically  !
 ! R51   R(38,39)                1.4779         calculate D2E/DX2 analytically  !
 ! R52   R(38,58)                1.0268         calculate D2E/DX2 analytically  !
 ! R53   R(39,40)                1.5345         calculate D2E/DX2 analytically  !
 ! R54   R(39,41)                1.535          calculate D2E/DX2 analytically  !
 ! R55   R(39,42)                1.0914         calculate D2E/DX2 analytically  !
 ! R56   R(40,43)                1.5318         calculate D2E/DX2 analytically  !
 ! R57   R(40,44)                1.0961         calculate D2E/DX2 analytically  !
 ! R58   R(40,45)                1.0928         calculate D2E/DX2 analytically  !
 ! R59   R(41,46)                1.5325         calculate D2E/DX2 analytically  !
 ! R60   R(41,47)                1.0966         calculate D2E/DX2 analytically  !
 ! R61   R(41,48)                1.0929         calculate D2E/DX2 analytically  !
 ! R62   R(43,49)                1.5324         calculate D2E/DX2 analytically  !
 ! R63   R(43,50)                1.0935         calculate D2E/DX2 analytically  !
 ! R64   R(43,51)                1.0968         calculate D2E/DX2 analytically  !
 ! R65   R(46,49)                1.5321         calculate D2E/DX2 analytically  !
 ! R66   R(46,52)                1.0933         calculate D2E/DX2 analytically  !
 ! R67   R(46,53)                1.0969         calculate D2E/DX2 analytically  !
 ! R68   R(49,54)                1.0937         calculate D2E/DX2 analytically  !
 ! R69   R(49,55)                1.0972         calculate D2E/DX2 analytically  !
 ! R70   R(59,60)                1.0932         calculate D2E/DX2 analytically  !
 ! R71   R(59,61)                1.0921         calculate D2E/DX2 analytically  !
 ! R72   R(59,62)                1.0925         calculate D2E/DX2 analytically  !
 ! R73   R(63,64)                1.0926         calculate D2E/DX2 analytically  !
 ! R74   R(63,65)                1.0929         calculate D2E/DX2 analytically  !
 ! R75   R(63,66)                1.0918         calculate D2E/DX2 analytically  !
 ! R76   R(67,68)                1.0924         calculate D2E/DX2 analytically  !
 ! R77   R(67,69)                1.092          calculate D2E/DX2 analytically  !
 ! R78   R(67,70)                1.0931         calculate D2E/DX2 analytically  !
 ! R79   R(71,72)                1.0891         calculate D2E/DX2 analytically  !
 ! R80   R(71,73)                1.0933         calculate D2E/DX2 analytically  !
 ! R81   R(71,74)                1.0929         calculate D2E/DX2 analytically  !
 ! R82   R(75,76)                1.0929         calculate D2E/DX2 analytically  !
 ! R83   R(75,77)                1.0931         calculate D2E/DX2 analytically  !
 ! R84   R(75,78)                1.0924         calculate D2E/DX2 analytically  !
 ! R85   R(79,80)                1.0933         calculate D2E/DX2 analytically  !
 ! R86   R(79,81)                1.0881         calculate D2E/DX2 analytically  !
 ! R87   R(79,82)                1.0933         calculate D2E/DX2 analytically  !
 ! A1    A(2,1,6)              119.7152         calculate D2E/DX2 analytically  !
 ! A2    A(2,1,35)             110.6947         calculate D2E/DX2 analytically  !
 ! A3    A(6,1,35)             129.5857         calculate D2E/DX2 analytically  !
 ! A4    A(1,2,3)              122.2837         calculate D2E/DX2 analytically  !
 ! A5    A(1,2,21)             104.4131         calculate D2E/DX2 analytically  !
 ! A6    A(3,2,21)             133.3029         calculate D2E/DX2 analytically  !
 ! A7    A(2,3,4)              117.4711         calculate D2E/DX2 analytically  !
 ! A8    A(2,3,8)              121.3325         calculate D2E/DX2 analytically  !
 ! A9    A(4,3,8)              121.1951         calculate D2E/DX2 analytically  !
 ! A10   A(3,4,5)              121.4368         calculate D2E/DX2 analytically  !
 ! A11   A(3,4,9)              119.2689         calculate D2E/DX2 analytically  !
 ! A12   A(5,4,9)              119.2937         calculate D2E/DX2 analytically  !
 ! A13   A(4,5,6)              121.4222         calculate D2E/DX2 analytically  !
 ! A14   A(4,5,10)             119.7604         calculate D2E/DX2 analytically  !
 ! A15   A(6,5,10)             118.8172         calculate D2E/DX2 analytically  !
 ! A16   A(1,6,5)              117.6691         calculate D2E/DX2 analytically  !
 ! A17   A(1,6,36)             121.9602         calculate D2E/DX2 analytically  !
 ! A18   A(5,6,36)             120.3708         calculate D2E/DX2 analytically  !
 ! A19   A(16,7,21)            121.4773         calculate D2E/DX2 analytically  !
 ! A20   A(16,7,35)            126.528          calculate D2E/DX2 analytically  !
 ! A21   A(21,7,35)            111.9873         calculate D2E/DX2 analytically  !
 ! A22   A(12,11,16)           119.9915         calculate D2E/DX2 analytically  !
 ! A23   A(12,11,33)           110.2351         calculate D2E/DX2 analytically  !
 ! A24   A(16,11,33)           129.7702         calculate D2E/DX2 analytically  !
 ! A25   A(11,12,13)           122.3755         calculate D2E/DX2 analytically  !
 ! A26   A(11,12,34)           104.5402         calculate D2E/DX2 analytically  !
 ! A27   A(13,12,34)           133.0838         calculate D2E/DX2 analytically  !
 ! A28   A(12,13,14)           116.8026         calculate D2E/DX2 analytically  !
 ! A29   A(12,13,18)           121.6461         calculate D2E/DX2 analytically  !
 ! A30   A(14,13,18)           121.5512         calculate D2E/DX2 analytically  !
 ! A31   A(13,14,15)           121.8775         calculate D2E/DX2 analytically  !
 ! A32   A(13,14,19)           119.2023         calculate D2E/DX2 analytically  !
 ! A33   A(15,14,19)           118.9191         calculate D2E/DX2 analytically  !
 ! A34   A(14,15,16)           121.6064         calculate D2E/DX2 analytically  !
 ! A35   A(14,15,20)           119.7678         calculate D2E/DX2 analytically  !
 ! A36   A(16,15,20)           118.6254         calculate D2E/DX2 analytically  !
 ! A37   A(7,16,11)            120.7356         calculate D2E/DX2 analytically  !
 ! A38   A(7,16,15)            121.9135         calculate D2E/DX2 analytically  !
 ! A39   A(11,16,15)           117.3358         calculate D2E/DX2 analytically  !
 ! A40   A(23,17,33)           124.6656         calculate D2E/DX2 analytically  !
 ! A41   A(23,17,34)           123.5889         calculate D2E/DX2 analytically  !
 ! A42   A(33,17,34)           111.7438         calculate D2E/DX2 analytically  !
 ! A43   A(2,21,7)             107.9361         calculate D2E/DX2 analytically  !
 ! A44   A(2,21,57)            130.006          calculate D2E/DX2 analytically  !
 ! A45   A(7,21,57)            122.0579         calculate D2E/DX2 analytically  !
 ! A46   A(23,22,27)           117.7135         calculate D2E/DX2 analytically  !
 ! A47   A(23,22,32)           120.499          calculate D2E/DX2 analytically  !
 ! A48   A(27,22,32)           121.7874         calculate D2E/DX2 analytically  !
 ! A49   A(17,23,22)           120.5235         calculate D2E/DX2 analytically  !
 ! A50   A(17,23,24)           119.1908         calculate D2E/DX2 analytically  !
 ! A51   A(22,23,24)           120.2853         calculate D2E/DX2 analytically  !
 ! A52   A(23,24,25)           121.5949         calculate D2E/DX2 analytically  !
 ! A53   A(23,24,28)           118.3995         calculate D2E/DX2 analytically  !
 ! A54   A(25,24,28)           120.0014         calculate D2E/DX2 analytically  !
 ! A55   A(24,25,26)           118.4924         calculate D2E/DX2 analytically  !
 ! A56   A(24,25,30)           119.1729         calculate D2E/DX2 analytically  !
 ! A57   A(26,25,30)           122.328          calculate D2E/DX2 analytically  !
 ! A58   A(25,26,27)           123.5884         calculate D2E/DX2 analytically  !
 ! A59   A(25,26,29)           117.9068         calculate D2E/DX2 analytically  !
 ! A60   A(27,26,29)           118.5028         calculate D2E/DX2 analytically  !
 ! A61   A(22,27,26)           118.3023         calculate D2E/DX2 analytically  !
 ! A62   A(22,27,31)           119.8136         calculate D2E/DX2 analytically  !
 ! A63   A(26,27,31)           121.8834         calculate D2E/DX2 analytically  !
 ! A64   A(25,30,59)           109.1237         calculate D2E/DX2 analytically  !
 ! A65   A(25,30,63)           112.5659         calculate D2E/DX2 analytically  !
 ! A66   A(25,30,67)           108.4501         calculate D2E/DX2 analytically  !
 ! A67   A(59,30,63)           108.7916         calculate D2E/DX2 analytically  !
 ! A68   A(59,30,67)           109.1353         calculate D2E/DX2 analytically  !
 ! A69   A(63,30,67)           108.7231         calculate D2E/DX2 analytically  !
 ! A70   A(27,31,71)           109.4022         calculate D2E/DX2 analytically  !
 ! A71   A(27,31,75)           111.7854         calculate D2E/DX2 analytically  !
 ! A72   A(27,31,79)           109.8845         calculate D2E/DX2 analytically  !
 ! A73   A(71,31,75)           108.1838         calculate D2E/DX2 analytically  !
 ! A74   A(71,31,79)           109.9126         calculate D2E/DX2 analytically  !
 ! A75   A(75,31,79)           107.6346         calculate D2E/DX2 analytically  !
 ! A76   A(11,33,17)           105.3468         calculate D2E/DX2 analytically  !
 ! A77   A(12,34,17)           108.1333         calculate D2E/DX2 analytically  !
 ! A78   A(12,34,56)           130.6938         calculate D2E/DX2 analytically  !
 ! A79   A(17,34,56)           121.0774         calculate D2E/DX2 analytically  !
 ! A80   A(1,35,7)             104.9668         calculate D2E/DX2 analytically  !
 ! A81   A(6,36,37)            119.0063         calculate D2E/DX2 analytically  !
 ! A82   A(6,36,38)            123.4429         calculate D2E/DX2 analytically  !
 ! A83   A(37,36,38)           117.5504         calculate D2E/DX2 analytically  !
 ! A84   A(36,38,39)           124.2632         calculate D2E/DX2 analytically  !
 ! A85   A(36,38,58)           116.3288         calculate D2E/DX2 analytically  !
 ! A86   A(39,38,58)           119.4079         calculate D2E/DX2 analytically  !
 ! A87   A(38,39,40)           110.7636         calculate D2E/DX2 analytically  !
 ! A88   A(38,39,41)           110.7739         calculate D2E/DX2 analytically  !
 ! A89   A(38,39,42)           105.0562         calculate D2E/DX2 analytically  !
 ! A90   A(40,39,41)           111.5712         calculate D2E/DX2 analytically  !
 ! A91   A(40,39,42)           109.2541         calculate D2E/DX2 analytically  !
 ! A92   A(41,39,42)           109.1976         calculate D2E/DX2 analytically  !
 ! A93   A(39,40,43)           110.7422         calculate D2E/DX2 analytically  !
 ! A94   A(39,40,44)           108.6515         calculate D2E/DX2 analytically  !
 ! A95   A(39,40,45)           109.5185         calculate D2E/DX2 analytically  !
 ! A96   A(43,40,44)           109.3114         calculate D2E/DX2 analytically  !
 ! A97   A(43,40,45)           111.1156         calculate D2E/DX2 analytically  !
 ! A98   A(44,40,45)           107.41           calculate D2E/DX2 analytically  !
 ! A99   A(39,41,46)           110.7051         calculate D2E/DX2 analytically  !
 ! A100  A(39,41,47)           108.4785         calculate D2E/DX2 analytically  !
 ! A101  A(39,41,48)           109.6343         calculate D2E/DX2 analytically  !
 ! A102  A(46,41,47)           109.5154         calculate D2E/DX2 analytically  !
 ! A103  A(46,41,48)           110.9978         calculate D2E/DX2 analytically  !
 ! A104  A(47,41,48)           107.4179         calculate D2E/DX2 analytically  !
 ! A105  A(40,43,49)           111.3541         calculate D2E/DX2 analytically  !
 ! A106  A(40,43,50)           109.271          calculate D2E/DX2 analytically  !
 ! A107  A(40,43,51)           109.2581         calculate D2E/DX2 analytically  !
 ! A108  A(49,43,50)           110.8291         calculate D2E/DX2 analytically  !
 ! A109  A(49,43,51)           109.1626         calculate D2E/DX2 analytically  !
 ! A110  A(50,43,51)           106.8502         calculate D2E/DX2 analytically  !
 ! A111  A(41,46,49)           111.3889         calculate D2E/DX2 analytically  !
 ! A112  A(41,46,52)           109.3707         calculate D2E/DX2 analytically  !
 ! A113  A(41,46,53)           109.2037         calculate D2E/DX2 analytically  !
 ! A114  A(49,46,52)           110.7738         calculate D2E/DX2 analytically  !
 ! A115  A(49,46,53)           109.1646         calculate D2E/DX2 analytically  !
 ! A116  A(52,46,53)           106.8198         calculate D2E/DX2 analytically  !
 ! A117  A(43,49,46)           110.7846         calculate D2E/DX2 analytically  !
 ! A118  A(43,49,54)           110.1858         calculate D2E/DX2 analytically  !
 ! A119  A(43,49,55)           109.2513         calculate D2E/DX2 analytically  !
 ! A120  A(46,49,54)           110.256          calculate D2E/DX2 analytically  !
 ! A121  A(46,49,55)           109.3139         calculate D2E/DX2 analytically  !
 ! A122  A(54,49,55)           106.9623         calculate D2E/DX2 analytically  !
 ! A123  A(30,59,60)           109.4685         calculate D2E/DX2 analytically  !
 ! A124  A(30,59,61)           111.6365         calculate D2E/DX2 analytically  !
 ! A125  A(30,59,62)           110.7157         calculate D2E/DX2 analytically  !
 ! A126  A(60,59,61)           108.0831         calculate D2E/DX2 analytically  !
 ! A127  A(60,59,62)           108.4144         calculate D2E/DX2 analytically  !
 ! A128  A(61,59,62)           108.4296         calculate D2E/DX2 analytically  !
 ! A129  A(30,63,64)           111.5853         calculate D2E/DX2 analytically  !
 ! A130  A(30,63,65)           111.5412         calculate D2E/DX2 analytically  !
 ! A131  A(30,63,66)           109.2134         calculate D2E/DX2 analytically  !
 ! A132  A(64,63,65)           108.3936         calculate D2E/DX2 analytically  !
 ! A133  A(64,63,66)           108.0645         calculate D2E/DX2 analytically  !
 ! A134  A(65,63,66)           107.9139         calculate D2E/DX2 analytically  !
 ! A135  A(30,67,68)           110.8329         calculate D2E/DX2 analytically  !
 ! A136  A(30,67,69)           111.3852         calculate D2E/DX2 analytically  !
 ! A137  A(30,67,70)           109.6846         calculate D2E/DX2 analytically  !
 ! A138  A(68,67,69)           108.3214         calculate D2E/DX2 analytically  !
 ! A139  A(68,67,70)           108.4416         calculate D2E/DX2 analytically  !
 ! A140  A(69,67,70)           108.0828         calculate D2E/DX2 analytically  !
 ! A141  A(31,71,72)           111.0974         calculate D2E/DX2 analytically  !
 ! A142  A(31,71,73)           109.4866         calculate D2E/DX2 analytically  !
 ! A143  A(31,71,74)           110.5434         calculate D2E/DX2 analytically  !
 ! A144  A(72,71,73)           108.6956         calculate D2E/DX2 analytically  !
 ! A145  A(72,71,74)           108.81           calculate D2E/DX2 analytically  !
 ! A146  A(73,71,74)           108.1375         calculate D2E/DX2 analytically  !
 ! A147  A(31,75,76)           111.655          calculate D2E/DX2 analytically  !
 ! A148  A(31,75,77)           112.1419         calculate D2E/DX2 analytically  !
 ! A149  A(31,75,78)           108.8326         calculate D2E/DX2 analytically  !
 ! A150  A(76,75,77)           108.3043         calculate D2E/DX2 analytically  !
 ! A151  A(76,75,78)           108.0348         calculate D2E/DX2 analytically  !
 ! A152  A(77,75,78)           107.7168         calculate D2E/DX2 analytically  !
 ! A153  A(31,79,80)           109.1989         calculate D2E/DX2 analytically  !
 ! A154  A(31,79,81)           111.2567         calculate D2E/DX2 analytically  !
 ! A155  A(31,79,82)           110.4219         calculate D2E/DX2 analytically  !
 ! A156  A(80,79,81)           109.0264         calculate D2E/DX2 analytically  !
 ! A157  A(80,79,82)           108.0315         calculate D2E/DX2 analytically  !
 ! A158  A(81,79,82)           108.8364         calculate D2E/DX2 analytically  !
 ! D1    D(6,1,2,3)             -0.3847         calculate D2E/DX2 analytically  !
 ! D2    D(6,1,2,21)           179.4204         calculate D2E/DX2 analytically  !
 ! D3    D(35,1,2,3)          -179.6857         calculate D2E/DX2 analytically  !
 ! D4    D(35,1,2,21)            0.1194         calculate D2E/DX2 analytically  !
 ! D5    D(2,1,6,5)              0.3537         calculate D2E/DX2 analytically  !
 ! D6    D(2,1,6,36)          -179.6143         calculate D2E/DX2 analytically  !
 ! D7    D(35,1,6,5)           179.5052         calculate D2E/DX2 analytically  !
 ! D8    D(35,1,6,36)           -0.4628         calculate D2E/DX2 analytically  !
 ! D9    D(2,1,35,7)             0.1628         calculate D2E/DX2 analytically  !
 ! D10   D(6,1,35,7)          -179.0495         calculate D2E/DX2 analytically  !
 ! D11   D(1,2,3,4)              0.3672         calculate D2E/DX2 analytically  !
 ! D12   D(1,2,3,8)            179.9631         calculate D2E/DX2 analytically  !
 ! D13   D(21,2,3,4)          -179.3734         calculate D2E/DX2 analytically  !
 ! D14   D(21,2,3,8)             0.2224         calculate D2E/DX2 analytically  !
 ! D15   D(1,2,21,7)            -0.3517         calculate D2E/DX2 analytically  !
 ! D16   D(1,2,21,57)          179.6329         calculate D2E/DX2 analytically  !
 ! D17   D(3,2,21,7)           179.422          calculate D2E/DX2 analytically  !
 ! D18   D(3,2,21,57)           -0.5934         calculate D2E/DX2 analytically  !
 ! D19   D(2,3,4,5)             -0.3421         calculate D2E/DX2 analytically  !
 ! D20   D(2,3,4,9)            179.9432         calculate D2E/DX2 analytically  !
 ! D21   D(8,3,4,5)           -179.9385         calculate D2E/DX2 analytically  !
 ! D22   D(8,3,4,9)              0.3467         calculate D2E/DX2 analytically  !
 ! D23   D(3,4,5,6)              0.3416         calculate D2E/DX2 analytically  !
 ! D24   D(3,4,5,10)          -179.8389         calculate D2E/DX2 analytically  !
 ! D25   D(9,4,5,6)           -179.9437         calculate D2E/DX2 analytically  !
 ! D26   D(9,4,5,10)            -0.1243         calculate D2E/DX2 analytically  !
 ! D27   D(4,5,6,1)             -0.3386         calculate D2E/DX2 analytically  !
 ! D28   D(4,5,6,36)           179.63           calculate D2E/DX2 analytically  !
 ! D29   D(10,5,6,1)           179.8403         calculate D2E/DX2 analytically  !
 ! D30   D(10,5,6,36)           -0.1911         calculate D2E/DX2 analytically  !
 ! D31   D(1,6,36,37)         -179.6473         calculate D2E/DX2 analytically  !
 ! D32   D(1,6,36,38)            0.5816         calculate D2E/DX2 analytically  !
 ! D33   D(5,6,36,37)            0.3855         calculate D2E/DX2 analytically  !
 ! D34   D(5,6,36,38)         -179.3855         calculate D2E/DX2 analytically  !
 ! D35   D(21,7,16,11)          -0.7327         calculate D2E/DX2 analytically  !
 ! D36   D(21,7,16,15)         177.8208         calculate D2E/DX2 analytically  !
 ! D37   D(35,7,16,11)        -179.6695         calculate D2E/DX2 analytically  !
 ! D38   D(35,7,16,15)          -1.116          calculate D2E/DX2 analytically  !
 ! D39   D(16,7,21,2)         -178.5907         calculate D2E/DX2 analytically  !
 ! D40   D(16,7,21,57)           1.4233         calculate D2E/DX2 analytically  !
 ! D41   D(35,7,21,2)            0.488          calculate D2E/DX2 analytically  !
 ! D42   D(35,7,21,57)        -179.498          calculate D2E/DX2 analytically  !
 ! D43   D(16,7,35,1)          178.6247         calculate D2E/DX2 analytically  !
 ! D44   D(21,7,35,1)           -0.3974         calculate D2E/DX2 analytically  !
 ! D45   D(16,11,12,13)          1.116          calculate D2E/DX2 analytically  !
 ! D46   D(16,11,12,34)       -179.1255         calculate D2E/DX2 analytically  !
 ! D47   D(33,11,12,13)       -179.4721         calculate D2E/DX2 analytically  !
 ! D48   D(33,11,12,34)          0.2864         calculate D2E/DX2 analytically  !
 ! D49   D(12,11,16,7)         177.7632         calculate D2E/DX2 analytically  !
 ! D50   D(12,11,16,15)         -0.8547         calculate D2E/DX2 analytically  !
 ! D51   D(33,11,16,7)          -1.5189         calculate D2E/DX2 analytically  !
 ! D52   D(33,11,16,15)        179.8632         calculate D2E/DX2 analytically  !
 ! D53   D(12,11,33,17)         -0.2729         calculate D2E/DX2 analytically  !
 ! D54   D(16,11,33,17)        179.0644         calculate D2E/DX2 analytically  !
 ! D55   D(11,12,13,14)         -0.4148         calculate D2E/DX2 analytically  !
 ! D56   D(11,12,13,18)        179.7033         calculate D2E/DX2 analytically  !
 ! D57   D(34,12,13,14)        179.9054         calculate D2E/DX2 analytically  !
 ! D58   D(34,12,13,18)          0.0235         calculate D2E/DX2 analytically  !
 ! D59   D(11,12,34,17)         -0.1849         calculate D2E/DX2 analytically  !
 ! D60   D(11,12,34,56)        176.2081         calculate D2E/DX2 analytically  !
 ! D61   D(13,12,34,17)        179.5358         calculate D2E/DX2 analytically  !
 ! D62   D(13,12,34,56)         -4.0712         calculate D2E/DX2 analytically  !
 ! D63   D(12,13,14,15)         -0.5074         calculate D2E/DX2 analytically  !
 ! D64   D(12,13,14,19)        179.89           calculate D2E/DX2 analytically  !
 ! D65   D(18,13,14,15)        179.3746         calculate D2E/DX2 analytically  !
 ! D66   D(18,13,14,19)         -0.228          calculate D2E/DX2 analytically  !
 ! D67   D(13,14,15,16)          0.7473         calculate D2E/DX2 analytically  !
 ! D68   D(13,14,15,20)       -179.0049         calculate D2E/DX2 analytically  !
 ! D69   D(19,14,15,16)       -179.649          calculate D2E/DX2 analytically  !
 ! D70   D(19,14,15,20)          0.5987         calculate D2E/DX2 analytically  !
 ! D71   D(14,15,16,7)        -178.6385         calculate D2E/DX2 analytically  !
 ! D72   D(14,15,16,11)         -0.0381         calculate D2E/DX2 analytically  !
 ! D73   D(20,15,16,7)           1.1165         calculate D2E/DX2 analytically  !
 ! D74   D(20,15,16,11)        179.7169         calculate D2E/DX2 analytically  !
 ! D75   D(33,17,23,22)        172.614          calculate D2E/DX2 analytically  !
 ! D76   D(33,17,23,24)         -7.5963         calculate D2E/DX2 analytically  !
 ! D77   D(34,17,23,22)         -7.9089         calculate D2E/DX2 analytically  !
 ! D78   D(34,17,23,24)        171.8808         calculate D2E/DX2 analytically  !
 ! D79   D(23,17,33,11)        179.6855         calculate D2E/DX2 analytically  !
 ! D80   D(34,17,33,11)          0.1545         calculate D2E/DX2 analytically  !
 ! D81   D(23,17,34,12)       -179.5133         calculate D2E/DX2 analytically  !
 ! D82   D(23,17,34,56)          3.6794         calculate D2E/DX2 analytically  !
 ! D83   D(33,17,34,12)          0.0237         calculate D2E/DX2 analytically  !
 ! D84   D(33,17,34,56)       -176.7836         calculate D2E/DX2 analytically  !
 ! D85   D(27,22,23,17)       -178.8247         calculate D2E/DX2 analytically  !
 ! D86   D(27,22,23,24)          1.3879         calculate D2E/DX2 analytically  !
 ! D87   D(32,22,23,17)          1.2512         calculate D2E/DX2 analytically  !
 ! D88   D(32,22,23,24)       -178.5361         calculate D2E/DX2 analytically  !
 ! D89   D(23,22,27,26)         -1.3052         calculate D2E/DX2 analytically  !
 ! D90   D(23,22,27,31)        179.0001         calculate D2E/DX2 analytically  !
 ! D91   D(32,22,27,26)        178.6178         calculate D2E/DX2 analytically  !
 ! D92   D(32,22,27,31)         -1.0769         calculate D2E/DX2 analytically  !
 ! D93   D(17,23,24,25)        179.9994         calculate D2E/DX2 analytically  !
 ! D94   D(17,23,24,28)         -0.7515         calculate D2E/DX2 analytically  !
 ! D95   D(22,23,24,25)         -0.2105         calculate D2E/DX2 analytically  !
 ! D96   D(22,23,24,28)        179.0386         calculate D2E/DX2 analytically  !
 ! D97   D(23,24,25,26)         -1.0415         calculate D2E/DX2 analytically  !
 ! D98   D(23,24,25,30)        178.0401         calculate D2E/DX2 analytically  !
 ! D99   D(28,24,25,26)        179.7212         calculate D2E/DX2 analytically  !
 ! D100  D(28,24,25,30)         -1.1971         calculate D2E/DX2 analytically  !
 ! D101  D(24,25,26,27)          1.1233         calculate D2E/DX2 analytically  !
 ! D102  D(24,25,26,29)       -179.3997         calculate D2E/DX2 analytically  !
 ! D103  D(30,25,26,27)       -177.9277         calculate D2E/DX2 analytically  !
 ! D104  D(30,25,26,29)          1.5492         calculate D2E/DX2 analytically  !
 ! D105  D(24,25,30,59)         58.1624         calculate D2E/DX2 analytically  !
 ! D106  D(24,25,30,63)        179.0464         calculate D2E/DX2 analytically  !
 ! D107  D(24,25,30,67)        -60.6164         calculate D2E/DX2 analytically  !
 ! D108  D(26,25,30,59)       -122.7928         calculate D2E/DX2 analytically  !
 ! D109  D(26,25,30,63)         -1.9087         calculate D2E/DX2 analytically  !
 ! D110  D(26,25,30,67)        118.4284         calculate D2E/DX2 analytically  !
 ! D111  D(25,26,27,22)          0.0754         calculate D2E/DX2 analytically  !
 ! D112  D(25,26,27,31)        179.7635         calculate D2E/DX2 analytically  !
 ! D113  D(29,26,27,22)       -179.3986         calculate D2E/DX2 analytically  !
 ! D114  D(29,26,27,31)          0.2894         calculate D2E/DX2 analytically  !
 ! D115  D(22,27,31,71)        -60.9947         calculate D2E/DX2 analytically  !
 ! D116  D(22,27,31,75)        179.1991         calculate D2E/DX2 analytically  !
 ! D117  D(22,27,31,79)         59.7606         calculate D2E/DX2 analytically  !
 ! D118  D(26,27,31,71)        119.3218         calculate D2E/DX2 analytically  !
 ! D119  D(26,27,31,75)         -0.4843         calculate D2E/DX2 analytically  !
 ! D120  D(26,27,31,79)       -119.9228         calculate D2E/DX2 analytically  !
 ! D121  D(25,30,59,60)       -178.6277         calculate D2E/DX2 analytically  !
 ! D122  D(25,30,59,61)        -58.9978         calculate D2E/DX2 analytically  !
 ! D123  D(25,30,59,62)         61.9075         calculate D2E/DX2 analytically  !
 ! D124  D(63,30,59,60)         58.21           calculate D2E/DX2 analytically  !
 ! D125  D(63,30,59,61)        177.8398         calculate D2E/DX2 analytically  !
 ! D126  D(63,30,59,62)        -61.2549         calculate D2E/DX2 analytically  !
 ! D127  D(67,30,59,60)        -60.2771         calculate D2E/DX2 analytically  !
 ! D128  D(67,30,59,61)         59.3527         calculate D2E/DX2 analytically  !
 ! D129  D(67,30,59,62)       -179.742          calculate D2E/DX2 analytically  !
 ! D130  D(25,30,63,64)        -60.3899         calculate D2E/DX2 analytically  !
 ! D131  D(25,30,63,65)         61.0091         calculate D2E/DX2 analytically  !
 ! D132  D(25,30,63,66)       -179.7976         calculate D2E/DX2 analytically  !
 ! D133  D(59,30,63,64)         60.6842         calculate D2E/DX2 analytically  !
 ! D134  D(59,30,63,65)       -177.9168         calculate D2E/DX2 analytically  !
 ! D135  D(59,30,63,66)        -58.7235         calculate D2E/DX2 analytically  !
 ! D136  D(67,30,63,64)        179.4304         calculate D2E/DX2 analytically  !
 ! D137  D(67,30,63,65)        -59.1706         calculate D2E/DX2 analytically  !
 ! D138  D(67,30,63,66)         60.0227         calculate D2E/DX2 analytically  !
 ! D139  D(25,30,67,68)        -60.3634         calculate D2E/DX2 analytically  !
 ! D140  D(25,30,67,69)         60.3149         calculate D2E/DX2 analytically  !
 ! D141  D(25,30,67,70)        179.9269         calculate D2E/DX2 analytically  !
 ! D142  D(59,30,67,68)       -179.1348         calculate D2E/DX2 analytically  !
 ! D143  D(59,30,67,69)        -58.4566         calculate D2E/DX2 analytically  !
 ! D144  D(59,30,67,70)         61.1555         calculate D2E/DX2 analytically  !
 ! D145  D(63,30,67,68)         62.3353         calculate D2E/DX2 analytically  !
 ! D146  D(63,30,67,69)       -176.9865         calculate D2E/DX2 analytically  !
 ! D147  D(63,30,67,70)        -57.3744         calculate D2E/DX2 analytically  !
 ! D148  D(27,31,71,72)         60.0722         calculate D2E/DX2 analytically  !
 ! D149  D(27,31,71,73)       -179.8637         calculate D2E/DX2 analytically  !
 ! D150  D(27,31,71,74)        -60.8351         calculate D2E/DX2 analytically  !
 ! D151  D(75,31,71,72)       -177.9327         calculate D2E/DX2 analytically  !
 ! D152  D(75,31,71,73)        -57.8686         calculate D2E/DX2 analytically  !
 ! D153  D(75,31,71,74)         61.1599         calculate D2E/DX2 analytically  !
 ! D154  D(79,31,71,72)        -60.6661         calculate D2E/DX2 analytically  !
 ! D155  D(79,31,71,73)         59.398          calculate D2E/DX2 analytically  !
 ! D156  D(79,31,71,74)        178.4266         calculate D2E/DX2 analytically  !
 ! D157  D(27,31,75,76)        -61.0847         calculate D2E/DX2 analytically  !
 ! D158  D(27,31,75,77)         60.6762         calculate D2E/DX2 analytically  !
 ! D159  D(27,31,75,78)        179.7481         calculate D2E/DX2 analytically  !
 ! D160  D(71,31,75,76)        178.3956         calculate D2E/DX2 analytically  !
 ! D161  D(71,31,75,77)        -59.8435         calculate D2E/DX2 analytically  !
 ! D162  D(71,31,75,78)         59.2284         calculate D2E/DX2 analytically  !
 ! D163  D(79,31,75,76)         59.6722         calculate D2E/DX2 analytically  !
 ! D164  D(79,31,75,77)       -178.5669         calculate D2E/DX2 analytically  !
 ! D165  D(79,31,75,78)        -59.495          calculate D2E/DX2 analytically  !
 ! D166  D(27,31,79,80)        179.7803         calculate D2E/DX2 analytically  !
 ! D167  D(27,31,79,81)        -59.831          calculate D2E/DX2 analytically  !
 ! D168  D(27,31,79,82)         61.1339         calculate D2E/DX2 analytically  !
 ! D169  D(71,31,79,80)        -59.7726         calculate D2E/DX2 analytically  !
 ! D170  D(71,31,79,81)         60.6161         calculate D2E/DX2 analytically  !
 ! D171  D(71,31,79,82)       -178.419          calculate D2E/DX2 analytically  !
 ! D172  D(75,31,79,80)         57.8359         calculate D2E/DX2 analytically  !
 ! D173  D(75,31,79,81)        178.2246         calculate D2E/DX2 analytically  !
 ! D174  D(75,31,79,82)        -60.8105         calculate D2E/DX2 analytically  !
 ! D175  D(6,36,38,39)         179.7429         calculate D2E/DX2 analytically  !
 ! D176  D(6,36,38,58)          -0.222          calculate D2E/DX2 analytically  !
 ! D177  D(37,36,38,39)         -0.0313         calculate D2E/DX2 analytically  !
 ! D178  D(37,36,38,58)       -179.9962         calculate D2E/DX2 analytically  !
 ! D179  D(36,38,39,40)        -61.323          calculate D2E/DX2 analytically  !
 ! D180  D(36,38,39,41)         63.0347         calculate D2E/DX2 analytically  !
 ! D181  D(36,38,39,42)       -179.175          calculate D2E/DX2 analytically  !
 ! D182  D(58,38,39,40)        118.6408         calculate D2E/DX2 analytically  !
 ! D183  D(58,38,39,41)       -117.0014         calculate D2E/DX2 analytically  !
 ! D184  D(58,38,39,42)          0.7889         calculate D2E/DX2 analytically  !
 ! D185  D(38,39,40,43)        179.4303         calculate D2E/DX2 analytically  !
 ! D186  D(38,39,40,44)         59.3605         calculate D2E/DX2 analytically  !
 ! D187  D(38,39,40,45)        -57.6849         calculate D2E/DX2 analytically  !
 ! D188  D(41,39,40,43)         55.5282         calculate D2E/DX2 analytically  !
 ! D189  D(41,39,40,44)        -64.5416         calculate D2E/DX2 analytically  !
 ! D190  D(41,39,40,45)        178.413          calculate D2E/DX2 analytically  !
 ! D191  D(42,39,40,43)        -65.3113         calculate D2E/DX2 analytically  !
 ! D192  D(42,39,40,44)        174.6189         calculate D2E/DX2 analytically  !
 ! D193  D(42,39,40,45)         57.5735         calculate D2E/DX2 analytically  !
 ! D194  D(38,39,41,46)       -179.3666         calculate D2E/DX2 analytically  !
 ! D195  D(38,39,41,47)        -59.1779         calculate D2E/DX2 analytically  !
 ! D196  D(38,39,41,48)         57.8431         calculate D2E/DX2 analytically  !
 ! D197  D(40,39,41,46)        -55.4703         calculate D2E/DX2 analytically  !
 ! D198  D(40,39,41,47)         64.7184         calculate D2E/DX2 analytically  !
 ! D199  D(40,39,41,48)       -178.2606         calculate D2E/DX2 analytically  !
 ! D200  D(42,39,41,46)         65.4022         calculate D2E/DX2 analytically  !
 ! D201  D(42,39,41,47)       -174.4091         calculate D2E/DX2 analytically  !
 ! D202  D(42,39,41,48)        -57.3881         calculate D2E/DX2 analytically  !
 ! D203  D(39,40,43,49)        -55.7819         calculate D2E/DX2 analytically  !
 ! D204  D(39,40,43,50)       -178.5438         calculate D2E/DX2 analytically  !
 ! D205  D(39,40,43,51)         64.8773         calculate D2E/DX2 analytically  !
 ! D206  D(44,40,43,49)         63.8926         calculate D2E/DX2 analytically  !
 ! D207  D(44,40,43,50)        -58.8693         calculate D2E/DX2 analytically  !
 ! D208  D(44,40,43,51)       -175.4481         calculate D2E/DX2 analytically  !
 ! D209  D(45,40,43,49)       -177.7356         calculate D2E/DX2 analytically  !
 ! D210  D(45,40,43,50)         59.5025         calculate D2E/DX2 analytically  !
 ! D211  D(45,40,43,51)        -57.0764         calculate D2E/DX2 analytically  !
 ! D212  D(39,41,46,49)         55.7141         calculate D2E/DX2 analytically  !
 ! D213  D(39,41,46,52)        178.4982         calculate D2E/DX2 analytically  !
 ! D214  D(39,41,46,53)        -64.9339         calculate D2E/DX2 analytically  !
 ! D215  D(47,41,46,49)        -63.8533         calculate D2E/DX2 analytically  !
 ! D216  D(47,41,46,52)         58.9308         calculate D2E/DX2 analytically  !
 ! D217  D(47,41,46,53)        175.4987         calculate D2E/DX2 analytically  !
 ! D218  D(48,41,46,49)        177.7088         calculate D2E/DX2 analytically  !
 ! D219  D(48,41,46,52)        -59.5071         calculate D2E/DX2 analytically  !
 ! D220  D(48,41,46,53)         57.0607         calculate D2E/DX2 analytically  !
 ! D221  D(40,43,49,46)         56.1507         calculate D2E/DX2 analytically  !
 ! D222  D(40,43,49,54)        178.4331         calculate D2E/DX2 analytically  !
 ! D223  D(40,43,49,55)        -64.3319         calculate D2E/DX2 analytically  !
 ! D224  D(50,43,49,46)        178.0134         calculate D2E/DX2 analytically  !
 ! D225  D(50,43,49,54)        -59.7042         calculate D2E/DX2 analytically  !
 ! D226  D(50,43,49,55)         57.5309         calculate D2E/DX2 analytically  !
 ! D227  D(51,43,49,46)        -64.5647         calculate D2E/DX2 analytically  !
 ! D228  D(51,43,49,54)         57.7177         calculate D2E/DX2 analytically  !
 ! D229  D(51,43,49,55)        174.9527         calculate D2E/DX2 analytically  !
 ! D230  D(41,46,49,43)        -56.1329         calculate D2E/DX2 analytically  !
 ! D231  D(41,46,49,54)       -178.3743         calculate D2E/DX2 analytically  !
 ! D232  D(41,46,49,55)         64.3125         calculate D2E/DX2 analytically  !
 ! D233  D(52,46,49,43)       -178.1084         calculate D2E/DX2 analytically  !
 ! D234  D(52,46,49,54)         59.6502         calculate D2E/DX2 analytically  !
 ! D235  D(52,46,49,55)        -57.663          calculate D2E/DX2 analytically  !
 ! D236  D(53,46,49,43)         64.5381         calculate D2E/DX2 analytically  !
 ! D237  D(53,46,49,54)        -57.7033         calculate D2E/DX2 analytically  !
 ! D238  D(53,46,49,55)       -175.0165         calculate D2E/DX2 analytically  !
 --------------------------------------------------------------------------------
 Trust Radius=3.00D-01 FncErr=5.00D-06 GrdErr=5.00D-06 EigMax=2.50D+02 EigMin=1.00D-04
 Number of steps in this run=    492 maximum allowed number of steps=    492.
 GradGradGradGradGradGradGradGradGradGradGradGradGradGradGradGradGradGrad

 Leave Link  103 at Fri Dec 21 10:48:49 2018, MaxMem=  1342177280 cpu:               0.5 elap:               0.1
 (Enter /gpfs/apps/hpc/Apps/Restricted/Gaussian/Rev_A.03/g16/l202.exe)
 Symmetry turned off by external request.
 Stoichiometry    C35H41N5O(1+,2)
 Framework group  C1[X(C35H41N5O)]
 Deg. of freedom   240
 Full point group                 C1      NOp   1
                          Input orientation:                          
 ---------------------------------------------------------------------
 Center     Atomic      Atomic             Coordinates (Angstroms)
 Number     Number       Type             X           Y           Z
 ---------------------------------------------------------------------
      1          6           0        1.508859    1.144073   -0.093063
      2          6           0        0.300363    1.874245   -0.211351
      3          6           0        0.280582    3.248688   -0.423660
      4          6           0        1.513913    3.904247   -0.527278
      5          6           0        2.720095    3.209074   -0.414962
      6          6           0        2.748261    1.817476   -0.199697
      7          6           0       -0.084640   -0.287628    0.105500
      8          1           0       -0.652281    3.791404   -0.512342
      9          1           0        1.532484    4.973999   -0.693534
     10          1           0        3.658857    3.744023   -0.496904
     11          6           0       -2.273442   -1.467846    0.228260
     12          6           0       -3.015865   -2.673361    0.325314
     13          6           0       -2.403352   -3.918231    0.468483
     14          6           0       -1.009330   -3.932762    0.504281
     15          6           0       -0.252304   -2.755523    0.391152
     16          6           0       -0.859937   -1.504300    0.251924
     17          6           0       -4.356575   -0.914624    0.121234
     18          1           0       -2.981633   -4.830316    0.546196
     19          1           0       -0.493355   -4.878625    0.616132
     20          1           0        0.828938   -2.808141    0.407116
     21          7           0       -0.687816    0.925846   -0.074039
     22          6           0       -6.880326   -0.813756   -0.113546
     23          6           0       -5.581489   -0.140808    0.023694
     24          6           0       -5.512373    1.238593    0.065867
     25          6           0       -6.666552    2.037324   -0.024260
     26          6           0       -7.918821    1.398333   -0.183556
     27          6           0       -8.075892    0.028412   -0.233549
     28          1           0       -4.540970    1.702192    0.183533
     29          1           0       -8.796904    2.020453   -0.261587
     30          6           0       -6.531038    3.553329    0.073570
     31          6           0       -9.447362   -0.620259   -0.401431
     32          8           0       -6.950743   -2.071921   -0.124826
     33          7           0       -3.124042   -0.393746    0.106657
     34          7           0       -4.329826   -2.276441    0.250471
     35          7           0        1.252532   -0.188632    0.104414
     36          6           0        3.994139    1.128189   -0.096180
     37          1           0        4.916753    1.693424   -0.179510
     38          7           0        4.089757   -0.154779    0.090334
     39          6           0        5.369088   -0.887354    0.194689
     40          6           0        6.182566   -0.748540   -1.099062
     41          6           0        6.168434   -0.415629    1.417308
     42          1           0        5.086852   -1.932631    0.331944
     43          6           0        7.514583   -1.496238   -0.985208
     44          1           0        6.378044    0.315090   -1.277821
     45          1           0        5.593944   -1.118996   -1.942000
     46          6           0        7.501565   -1.165077    1.515133
     47          1           0        6.359203    0.659355    1.314211
     48          1           0        5.572458   -0.556799    2.322501
     49          6           0        8.320015   -1.019698    0.228187
     50          1           0        8.084859   -1.360165   -1.908214
     51          1           0        7.318939   -2.571054   -0.887893
     52          1           0        8.063807   -0.794040    2.376237
     53          1           0        7.305026   -2.228475    1.698685
     54          1           0        9.253294   -1.584500    0.307126
     55          1           0        8.594075    0.033644    0.089453
     56          1           0       -5.185940   -2.821867    0.228895
     57          1           0       -1.702734    1.028881   -0.091057
     58          1           0        3.205443   -0.671079    0.166438
     59          6           0       -5.583438    4.048816   -1.038301
     60          1           0       -5.462945    5.132381   -0.958235
     61          1           0       -4.595107    3.591035   -0.958675
     62          1           0       -5.992039    3.818994   -2.025131
     63          6           0       -7.877847    4.275200   -0.066763
     64          1           0       -8.346221    4.068165   -1.031940
     65          1           0       -8.573725    3.983579    0.723862
     66          1           0       -7.717488    5.352616    0.007568
     67          6           0       -5.923103    3.901695    1.448935
     68          1           0       -6.566058    3.548786    2.258550
     69          1           0       -4.936017    3.451641    1.573485
     70          1           0       -5.815717    4.985682    1.540138
     71          6           0       -9.464968   -1.453953   -1.701597
     72          1           0       -8.709996   -2.238472   -1.674508
     73          1           0      -10.447594   -1.917293   -1.824468
     74          1           0       -9.278925   -0.815647   -2.569047
     75          6           0      -10.567129    0.428099   -0.488894
     76          1           0      -10.623917    1.034217    0.418751
     77          1           0      -10.437697    1.098940   -1.342140
     78          1           0      -11.522921   -0.086293   -0.612427
     79          6           0       -9.750946   -1.529798    0.811502
     80          1           0      -10.736382   -1.985143    0.681707
     81          1           0       -9.006530   -2.317257    0.910203
     82          1           0       -9.768204   -0.942781    1.733644
 ---------------------------------------------------------------------
 Rotational constants (GHZ):           0.1781257           0.0310089           0.0270900
 Leave Link  202 at Fri Dec 21 10:48:49 2018, MaxMem=  1342177280 cpu:               0.2 elap:               0.0
 (Enter /gpfs/apps/hpc/Apps/Restricted/Gaussian/Rev_A.03/g16/l301.exe)
 Standard basis: 6-31G(d,p) (6D, 7F)
 Ernie: Thresh=  0.10000D-02 Tol=  0.10000D-05 Strict=F.
   820 basis functions,  1435 primitive gaussians,   820 cartesian basis functions
   147 alpha electrons      146 beta electrons
       nuclear repulsion energy      4421.1738030556 Hartrees.
 IExCor=  402 DFT=T Ex+Corr=B3LYP ExCW=0 ScaHFX=  0.200000
 ScaDFX=  0.800000  0.720000  1.000000  0.810000 ScalE2=  1.000000  1.000000
 IRadAn=      5 IRanWt=     -1 IRanGd=            0 ICorTp=0 IEmpDi=141
 NAtoms=   82 NActive=   82 NUniq=   82 SFac= 1.00D+00 NAtFMM=   60 NAOKFM=T Big=T
 Integral buffers will be    131072 words long.
 Raffenetti 2 integral format.
 Two-electron integral symmetry is turned off.
 R6Disp:  Grimme-D3(BJ) Dispersion energy=       -0.1854684193 Hartrees.
 Nuclear repulsion after empirical dispersion term =     4420.9883346363 Hartrees.
 Force inversion solution in PCM.
 Using the following non-standard input for PCM:
 radii=bondi
 dis
 rep
 cav
 --- end of non-standard input.
 Force inversion solution in PCM.
 ------------------------------------------------------------------------------
 Polarizable Continuum Model (PCM)
 =================================
 Model                : C-PCM.
 Atomic radii         : Bondi.
 Polarization charges : Total charges.
 Charge compensation  : None.
 Solution method      : Matrix inversion.
 Cavity type          : Scaled VdW (van der Waals Surface) (Alpha=1.100).
 Cavity algorithm     : GePol (No added spheres)
                        Default sphere list used, NSphG=   82.
                        Lebedev-Laikov grids with approx.  5.0 points / Ang**2.
                        Smoothing algorithm: York/Karplus (Gamma=1.0000).
                        Polarization charges: spherical gaussians, with
                                              point-specific exponents (IZeta= 3).
                        Self-potential: point-specific (ISelfS= 7).
                        Self-field    : sphere-specific E.n sum rule (ISelfD= 2).
 1st derivatives      : Analytical E(r).r(x)/FMM algorithm (CHGder, D1EAlg=3).
                        Cavity 1st derivative terms included.
 2nd derivatives      : Analytical E(r).r(xy)/FMM algorithm (CHGder, D2EAlg=3).
                        Cavity 2nd derivative terms included.
 Solvent              : Dichloromethane, Eps=   8.930000 Eps(inf)=   2.028346
 ------------------------------------------------------------------------------
 GePol: Number of generator spheres                  =      82
 GePol: Total number of spheres                      =      82
 GePol: Number of exposed spheres                    =      82 (100.00%)
 GePol: Number of points                             =    5272
 GePol: Average weight of points                     =       0.12
 GePol: Minimum weight of points                     =   0.34D-10
 GePol: Maximum weight of points                     =    0.21770
 GePol: Number of points with low weight             =     353
 GePol: Fraction of low-weight points (<1% of avg)   =       6.70%
 GePol: Cavity surface area                          =    625.225 Ang**2
 GePol: Cavity volume                                =    610.886 Ang**3
 PCM non-electrostatic energy =         0.0289437546 Hartrees.
 Nuclear repulsion after PCM non-electrostatic terms =     4421.0172783910 Hartrees.
 Leave Link  301 at Fri Dec 21 10:48:50 2018, MaxMem=  1342177280 cpu:               5.8 elap:               0.4
 (Enter /gpfs/apps/hpc/Apps/Restricted/Gaussian/Rev_A.03/g16/l302.exe)
 NPDir=0 NMtPBC=     1 NCelOv=     1 NCel=       1 NClECP=     1 NCelD=      1
         NCelK=      1 NCelE2=     1 NClLst=     1 CellRange=     0.0.
 One-electron integrals computed using PRISM.
 NBasis=   820 RedAO= T EigKep=  2.88D-04  NBF=   820
 NBsUse=   820 1.00D-06 EigRej= -1.00D+00 NBFU=   820
 Precomputing XC quadrature grid using
 IXCGrd= 4 IRadAn=           5 IRanWt=          -1 IRanGd=           0 AccXCQ= 0.00D+00.
 Generated NRdTot=       0 NPtTot=           0 NUsed=           0 NTot=          32
 NSgBfM=   749   749   749   749   749 MxSgAt=    82 MxSgA2=    82.
 Leave Link  302 at Fri Dec 21 10:48:52 2018, MaxMem=  1342177280 cpu:              33.9 elap:               2.1
 (Enter /gpfs/apps/hpc/Apps/Restricted/Gaussian/Rev_A.03/g16/l303.exe)
 DipDrv:  MaxL=1.
 Leave Link  303 at Fri Dec 21 10:48:52 2018, MaxMem=  1342177280 cpu:               1.5 elap:               0.1
 (Enter /gpfs/apps/hpc/Apps/Restricted/Gaussian/Rev_A.03/g16/l401.exe)
 ExpMin= 1.61D-01 ExpMax= 5.48D+03 ExpMxC= 8.25D+02 IAcc=3 IRadAn=         5 AccDes= 0.00D+00
 Harris functional with IExCor=  402 and IRadAn=       5 diagonalized for initial guess.
 HarFok:  IExCor=  402 AccDes= 0.00D+00 IRadAn=         5 IDoV= 1 UseB2=F ITyADJ=14
 ICtDFT=  3500011 ScaDFX=  1.000000  1.000000  1.000000  1.000000
 FoFCou: FMM=F IPFlag=           0 FMFlag=      100000 FMFlg1=        2001
         NFxFlg=           0 DoJE=T BraDBF=F KetDBF=T FulRan=T
         wScrn=  0.000000 ICntrl=       500 IOpCl=  0 I1Cent=   200000004 NGrid=           0
         NMat0=    1 NMatS0=      1 NMatT0=    0 NMatD0=    1 NMtDS0=    0 NMtDT0=    0
 Symmetry not used in FoFCou.
 Harris En= -1707.48283436634    
 JPrj=0 DoOrth=F DoCkMO=F.
 Initial guess <Sx>= 0.0000 <Sy>= 0.0000 <Sz>= 0.5000 <S**2>= 0.7500 S= 0.5000
 Leave Link  401 at Fri Dec 21 10:48:59 2018, MaxMem=  1342177280 cpu:             113.7 elap:               7.2
 (Enter /gpfs/apps/hpc/Apps/Restricted/Gaussian/Rev_A.03/g16/l502.exe)
 Two-electron integral symmetry not used.
 UHF open shell SCF:
 Using DIIS extrapolation, IDIIS=  1040.
 NGot=  1342177280 LenX=  1340812546 LenY=  1340139326
 Requested convergence on RMS density matrix=1.00D-08 within 128 cycles.
 Requested convergence on MAX density matrix=1.00D-06.
 Requested convergence on             energy=1.00D-06.
 No special actions if energy rises.
 Fock matrices will be formed incrementally for  20 cycles.

 Cycle   1  Pass 1  IDiag  1:
 FoFJK:  IHMeth= 1 ICntrl=       0 DoSepK=F KAlg= 0 I1Cent=           0 FoldK=F
 IRaf= 630000000 NMat=       1 IRICut=       1 DoRegI=T DoRafI=F ISym2E= 0 IDoP0=0 IntGTp=1.
 FoFCou: FMM=T IPFlag=           0 FMFlag=      100000 FMFlg1=        2001
         NFxFlg=           0 DoJE=F BraDBF=F KetDBF=F FulRan=T
         wScrn=  0.000000 ICntrl=         0 IOpCl=  1 I1Cent=           0 NGrid=           0
         NMat0=    1 NMatS0=      1 NMatT0=    0 NMatD0=    1 NMtDS0=    0 NMtDT0=    0
 Symmetry not used in FoFCou.
 FMM levels:  10  Number of levels for PrismC:   9
 Inv3:  Mode=1 IEnd=    83381952.
 Iteration    1 A*A^-1 deviation from unit magnitude is 2.12D-14 for    658.
 Iteration    1 A*A^-1 deviation from orthogonality  is 3.34D-15 for   4499   1785.
 Iteration    1 A^-1*A deviation from unit magnitude is 2.12D-14 for    658.
 Iteration    1 A^-1*A deviation from orthogonality  is 2.25D-15 for   2977   2634.
 E= -1706.60614412228    
 DIIS: error= 2.93D-02 at cycle   1 NSaved=   1.
 NSaved= 1 IEnMin= 1 EnMin= -1706.60614412228     IErMin= 1 ErrMin= 2.93D-02
 ErrMax= 2.93D-02  0.00D+00 EMaxC= 1.00D-01 BMatC= 3.69D+00 BMatP= 3.69D+00
 IDIUse=3 WtCom= 7.07D-01 WtEn= 2.93D-01
 Coeff-Com:  0.100D+01
 Coeff-En:   0.100D+01
 Coeff:      0.100D+01
 Gap=     0.085 Goal=   None    Shift=    0.000
 Gap=     0.070 Goal=   None    Shift=    0.000
 GapD=    0.070 DampG=0.500 DampE=0.500 DampFc=0.2500 IDamp=-1.
 Damping current iteration by 2.50D-01
 RMSDP=2.82D-03 MaxDP=1.89D-01              OVMax= 3.60D-01

 Cycle   2  Pass 1  IDiag  1:
 RMSU=  6.85D-04    CP:  9.84D-01
 E= -1706.95204312276     Delta-E=       -0.345899000480 Rises=F Damp=T
 DIIS: error= 1.67D-02 at cycle   2 NSaved=   2.
 NSaved= 2 IEnMin= 2 EnMin= -1706.95204312276     IErMin= 2 ErrMin= 1.67D-02
 ErrMax= 1.67D-02  0.00D+00 EMaxC= 1.00D-01 BMatC= 9.83D-01 BMatP= 3.69D+00
 IDIUse=3 WtCom= 8.33D-01 WtEn= 1.67D-01
 Coeff-Com: -0.841D+00 0.184D+01
 Coeff-En:   0.000D+00 0.100D+01
 Coeff:     -0.701D+00 0.170D+01
 Gap=     0.124 Goal=   None    Shift=    0.000
 Gap=     0.116 Goal=   None    Shift=    0.000
 RMSDP=1.10D-03 MaxDP=8.08D-02 DE=-3.46D-01 OVMax= 1.79D-01

 Cycle   3  Pass 1  IDiag  1:
 RMSU=  7.60D-04    CP:  9.52D-01  2.04D+00
 E= -1707.52971935450     Delta-E=       -0.577676231738 Rises=F Damp=F
 DIIS: error= 6.83D-03 at cycle   3 NSaved=   3.
 NSaved= 3 IEnMin= 3 EnMin= -1707.52971935450     IErMin= 3 ErrMin= 6.83D-03
 ErrMax= 6.83D-03  0.00D+00 EMaxC= 1.00D-01 BMatC= 1.60D-01 BMatP= 9.83D-01
 IDIUse=3 WtCom= 9.32D-01 WtEn= 6.83D-02
 Coeff-Com: -0.356D+00 0.773D+00 0.583D+00
 Coeff-En:   0.000D+00 0.000D+00 0.100D+01
 Coeff:     -0.331D+00 0.720D+00 0.611D+00
 Gap=     0.109 Goal=   None    Shift=    0.000
 Gap=     0.074 Goal=   None    Shift=    0.000
 RMSDP=4.06D-04 MaxDP=6.89D-02 DE=-5.78D-01 OVMax= 7.73D-02

 Cycle   4  Pass 1  IDiag  1:
 RMSU=  3.28D-04    CP:  9.56D-01  2.06D+00  6.92D-01
 E= -1707.55376769143     Delta-E=       -0.024048336931 Rises=F Damp=F
 DIIS: error= 6.60D-03 at cycle   4 NSaved=   4.
 NSaved= 4 IEnMin= 4 EnMin= -1707.55376769143     IErMin= 4 ErrMin= 6.60D-03
 ErrMax= 6.60D-03  0.00D+00 EMaxC= 1.00D-01 BMatC= 7.06D-02 BMatP= 1.60D-01
 IDIUse=3 WtCom= 9.34D-01 WtEn= 6.60D-02
 Coeff-Com: -0.552D-01 0.137D+00 0.394D+00 0.525D+00
 Coeff-En:   0.000D+00 0.000D+00 0.295D+00 0.705D+00
 Coeff:     -0.516D-01 0.128D+00 0.388D+00 0.536D+00
 Gap=     0.112 Goal=   None    Shift=    0.000
 Gap=     0.073 Goal=   None    Shift=    0.000
 RMSDP=1.93D-04 MaxDP=3.47D-02 DE=-2.40D-02 OVMax= 3.37D-02

 Cycle   5  Pass 1  IDiag  1:
 RMSU=  1.10D-04    CP:  9.55D-01  2.02D+00  7.90D-01  5.83D-01
 E= -1707.56763581720     Delta-E=       -0.013868125775 Rises=F Damp=F
 DIIS: error= 1.69D-03 at cycle   5 NSaved=   5.
 NSaved= 5 IEnMin= 5 EnMin= -1707.56763581720     IErMin= 5 ErrMin= 1.69D-03
 ErrMax= 1.69D-03  0.00D+00 EMaxC= 1.00D-01 BMatC= 5.26D-03 BMatP= 7.06D-02
 IDIUse=3 WtCom= 9.83D-01 WtEn= 1.69D-02
 Coeff-Com:  0.254D-02 0.420D-02 0.168D+00 0.302D+00 0.523D+00
 Coeff-En:   0.000D+00 0.000D+00 0.000D+00 0.000D+00 0.100D+01
 Coeff:      0.249D-02 0.413D-02 0.165D+00 0.297D+00 0.531D+00
 Gap=     0.111 Goal=   None    Shift=    0.000
 Gap=     0.076 Goal=   None    Shift=    0.000
 RMSDP=6.06D-05 MaxDP=1.28D-02 DE=-1.39D-02 OVMax= 1.74D-02

 Cycle   6  Pass 1  IDiag  1:
 RMSU=  4.02D-05    CP:  9.55D-01  2.02D+00  8.03D-01  6.38D-01  6.32D-01
 E= -1707.56880251802     Delta-E=       -0.001166700812 Rises=F Damp=F
 DIIS: error= 5.08D-04 at cycle   6 NSaved=   6.
 NSaved= 6 IEnMin= 6 EnMin= -1707.56880251802     IErMin= 6 ErrMin= 5.08D-04
 ErrMax= 5.08D-04  0.00D+00 EMaxC= 1.00D-01 BMatC= 6.37D-04 BMatP= 5.26D-03
 IDIUse=3 WtCom= 9.95D-01 WtEn= 5.08D-03
 Coeff-Com:  0.678D-02-0.106D-01 0.536D-01 0.107D+00 0.303D+00 0.540D+00
 Coeff-En:   0.000D+00 0.000D+00 0.000D+00 0.000D+00 0.000D+00 0.100D+01
 Coeff:      0.674D-02-0.105D-01 0.534D-01 0.106D+00 0.302D+00 0.543D+00
 Gap=     0.111 Goal=   None    Shift=    0.000
 Gap=     0.077 Goal=   None    Shift=    0.000
 RMSDP=2.08D-05 MaxDP=3.43D-03 DE=-1.17D-03 OVMax= 7.22D-03

 Cycle   7  Pass 1  IDiag  1:
 RMSU=  1.72D-05    CP:  9.55D-01  2.02D+00  8.05D-01  6.38D-01  7.31D-01
                    CP:  9.11D-01
 E= -1707.56898838304     Delta-E=       -0.000185865022 Rises=F Damp=F
 DIIS: error= 2.23D-04 at cycle   7 NSaved=   7.
 NSaved= 7 IEnMin= 7 EnMin= -1707.56898838304     IErMin= 7 ErrMin= 2.23D-04
 ErrMax= 2.23D-04  0.00D+00 EMaxC= 1.00D-01 BMatC= 7.79D-05 BMatP= 6.37D-04
 IDIUse=3 WtCom= 9.98D-01 WtEn= 2.23D-03
 Coeff-Com:  0.228D-02-0.507D-02-0.129D-01-0.261D-01 0.185D-01 0.213D+00
 Coeff-Com:  0.810D+00
 Coeff-En:   0.000D+00 0.000D+00 0.000D+00 0.000D+00 0.000D+00 0.000D+00
 Coeff-En:   0.100D+01
 Coeff:      0.228D-02-0.506D-02-0.128D-01-0.260D-01 0.185D-01 0.212D+00
 Coeff:      0.811D+00
 Gap=     0.112 Goal=   None    Shift=    0.000
 Gap=     0.077 Goal=   None    Shift=    0.000
 RMSDP=1.32D-05 MaxDP=2.65D-03 DE=-1.86D-04 OVMax= 5.97D-03

 Cycle   8  Pass 1  IDiag  1:
 RMSU=  8.38D-06    CP:  9.55D-01  2.02D+00  8.07D-01  6.45D-01  7.78D-01
                    CP:  1.12D+00  1.08D+00
 E= -1707.56904763902     Delta-E=       -0.000059255979 Rises=F Damp=F
 DIIS: error= 1.22D-04 at cycle   8 NSaved=   8.
 NSaved= 8 IEnMin= 8 EnMin= -1707.56904763902     IErMin= 8 ErrMin= 1.22D-04
 ErrMax= 1.22D-04  0.00D+00 EMaxC= 1.00D-01 BMatC= 2.90D-05 BMatP= 7.79D-05
 IDIUse=3 WtCom= 9.99D-01 WtEn= 1.22D-03
 Coeff-Com: -0.989D-03 0.123D-02-0.217D-01-0.489D-01-0.868D-01-0.114D+00
 Coeff-Com:  0.365D+00 0.906D+00
 Coeff-En:   0.000D+00 0.000D+00 0.000D+00 0.000D+00 0.000D+00 0.000D+00
 Coeff-En:   0.000D+00 0.100D+01
 Coeff:     -0.988D-03 0.123D-02-0.217D-01-0.489D-01-0.867D-01-0.114D+00
 Coeff:      0.365D+00 0.906D+00
 Gap=     0.112 Goal=   None    Shift=    0.000
 Gap=     0.078 Goal=   None    Shift=    0.000
 RMSDP=1.07D-05 MaxDP=1.70D-03 DE=-5.93D-05 OVMax= 4.98D-03

 Cycle   9  Pass 1  IDiag  1:
 RMSU=  4.47D-06    CP:  9.55D-01  2.02D+00  8.09D-01  6.46D-01  8.16D-01
                    CP:  1.25D+00  1.45D+00  1.25D+00
 E= -1707.56907120975     Delta-E=       -0.000023570732 Rises=F Damp=F
 DIIS: error= 5.95D-05 at cycle   9 NSaved=   9.
 NSaved= 9 IEnMin= 9 EnMin= -1707.56907120975     IErMin= 9 ErrMin= 5.95D-05
 ErrMax= 5.95D-05  0.00D+00 EMaxC= 1.00D-01 BMatC= 1.02D-05 BMatP= 2.90D-05
 IDIUse=1 WtCom= 1.00D+00 WtEn= 0.00D+00
 Coeff-Com: -0.888D-03 0.157D-02-0.997D-02-0.245D-01-0.565D-01-0.130D+00
 Coeff-Com:  0.349D-01 0.551D+00 0.634D+00
[...]
   D203      -0.97107   0.00000   0.00044  -0.00001   0.00042  -0.97065
   D204      -3.11277  -0.00000   0.00054  -0.00004   0.00051  -3.11226
   D205       1.13613  -0.00000   0.00053  -0.00004   0.00049   1.13662
   D206       1.11721   0.00000   0.00042  -0.00001   0.00041   1.11763
   D207      -1.02449  -0.00000   0.00053  -0.00003   0.00050  -1.02399
   D208      -3.05878  -0.00000   0.00052  -0.00003   0.00048  -3.05829
   D209      -3.09965   0.00001   0.00044  -0.00003   0.00041  -3.09923
   D210       1.04184   0.00000   0.00054  -0.00005   0.00050   1.04233
   D211      -0.99245   0.00000   0.00053  -0.00005   0.00048  -0.99197
   D212       0.97162  -0.00000  -0.00007   0.00005  -0.00002   0.97161
   D213       3.11369  -0.00001  -0.00018   0.00007  -0.00012   3.11357
   D214      -1.13477  -0.00000  -0.00021   0.00007  -0.00014  -1.13491
   D215      -1.11664   0.00001  -0.00040   0.00006  -0.00034  -1.11698
   D216       1.02543   0.00000  -0.00052   0.00008  -0.00044   1.02499
   D217       3.06015   0.00001  -0.00054   0.00008  -0.00046   3.05969
   D218       3.09981   0.00000  -0.00016   0.00008  -0.00008   3.09973
   D219      -1.04130  -0.00000  -0.00027   0.00009  -0.00018  -1.04148
   D220       0.99342   0.00000  -0.00030   0.00010  -0.00020   0.99322
   D221       0.97889  -0.00000  -0.00012   0.00004  -0.00008   0.97882
   D222       3.11331  -0.00000  -0.00017   0.00003  -0.00014   3.11317
   D223      -1.12408  -0.00001  -0.00015   0.00004  -0.00011  -1.12419
   D224       3.10612   0.00000  -0.00012   0.00003  -0.00009   3.10604
   D225      -1.04265   0.00000  -0.00017   0.00002  -0.00015  -1.04280
   D226       1.00315  -0.00000  -0.00015   0.00003  -0.00012   1.00303
   D227      -1.12846  -0.00000  -0.00020   0.00005  -0.00015  -1.12861
   D228       1.00595  -0.00000  -0.00025   0.00004  -0.00021   1.00574
   D229       3.05175  -0.00000  -0.00023   0.00004  -0.00018   3.05157
   D230      -0.97942  -0.00001   0.00008  -0.00007   0.00001  -0.97941
   D231      -3.11349  -0.00000   0.00018  -0.00005   0.00013  -3.11337
   D232       1.12298  -0.00000   0.00013  -0.00007   0.00006   1.12305
   D233      -3.10823  -0.00001   0.00040  -0.00007   0.00032  -3.10791
   D234       1.04088  -0.00000   0.00049  -0.00005   0.00044   1.04132
   D235      -1.00583  -0.00000   0.00044  -0.00007   0.00038  -1.00545
   D236       1.12685  -0.00000   0.00018  -0.00007   0.00011   1.12696
   D237      -1.00722   0.00000   0.00027  -0.00005   0.00023  -1.00700
   D238      -3.05393   0.00000   0.00023  -0.00007   0.00016  -3.05377
         Item               Value     Threshold  Converged?
 Maximum Force            0.000200     0.000015     NO 
 RMS     Force            0.000045     0.000010     NO 
 Maximum Displacement     0.057975     0.000060     NO 
 RMS     Displacement     0.009986     0.000040     NO 
 Predicted change in Energy=-1.034999D-05
 GradGradGradGradGradGradGradGradGradGradGradGradGradGradGradGradGradGrad

 Leave Link  103 at Fri Dec 21 14:08:59 2018, MaxMem=  1342177280 cpu:               5.8 elap:               0.4
 (Enter /gpfs/apps/hpc/Apps/Restricted/Gaussian/Rev_A.03/g16/l202.exe)
 Symmetry turned off by external request.
 Stoichiometry    C35H41N5O(1+,2)
 Framework group  C1[X(C35H41N5O)]
 Deg. of freedom   240
 Full point group                 C1      NOp   1
                          Input orientation:                          
 ---------------------------------------------------------------------
 Center     Atomic      Atomic             Coordinates (Angstroms)
 Number     Number       Type             X           Y           Z
 ---------------------------------------------------------------------
      1          6           0        1.515240    1.140827   -0.113826
      2          6           0        0.308535    1.872426   -0.242320
      3          6           0        0.292766    3.244832   -0.468218
      4          6           0        1.527707    3.897156   -0.571694
      5          6           0        2.731968    3.200955   -0.447127
      6          6           0        2.756478    1.811121   -0.220613
      7          6           0       -0.081897   -0.285693    0.093362
      8          1           0       -0.638150    3.788970   -0.566899
      9          1           0        1.548848    4.965330   -0.747479
     10          1           0        3.672203    3.733290   -0.529074
     11          6           0       -2.273018   -1.461184    0.232983
     12          6           0       -3.016059   -2.665589    0.339704
     13          6           0       -2.404513   -3.910373    0.487356
     14          6           0       -1.010435   -3.926294    0.518922
     15          6           0       -0.252688   -2.750532    0.396219
     16          6           0       -0.859439   -1.499499    0.250807
     17          6           0       -4.356235   -0.907148    0.130485
     18          1           0       -2.983603   -4.821350    0.571693
     19          1           0       -0.495103   -4.872040    0.634723
     20          1           0        0.828541   -2.804066    0.408945
     21          7           0       -0.682064    0.927290   -0.098672
     22          6           0       -6.879596   -0.811163   -0.104241
     23          6           0       -5.582266   -0.135047    0.030334
     24          6           0       -5.516093    1.244782    0.067107
     25          6           0       -6.671598    2.040410   -0.031796
     26          6           0       -7.922345    1.398058   -0.190727
     27          6           0       -8.077022    0.027642   -0.230815
     28          1           0       -4.545801    1.709423    0.188419
     29          1           0       -8.799639    2.019814   -0.277198
     30          6           0       -6.544050    3.556660    0.074243
     31          6           0       -9.447628   -0.625548   -0.395793
     32          8           0       -6.947156   -2.069400   -0.110654
     33          7           0       -3.123403   -0.386837    0.110289
     34          7           0       -4.329888   -2.268356    0.266168
     35          7           0        1.255501   -0.189678    0.093388
     36          6           0        4.001188    1.121113   -0.106467
     37          1           0        4.924657    1.685089   -0.189090
     38          7           0        4.096037   -0.160740    0.087359
     39          6           0        5.375689   -0.891379    0.198643
     40          6           0        6.187643   -0.760809   -1.097028
     41          6           0        6.173694   -0.409666    1.418029
     42          1           0        5.095254   -1.936068    0.343966
     43          6           0        7.522632   -1.502594   -0.978085
     44          1           0        6.377820    0.302287   -1.284691
     45          1           0        5.599654   -1.140702   -1.936302
     46          6           0        7.508863   -1.154704    1.520675
     47          1           0        6.361918    0.665104    1.309822
     48          1           0        5.577404   -0.547385    2.323575
     49          6           0        8.326061   -1.016092    0.232445
     50          1           0        8.093882   -1.369478   -1.901005
     51          1           0        7.330852   -2.577660   -0.875787
     52          1           0        8.071125   -0.775443    2.378263
     53          1           0        7.315232   -2.217049    1.712696
     54          1           0        9.260903   -1.577732    0.315421
     55          1           0        8.597364    0.036949    0.086787
     56          1           0       -5.185944   -2.813946    0.249247
     57          1           0       -1.696422    1.032967   -0.117156
     58          1           0        3.211824   -0.677909    0.159010
     59          6           0       -5.535216    4.065200   -0.976854
     60          1           0       -5.429022    5.149245   -0.883884
     61          1           0       -4.548401    3.617781   -0.839188
     62          1           0       -5.878830    3.838711   -1.989022
     63          6           0       -7.882314    4.276362   -0.139935
     64          1           0       -8.297364    4.068352   -1.129403
     65          1           0       -8.621790    3.987514    0.611085
     66          1           0       -7.728670    5.354696   -0.058075
     67          6           0       -6.019237    3.896044    1.487343
     68          1           0       -6.718745    3.553327    2.253494
     69          1           0       -5.050841    3.427917    1.676344
     70          1           0       -5.901368    4.978307    1.587275
     71          6           0       -9.463068   -1.465817   -1.691891
     72          1           0       -8.706304   -2.248733   -1.660710
     73          1           0      -10.445495   -1.930306   -1.813518
     74          1           0       -9.276375   -0.832229   -2.562988
     75          6           0      -10.570331    0.418894   -0.489337
     76          1           0      -10.621485    1.038537    0.409599
     77          1           0      -10.448253    1.076855   -1.353696
     78          1           0      -11.526283   -0.098856   -0.597559
     79          6           0       -9.750066   -1.530245    0.820911
     80          1           0      -10.736311   -1.985304    0.694025
     81          1           0       -9.007449   -2.319455    0.920956
     82          1           0       -9.764934   -0.940480    1.741327
 ---------------------------------------------------------------------
 Rotational constants (GHZ):           0.1781721           0.0309535           0.0270541
 Leave Link  202 at Fri Dec 21 14:08:59 2018, MaxMem=  1342177280 cpu:               0.8 elap:               0.1
 (Enter /gpfs/apps/hpc/Apps/Restricted/Gaussian/Rev_A.03/g16/l301.exe)
 Standard basis: 6-31G(d,p) (6D, 7F)
 Ernie: Thresh=  0.10000D-02 Tol=  0.10000D-05 Strict=F.
   820 basis functions,  1435 primitive gaussians,   820 cartesian basis functions
   147 alpha electrons      146 beta electrons
       nuclear repulsion energy      4419.7986860855 Hartrees.
 IExCor=  402 DFT=T Ex+Corr=B3LYP ExCW=0 ScaHFX=  0.200000
 ScaDFX=  0.800000  0.720000  1.000000  0.810000 ScalE2=  1.000000  1.000000
 IRadAn=      5 IRanWt=     -1 IRanGd=            0 ICorTp=0 IEmpDi=141
 NAtoms=   82 NActive=   82 NUniq=   82 SFac= 1.00D+00 NAtFMM=   60 NAOKFM=T Big=T
 Integral buffers will be    131072 words long.
 Raffenetti 2 integral format.
 Two-electron integral symmetry is turned off.
 R6Disp:  Grimme-D3(BJ) Dispersion energy=       -0.1854240824 Hartrees.
 Nuclear repulsion after empirical dispersion term =     4419.6132620031 Hartrees.
 ------------------------------------------------------------------------------
 Polarizable Continuum Model (PCM)
 =================================
 Model                : C-PCM.
 Atomic radii         : Bondi.
 Polarization charges : Total charges.
 Charge compensation  : None.
 Solution method      : Matrix inversion.
 Cavity type          : Scaled VdW (van der Waals Surface) (Alpha=1.100).
 Cavity algorithm     : GePol (No added spheres)
                        Default sphere list used, NSphG=   82.
                        Lebedev-Laikov grids with approx.  5.0 points / Ang**2.
                        Smoothing algorithm: York/Karplus (Gamma=1.0000).
                        Polarization charges: spherical gaussians, with
                                              point-specific exponents (IZeta= 3).
                        Self-potential: point-specific (ISelfS= 7).
                        Self-field    : sphere-specific E.n sum rule (ISelfD= 2).
 1st derivatives      : Analytical E(r).r(x)/FMM algorithm (CHGder, D1EAlg=3).
                        Cavity 1st derivative terms included.
 Solvent              : Dichloromethane, Eps=   8.930000 Eps(inf)=   2.028346
 ------------------------------------------------------------------------------
 GePol: Number of generator spheres                  =      82
 GePol: Total number of spheres                      =      82
 GePol: Number of exposed spheres                    =      82 (100.00%)
 GePol: Number of points                             =    5280
 GePol: Average weight of points                     =       0.12
 GePol: Minimum weight of points                     =   0.15D-11
 GePol: Maximum weight of points                     =    0.21770
 GePol: Number of points with low weight             =     354
 GePol: Fraction of low-weight points (<1% of avg)   =       6.70%
 GePol: Cavity surface area                          =    625.007 Ang**2
 GePol: Cavity volume                                =    610.524 Ang**3
 PCM non-electrostatic energy =         0.0287864390 Hartrees.
 Nuclear repulsion after PCM non-electrostatic terms =     4419.6420484421 Hartrees.
 Leave Link  301 at Fri Dec 21 14:08:59 2018, MaxMem=  1342177280 cpu:               5.0 elap:               0.3
 (Enter /gpfs/apps/hpc/Apps/Restricted/Gaussian/Rev_A.03/g16/l302.exe)
 NPDir=0 NMtPBC=     1 NCelOv=     1 NCel=       1 NClECP=     1 NCelD=      1
         NCelK=      1 NCelE2=     1 NClLst=     1 CellRange=     0.0.
 One-electron integrals computed using PRISM.
 NBasis=   820 RedAO= T EigKep=  2.88D-04  NBF=   820
 NBsUse=   820 1.00D-06 EigRej= -1.00D+00 NBFU=   820
 Precomputing XC quadrature grid using
 IXCGrd= 4 IRadAn=           5 IRanWt=          -1 IRanGd=           0 AccXCQ= 0.00D+00.
 Generated NRdTot=       0 NPtTot=           0 NUsed=           0 NTot=          32
 NSgBfM=   749   749   749   749   749 MxSgAt=    82 MxSgA2=    82.
 Leave Link  302 at Fri Dec 21 14:09:02 2018, MaxMem=  1342177280 cpu:              34.9 elap:               2.2
 (Enter /gpfs/apps/hpc/Apps/Restricted/Gaussian/Rev_A.03/g16/l303.exe)
 DipDrv:  MaxL=1.
 Leave Link  303 at Fri Dec 21 14:09:02 2018, MaxMem=  1342177280 cpu:               1.9 elap:               0.2
 (Enter /gpfs/apps/hpc/Apps/Restricted/Gaussian/Rev_A.03/g16/l401.exe)
 Initial guess from the checkpoint file:  "cyclohexyl-diBIP-E3PT.chk"
 B after Tr=    -0.000065    0.000286    0.003666
         Rot=    1.000000   -0.000138    0.000109    0.000014 Ang=  -0.02 deg.
 Guess basis will be translated and rotated to current coordinates.
 JPrj=2 DoOrth=T DoCkMO=T.
 Initial guess <Sx>= 0.0000 <Sy>= 0.0000 <Sz>= 0.5000 <S**2>= 0.7741 S= 0.5120
 Generating alternative initial guess.
 ExpMin= 1.61D-01 ExpMax= 5.48D+03 ExpMxC= 8.25D+02 IAcc=2 IRadAn=         4 AccDes= 0.00D+00
 Harris functional with IExCor=  402 and IRadAn=       4 diagonalized for initial guess.
 HarFok:  IExCor=  402 AccDes= 0.00D+00 IRadAn=         4 IDoV= 1 UseB2=F ITyADJ=14
 ICtDFT=  3500011 ScaDFX=  1.000000  1.000000  1.000000  1.000000
 FoFCou: FMM=F IPFlag=           0 FMFlag=      100000 FMFlg1=        2001
         NFxFlg=           0 DoJE=T BraDBF=F KetDBF=T FulRan=T
         wScrn=  0.000000 ICntrl=       500 IOpCl=  0 I1Cent=   200000004 NGrid=           0
         NMat0=    1 NMatS0=      1 NMatT0=    0 NMatD0=    1 NMtDS0=    0 NMtDT0=    0
 Symmetry not used in FoFCou.
 Harris En= -1707.48307613626    
 Leave Link  401 at Fri Dec 21 14:09:09 2018, MaxMem=  1342177280 cpu:             107.7 elap:               6.8
 (Enter /gpfs/apps/hpc/Apps/Restricted/Gaussian/Rev_A.03/g16/l502.exe)
 Two-electron integral symmetry not used.
 UHF open shell SCF:
 Using DIIS extrapolation, IDIIS=  1040.
 NGot=  1342177280 LenX=  1340812546 LenY=  1340139326
 Requested convergence on RMS density matrix=1.00D-08 within 128 cycles.
 Requested convergence on MAX density matrix=1.00D-06.
 Requested convergence on             energy=1.00D-06.
 No special actions if energy rises.
 Fock matrices will be formed incrementally for  20 cycles.

 Cycle   1  Pass 1  IDiag  1:
 FoFJK:  IHMeth= 1 ICntrl=       0 DoSepK=F KAlg= 0 I1Cent=           0 FoldK=F
 IRaf= 630000000 NMat=       1 IRICut=       1 DoRegI=T DoRafI=F ISym2E= 0 IDoP0=0 IntGTp=1.
 FoFCou: FMM=T IPFlag=           0 FMFlag=      100000 FMFlg1=        2001
         NFxFlg=           0 DoJE=F BraDBF=F KetDBF=F FulRan=T
         wScrn=  0.000000 ICntrl=         0 IOpCl=  1 I1Cent=           0 NGrid=           0
         NMat0=    1 NMatS0=      1 NMatT0=    0 NMatD0=    1 NMtDS0=    0 NMtDT0=    0
 Symmetry not used in FoFCou.
 FMM levels:  10  Number of levels for PrismC:   9
 Inv3:  Mode=1 IEnd=    83635200.
 Iteration    1 A*A^-1 deviation from unit magnitude is 9.10D-15 for   1775.
 Iteration    1 A*A^-1 deviation from orthogonality  is 3.50D-15 for   5240   3445.
 Iteration    1 A^-1*A deviation from unit magnitude is 9.10D-15 for   5265.
 Iteration    1 A^-1*A deviation from orthogonality  is 2.83D-15 for   5257   2248.
 E= -1707.56895812928    
 DIIS: error= 4.46D-04 at cycle   1 NSaved=   1.
 NSaved= 1 IEnMin= 1 EnMin= -1707.56895812928     IErMin= 1 ErrMin= 4.46D-04
 ErrMax= 4.46D-04  0.00D+00 EMaxC= 1.00D-01 BMatC= 4.43D-04 BMatP= 4.43D-04
 IDIUse=3 WtCom= 9.96D-01 WtEn= 4.46D-03
 Coeff-Com:  0.100D+01
 Coeff-En:   0.100D+01
 Coeff:      0.100D+01
 Gap=     1.631 Goal=   None    Shift=    0.000
 Gap=     1.642 Goal=   None    Shift=    0.000
 RMSDP=2.00D-05 MaxDP=1.32D-03              OVMax= 1.89D-03

 Cycle   2  Pass 1  IDiag  1:
 RMSU=  2.00D-05    CP:  1.00D+00
 E= -1707.56917660482     Delta-E=       -0.000218475544 Rises=F Damp=F
 DIIS: error= 4.25D-05 at cycle   2 NSaved=   2.
 NSaved= 2 IEnMin= 2 EnMin= -1707.56917660482     IErMin= 2 ErrMin= 4.25D-05
 ErrMax= 4.25D-05  0.00D+00 EMaxC= 1.00D-01 BMatC= 4.32D-06 BMatP= 4.43D-04
 IDIUse=1 WtCom= 1.00D+00 WtEn= 0.00D+00
 Coeff-Com: -0.831D-01 0.108D+01
 Coeff:     -0.831D-01 0.108D+01
 Gap=     0.112 Goal=   None    Shift=    0.000
 Gap=     0.078 Goal=   None    Shift=    0.000
 RMSDP=2.92D-06 MaxDP=1.64D-04 DE=-2.18D-04 OVMax= 2.50D-04

 Cycle   3  Pass 1  IDiag  1:
 RMSU=  2.03D-06    CP:  1.00D+00  1.10D+00
 E= -1707.56917888306     Delta-E=       -0.000002278241 Rises=F Damp=F
 DIIS: error= 2.19D-05 at cycle   3 NSaved=   3.
 NSaved= 3 IEnMin= 3 EnMin= -1707.56917888306     IErMin= 3 ErrMin= 2.19D-05
 ErrMax= 2.19D-05  0.00D+00 EMaxC= 1.00D-01 BMatC= 1.19D-06 BMatP= 4.32D-06
 IDIUse=1 WtCom= 1.00D+00 WtEn= 0.00D+00
 Coeff-Com: -0.387D-01 0.476D+00 0.563D+00
 Coeff:     -0.387D-01 0.476D+00 0.563D+00
 Gap=     0.112 Goal=   None    Shift=    0.000
 Gap=     0.078 Goal=   None    Shift=    0.000
 RMSDP=1.10D-06 MaxDP=1.76D-04 DE=-2.28D-06 OVMax= 2.25D-04

 Cycle   4  Pass 1  IDiag  1:
 RMSU=  9.75D-07    CP:  1.00D+00  1.11D+00  7.62D-01
 E= -1707.56917903422     Delta-E=       -0.000000151161 Rises=F Damp=F
 DIIS: error= 1.54D-05 at cycle   4 NSaved=   4.
 NSaved= 4 IEnMin= 4 EnMin= -1707.56917903422     IErMin= 4 ErrMin= 1.54D-05
 ErrMax= 1.54D-05  0.00D+00 EMaxC= 1.00D-01 BMatC= 5.34D-07 BMatP= 1.19D-06
 IDIUse=1 WtCom= 1.00D+00 WtEn= 0.00D+00
 Coeff-Com: -0.686D-02 0.717D-01 0.394D+00 0.541D+00
 Coeff:     -0.686D-02 0.717D-01 0.394D+00 0.541D+00
 Gap=     0.112 Goal=   None    Shift=    0.000
 Gap=     0.078 Goal=   None    Shift=    0.000
 RMSDP=5.02D-07 MaxDP=8.21D-05 DE=-1.51D-07 OVMax= 1.01D-04

 Cycle   5  Pass 1  IDiag  1:
 RMSU=  2.12D-07    CP:  1.00D+00  1.11D+00  8.92D-01  6.21D-01
 E= -1707.56917914257     Delta-E=       -0.000000108350 Rises=F Damp=F
 DIIS: error= 2.17D-06 at cycle   5 NSaved=   5.
 NSaved= 5 IEnMin= 5 EnMin= -1707.56917914257     IErMin= 5 ErrMin= 2.17D-06
 ErrMax= 2.17D-06  0.00D+00 EMaxC= 1.00D-01 BMatC= 1.85D-08 BMatP= 5.34D-07
 IDIUse=1 WtCom= 1.00D+00 WtEn= 0.00D+00
 Coeff-Com:  0.224D-03-0.986D-02 0.133D+00 0.244D+00 0.633D+00
 Coeff:      0.224D-03-0.986D-02 0.133D+00 0.244D+00 0.633D+00
 Gap=     0.112 Goal=   None    Shift=    0.000
 Gap=     0.078 Goal=   None    Shift=    0.000
 RMSDP=1.12D-07 MaxDP=1.80D-05 DE=-1.08D-07 OVMax= 2.11D-05

 Cycle   6  Pass 1  IDiag  1:
 RMSU=  8.10D-08    CP:  1.00D+00  1.11D+00  9.00D-01  6.63D-01  7.06D-01
