 Entering Gaussian System, Link 0=g16
 Initial command:
 /gpfs/apps/hpc/Apps/Restricted/Gaussian/g16/Rev_B.01-AVX/g16/l1.exe "/gpfs/scratch60/fas/hammes_schiffer/jg2487/c42n01/Gau-287593.inp" -scrdir="/gpfs/scratch60/fas/hammes_schiffer/jg2487/c42n01/"
 Entering Link 1 = /gpfs/apps/hpc/Apps/Restricted/Gaussian/g16/Rev_B.01-AVX/g16/l1.exe PID=    287594.
  
 Copyright (c) 1988-2017, Gaussian, Inc.  All Rights Reserved.
  
 This is part of the Gaussian(R) 16 program.  It is based on
 the Gaussian(R) 09 system (copyright 2009, Gaussian, Inc.),
 the Gaussian(R) 03 system (copyright 2003, Gaussian, Inc.),
 the Gaussian(R) 98 system (copyright 1998, Gaussian, Inc.),
 the Gaussian(R) 94 system (copyright 1995, Gaussian, Inc.),
 the Gaussian 92(TM) system (copyright 1992, Gaussian, Inc.),
 the Gaussian 90(TM) system (copyright 1990, Gaussian, Inc.),
 the Gaussian 88(TM) system (copyright 1988, Gaussian, Inc.),
 the Gaussian 86(TM) system (copyright 1986, Carnegie Mellon
 University), and the Gaussian 82(TM) system (copyright 1983,
 Carnegie Mellon University). Gaussian is a federally registered
 trademark of Gaussian, Inc.
  
 This software contains proprietary and confidential information,
 including trade secrets, belonging to Gaussian, Inc.
  
 This software is provided under written license and may be
 used, copied, transmitted, or stored only in accord with that
 written license.
  
 The following legend is applicable only to US Government
 contracts under FAR:
  
                    RESTRICTED RIGHTS LEGEND
  
 Use, reproduction and disclosure by the US Government is
 subject to restrictions as set forth in subparagraphs (a)
 and (c) of the Commercial Computer Software - Restricted
 Rights clause in FAR 52.227-19.
  
 Gaussian, Inc.
 340 Quinnipiac St., Bldg. 40, Wallingford CT 06492
  
  
 ---------------------------------------------------------------
 Warning -- This program may not be used in any manner that
 competes with the business of Gaussian, Inc. or will provide
 assistance to any competitor of Gaussian, Inc.  The licensee
 of this program is prohibited from giving any competitor of
 Gaussian, Inc. access to this program.  By using this program,
 the user acknowledges that Gaussian, Inc. is engaged in the
 business of creating and licensing software in the field of
 computational chemistry and represents and warrants to the
 licensee that it is not a competitor of Gaussian, Inc. and that
 it will not use this program in any manner prohibited above.
 ---------------------------------------------------------------
  

 Cite this work as:
 Gaussian 16, Revision B.01,
 M. J. Frisch, G. W. Trucks, H. B. Schlegel, G. E. Scuseria, 
 M. A. Robb, J. R. Cheeseman, G. Scalmani, V. Barone, 
 G. A. Petersson, H. Nakatsuji, X. Li, M. Caricato, A. V. Marenich, 
 J. Bloino, B. G. Janesko, R. Gomperts, B. Mennucci, H. P. Hratchian, 
 J. V. Ortiz, A. F. Izmaylov, J. L. Sonnenberg, D. Williams-Young, 
 F. Ding, F. Lipparini, F. Egidi, J. Goings, B. Peng, A. Petrone, 
 T. Henderson, D. Ranasinghe, V. G. Zakrzewski, J. Gao, N. Rega, 
 G. Zheng, W. Liang, M. Hada, M. Ehara, K. Toyota, R. Fukuda, 
 J. Hasegawa, M. Ishida, T. Nakajima, Y. Honda, O. Kitao, H. Nakai, 
 T. Vreven, K. Throssell, J. A. Montgomery, Jr., J. E. Peralta, 
 F. Ogliaro, M. J. Bearpark, J. J. Heyd, E. N. Brothers, K. N. Kudin, 
 V. N. Staroverov, T. A. Keith, R. Kobayashi, J. Normand, 
 K. Raghavachari, A. P. Rendell, J. C. Burant, S. S. Iyengar, 
 J. Tomasi, M. Cossi, J. M. Millam, M. Klene, C. Adamo, R. Cammi, 
 J. W. Ochterski, R. L. Martin, K. Morokuma, O. Farkas, 
 J. B. Foresman, and D. J. Fox, Gaussian, Inc., Wallingford CT, 2016.
 
 ******************************************
 Gaussian 16:  ES64L-G16RevB.01 20-Dec-2017
                12-Feb-2019 
 ******************************************
 %chk=amide-monoBIP-E0PT.chk
 %mem=10GB
 %nprocshared=16
 Will use up to   16 processors via shared memory.
 ----------------------------------------------------------------
 #p freq(ReadFC,InternalModes) Geom(AllCheck) NoSymm scale=0.9631
 ----------------------------------------------------------------
 1/18=20,29=7,38=1,114=963100/1,3;
 2/9=110,12=2,15=1,40=1/2;
 7/8=21,25=11,30=1/16;
 99/5=2/99;
 Leave Link    1 at Tue Feb 12 17:28:54 2019, MaxMem=  1342177280 cpu:               7.0 elap:               0.5
 (Enter /gpfs/apps/hpc/Apps/Restricted/Gaussian/g16/Rev_B.01-AVX/g16/l101.exe)
 Structure from the checkpoint file:  "amide-monoBIP-E0PT.chk"
 --------------------------------------
 Simple amide-monoBIP E0PT optimization
 --------------------------------------
 Charge =  1 Multiplicity = 2
 Redundant internal coordinates found in file.  (old form).
 C,0,-0.460429,2.735524,0.446323
 C,0,-1.869382,2.860977,0.319118
 C,0,-2.459229,4.128065,0.212125
 C,0,-1.611824,5.226396,0.239777
 C,0,-0.212951,5.087825,0.366657
 C,0,0.403475,3.841091,0.470839
 C,0,-1.402163,0.736962,0.439368
 H,0,-3.531181,4.23901,0.111285
 H,0,-2.027979,6.223212,0.162848
 H,0,0.385151,5.990745,0.386241
 N,0,-2.418292,1.600557,0.320075
 C,0,-2.981818,-1.178361,0.350491
 C,0,-1.610148,-0.691346,0.4564
 C,0,-0.575082,-1.600797,0.544414
 C,0,-0.825097,-2.986204,0.536308
 C,0,-2.167945,-3.436468,0.442228
 C,0,-3.256643,-2.596661,0.352899
 H,0,0.445286,-1.247657,0.614561
 H,0,-2.340147,-4.499892,0.440207
 C,0,0.344584,-3.953435,0.60054
 C,0,-4.687489,-3.124153,0.253743
 O,0,-3.964111,-0.334742,0.243709
 H,0,-3.574839,0.649737,0.249351
 N,0,-0.206714,1.390931,0.521192
 H,0,0.737656,1.034509,0.61838
 C,0,1.868559,3.589189,0.592765
 C,0,1.231363,-3.712792,-0.644456
 H,0,1.598602,-2.685387,-0.680988
 H,0,2.093341,-4.383355,-0.604857
 H,0,0.677092,-3.916211,-1.563499
 C,0,1.171921,-3.665528,1.874069
 H,0,0.573104,-3.825687,2.773318
 H,0,2.026535,-4.345768,1.903068
 H,0,1.553789,-2.642931,1.888956
 C,0,-0.099791,-5.421726,0.620714
 H,0,-0.717561,-5.645628,1.494086
 H,0,-0.657753,-5.688837,-0.280284
 H,0,0.785206,-6.059173,0.665662
 C,0,-5.318263,-2.681336,-1.08627
 H,0,-6.327499,-3.094501,-1.155508
 H,0,-5.38528,-1.59744,-1.168956
 H,0,-4.736228,-3.06142,-1.929323
 C,0,-5.525635,-2.59131,1.438599
 H,0,-5.615198,-1.506346,1.41633
 H,0,-6.528499,-3.022147,1.386748
 H,0,-5.075468,-2.885194,2.389897
 C,0,-4.714164,-4.660198,0.305642
 H,0,-4.1592,-5.104099,-0.524841
 H,0,-4.298834,-5.039954,1.242534
 H,0,-5.75016,-4.996818,0.235438
 O,0,2.292593,2.425831,0.702111
 N,0,2.693045,4.653346,0.587151
 H,0,2.374103,5.593269,0.419829
 H,0,3.687634,4.487257,0.620327
 Recover connectivity data from disk.
 ITRead=  0  0  0  0  0  0  0  0  0  0  0  0  0  0  0  0  0  0  0  0
 ITRead=  0  0  0  0  0  0  0  0  0  0  0  0  0  0  0  0  0  0  0  0
 ITRead=  0  0  0  0  0  0  0  0  0  0  0  0  0  0
 MicOpt= -1 -1 -1 -1 -1 -1 -1 -1 -1 -1 -1 -1 -1 -1 -1 -1 -1 -1 -1 -1
 MicOpt= -1 -1 -1 -1 -1 -1 -1 -1 -1 -1 -1 -1 -1 -1 -1 -1 -1 -1 -1 -1
 MicOpt= -1 -1 -1 -1 -1 -1 -1 -1 -1 -1 -1 -1 -1 -1
 NAtoms=     54 NQM=       54 NQMF=       0 NMMI=      0 NMMIF=      0
                NMic=       0 NMicF=      0.
                    Isotopes and Nuclear Properties:
 (Nuclear quadrupole moments (NQMom) in fm**2, nuclear magnetic moments (NMagM)
  in nuclear magnetons)

  Atom         1           2           3           4           5           6           7           8           9          10
 IAtWgt=          12          12          12          12          12          12          12           1           1           1
 AtmWgt=  12.0000000  12.0000000  12.0000000  12.0000000  12.0000000  12.0000000  12.0000000   1.0078250   1.0078250   1.0078250
 NucSpn=           0           0           0           0           0           0           0           1           1           1
 AtZEff=   3.6000000   3.6000000   3.6000000   3.6000000   3.6000000   3.6000000   3.6000000   1.0000000   1.0000000   1.0000000
 NQMom=    0.0000000   0.0000000   0.0000000   0.0000000   0.0000000   0.0000000   0.0000000   0.0000000   0.0000000   0.0000000
 NMagM=    0.0000000   0.0000000   0.0000000   0.0000000   0.0000000   0.0000000   0.0000000   2.7928460   2.7928460   2.7928460
 AtZNuc=   6.0000000   6.0000000   6.0000000   6.0000000   6.0000000   6.0000000   6.0000000   1.0000000   1.0000000   1.0000000

  Atom        11          12          13          14          15          16          17          18          19          20
 IAtWgt=          14          12          12          12          12          12          12           1           1          12
 AtmWgt=  14.0030740  12.0000000  12.0000000  12.0000000  12.0000000  12.0000000  12.0000000   1.0078250   1.0078250  12.0000000
 NucSpn=           2           0           0           0           0           0           0           1           1           0
 AtZEff=   4.5500000   3.6000000   3.6000000   3.6000000   3.6000000   3.6000000   3.6000000   1.0000000   1.0000000   3.6000000
 NQMom=    2.0440000   0.0000000   0.0000000   0.0000000   0.0000000   0.0000000   0.0000000   0.0000000   0.0000000   0.0000000
 NMagM=    0.4037610   0.0000000   0.0000000   0.0000000   0.0000000   0.0000000   0.0000000   2.7928460   2.7928460   0.0000000
 AtZNuc=   7.0000000   6.0000000   6.0000000   6.0000000   6.0000000   6.0000000   6.0000000   1.0000000   1.0000000   6.0000000

  Atom        21          22          23          24          25          26          27          28          29          30
 IAtWgt=          12          16           1          14           1          12          12           1           1           1
 AtmWgt=  12.0000000  15.9949146   1.0078250  14.0030740   1.0078250  12.0000000  12.0000000   1.0078250   1.0078250   1.0078250
 NucSpn=           0           0           1           2           1           0           0           1           1           1
 AtZEff=   3.6000000   5.6000000   1.0000000   4.5500000   1.0000000   3.6000000   3.6000000   1.0000000   1.0000000   1.0000000
 NQMom=    0.0000000   0.0000000   0.0000000   2.0440000   0.0000000   0.0000000   0.0000000   0.0000000   0.0000000   0.0000000
 NMagM=    0.0000000   0.0000000   2.7928460   0.4037610   2.7928460   0.0000000   0.0000000   2.7928460   2.7928460   2.7928460
 AtZNuc=   6.0000000   8.0000000   1.0000000   7.0000000   1.0000000   6.0000000   6.0000000   1.0000000   1.0000000   1.0000000

  Atom        31          32          33          34          35          36          37          38          39          40
 IAtWgt=          12           1           1           1          12           1           1           1          12           1
 AtmWgt=  12.0000000   1.0078250   1.0078250   1.0078250  12.0000000   1.0078250   1.0078250   1.0078250  12.0000000   1.0078250
 NucSpn=           0           1           1           1           0           1           1           1           0           1
 AtZEff=   3.6000000   1.0000000   1.0000000   1.0000000   3.6000000   1.0000000   1.0000000   1.0000000   3.6000000   1.0000000
 NQMom=    0.0000000   0.0000000   0.0000000   0.0000000   0.0000000   0.0000000   0.0000000   0.0000000   0.0000000   0.0000000
 NMagM=    0.0000000   2.7928460   2.7928460   2.7928460   0.0000000   2.7928460   2.7928460   2.7928460   0.0000000   2.7928460
 AtZNuc=   6.0000000   1.0000000   1.0000000   1.0000000   6.0000000   1.0000000   1.0000000   1.0000000   6.0000000   1.0000000

  Atom        41          42          43          44          45          46          47          48          49          50
 IAtWgt=           1           1          12           1           1           1          12           1           1           1
 AtmWgt=   1.0078250   1.0078250  12.0000000   1.0078250   1.0078250   1.0078250  12.0000000   1.0078250   1.0078250   1.0078250
 NucSpn=           1           1           0           1           1           1           0           1           1           1
 AtZEff=   1.0000000   1.0000000   3.6000000   1.0000000   1.0000000   1.0000000   3.6000000   1.0000000   1.0000000   1.0000000
 NQMom=    0.0000000   0.0000000   0.0000000   0.0000000   0.0000000   0.0000000   0.0000000   0.0000000   0.0000000   0.0000000
 NMagM=    2.7928460   2.7928460   0.0000000   2.7928460   2.7928460   2.7928460   0.0000000   2.7928460   2.7928460   2.7928460
 AtZNuc=   1.0000000   1.0000000   6.0000000   1.0000000   1.0000000   1.0000000   6.0000000   1.0000000   1.0000000   1.0000000

  Atom        51          52          53          54
 IAtWgt=          16          14           1           1
 AtmWgt=  15.9949146  14.0030740   1.0078250   1.0078250
 NucSpn=           0           2           1           1
 AtZEff=   5.6000000   4.5500000   1.0000000   1.0000000
 NQMom=    0.0000000   2.0440000   0.0000000   0.0000000
 NMagM=    0.0000000   0.4037610   2.7928460   2.7928460
 AtZNuc=   8.0000000   7.0000000   1.0000000   1.0000000
 Leave Link  101 at Tue Feb 12 17:28:55 2019, MaxMem=  1342177280 cpu:               4.5 elap:               0.3
 (Enter /gpfs/apps/hpc/Apps/Restricted/Gaussian/g16/Rev_B.01-AVX/g16/l103.exe)

 GradGradGradGradGradGradGradGradGradGradGradGradGradGradGradGradGradGrad
 Berny optimization.
 Initialization pass.
                           ----------------------------
                           !    Initial Parameters    !
                           ! (Angstroms and Degrees)  !
 --------------------------                            --------------------------
 ! Name  Definition              Value          Derivative Info.                !
 --------------------------------------------------------------------------------
 ! R1    R(1,2)                  1.4202         estimate D2E/DX2                !
 ! R2    R(1,6)                  1.4033         estimate D2E/DX2                !
 ! R3    R(1,24)                 1.3704         estimate D2E/DX2                !
 ! R4    R(2,3)                  1.4017         estimate D2E/DX2                !
 ! R5    R(2,11)                 1.3748         estimate D2E/DX2                !
 ! R6    R(3,4)                  1.3875         estimate D2E/DX2                !
 ! R7    R(3,8)                  1.0824         estimate D2E/DX2                !
 ! R8    R(4,5)                  1.4114         estimate D2E/DX2                !
 ! R9    R(4,9)                  1.0829         estimate D2E/DX2                !
 ! R10   R(5,6)                  1.3947         estimate D2E/DX2                !
 ! R11   R(5,10)                 1.0832         estimate D2E/DX2                !
 ! R12   R(6,26)                 1.4916         estimate D2E/DX2                !
 ! R13   R(7,11)                 1.3389         estimate D2E/DX2                !
 ! R14   R(7,13)                 1.4435         estimate D2E/DX2                !
 ! R15   R(7,24)                 1.3651         estimate D2E/DX2                !
 ! R16   R(12,13)                1.4594         estimate D2E/DX2                !
 ! R17   R(12,17)                1.4447         estimate D2E/DX2                !
 ! R18   R(12,22)                1.2992         estimate D2E/DX2                !
 ! R19   R(13,14)                1.3807         estimate D2E/DX2                !
 ! R20   R(14,15)                1.4078         estimate D2E/DX2                !
 ! R21   R(14,18)                1.082          estimate D2E/DX2                !
 ! R22   R(15,16)                1.4194         estimate D2E/DX2                !
 ! R23   R(15,20)                1.5191         estimate D2E/DX2                !
 ! R24   R(16,17)                1.3779         estimate D2E/DX2                !
 ! R25   R(16,19)                1.0773         estimate D2E/DX2                !
 ! R26   R(17,21)                1.5282         estimate D2E/DX2                !
 ! R27   R(20,27)                1.5474         estimate D2E/DX2                !
 ! R28   R(20,31)                1.5457         estimate D2E/DX2                !
 ! R29   R(20,35)                1.5342         estimate D2E/DX2                !
 ! R30   R(21,39)                1.5458         estimate D2E/DX2                !
 ! R31   R(21,43)                1.5461         estimate D2E/DX2                !
 ! R32   R(21,47)                1.5372         estimate D2E/DX2                !
 ! R33   R(22,23)                1.0587         estimate D2E/DX2                !
 ! R34   R(24,25)                1.0141         estimate D2E/DX2                !
 ! R35   R(26,51)                1.243          estimate D2E/DX2                !
 ! R36   R(26,52)                1.3462         estimate D2E/DX2                !
 ! R37   R(27,28)                1.0917         estimate D2E/DX2                !
 ! R38   R(27,29)                1.0928         estimate D2E/DX2                !
 ! R39   R(27,30)                1.0924         estimate D2E/DX2                !
 ! R40   R(31,32)                1.0922         estimate D2E/DX2                !
 ! R41   R(31,33)                1.0927         estimate D2E/DX2                !
 ! R42   R(31,34)                1.0917         estimate D2E/DX2                !
 ! R43   R(35,36)                1.093          estimate D2E/DX2                !
 ! R44   R(35,37)                1.0929         estimate D2E/DX2                !
 ! R45   R(35,38)                1.0916         estimate D2E/DX2                !
 ! R46   R(39,40)                1.0927         estimate D2E/DX2                !
 ! R47   R(39,41)                1.0891         estimate D2E/DX2                !
 ! R48   R(39,42)                1.0927         estimate D2E/DX2                !
 ! R49   R(43,44)                1.0889         estimate D2E/DX2                !
 ! R50   R(43,45)                1.0927         estimate D2E/DX2                !
 ! R51   R(43,46)                1.0927         estimate D2E/DX2                !
 ! R52   R(47,48)                1.093          estimate D2E/DX2                !
 ! R53   R(47,49)                1.0929         estimate D2E/DX2                !
 ! R54   R(47,50)                1.0916         estimate D2E/DX2                !
 ! R55   R(52,53)                1.0066         estimate D2E/DX2                !
 ! R56   R(52,54)                1.0089         estimate D2E/DX2                !
 ! A1    A(2,1,6)              122.8684         estimate D2E/DX2                !
 ! A2    A(2,1,24)             105.9762         estimate D2E/DX2                !
 ! A3    A(6,1,24)             131.1543         estimate D2E/DX2                !
 ! A4    A(1,2,3)              120.2741         estimate D2E/DX2                !
 ! A5    A(1,2,11)             108.3643         estimate D2E/DX2                !
 ! A6    A(3,2,11)             131.3607         estimate D2E/DX2                !
 ! A7    A(2,3,4)              117.1953         estimate D2E/DX2                !
 ! A8    A(2,3,8)              121.0981         estimate D2E/DX2                !
 ! A9    A(4,3,8)              121.7065         estimate D2E/DX2                !
 ! A10   A(3,4,5)              121.9634         estimate D2E/DX2                !
 ! A11   A(3,4,9)              119.5064         estimate D2E/DX2                !
 ! A12   A(5,4,9)              118.5301         estimate D2E/DX2                !
 ! A13   A(4,5,6)              122.176          estimate D2E/DX2                !
 ! A14   A(4,5,10)             117.8414         estimate D2E/DX2                !
 ! A15   A(6,5,10)             119.9821         estimate D2E/DX2                !
 ! A16   A(1,6,5)              115.5221         estimate D2E/DX2                !
 ! A17   A(1,6,26)             118.2338         estimate D2E/DX2                !
 ! A18   A(5,6,26)             126.2423         estimate D2E/DX2                !
 ! A19   A(11,7,13)            122.0016         estimate D2E/DX2                !
 ! A20   A(11,7,24)            111.1596         estimate D2E/DX2                !
 ! A21   A(13,7,24)            126.8346         estimate D2E/DX2                !
 ! A22   A(2,11,7)             106.7626         estimate D2E/DX2                !
 ! A23   A(13,12,17)           120.4168         estimate D2E/DX2                !
 ! A24   A(13,12,22)           119.9924         estimate D2E/DX2                !
 ! A25   A(17,12,22)           119.589          estimate D2E/DX2                !
 ! A26   A(7,13,12)            117.6953         estimate D2E/DX2                !
 ! A27   A(7,13,14)            122.992          estimate D2E/DX2                !
 ! A28   A(12,13,14)           119.3031         estimate D2E/DX2                !
 ! A29   A(13,14,15)           120.9789         estimate D2E/DX2                !
 ! A30   A(13,14,18)           119.7438         estimate D2E/DX2                !
 ! A31   A(15,14,18)           119.2763         estimate D2E/DX2                !
 ! A32   A(14,15,16)           118.7215         estimate D2E/DX2                !
 ! A33   A(14,15,20)           119.313          estimate D2E/DX2                !
 ! A34   A(16,15,20)           121.9544         estimate D2E/DX2                !
 ! A35   A(15,16,17)           123.9488         estimate D2E/DX2                !
 ! A36   A(15,16,19)           117.6765         estimate D2E/DX2                !
 ! A37   A(17,16,19)           118.3747         estimate D2E/DX2                !
 ! A38   A(12,17,16)           116.6261         estimate D2E/DX2                !
 ! A39   A(12,17,21)           121.1227         estimate D2E/DX2                !
 ! A40   A(16,17,21)           122.2505         estimate D2E/DX2                !
 ! A41   A(15,20,27)           107.952          estimate D2E/DX2                !
 ! A42   A(15,20,31)           109.1693         estimate D2E/DX2                !
 ! A43   A(15,20,35)           112.7606         estimate D2E/DX2                !
 ! A44   A(27,20,31)           109.099          estimate D2E/DX2                !
 ! A45   A(27,20,35)           108.9906         estimate D2E/DX2                !
 ! A46   A(31,20,35)           108.8116         estimate D2E/DX2                !
 ! A47   A(17,21,39)           109.8416         estimate D2E/DX2                !
 ! A48   A(17,21,43)           109.8095         estimate D2E/DX2                !
 ! A49   A(17,21,47)           111.0376         estimate D2E/DX2                !
 ! A50   A(39,21,43)           110.145          estimate D2E/DX2                !
 ! A51   A(39,21,47)           107.9652         estimate D2E/DX2                !
 ! A52   A(43,21,47)           108.0059         estimate D2E/DX2                !
 ! A53   A(12,22,23)           108.9887         estimate D2E/DX2                !
 ! A54   A(1,24,7)             107.7368         estimate D2E/DX2                !
 ! A55   A(1,24,25)            121.5018         estimate D2E/DX2                !
 ! A56   A(7,24,25)            130.7613         estimate D2E/DX2                !
 ! A57   A(6,26,51)            120.0208         estimate D2E/DX2                !
 ! A58   A(6,26,52)            117.8876         estimate D2E/DX2                !
 ! A59   A(51,26,52)           122.0906         estimate D2E/DX2                !
 ! A60   A(20,27,28)           111.4738         estimate D2E/DX2                !
 ! A61   A(20,27,29)           109.1145         estimate D2E/DX2                !
 ! A62   A(20,27,30)           110.9275         estimate D2E/DX2                !
 ! A63   A(28,27,29)           108.2617         estimate D2E/DX2                !
 ! A64   A(28,27,30)           108.5296         estimate D2E/DX2                !
 ! A65   A(29,27,30)           108.4484         estimate D2E/DX2                !
 ! A66   A(20,31,32)           110.952          estimate D2E/DX2                !
 ! A67   A(20,31,33)           108.9378         estimate D2E/DX2                !
 ! A68   A(20,31,34)           111.897          estimate D2E/DX2                !
 ! A69   A(32,31,33)           108.4018         estimate D2E/DX2                !
 ! A70   A(32,31,34)           108.5371         estimate D2E/DX2                !
 ! A71   A(33,31,34)           108.0112         estimate D2E/DX2                !
 ! A72   A(20,35,36)           111.7331         estimate D2E/DX2                !
 ! A73   A(20,35,37)           111.7733         estimate D2E/DX2                !
 ! A74   A(20,35,38)           108.9406         estimate D2E/DX2                !
 ! A75   A(36,35,37)           108.6713         estimate D2E/DX2                !
 ! A76   A(36,35,38)           107.8014         estimate D2E/DX2                !
 ! A77   A(37,35,38)           107.7658         estimate D2E/DX2                !
 ! A78   A(21,39,40)           108.8738         estimate D2E/DX2                !
 ! A79   A(21,39,41)           112.0867         estimate D2E/DX2                !
 ! A80   A(21,39,42)           110.5986         estimate D2E/DX2                !
 ! A81   A(40,39,41)           108.3398         estimate D2E/DX2                !
 ! A82   A(40,39,42)           108.153          estimate D2E/DX2                !
 ! A83   A(41,39,42)           108.6858         estimate D2E/DX2                !
 ! A84   A(21,43,44)           111.859          estimate D2E/DX2                !
 ! A85   A(21,43,45)           108.9829         estimate D2E/DX2                !
 ! A86   A(21,43,46)           110.5587         estimate D2E/DX2                !
 ! A87   A(44,43,45)           108.4454         estimate D2E/DX2                !
 ! A88   A(44,43,46)           108.6433         estimate D2E/DX2                !
 ! A89   A(45,43,46)           108.2623         estimate D2E/DX2                !
 ! A90   A(21,47,48)           111.7995         estimate D2E/DX2                !
 ! A91   A(21,47,49)           111.6889         estimate D2E/DX2                !
 ! A92   A(21,47,50)           108.8116         estimate D2E/DX2                !
 ! A93   A(48,47,49)           108.4975         estimate D2E/DX2                !
 ! A94   A(48,47,50)           107.925          estimate D2E/DX2                !
 ! A95   A(49,47,50)           107.9779         estimate D2E/DX2                !
 ! A96   A(26,52,53)           123.01           estimate D2E/DX2                !
 ! A97   A(26,52,54)           118.2614         estimate D2E/DX2                !
 ! A98   A(53,52,54)           118.1352         estimate D2E/DX2                !
 ! D1    D(6,1,2,3)             -0.0561         estimate D2E/DX2                !
 ! D2    D(6,1,2,11)           179.6197         estimate D2E/DX2                !
 ! D3    D(24,1,2,3)          -179.7173         estimate D2E/DX2                !
 ! D4    D(24,1,2,11)           -0.0415         estimate D2E/DX2                !
 ! D5    D(2,1,6,5)              0.2435         estimate D2E/DX2                !
 ! D6    D(2,1,6,26)          -179.3126         estimate D2E/DX2                !
 ! D7    D(24,1,6,5)           179.8109         estimate D2E/DX2                !
 ! D8    D(24,1,6,26)            0.2548         estimate D2E/DX2                !
 ! D9    D(2,1,24,7)             0.166          estimate D2E/DX2                !
 ! D10   D(2,1,24,25)         -179.9193         estimate D2E/DX2                !
 ! D11   D(6,1,24,7)          -179.4561         estimate D2E/DX2                !
 ! D12   D(6,1,24,25)            0.4586         estimate D2E/DX2                !
 ! D13   D(1,2,3,4)             -0.1423         estimate D2E/DX2                !
 ! D14   D(1,2,3,8)            179.7923         estimate D2E/DX2                !
 ! D15   D(11,2,3,4)          -179.7325         estimate D2E/DX2                !
 ! D16   D(11,2,3,8)             0.2022         estimate D2E/DX2                !
 ! D17   D(1,2,11,7)            -0.1012         estimate D2E/DX2                !
 ! D18   D(3,2,11,7)           179.5258         estimate D2E/DX2                !
 ! D19   D(2,3,4,5)              0.1457         estimate D2E/DX2                !
 ! D20   D(2,3,4,9)           -179.8185         estimate D2E/DX2                !
 ! D21   D(8,3,4,5)           -179.7885         estimate D2E/DX2                !
 ! D22   D(8,3,4,9)              0.2472         estimate D2E/DX2                !
 ! D23   D(3,4,5,6)              0.0521         estimate D2E/DX2                !
 ! D24   D(3,4,5,10)          -179.6795         estimate D2E/DX2                !
 ! D25   D(9,4,5,6)           -179.9833         estimate D2E/DX2                !
 ! D26   D(9,4,5,10)             0.2851         estimate D2E/DX2                !
 ! D27   D(4,5,6,1)             -0.2408         estimate D2E/DX2                !
 ! D28   D(4,5,6,26)           179.2743         estimate D2E/DX2                !
 ! D29   D(10,5,6,1)           179.4852         estimate D2E/DX2                !
 ! D30   D(10,5,6,26)           -0.9997         estimate D2E/DX2                !
 ! D31   D(1,6,26,51)           -1.7433         estimate D2E/DX2                !
 ! D32   D(1,6,26,52)          178.6243         estimate D2E/DX2                !
 ! D33   D(5,6,26,51)          178.7534         estimate D2E/DX2                !
 ! D34   D(5,6,26,52)           -0.879          estimate D2E/DX2                !
 ! D35   D(13,7,11,2)         -179.0989         estimate D2E/DX2                !
 ! D36   D(24,7,11,2)            0.2115         estimate D2E/DX2                !
 ! D37   D(11,7,13,12)          -0.549          estimate D2E/DX2                !
 ! D38   D(11,7,13,14)         178.3124         estimate D2E/DX2                !
 ! D39   D(24,7,13,12)        -179.7456         estimate D2E/DX2                !
 ! D40   D(24,7,13,14)          -0.8842         estimate D2E/DX2                !
 ! D41   D(11,7,24,1)           -0.2413         estimate D2E/DX2                !
 ! D42   D(11,7,24,25)         179.8548         estimate D2E/DX2                !
 ! D43   D(13,7,24,1)          179.0281         estimate D2E/DX2                !
 ! D44   D(13,7,24,25)          -0.8759         estimate D2E/DX2                !
 ! D45   D(17,12,13,7)         179.6043         estimate D2E/DX2                !
 ! D46   D(17,12,13,14)          0.6994         estimate D2E/DX2                !
 ! D47   D(22,12,13,7)           0.0916         estimate D2E/DX2                !
 ! D48   D(22,12,13,14)       -178.8133         estimate D2E/DX2                !
 ! D49   D(13,12,17,16)         -0.7727         estimate D2E/DX2                !
 ! D50   D(13,12,17,21)        179.5211         estimate D2E/DX2                !
 ! D51   D(22,12,17,16)        178.742          estimate D2E/DX2                !
 ! D52   D(22,12,17,21)         -0.9642         estimate D2E/DX2                !
 ! D53   D(13,12,22,23)          0.1401         estimate D2E/DX2                !
 ! D54   D(17,12,22,23)       -179.3766         estimate D2E/DX2                !
 ! D55   D(7,13,14,15)        -178.9849         estimate D2E/DX2                !
 ! D56   D(7,13,14,18)           0.6274         estimate D2E/DX2                !
 ! D57   D(12,13,14,15)         -0.1409         estimate D2E/DX2                !
 ! D58   D(12,13,14,18)        179.4714         estimate D2E/DX2                !
 ! D59   D(13,14,15,16)         -0.3096         estimate D2E/DX2                !
 ! D60   D(13,14,15,20)        178.5021         estimate D2E/DX2                !
 ! D61   D(18,14,15,16)       -179.9237         estimate D2E/DX2                !
 ! D62   D(18,14,15,20)         -1.112          estimate D2E/DX2                !
 ! D63   D(14,15,16,17)          0.2172         estimate D2E/DX2                !
 ! D64   D(14,15,16,19)       -179.8339         estimate D2E/DX2                !
 ! D65   D(20,15,16,17)       -178.5616         estimate D2E/DX2                !
 ! D66   D(20,15,16,19)          1.3873         estimate D2E/DX2                !
 ! D67   D(14,15,20,27)        -61.0842         estimate D2E/DX2                !
 ! D68   D(14,15,20,31)         57.3904         estimate D2E/DX2                !
 ! D69   D(14,15,20,35)        178.4592         estimate D2E/DX2                !
 ! D70   D(16,15,20,27)        117.6876         estimate D2E/DX2                !
 ! D71   D(16,15,20,31)       -123.8379         estimate D2E/DX2                !
 ! D72   D(16,15,20,35)         -2.7691         estimate D2E/DX2                !
 ! D73   D(15,16,17,12)          0.3227         estimate D2E/DX2                !
 ! D74   D(15,16,17,21)       -179.9747         estimate D2E/DX2                !
 ! D75   D(19,16,17,12)       -179.6259         estimate D2E/DX2                !
 ! D76   D(19,16,17,21)          0.0767         estimate D2E/DX2                !
 ! D77   D(12,17,21,39)         61.8026         estimate D2E/DX2                !
 ! D78   D(12,17,21,43)        -59.472          estimate D2E/DX2                !
 ! D79   D(12,17,21,47)       -178.8497         estimate D2E/DX2                !
 ! D80   D(16,17,21,39)       -117.8869         estimate D2E/DX2                !
 ! D81   D(16,17,21,43)        120.8385         estimate D2E/DX2                !
 ! D82   D(16,17,21,47)          1.4608         estimate D2E/DX2                !
 ! D83   D(15,20,27,28)         59.114          estimate D2E/DX2                !
 ! D84   D(15,20,27,29)        178.6331         estimate D2E/DX2                !
 ! D85   D(15,20,27,30)        -61.9539         estimate D2E/DX2                !
 ! D86   D(31,20,27,28)        -59.4055         estimate D2E/DX2                !
 ! D87   D(31,20,27,29)         60.1137         estimate D2E/DX2                !
 ! D88   D(31,20,27,30)        179.5266         estimate D2E/DX2                !
 ! D89   D(35,20,27,28)       -178.0939         estimate D2E/DX2                !
 ! D90   D(35,20,27,29)        -58.5748         estimate D2E/DX2                !
 ! D91   D(35,20,27,30)         60.8382         estimate D2E/DX2                !
 ! D92   D(15,20,31,32)         62.201          estimate D2E/DX2                !
 ! D93   D(15,20,31,33)       -178.5404         estimate D2E/DX2                !
 ! D94   D(15,20,31,34)        -59.185          estimate D2E/DX2                !
 ! D95   D(27,20,31,32)        179.9562         estimate D2E/DX2                !
 ! D96   D(27,20,31,33)        -60.7852         estimate D2E/DX2                !
 ! D97   D(27,20,31,34)         58.5702         estimate D2E/DX2                !
 ! D98   D(35,20,31,32)        -61.2436         estimate D2E/DX2                !
 ! D99   D(35,20,31,33)         58.0151         estimate D2E/DX2                !
 ! D100  D(35,20,31,34)        177.3704         estimate D2E/DX2                !
 ! D101  D(15,20,35,36)        -61.0795         estimate D2E/DX2                !
 ! D102  D(15,20,35,37)         60.9483         estimate D2E/DX2                !
 ! D103  D(15,20,35,38)        179.9246         estimate D2E/DX2                !
 ! D104  D(27,20,35,36)        179.0609         estimate D2E/DX2                !
 ! D105  D(27,20,35,37)        -58.9113         estimate D2E/DX2                !
 ! D106  D(27,20,35,38)         60.0651         estimate D2E/DX2                !
 ! D107  D(31,20,35,36)         60.1928         estimate D2E/DX2                !
 ! D108  D(31,20,35,37)       -177.7794         estimate D2E/DX2                !
 ! D109  D(31,20,35,38)        -58.8031         estimate D2E/DX2                !
 ! D110  D(17,21,39,40)        178.1154         estimate D2E/DX2                !
 ! D111  D(17,21,39,41)        -62.0439         estimate D2E/DX2                !
 ! D112  D(17,21,39,42)         59.4145         estimate D2E/DX2                !
 ! D113  D(43,21,39,40)        -60.8116         estimate D2E/DX2                !
 ! D114  D(43,21,39,41)         59.0291         estimate D2E/DX2                !
 ! D115  D(43,21,39,42)       -179.5124         estimate D2E/DX2                !
 ! D116  D(47,21,39,40)         56.9039         estimate D2E/DX2                !
 ! D117  D(47,21,39,41)        176.7446         estimate D2E/DX2                !
 ! D118  D(47,21,39,42)        -61.797          estimate D2E/DX2                !
 ! D119  D(17,21,43,44)         63.3417         estimate D2E/DX2                !
 ! D120  D(17,21,43,45)       -176.7564         estimate D2E/DX2                !
 ! D121  D(17,21,43,46)        -57.8784         estimate D2E/DX2                !
 ! D122  D(39,21,43,44)        -57.7505         estimate D2E/DX2                !
 ! D123  D(39,21,43,45)         62.1514         estimate D2E/DX2                !
 ! D124  D(39,21,43,46)       -178.9706         estimate D2E/DX2                !
 ! D125  D(47,21,43,44)       -175.4407         estimate D2E/DX2                !
 ! D126  D(47,21,43,45)        -55.5388         estimate D2E/DX2                !
 ! D127  D(47,21,43,46)         63.3392         estimate D2E/DX2                !
 ! D128  D(17,21,47,48)        -61.0698         estimate D2E/DX2                !
 ! D129  D(17,21,47,49)         60.7202         estimate D2E/DX2                !
 ! D130  D(17,21,47,50)        179.8241         estimate D2E/DX2                !
 ! D131  D(39,21,47,48)         59.3951         estimate D2E/DX2                !
 ! D132  D(39,21,47,49)       -178.8149         estimate D2E/DX2                !
 ! D133  D(39,21,47,50)        -59.711          estimate D2E/DX2                !
 ! D134  D(43,21,47,48)        178.4787         estimate D2E/DX2                !
 ! D135  D(43,21,47,49)        -59.7313         estimate D2E/DX2                !
 ! D136  D(43,21,47,50)         59.3726         estimate D2E/DX2                !
 ! D137  D(6,26,52,53)          -5.8417         estimate D2E/DX2                !
 ! D138  D(6,26,52,54)        -176.8346         estimate D2E/DX2                !
 ! D139  D(51,26,52,53)        174.534          estimate D2E/DX2                !
 ! D140  D(51,26,52,54)          3.5411         estimate D2E/DX2                !
 --------------------------------------------------------------------------------
 Trust Radius=3.00D-01 FncErr=1.00D-07 GrdErr=1.00D-07 EigMax=2.50D+02 EigMin=1.00D-04
 Number of steps in this run=    304 maximum allowed number of steps=    324.
 GradGradGradGradGradGradGradGradGradGradGradGradGradGradGradGradGradGrad

 Leave Link  103 at Tue Feb 12 17:28:55 2019, MaxMem=  1342177280 cpu:               0.2 elap:               0.0
 (Enter /gpfs/apps/hpc/Apps/Restricted/Gaussian/g16/Rev_B.01-AVX/g16/l202.exe)
 Symmetry turned off by external request.
 Stoichiometry    C22H27N3O2(1+,2)
 Framework group  C1[X(C22H27N3O2)]
 Deg. of freedom   156
 Full point group                 C1      NOp   1
                          Input orientation:                          
 ---------------------------------------------------------------------
 Center     Atomic      Atomic             Coordinates (Angstroms)
 Number     Number       Type             X           Y           Z
 ---------------------------------------------------------------------
      1          6           0       -0.460429    2.735524    0.446323
      2          6           0       -1.869382    2.860977    0.319118
      3          6           0       -2.459229    4.128065    0.212125
      4          6           0       -1.611824    5.226396    0.239777
      5          6           0       -0.212951    5.087825    0.366657
      6          6           0        0.403475    3.841091    0.470839
      7          6           0       -1.402163    0.736962    0.439368
      8          1           0       -3.531181    4.239010    0.111285
      9          1           0       -2.027979    6.223212    0.162848
     10          1           0        0.385151    5.990745    0.386241
     11          7           0       -2.418292    1.600557    0.320075
     12          6           0       -2.981818   -1.178361    0.350491
     13          6           0       -1.610148   -0.691346    0.456400
     14          6           0       -0.575082   -1.600797    0.544414
     15          6           0       -0.825097   -2.986204    0.536308
     16          6           0       -2.167945   -3.436468    0.442228
     17          6           0       -3.256643   -2.596661    0.352899
     18          1           0        0.445286   -1.247657    0.614561
     19          1           0       -2.340147   -4.499892    0.440207
     20          6           0        0.344584   -3.953435    0.600540
     21          6           0       -4.687489   -3.124153    0.253743
     22          8           0       -3.964111   -0.334742    0.243709
     23          1           0       -3.574839    0.649737    0.249351
     24          7           0       -0.206714    1.390931    0.521192
     25          1           0        0.737656    1.034509    0.618380
     26          6           0        1.868559    3.589189    0.592765
     27          6           0        1.231363   -3.712792   -0.644456
     28          1           0        1.598602   -2.685387   -0.680988
     29          1           0        2.093341   -4.383355   -0.604857
     30          1           0        0.677092   -3.916211   -1.563499
     31          6           0        1.171921   -3.665528    1.874069
     32          1           0        0.573104   -3.825687    2.773318
     33          1           0        2.026535   -4.345768    1.903068
     34          1           0        1.553789   -2.642931    1.888956
     35          6           0       -0.099791   -5.421726    0.620714
     36          1           0       -0.717561   -5.645628    1.494086
     37          1           0       -0.657753   -5.688837   -0.280284
     38          1           0        0.785206   -6.059173    0.665662
     39          6           0       -5.318263   -2.681336   -1.086270
     40          1           0       -6.327499   -3.094501   -1.155508
     41          1           0       -5.385280   -1.597440   -1.168956
     42          1           0       -4.736228   -3.061420   -1.929323
     43          6           0       -5.525635   -2.591310    1.438599
     44          1           0       -5.615198   -1.506346    1.416330
     45          1           0       -6.528499   -3.022147    1.386748
     46          1           0       -5.075468   -2.885194    2.389897
     47          6           0       -4.714164   -4.660198    0.305642
     48          1           0       -4.159200   -5.104099   -0.524841
     49          1           0       -4.298834   -5.039954    1.242534
     50          1           0       -5.750160   -4.996818    0.235438
     51          8           0        2.292593    2.425831    0.702111
     52          7           0        2.693045    4.653346    0.587151
     53          1           0        2.374103    5.593269    0.419829
     54          1           0        3.687634    4.487257    0.620327
 ---------------------------------------------------------------------
 Rotational constants (GHZ):           0.2896889           0.1099664           0.0826359
 Leave Link  202 at Tue Feb 12 17:28:55 2019, MaxMem=  1342177280 cpu:               1.0 elap:               0.1
 (Enter /gpfs/apps/hpc/Apps/Restricted/Gaussian/g16/Rev_B.01-AVX/g16/l716.exe)
 Electric field and nuclear coordinate derivatives read from checkpoint file.
 Dipole        =-1.77095428D+00 4.32629205D-01 6.68806647D-01
 Polarizability= 4.45531286D+02 6.50624995D+01 8.81357702D+02
                 1.78865915D+01-1.30629960D+01 1.86833708D+02
 Full mass-weighted force constant matrix:
 Low frequencies ---   -0.0015    0.0005    0.0025    4.1027    9.9919   16.2387
 Low frequencies ---   26.1382   40.3512   51.4855
 Diagonal vibrational polarizability:
       65.8348423     229.7132870     324.0230934
 Harmonic frequencies (cm**-1), IR intensities (KM/Mole), Raman scattering
 activities (A**4/AMU), depolarization ratios for plane and unpolarized
 incident light, reduced masses (AMU), force constants (mDyne/A),
 and normal coordinates:
                      1                      2                      3
                      A                      A                      A
 Frequencies --     25.2343                38.4506                51.1937
 Red. masses --      5.9183                 3.0534                 2.9916
 Frc consts  --      0.0022                 0.0027                 0.0046
 IR Inten    --      2.8572                 1.3253                 1.2758
  Atom  AN      X      Y      Z        X      Y      Z        X      Y      Z
     1   6     0.01  -0.00  -0.03     0.00   0.00   0.01    -0.00  -0.00   0.01
     2   6     0.01  -0.01  -0.12    -0.00   0.00   0.03    -0.00  -0.00   0.01
     3   6     0.01  -0.01  -0.15    -0.01   0.00   0.07     0.00  -0.00  -0.02
     4   6     0.01  -0.00  -0.10    -0.01   0.01   0.10     0.00  -0.00  -0.05
     5   6    -0.00   0.00  -0.01    -0.01   0.01   0.08     0.00  -0.00  -0.04
     6   6    -0.00   0.01   0.03    -0.00   0.00   0.03    -0.00  -0.00  -0.01
     7   6     0.01  -0.00  -0.08     0.00   0.00  -0.02    -0.00   0.00   0.04
     8   1     0.02  -0.01  -0.22    -0.01   0.00   0.09     0.00  -0.00  -0.03
     9   1     0.01  -0.01  -0.13    -0.01   0.01   0.13     0.00  -0.00  -0.07
    10   1    -0.01   0.00   0.04    -0.01   0.01   0.09     0.00  -0.00  -0.06
    11   7     0.02  -0.01  -0.15     0.00   0.00   0.00    -0.00  -0.00   0.03
    12   6     0.01  -0.00  -0.05     0.00   0.00  -0.03    -0.00  -0.00   0.04
    13   6     0.01  -0.00  -0.07     0.00   0.00  -0.03    -0.00   0.00   0.04
    14   6     0.01  -0.01  -0.07     0.00   0.00  -0.02    -0.00   0.00   0.03
    15   6     0.00  -0.01  -0.05     0.00   0.00   0.00    -0.00  -0.00   0.03
    16   6    -0.00  -0.00   0.00    -0.00   0.00   0.03    -0.00  -0.00   0.02
    17   6    -0.00   0.00   0.02    -0.00   0.00   0.01     0.00  -0.00   0.01
    18   1     0.01  -0.01  -0.10     0.00   0.00  -0.03    -0.00   0.00   0.02
    19   1    -0.01  -0.00   0.04    -0.00   0.00   0.06     0.00  -0.00   0.01
    20   6    -0.00  -0.01  -0.08    -0.00  -0.00  -0.00    -0.00  -0.00   0.01
    21   6    -0.01   0.00   0.11    -0.00  -0.00   0.01     0.00   0.00  -0.04
    22   8     0.01  -0.00  -0.09     0.01   0.00  -0.07    -0.00   0.00   0.06
    23   1     0.02  -0.00  -0.13     0.01   0.00  -0.05    -0.00  -0.00   0.05
    24   7     0.01   0.00  -0.01     0.00   0.00  -0.02    -0.00   0.00   0.03
    25   1    -0.00   0.00   0.08     0.01   0.00  -0.05    -0.00   0.00   0.05
    26   6    -0.01   0.02   0.17     0.00   0.00  -0.02    -0.00   0.00   0.02
    27   6    -0.04  -0.03  -0.11    -0.05  -0.05  -0.05    -0.14  -0.11  -0.12
    28   1    -0.03  -0.03  -0.13    -0.05  -0.05  -0.10    -0.16  -0.11  -0.25
    29   1    -0.04  -0.03  -0.13    -0.04  -0.04  -0.05    -0.13  -0.10  -0.15
    30   1    -0.06  -0.03  -0.09    -0.08  -0.08  -0.02    -0.24  -0.20  -0.04
    31   6     0.04  -0.00  -0.11     0.05   0.04  -0.05     0.16   0.10  -0.12
    32   1     0.07   0.01  -0.09     0.09   0.07  -0.02     0.27   0.20  -0.03
    33   1     0.04  -0.01  -0.13     0.05   0.03  -0.06     0.15   0.08  -0.16
    34   1     0.05  -0.00  -0.13     0.06   0.03  -0.10     0.19   0.09  -0.26
    35   6    -0.01  -0.01  -0.05    -0.01  -0.00   0.06    -0.01   0.00   0.18
    36   1     0.02  -0.00  -0.03     0.02   0.03   0.09     0.07   0.09   0.25
    37   1    -0.04  -0.01  -0.03    -0.04  -0.03   0.09    -0.08  -0.08   0.24
    38   1    -0.01  -0.01  -0.08    -0.01  -0.00   0.05    -0.00   0.00   0.16
    39   6    -0.08  -0.07   0.12     0.09  -0.16  -0.09     0.03   0.06  -0.04
    40   1    -0.07  -0.09   0.18     0.09  -0.15  -0.10     0.03   0.07  -0.07
    41   1    -0.10  -0.07   0.07     0.12  -0.17  -0.22     0.05   0.06  -0.00
    42   1    -0.11  -0.09   0.11     0.14  -0.27  -0.00     0.05   0.08  -0.04
    43   6     0.05   0.07   0.12    -0.09   0.14  -0.12    -0.02  -0.04  -0.04
    44   1     0.08   0.07   0.10    -0.10   0.13  -0.26    -0.03  -0.04  -0.01
    45   1     0.03   0.09   0.17    -0.08   0.12  -0.15    -0.02  -0.05  -0.07
    46   1     0.08   0.08   0.11    -0.16   0.26  -0.05    -0.03  -0.06  -0.04
    47   6    -0.01   0.01   0.19    -0.01   0.00   0.20    -0.00   0.00  -0.11
    48   1    -0.07  -0.04   0.18     0.01  -0.11   0.27     0.04   0.03  -0.10
    49   1     0.05   0.06   0.19    -0.04   0.13   0.26    -0.05  -0.04  -0.10
    50   1    -0.02   0.00   0.28    -0.01  -0.00   0.21     0.00   0.01  -0.17
    51   8    -0.02   0.03   0.32     0.01  -0.00  -0.10    -0.01   0.01   0.08
    52   7    -0.02   0.02   0.16    -0.00   0.00   0.02    -0.00  -0.00  -0.03
    53   1     0.00  -0.01  -0.04    -0.01   0.02   0.12     0.00  -0.01  -0.09
    54   1    -0.02   0.02   0.22     0.00   0.01   0.01    -0.00  -0.00  -0.01
                      4                      5                      6
                      A                      A                      A
 Frequencies --     53.0161                66.0242                85.0159
 Red. masses --      3.9819                 5.0248                 6.0745
 Frc consts  --      0.0066                 0.0129                 0.0259
 IR Inten    --      3.5568                 1.0884                 3.5502
  Atom  AN      X      Y      Z        X      Y      Z        X      Y      Z
     1   6     0.01   0.00  -0.04     0.02   0.01   0.00     0.00  -0.00  -0.07
     2   6     0.00  -0.00  -0.02     0.02  -0.04   0.01     0.01  -0.01  -0.09
     3   6    -0.01  -0.01   0.06    -0.04  -0.07   0.00     0.01  -0.01  -0.14
     4   6    -0.02   0.00   0.13    -0.10  -0.03  -0.01     0.00  -0.01  -0.12
     5   6    -0.02   0.01   0.12    -0.10   0.03  -0.01    -0.00  -0.00  -0.05
     6   6    -0.01   0.01   0.03    -0.03   0.06  -0.01    -0.00   0.00  -0.04
     7   6     0.02  -0.01  -0.11     0.09  -0.03   0.02     0.00  -0.00  -0.00
     8   1    -0.01  -0.01   0.07    -0.05  -0.13   0.01     0.01  -0.01  -0.17
     9   1    -0.04   0.00   0.20    -0.15  -0.05  -0.01     0.00  -0.01  -0.15
    10   1    -0.03   0.02   0.18    -0.14   0.06  -0.02    -0.01   0.01  -0.02
    11   7     0.01  -0.01  -0.07     0.07  -0.06   0.02     0.01  -0.01  -0.04
    12   6     0.01  -0.00  -0.09     0.06  -0.00   0.02    -0.00   0.00   0.11
    13   6     0.02  -0.01  -0.11     0.08  -0.04   0.02     0.00  -0.00   0.06
    14   6     0.01  -0.01  -0.08     0.05  -0.07   0.02     0.00  -0.00   0.04
    15   6     0.00  -0.01  -0.02     0.00  -0.07   0.01    -0.00  -0.00   0.05
    16   6    -0.00  -0.00  -0.02    -0.01  -0.03   0.01    -0.00  -0.00   0.08
    17   6     0.01  -0.00  -0.05     0.02   0.01   0.02    -0.00   0.00   0.09
    18   1     0.01  -0.01  -0.08     0.06  -0.10   0.02     0.00  -0.01   0.00
    19   1    -0.01  -0.00   0.02    -0.04  -0.02   0.00    -0.01  -0.00   0.06
    20   6    -0.01  -0.02   0.06    -0.04  -0.13  -0.00     0.00  -0.01  -0.03
    21   6    -0.00   0.01   0.01     0.00   0.06  -0.01     0.00   0.01   0.03
    22   8     0.02  -0.00  -0.09     0.08   0.01   0.03    -0.01   0.00   0.15
    23   1     0.02   0.00  -0.08     0.12   0.03   0.03     0.00   0.00   0.09
    24   7     0.02  -0.00  -0.10     0.07   0.01   0.01     0.00   0.00  -0.03
    25   1     0.02  -0.00  -0.13     0.08   0.03   0.01     0.01   0.00  -0.04
    26   6    -0.00   0.02  -0.00    -0.02   0.15  -0.01    -0.01   0.00   0.02
    27   6    -0.01  -0.13   0.04    -0.02  -0.15   0.01    -0.04   0.04  -0.04
    28   1    -0.02  -0.13  -0.06     0.02  -0.16   0.02    -0.02   0.04  -0.00
    29   1    -0.00  -0.12   0.10    -0.05  -0.19   0.00    -0.05   0.03  -0.10
    30   1    -0.01  -0.22   0.06    -0.03  -0.11  -0.00    -0.07   0.10  -0.04
    31   6    -0.00   0.07   0.04    -0.04  -0.20   0.01     0.04  -0.05  -0.04
    32   1    -0.00   0.16   0.05    -0.05  -0.20  -0.00     0.07  -0.10  -0.03
    33   1    -0.01   0.06   0.09    -0.06  -0.22  -0.00     0.05  -0.04  -0.10
    34   1     0.02   0.07  -0.05    -0.01  -0.21   0.04     0.02  -0.05  -0.01
    35   6    -0.02  -0.01   0.18    -0.11  -0.11  -0.04     0.00  -0.01  -0.07
    36   1    -0.03   0.06   0.19    -0.13  -0.10  -0.05     0.03  -0.04  -0.06
    37   1    -0.02  -0.08   0.19    -0.11  -0.07  -0.05    -0.03   0.03  -0.06
    38   1    -0.03  -0.02   0.23    -0.14  -0.15  -0.04     0.01  -0.01  -0.13
    39   6    -0.11   0.07   0.08     0.05   0.09  -0.02     0.08   0.05   0.00
    40   1    -0.10   0.05   0.13     0.03   0.14  -0.04     0.07   0.07  -0.06
    41   1    -0.14   0.07   0.14     0.10   0.10  -0.02     0.10   0.05   0.02
    42   1    -0.16   0.13   0.01     0.05   0.07  -0.01     0.11   0.06   0.02
    43   6     0.10  -0.04   0.11    -0.00   0.09  -0.03    -0.06  -0.02  -0.01
    44   1     0.14  -0.03   0.18     0.02   0.10  -0.03    -0.08  -0.02   0.00
    45   1     0.08  -0.00   0.16    -0.01   0.12  -0.04    -0.06  -0.03  -0.07
    46   1     0.17  -0.12   0.05    -0.03   0.09  -0.01    -0.11  -0.03   0.01
    47   6    -0.00   0.01  -0.07    -0.06   0.07  -0.01    -0.01   0.00  -0.02
    48   1    -0.03   0.05  -0.11    -0.06   0.04   0.00     0.03   0.03  -0.01
    49   1     0.03  -0.04  -0.10    -0.09   0.05  -0.00    -0.06  -0.03  -0.01
    50   1    -0.01   0.02  -0.04    -0.07   0.10  -0.03    -0.01   0.01  -0.08
    51   8     0.02   0.01  -0.14     0.05   0.18   0.02     0.01  -0.01  -0.26
    52   7    -0.02   0.03   0.11    -0.08   0.20  -0.06    -0.03   0.03   0.42
    53   1    -0.03   0.05   0.24    -0.13   0.17  -0.08    -0.01   0.04   0.48
    54   1    -0.02   0.04   0.09    -0.07   0.25  -0.06    -0.03   0.02   0.36
                      7                      8                      9
                      A                      A                      A
 Frequencies --    105.4844               121.5609               130.9699
 Red. masses --      5.6675                 3.8274                 3.8673
 Frc consts  --      0.0372                 0.0333                 0.0391
 IR Inten    --      1.7116                 1.5350                 1.2072
  Atom  AN      X      Y      Z        X      Y      Z        X      Y      Z
     1   6     0.01  -0.01  -0.13    -0.00  -0.02  -0.04    -0.03  -0.03   0.04
     2   6     0.01  -0.00  -0.07     0.00  -0.02  -0.07    -0.03  -0.05   0.03
     3   6     0.00   0.00   0.05    -0.01  -0.02  -0.00    -0.04  -0.06  -0.00
     4   6    -0.00   0.00   0.12    -0.02  -0.02   0.10    -0.04  -0.06  -0.05
     5   6     0.00  -0.00   0.08    -0.02  -0.01   0.11    -0.04  -0.04  -0.04
     6   6     0.01  -0.01  -0.04    -0.01  -0.02   0.02    -0.04  -0.04   0.01
     7   6     0.01  -0.01  -0.16     0.01  -0.02  -0.08     0.01  -0.04   0.03
     8   1    -0.00   0.01   0.10    -0.01  -0.03  -0.01    -0.04  -0.07  -0.01
     9   1    -0.01   0.01   0.22    -0.03  -0.01   0.18    -0.05  -0.06  -0.09
    10   1     0.00  -0.00   0.16    -0.02  -0.01   0.17    -0.05  -0.04  -0.08
    11   7     0.00  -0.00  -0.10     0.01  -0.02  -0.11    -0.01  -0.06   0.04
    12   6    -0.02  -0.00   0.11     0.01  -0.01  -0.03     0.03  -0.02  -0.00
    13   6     0.00  -0.01  -0.10     0.00  -0.02   0.01     0.02  -0.04  -0.01
    14   6     0.01  -0.01  -0.18    -0.01  -0.01   0.11     0.02  -0.04  -0.06
    15   6    -0.00  -0.00  -0.05    -0.01  -0.01   0.16     0.02  -0.04  -0.07
    16   6    -0.01  -0.01   0.06    -0.01  -0.02   0.19     0.01  -0.05  -0.06
    17   6    -0.01  -0.00   0.10    -0.00  -0.01   0.07     0.02  -0.02  -0.02
    18   1     0.01  -0.01  -0.31    -0.01  -0.01   0.12     0.02  -0.04  -0.07
    19   1    -0.01  -0.01   0.09    -0.02  -0.02   0.27    -0.00  -0.05  -0.07
    20   6     0.01   0.01  -0.01     0.02   0.02   0.04     0.07   0.02  -0.02
    21   6    -0.01  -0.00   0.03    -0.01   0.03   0.01    -0.03   0.10   0.01
    22   8    -0.03   0.00   0.29     0.02  -0.02  -0.14     0.04  -0.02   0.01
    23   1    -0.02  -0.00   0.18     0.02  -0.01  -0.15     0.05  -0.00   0.02
    24   7     0.01  -0.02  -0.21     0.00  -0.02  -0.06    -0.01  -0.03   0.05
    25   1     0.01  -0.02  -0.18     0.00  -0.01  -0.02     0.00  -0.01   0.03
    26   6     0.00  -0.00   0.03    -0.01  -0.02  -0.01    -0.04  -0.05   0.00
    27   6     0.08  -0.02   0.04    -0.08   0.16  -0.01     0.11   0.03   0.01
    28   1     0.07  -0.01   0.02    -0.05   0.15   0.09     0.04   0.06  -0.02
    29   1     0.08  -0.00   0.11    -0.10   0.12  -0.17     0.16   0.10   0.08
    30   1     0.13  -0.06   0.01    -0.16   0.30   0.01     0.17  -0.04  -0.01
    31   6    -0.07   0.06   0.03     0.12  -0.06  -0.01     0.02   0.12  -0.00
    32   1    -0.12   0.08   0.00     0.21  -0.20   0.03    -0.01   0.17  -0.01
    33   1    -0.06   0.08   0.10     0.17  -0.00  -0.16     0.03   0.13   0.07
    34   1    -0.09   0.07   0.02     0.05  -0.03   0.06     0.01   0.12  -0.05
    35   6     0.02   0.01   0.01     0.07   0.01  -0.06     0.16   0.00   0.03
    36   1     0.01   0.01   0.01     0.16  -0.10  -0.02     0.17  -0.00   0.04
    37   1     0.04  -0.01   0.01    -0.01   0.07  -0.03     0.16  -0.04   0.04
    38   1     0.03   0.01   0.03     0.09   0.03  -0.20     0.19   0.05   0.03
    39   6     0.13   0.04  -0.03     0.03   0.10   0.01     0.01   0.16   0.00
    40   1     0.12   0.09  -0.12     0.03   0.10  -0.03    -0.03   0.27   0.01
    41   1     0.19   0.05  -0.02     0.03   0.10   0.06     0.14   0.17  -0.00
    42   1     0.19   0.03   0.02     0.05   0.14   0.01    -0.03   0.09   0.00
    43   6    -0.13  -0.03  -0.05    -0.02   0.02   0.01     0.02   0.19   0.00
    44   1    -0.17  -0.04  -0.06     0.04   0.03   0.06     0.07   0.19  -0.02
    45   1    -0.11  -0.07  -0.14    -0.05   0.08  -0.05    -0.00   0.24   0.02
    46   1    -0.21  -0.02  -0.01    -0.07  -0.06   0.01     0.01   0.19   0.01
    47   6    -0.02  -0.00  -0.02    -0.06   0.03  -0.06    -0.17   0.11   0.03
    48   1     0.05   0.02   0.01    -0.01   0.06  -0.04    -0.17   0.05   0.06
    49   1    -0.10  -0.03   0.00    -0.15  -0.04  -0.05    -0.24   0.09   0.05
    50   1    -0.01   0.00  -0.12    -0.06   0.06  -0.16    -0.19   0.20  -0.00
    51   8    -0.01   0.01   0.16    -0.01  -0.02   0.02    -0.06  -0.06  -0.01
    52   7     0.00  -0.01  -0.05    -0.01  -0.02  -0.09    -0.03  -0.07   0.02
    53   1     0.01  -0.02  -0.14    -0.02  -0.02  -0.02    -0.02  -0.06   0.03
    54   1     0.00  -0.00   0.02    -0.01  -0.01  -0.06    -0.03  -0.08   0.01
                     10                     11                     12
                      A                      A                      A
 Frequencies --    147.0933               156.3037               182.2248
 Red. masses --      5.5076                 5.7726                 3.4878
 Frc consts  --      0.0702                 0.0831                 0.0682
 IR Inten    --     19.8877                 9.7385                 1.6392
  Atom  AN      X      Y      Z        X      Y      Z        X      Y      Z
     1   6     0.09  -0.06  -0.01     0.00   0.00   0.19    -0.00   0.01   0.08
     2   6     0.08  -0.05   0.03     0.03  -0.01  -0.09    -0.01   0.01   0.11
     3   6     0.06  -0.06   0.04     0.04  -0.01  -0.22    -0.00   0.01   0.06
     4   6     0.04  -0.05  -0.01     0.01  -0.00  -0.02     0.01   0.01  -0.07
     5   6     0.04  -0.05  -0.04    -0.01   0.01   0.20     0.02   0.00  -0.10
     6   6     0.07  -0.03  -0.03    -0.00   0.01   0.25     0.01   0.01   0.00
     7   6     0.02  -0.05   0.02     0.00  -0.00  -0.00    -0.01   0.01   0.01
     8   1     0.05  -0.09   0.07     0.06  -0.03  -0.46    -0.00   0.02   0.08
     9   1     0.03  -0.06  -0.01     0.01  -0.01  -0.09     0.02   0.00  -0.15
    10   1     0.01  -0.03  -0.04    -0.02   0.01   0.24     0.02  -0.00  -0.20
    11   7     0.05  -0.03   0.06     0.03  -0.01  -0.21    -0.01   0.01   0.08
    12   6    -0.06  -0.04  -0.01    -0.02  -0.00   0.03    -0.00  -0.00  -0.05
    13   6    -0.06  -0.04   0.01    -0.01  -0.00  -0.03     0.00   0.00  -0.09
    14   6    -0.08  -0.05   0.01    -0.01  -0.01  -0.08     0.01  -0.00  -0.18
    15   6    -0.07  -0.04  -0.01    -0.01  -0.01  -0.05     0.00  -0.00  -0.03
    16   6    -0.07  -0.06  -0.03    -0.01  -0.01   0.00    -0.02   0.00   0.21
    17   6    -0.08  -0.05  -0.03    -0.02  -0.01   0.04    -0.01  -0.00   0.12
    18   1    -0.08  -0.06   0.02    -0.00  -0.01  -0.13     0.02  -0.01  -0.30
    19   1    -0.06  -0.06  -0.04    -0.01  -0.01   0.01    -0.03   0.00   0.39
    20   6    -0.00   0.06   0.00    -0.00   0.01  -0.03    -0.00  -0.01  -0.04
    21   6    -0.09  -0.05  -0.02    -0.02  -0.02   0.02    -0.00  -0.01   0.06
    22   8    -0.05  -0.02  -0.02    -0.02  -0.00   0.08     0.01  -0.01  -0.16
    23   1    -0.05  -0.05   0.01    -0.01  -0.01  -0.04    -0.01  -0.01  -0.11
    24   7     0.06  -0.08  -0.02    -0.01   0.00   0.26    -0.01   0.01   0.05
    25   1     0.03  -0.14  -0.03    -0.02  -0.01   0.32    -0.00   0.00  -0.00
    26   6     0.09   0.11  -0.01     0.02   0.02   0.02     0.01   0.01   0.00
    27   6    -0.02   0.15   0.00     0.03  -0.02  -0.01     0.04  -0.04  -0.01
    28   1    -0.09   0.17   0.02    -0.00  -0.01  -0.05     0.02  -0.04  -0.06
    29   1     0.02   0.21  -0.02     0.05   0.01   0.05     0.05  -0.02   0.06
    30   1    -0.01   0.13  -0.00     0.07  -0.08  -0.02     0.08  -0.11  -0.02
    31   6    -0.02   0.15  -0.00    -0.04   0.06  -0.01    -0.05   0.02  -0.01
    32   1    -0.01   0.15   0.00    -0.08   0.11  -0.03    -0.09   0.07  -0.03
    33   1     0.02   0.20   0.02    -0.06   0.05   0.05    -0.06   0.02   0.05
    34   1    -0.07   0.17  -0.03    -0.03   0.05  -0.05    -0.04   0.02  -0.04
    35   6     0.13   0.02   0.02     0.01   0.00  -0.00    -0.01  -0.00  -0.03
    36   1     0.18  -0.02   0.04     0.01   0.02   0.00     0.05  -0.02   0.01
    37   1     0.12  -0.02   0.04     0.01  -0.02   0.00    -0.08   0.02   0.01
    38   1     0.19   0.10  -0.01     0.02   0.01   0.01    -0.01  -0.01  -0.10
    39   6    -0.13  -0.06  -0.00     0.02  -0.00   0.01     0.09   0.04   0.04
    40   1    -0.13  -0.06   0.04     0.02  -0.01  -0.02     0.15  -0.08  -0.11
    41   1    -0.13  -0.06  -0.02     0.01  -0.00   0.03    -0.04   0.04   0.14
    42   1    -0.16  -0.08  -0.02     0.04   0.02   0.02     0.22   0.19   0.06
    43   6    -0.09  -0.04  -0.01    -0.06  -0.04   0.00    -0.09  -0.07   0.02
    44   1    -0.09  -0.04  -0.02    -0.06  -0.04   0.02     0.04  -0.06   0.15
    45   1    -0.09  -0.04  -0.01    -0.05  -0.04  -0.04    -0.13   0.06  -0.17
    46   1    -0.09  -0.03  -0.01    -0.09  -0.06   0.02    -0.25  -0.24   0.04
    47   6    -0.11  -0.05  -0.01    -0.01  -0.02  -0.00     0.01  -0.02  -0.04
    48   1    -0.10  -0.06   0.00     0.00  -0.00  -0.00     0.07   0.05  -0.03
    49   1    -0.12  -0.05  -0.00    -0.02  -0.03  -0.00    -0.06  -0.09  -0.03
    50   1    -0.11  -0.04  -0.02    -0.00  -0.02  -0.02     0.02  -0.02  -0.14
    51   8     0.21   0.16   0.01     0.06   0.02  -0.13     0.01   0.01  -0.01
    52   7    -0.01   0.20   0.04     0.01   0.03  -0.17     0.01   0.01   0.03
    53   1    -0.07   0.16  -0.09    -0.05   0.07   0.20     0.01   0.00  -0.03
    54   1     0.01   0.28   0.01     0.02   0.06  -0.23     0.01   0.00  -0.01
                     13                     14                     15
                      A                      A                      A
 Frequencies --    222.1242               235.4884               243.4274
 Red. masses --      1.6680                 1.8951                 1.8364
 Frc consts  --      0.0485                 0.0619                 0.0641
 IR Inten    --      1.1130                14.8846                 6.2813
  Atom  AN      X      Y      Z        X      Y      Z        X      Y      Z
     1   6     0.01  -0.01  -0.06     0.01  -0.04   0.03     0.01  -0.04  -0.01
     2   6     0.01  -0.01  -0.06     0.01  -0.05   0.03     0.01  -0.05  -0.00
     3   6    -0.00  -0.01  -0.02    -0.02  -0.08   0.01    -0.02  -0.07  -0.00
     4   6    -0.01  -0.01   0.04    -0.04  -0.07  -0.03    -0.04  -0.06   0.00
     5   6    -0.01  -0.01   0.03    -0.04  -0.04  -0.02    -0.03  -0.04   0.00
     6   6     0.00  -0.01  -0.03    -0.01  -0.03   0.02    -0.00  -0.03  -0.00
     7   6    -0.00  -0.01   0.04     0.05  -0.03  -0.02     0.03  -0.03   0.01
     8   1    -0.00  -0.02  -0.00    -0.03  -0.11   0.00    -0.02  -0.10   0.00
     9   1    -0.01  -0.01   0.10    -0.06  -0.08  -0.06    -0.05  -0.07   0.01
    10   1    -0.01  -0.01   0.09    -0.06  -0.03  -0.04    -0.05  -0.03   0.01
    11   7     0.00  -0.01  -0.00     0.04  -0.05   0.01     0.03  -0.04   0.01
    12   6    -0.01   0.01   0.04     0.00   0.04  -0.01    -0.00   0.03   0.00
    13   6    -0.01   0.00   0.09     0.02  -0.00  -0.05     0.01   0.00   0.01
    14   6    -0.01   0.00   0.10     0.02   0.01  -0.05     0.01   0.02   0.01
    15   6     0.00   0.01  -0.03    -0.00   0.03  -0.00    -0.01   0.03   0.01
    16   6     0.00   0.01  -0.06    -0.01   0.05  -0.03    -0.01   0.04   0.06
    17   6    -0.00   0.01   0.04    -0.00   0.05  -0.02     0.00   0.04   0.01
    18   1    -0.01   0.01   0.14     0.02   0.01  -0.06     0.01   0.01  -0.01
    19   1     0.01   0.01  -0.15    -0.01   0.05  -0.03    -0.01   0.04   0.11
    20   6     0.00   0.01  -0.03    -0.02   0.03   0.02    -0.03   0.04  -0.02
    21   6    -0.00   0.01   0.03     0.01   0.03  -0.00     0.03   0.01  -0.01
    22   8     0.00   0.00  -0.06     0.01   0.05   0.04     0.01   0.04  -0.02
    23   1     0.01   0.00  -0.05     0.06   0.06   0.03     0.04   0.04  -0.01
    24   7     0.00  -0.01  -0.02     0.04  -0.03   0.00     0.03  -0.03   0.00
    25   1     0.00  -0.01   0.02     0.05  -0.02  -0.02     0.03  -0.02   0.00
    26   6     0.00  -0.01  -0.01    -0.01  -0.02   0.01    -0.00  -0.02   0.00
    27   6     0.04  -0.03  -0.02    -0.05   0.06   0.01    -0.05   0.04  -0.02
    28   1    -0.10   0.01  -0.12     0.13   0.00   0.15    -0.15   0.07  -0.10
    29   1     0.12   0.09   0.11    -0.17  -0.10  -0.16     0.03   0.13   0.03
    30   1     0.11  -0.22  -0.02    -0.14   0.32   0.01    -0.02  -0.09  -0.01
    31   6    -0.04   0.04  -0.02     0.01   0.03   0.01    -0.08   0.07   0.00
    32   1    -0.13   0.27  -0.04     0.08  -0.16   0.03    -0.21   0.38  -0.03
    33   1    -0.15  -0.10   0.14     0.11   0.16  -0.11    -0.24  -0.12   0.21
    34   1     0.13  -0.02  -0.13    -0.14   0.08   0.10     0.14  -0.01  -0.16
    35   6    -0.00   0.01  -0.02    -0.04   0.04   0.03    -0.06   0.05  -0.03
    36   1    -0.00   0.02  -0.02    -0.14   0.09  -0.03     0.01   0.03   0.01
    37   1    -0.00  -0.00  -0.02     0.03   0.03  -0.02    -0.14   0.09   0.00
    38   1    -0.00   0.01  -0.01    -0.07   0.02   0.14    -0.07   0.03  -0.13
    39   6     0.04   0.03   0.02    -0.02   0.00  -0.00     0.03  -0.00  -0.01
    40   1     0.15  -0.22  -0.15     0.10  -0.26  -0.11    -0.05   0.18   0.08
    41   1    -0.23   0.02   0.16    -0.31  -0.00   0.12     0.24   0.00  -0.11
    42   1     0.23   0.28   0.03     0.13   0.25  -0.01    -0.08  -0.19   0.00
    43   6    -0.05  -0.01   0.01    -0.02   0.01  -0.02     0.06   0.01   0.01
    44   1     0.12   0.00   0.15     0.05   0.02   0.04    -0.12  -0.01  -0.12
    45   1    -0.11   0.15  -0.18    -0.05   0.08  -0.11     0.13  -0.17   0.19
    46   1    -0.21  -0.21   0.02    -0.10  -0.07  -0.01     0.22   0.20  -0.00
    47   6     0.02   0.01   0.02     0.09   0.03   0.02     0.08   0.01  -0.02
    48   1    -0.10   0.02  -0.07    -0.03   0.05  -0.07     0.18   0.04   0.04
    49   1     0.17   0.01  -0.05     0.28   0.07  -0.05    -0.02   0.01   0.02
    50   1     0.01  -0.01   0.18     0.10  -0.03   0.21     0.10  -0.02  -0.14
    51   8     0.00  -0.00   0.01    -0.00  -0.02  -0.00     0.01  -0.02   0.00
    52   7    -0.01  -0.00  -0.00    -0.02  -0.02  -0.01    -0.02  -0.01  -0.00
    53   1    -0.01  -0.00  -0.01    -0.03  -0.01   0.06    -0.04  -0.01   0.03
    54   1    -0.01   0.01   0.02    -0.01  -0.00   0.01    -0.02   0.01   0.02
                     16                     17                     18
                      A                      A                      A
 Frequencies --    251.2715               261.2619               271.4809
 Red. masses --      2.6457                 2.8201                 1.5339
 Frc consts  --      0.0984                 0.1134                 0.0666
 IR Inten    --     11.6023                51.4861                18.4368
  Atom  AN      X      Y      Z        X      Y      Z        X      Y      Z
     1   6    -0.02  -0.04  -0.00    -0.00  -0.05  -0.02     0.02   0.01  -0.04
     2   6    -0.02  -0.01  -0.01    -0.01  -0.03  -0.02     0.02  -0.01  -0.02
     3   6     0.01   0.01  -0.00    -0.01  -0.03  -0.01    -0.00  -0.02  -0.02
     4   6     0.04  -0.02   0.01     0.00  -0.04   0.02    -0.02  -0.00   0.01
     5   6     0.03  -0.05   0.01     0.00  -0.06   0.02    -0.02   0.02   0.02
     6   6     0.01  -0.06  -0.00     0.01  -0.06  -0.01    -0.00   0.03  -0.02
     7   6    -0.08  -0.00   0.00    -0.05  -0.01   0.02     0.04  -0.00   0.04
     8   1     0.01   0.03  -0.00    -0.01  -0.02  -0.01    -0.00  -0.04  -0.02
     9   1     0.06  -0.00   0.03     0.02  -0.04   0.04    -0.04  -0.01   0.03
    10   1     0.04  -0.06   0.02    -0.01  -0.06   0.04    -0.03   0.03   0.05
    11   7    -0.06   0.01  -0.01    -0.04  -0.00   0.00     0.03  -0.01   0.03
    12   6    -0.03  -0.02  -0.00    -0.03   0.02   0.01     0.01   0.01   0.02
    13   6    -0.05   0.00   0.00    -0.03   0.01   0.03     0.02   0.00   0.05
    14   6    -0.03   0.03  -0.00     0.02   0.05   0.01     0.01  -0.00   0.01
    15   6     0.00   0.03  -0.03     0.06   0.06  -0.00     0.00   0.01  -0.03
    16   6     0.02  -0.01  -0.06     0.03   0.07   0.03    -0.00   0.01  -0.03
    17   6     0.02  -0.02   0.01    -0.01   0.03   0.02    -0.01   0.00   0.03
    18   1    -0.04   0.04   0.01     0.01   0.08  -0.00     0.01  -0.00   0.00
    19   1     0.03  -0.01  -0.10     0.04   0.07   0.05     0.00   0.01  -0.07
    20   6    -0.02   0.02  -0.00     0.06   0.02  -0.01    -0.00   0.01  -0.02
    21   6     0.05   0.00   0.02    -0.02   0.03   0.01    -0.01  -0.02   0.03
    22   8    -0.06  -0.06  -0.03    -0.06  -0.00  -0.03     0.03   0.02  -0.06
    23   1    -0.11  -0.07  -0.03    -0.09  -0.02  -0.03     0.06   0.02  -0.04
    24   7    -0.06  -0.04   0.01    -0.03  -0.04   0.01     0.04   0.01  -0.01
    25   1    -0.08  -0.09   0.01    -0.04  -0.06   0.02     0.04   0.03   0.01
    26   6     0.02  -0.01  -0.01     0.02  -0.02  -0.01    -0.01   0.01   0.00
    27   6    -0.03   0.00  -0.01     0.17  -0.08   0.04     0.02  -0.00  -0.01
    28   1     0.12  -0.05   0.08     0.23  -0.10   0.04     0.17  -0.06   0.09
    29   1    -0.13  -0.14  -0.11     0.13  -0.13   0.17    -0.09  -0.15  -0.09
    30   1    -0.10   0.19  -0.01     0.26  -0.10  -0.00    -0.02   0.18  -0.02
    31   6    -0.03   0.01   0.00     0.13  -0.05  -0.04    -0.02   0.04  -0.01
    32   1     0.01  -0.15  -0.00     0.21  -0.11  -0.00     0.01  -0.06  -0.02
    33   1     0.06   0.12  -0.08     0.15  -0.03  -0.16     0.05   0.13  -0.05
    34   1    -0.15   0.06   0.09     0.12  -0.04  -0.02    -0.12   0.08   0.04
    35   6    -0.08   0.04   0.02    -0.08   0.06  -0.02    -0.02   0.02   0.01
    36   1    -0.23   0.12  -0.07    -0.20   0.15  -0.08    -0.16   0.10  -0.07
    37   1     0.05   0.02  -0.05    -0.01   0.10  -0.07     0.11  -0.02  -0.06
    38   1    -0.12   0.00   0.20    -0.15  -0.03   0.10    -0.04   0.00   0.19
    39   6     0.20   0.06  -0.03    -0.10   0.03   0.04    -0.00  -0.01   0.03
    40   1     0.15   0.20  -0.13    -0.11   0.05   0.13    -0.15   0.32   0.19
    41   1     0.37   0.07  -0.05    -0.09   0.03   0.03     0.36   0.00  -0.12
    42   1     0.24  -0.03   0.04    -0.18   0.01  -0.01    -0.20  -0.31   0.03
    43   6     0.12   0.01   0.06    -0.09   0.02  -0.03    -0.07  -0.06   0.01
    44   1     0.21   0.02   0.16    -0.28   0.01  -0.19     0.07  -0.05   0.13
    45   1     0.08   0.11   0.07    -0.02  -0.16   0.03    -0.12   0.07  -0.17
    46   1     0.13  -0.10   0.02    -0.04   0.23   0.00    -0.21  -0.23   0.02
    47   6    -0.03   0.01   0.03     0.03   0.03  -0.02    -0.01  -0.03  -0.00
    48   1    -0.08  -0.03   0.02     0.16   0.08   0.04     0.05  -0.01   0.03
    49   1    -0.01  -0.00   0.02    -0.06   0.04   0.02    -0.09  -0.04   0.02
    50   1    -0.04   0.05   0.08     0.06  -0.02  -0.16    -0.01  -0.02  -0.09
    51   8     0.10   0.02   0.00     0.08   0.00   0.00    -0.04  -0.01   0.00
    52   7    -0.04   0.05   0.01    -0.04   0.03   0.01     0.03  -0.02  -0.02
    53   1    -0.08   0.01  -0.16    -0.08  -0.01  -0.11     0.04   0.01   0.17
    54   1    -0.03   0.10  -0.07    -0.03   0.08  -0.04     0.02  -0.04   0.10
                     19                     20                     21
                      A                      A                      A
 Frequencies --    276.8734               279.8075               289.8303
 Red. masses --      2.7656                 1.3954                 1.1427
 Frc consts  --      0.1249                 0.0644                 0.0566
 IR Inten    --     60.1022                10.0895                 0.6973
  Atom  AN      X      Y      Z        X      Y      Z        X      Y      Z
     1   6     0.00  -0.00  -0.02     0.01   0.01  -0.05    -0.00   0.01   0.00
     2   6    -0.01   0.01   0.07     0.01   0.00  -0.04    -0.00   0.01   0.00
     3   6     0.01  -0.00  -0.11     0.01   0.00  -0.03     0.00   0.01   0.00
     4   6     0.01  -0.01  -0.12    -0.00   0.01   0.03     0.00   0.01   0.00
     5   6    -0.01  -0.00   0.11    -0.00   0.02   0.03     0.00   0.01  -0.00
     6   6    -0.00  -0.00   0.11     0.00   0.01  -0.03     0.00   0.01   0.00
     7   6    -0.02   0.00   0.00     0.01   0.00   0.06     0.00   0.00  -0.00
     8   1     0.02  -0.00  -0.23     0.01   0.00  -0.02     0.00   0.02   0.00
     9   1     0.03  -0.01  -0.27    -0.01   0.01   0.07     0.00   0.01  -0.00
    10   1    -0.03   0.01   0.21    -0.00   0.02   0.07     0.01   0.01  -0.01
    11   7    -0.03   0.02   0.18     0.01  -0.00   0.03    -0.00   0.00  -0.00
    12   6    -0.01  -0.01  -0.01     0.00  -0.00   0.03     0.02  -0.03   0.00
    13   6    -0.02   0.00   0.00    -0.00  -0.00   0.06     0.01  -0.00  -0.00
    14   6    -0.01   0.01  -0.00    -0.01  -0.01  -0.02     0.02  -0.00  -0.00
    15   6     0.00   0.01   0.01    -0.02  -0.02  -0.03     0.01   0.00  -0.00
    16   6     0.00  -0.00   0.01    -0.01  -0.02   0.01     0.01  -0.02  -0.00
    17   6     0.00  -0.01  -0.01    -0.00  -0.00   0.03     0.01  -0.03  -0.00
    18   1    -0.01   0.01   0.01    -0.01  -0.02  -0.06     0.02  -0.02  -0.00
    19   1     0.00  -0.00   0.04    -0.01  -0.02  -0.00     0.02  -0.02  -0.00
    20   6     0.00   0.00   0.00    -0.01  -0.01  -0.02     0.01   0.00  -0.00
    21   6     0.00   0.00  -0.00     0.00  -0.00   0.01    -0.01  -0.01   0.00
    22   8    -0.02  -0.02  -0.01     0.01  -0.00  -0.05     0.01  -0.03   0.01
    23   1    -0.05  -0.02   0.06     0.02  -0.00  -0.03    -0.01  -0.04   0.00
    24   7     0.00  -0.01  -0.18     0.01   0.01   0.01    -0.00   0.01   0.00
    25   1     0.00  -0.02  -0.23     0.01   0.02   0.04     0.00   0.01   0.00
    26   6     0.01   0.01   0.07    -0.00   0.01  -0.01     0.00   0.01   0.00
    27   6     0.01  -0.00   0.00    -0.01  -0.02  -0.03     0.01   0.02   0.01
    28   1    -0.03   0.01  -0.03     0.05  -0.05  -0.00     0.30  -0.07   0.24
    29   1     0.03   0.03   0.04    -0.05  -0.08  -0.06    -0.18  -0.24  -0.18
    30   1     0.03  -0.06   0.00    -0.04   0.04  -0.02    -0.08   0.40  -0.02
    31   6     0.02  -0.02  -0.00    -0.06   0.04  -0.00     0.01   0.01  -0.01
    32   1     0.02  -0.00   0.00    -0.02  -0.20  -0.02    -0.08   0.37  -0.01
    33   1     0.00  -0.04  -0.01     0.09   0.23  -0.08    -0.18  -0.22   0.17
    34   1     0.04  -0.02  -0.01    -0.28   0.12   0.13     0.29  -0.09  -0.21
    35   6    -0.01   0.00  -0.01     0.03  -0.02   0.01    -0.03   0.02   0.00
    36   1     0.02  -0.01   0.01    -0.03  -0.00  -0.03    -0.09   0.06  -0.03
    37   1    -0.04   0.02   0.01     0.11  -0.08  -0.02     0.01   0.02  -0.03
    38   1    -0.01  -0.00  -0.05     0.05   0.01   0.11    -0.06  -0.01   0.07
    39   6     0.01   0.00  -0.01     0.02   0.01   0.01    -0.01  -0.01   0.00
    40   1     0.04  -0.06  -0.05     0.11  -0.18  -0.10     0.04  -0.14  -0.05
    41   1    -0.06  -0.00   0.02    -0.18   0.00   0.11    -0.15  -0.01   0.06
    42   1     0.06   0.06  -0.00     0.15   0.20   0.01     0.06   0.11  -0.00
    43   6     0.03   0.01   0.01     0.01   0.01   0.01    -0.00   0.00  -0.00
    44   1     0.03   0.01   0.01    -0.28  -0.02  -0.23    -0.05  -0.00  -0.05
    45   1     0.03   0.02   0.04     0.12  -0.28   0.25     0.02  -0.05   0.04
    46   1     0.05   0.01  -0.00     0.21   0.34   0.02     0.03   0.06   0.00
    47   6    -0.02   0.00   0.00     0.01  -0.00  -0.02    -0.06  -0.01  -0.00
    48   1    -0.02  -0.01   0.01     0.12   0.02   0.04     0.01  -0.03   0.05
    49   1    -0.03   0.00   0.01    -0.12  -0.03   0.03    -0.17  -0.03   0.04
    50   1    -0.02   0.02   0.00     0.02   0.00  -0.17    -0.06   0.03  -0.12
    51   8     0.03   0.00   0.00    -0.02  -0.00   0.00    -0.01   0.00  -0.00
    52   7     0.01  -0.01  -0.11     0.01  -0.01  -0.00     0.01  -0.00  -0.00
    53   1    -0.06   0.11   0.70     0.02   0.00   0.03     0.02   0.00   0.02
    54   1     0.00   0.07   0.26     0.01  -0.02   0.04     0.01  -0.01   0.01
                     22                     23                     24
                      A                      A                      A
 Frequencies --    299.8680               304.6418               309.3785
 Red. masses --      1.6196                 1.9463                 1.7186
 Frc consts  --      0.0858                 0.1064                 0.0969
 IR Inten    --    173.5798                 1.7265                54.9189
  Atom  AN      X      Y      Z        X      Y      Z        X      Y      Z
     1   6     0.01   0.00   0.02     0.01  -0.00  -0.04    -0.01  -0.01  -0.06
     2   6     0.01  -0.01  -0.01     0.02  -0.01  -0.04    -0.01   0.01  -0.06
     3   6    -0.02  -0.01   0.09     0.00  -0.02  -0.03    -0.00   0.02  -0.01
     4   6    -0.02  -0.01   0.02    -0.02  -0.01   0.03     0.01   0.01   0.05
     5   6    -0.01  -0.00  -0.10    -0.01   0.00   0.03     0.01  -0.02  -0.01
     6   6     0.01   0.01  -0.04     0.00   0.00  -0.04     0.01  -0.02  -0.07
     7   6     0.00  -0.00  -0.03     0.01  -0.00   0.06    -0.04   0.01   0.07
     8   1    -0.03  -0.03   0.17    -0.00  -0.03  -0.03    -0.00   0.04   0.03
     9   1    -0.03  -0.01   0.06    -0.03  -0.01   0.08     0.02   0.02   0.13
    10   1    -0.02   0.01  -0.19    -0.02   0.01   0.07     0.01  -0.01   0.03
    11   7     0.01  -0.00  -0.09     0.02  -0.01   0.03    -0.03   0.01   0.01
    12   6    -0.01  -0.00  -0.01    -0.00   0.01   0.01    -0.01   0.00   0.01
    13   6    -0.01   0.00  -0.02    -0.00   0.00   0.03    -0.01   0.00   0.03
    14   6    -0.01   0.01   0.03     0.01   0.01  -0.04    -0.00  -0.01  -0.06
    15   6    -0.00   0.01   0.00     0.00   0.02   0.01     0.00  -0.01  -0.00
    16   6    -0.00   0.00  -0.03    -0.01   0.01   0.09    -0.00  -0.00   0.08
    17   6    -0.01  -0.01   0.00    -0.00   0.00  -0.03     0.00   0.01  -0.00
    18   1    -0.02   0.01   0.05     0.01   0.01  -0.10     0.01  -0.01  -0.14
    19   1     0.00   0.00  -0.06    -0.02   0.01   0.17    -0.01   0.00   0.14
    20   6     0.00   0.01   0.00    -0.00   0.02  -0.01     0.00  -0.02  -0.01
    21   6    -0.01  -0.01   0.01    -0.00  -0.01  -0.04     0.01   0.02  -0.03
    22   8    -0.02  -0.01   0.01     0.01   0.02   0.04    -0.01  -0.01   0.01
    23   1    -0.03  -0.02  -0.03     0.03   0.03   0.05    -0.03  -0.01   0.01
    24   7     0.00   0.00   0.06     0.02  -0.00   0.03    -0.04  -0.00   0.06
    25   1     0.00  -0.00   0.05     0.02   0.01   0.06    -0.04  -0.01   0.09
[...]
 ! R8    R(4,5)                 -0.0531                  2.6                    !
 ! R9    R(4,9)                  0.9751                 47.9                    !
 ! R11   R(5,10)                 0.3376                 16.6                    !
 ! A7    A(2,3,4)               -0.0424                  2.1                    !
 ! A9    A(4,3,8)                0.0382                  1.9                    !
 ! A10   A(3,4,5)                0.0516                  2.5                    !
 ! A11   A(3,4,9)               -0.0364                  1.8                    !
 --------------------------------------------------------------------------------
                           ----------------------------
                           ! Normal Mode   151        !
 --------------------------                            --------------------------
 ! Name  Definition              Value          Relative Weight (%)             !
 --------------------------------------------------------------------------------
 ! R4    R(2,3)                  0.0142                  0.7                    !
 ! R6    R(3,4)                  0.0188                  0.9                    !
 ! R7    R(3,8)                 -0.3158                 15.5                    !
 ! R9    R(4,9)                 -0.0981                  4.8                    !
 ! R11   R(5,10)                -0.0208                  1.0                    !
 ! R19   R(13,14)               -0.0442                  2.2                    !
 ! R20   R(14,15)               -0.0424                  2.1                    !
 ! R21   R(14,18)                1.03                   50.5                    !
 ! R37   R(27,28)                0.0204                  1.0                    !
 ! R42   R(31,34)                0.0337                  1.7                    !
 ! A7    A(2,3,4)               -0.014                   0.7                    !
 ! A27   A(7,13,14)              0.0284                  1.4                    !
 ! A28   A(12,13,14)            -0.0263                  1.3                    !
 ! A29   A(13,14,15)             0.0541                  2.7                    !
 ! A30   A(13,14,18)            -0.0286                  1.4                    !
 ! A31   A(15,14,18)            -0.0255                  1.2                    !
 ! A32   A(14,15,16)            -0.0259                  1.3                    !
 ! A33   A(14,15,20)             0.0276                  1.4                    !
 --------------------------------------------------------------------------------
                           ----------------------------
                           ! Normal Mode   152        !
 --------------------------                            --------------------------
 ! Name  Definition              Value          Relative Weight (%)             !
 --------------------------------------------------------------------------------
 ! R4    R(2,3)                  0.0443                  2.0                    !
 ! R6    R(3,4)                  0.0586                  2.7                    !
 ! R7    R(3,8)                 -0.983                  45.0                    !
 ! R8    R(4,5)                  0.0139                  0.6                    !
 ! R9    R(4,9)                 -0.309                  14.2                    !
 ! R11   R(5,10)                -0.0679                  3.1                    !
 ! R19   R(13,14)                0.0137                  0.6                    !
 ! R20   R(14,15)                0.0142                  0.7                    !
 ! R21   R(14,18)               -0.3318                 15.2                    !
 ! A4    A(1,2,3)                0.0249                  1.1                    !
 ! A6    A(3,2,11)              -0.0271                  1.2                    !
 ! A7    A(2,3,4)               -0.0436                  2.0                    !
 ! A8    A(2,3,8)                0.025                   1.1                    !
 ! A9    A(4,3,8)                0.0185                  0.8                    !
 ! A11   A(3,4,9)               -0.0213                  1.0                    !
 ! A29   A(13,14,15)            -0.0175                  0.8                    !
 --------------------------------------------------------------------------------
                           ----------------------------
                           ! Normal Mode   153        !
 --------------------------                            --------------------------
 ! Name  Definition              Value          Relative Weight (%)             !
 --------------------------------------------------------------------------------
 ! R22   R(15,16)                0.0414                  2.7                    !
 ! R24   R(16,17)                0.044                   2.8                    !
 ! R25   R(16,19)               -1.0817                 69.6                    !
 ! R44   R(35,37)               -0.0124                  0.8                    !
 ! R52   R(47,48)               -0.0153                  1.0                    !
 ! R53   R(47,49)               -0.0137                  0.9                    !
 ! A32   A(14,15,16)             0.0281                  1.8                    !
 ! A34   A(16,15,20)            -0.0293                  1.9                    !
 ! A35   A(15,16,17)            -0.0574                  3.7                    !
 ! A36   A(15,16,19)             0.0278                  1.8                    !
 ! A37   A(17,16,19)             0.0296                  1.9                    !
 ! A38   A(12,17,16)             0.0283                  1.8                    !
 ! A40   A(16,17,21)            -0.0299                  1.9                    !
 --------------------------------------------------------------------------------
                           ----------------------------
                           ! Normal Mode   154        !
 --------------------------                            --------------------------
 ! Name  Definition              Value          Relative Weight (%)             !
 --------------------------------------------------------------------------------
 ! R3    R(1,24)                -0.0426                  2.9                    !
 ! R15   R(7,24)                -0.0491                  3.3                    !
 ! R34   R(24,25)                1.071                  72.9                    !
 ! R55   R(52,53)                0.0199                  1.4                    !
 ! R56   R(52,54)                0.0258                  1.8                    !
 ! A2    A(2,1,24)              -0.024                   1.6                    !
 ! A3    A(6,1,24)               0.0247                  1.7                    !
 ! A20   A(11,7,24)             -0.0229                  1.6                    !
 ! A21   A(13,7,24)              0.0239                  1.6                    !
 ! A54   A(1,24,7)               0.0476                  3.2                    !
 ! A56   A(7,24,25)             -0.0498                  3.4                    !
 --------------------------------------------------------------------------------
                           ----------------------------
                           ! Normal Mode   155        !
 --------------------------                            --------------------------
 ! Name  Definition              Value          Relative Weight (%)             !
 --------------------------------------------------------------------------------
 ! R34   R(24,25)               -0.0325                  1.9                    !
 ! R36   R(26,52)               -0.0545                  3.2                    !
 ! R55   R(52,53)                0.6281                 37.4                    !
 ! R56   R(52,54)                0.8269                 49.2                    !
 ! A96   A(26,52,53)             0.0257                  1.5                    !
 ! A98   A(53,52,54)            -0.0408                  2.4                    !
 --------------------------------------------------------------------------------
                           ----------------------------
                           ! Normal Mode   156        !
 --------------------------                            --------------------------
 ! Name  Definition              Value          Relative Weight (%)             !
 --------------------------------------------------------------------------------
 ! R55   R(52,53)                0.8704                 48.8                    !
 ! R56   R(52,54)               -0.6728                 37.7                    !
 ! A96   A(26,52,53)            -0.0576                  3.2                    !
 ! A97   A(26,52,54)             0.0569                  3.2                    !
 --------------------------------------------------------------------------------
 Max01P=     47 Av01P=   25.53 Stan. Dev.=    8.47
 Max05P=      9 Av05P=    1.26 Stan. Dev.=    2.12
 Max10P=      6 Av10P=    0.55 Stan. Dev.=    1.22
 MaxNDP=     94 AvNDP=   67.46 Stan. Dev.=   17.15
 -------------------------------------------------------------------
 Center     Atomic                   Forces (Hartrees/Bohr)
 Number     Number              X              Y              Z
 -------------------------------------------------------------------
      1        6           0.000005688   -0.000000446   -0.000002567
      2        6           0.000004989    0.000000141    0.000002714
      3        6           0.000006849    0.000001897    0.000005385
      4        6           0.000007316   -0.000000043    0.000002608
      5        6           0.000007714   -0.000001389   -0.000002881
      6        6           0.000006748   -0.000003707   -0.000005473
      7        6           0.000002638    0.000000845    0.000000276
      8        1           0.000005561    0.000002942    0.000009402
      9        1           0.000008962    0.000000768    0.000004459
     10        1           0.000009678   -0.000002294   -0.000004714
     11        7           0.000003413    0.000001134    0.000004442
     12        6          -0.000000953    0.000002147    0.000005597
     13        6           0.000001130   -0.000000542    0.000000577
     14        6          -0.000000761   -0.000001495   -0.000003650
     15        6          -0.000002004   -0.000000318   -0.000003294
     16        6          -0.000003172    0.000000978    0.000001715
     17        6          -0.000002935    0.000002866    0.000006197
     18        1           0.000000287   -0.000002681   -0.000007369
     19        1          -0.000004833    0.000000966    0.000002084
     20        6          -0.000003614   -0.000002963   -0.000007602
     21        6          -0.000003563    0.000004292    0.000011296
     22        8           0.000000144    0.000002974    0.000009534
     23        1           0.000001611    0.000003026    0.000008415
     24        7           0.000002445   -0.000002408   -0.000004159
     25        1           0.000003878   -0.000003220   -0.000007649
     26        6           0.000007095   -0.000004212   -0.000011104
     27        6          -0.000007438   -0.000003246   -0.000010855
     28        1          -0.000006598   -0.000003891   -0.000012291
     29        1          -0.000008544   -0.000004614   -0.000014615
     30        1          -0.000011747   -0.000002278   -0.000009429
     31        6           0.000001347   -0.000004435   -0.000010558
     32        1           0.000005256   -0.000003527   -0.000009216
     33        1           0.000000877   -0.000005208   -0.000014337
     34        1           0.000003292   -0.000004563   -0.000012014
     35        6          -0.000005450   -0.000002120   -0.000006693
     36        1          -0.000002221   -0.000001362   -0.000004690
     37        1          -0.000008973   -0.000000811   -0.000004461
     38        1          -0.000006282   -0.000003022   -0.000010265
     39        6          -0.000008279    0.000006165    0.000013784
     40        1          -0.000008802    0.000007162    0.000017542
     41        1          -0.000006888    0.000005726    0.000014489
     42        1          -0.000011619    0.000005108    0.000011459
     43        6           0.000001978    0.000005280    0.000014892
     44        1           0.000002954    0.000005282    0.000015356
     45        1           0.000000646    0.000006574    0.000018275
     46        1           0.000004684    0.000004292    0.000012827
     47        6          -0.000005195    0.000004765    0.000010457
     48        1          -0.000009460    0.000004019    0.000008923
     49        1          -0.000002448    0.000003485    0.000009463
     50        1          -0.000006403    0.000005804    0.000014696
     51        8           0.000005646   -0.000005145   -0.000013131
     52        7           0.000008501   -0.000006779   -0.000013739
     53        1           0.000008859   -0.000004853   -0.000012422
     54        1           0.000007995   -0.000007066   -0.000017685
 -------------------------------------------------------------------
 Cartesian Forces:  Max     0.000018275 RMS     0.000007056
 FormGI is forming the generalized inverse of G from B-inverse, IUseBI=4.
 Leave Link  716 at Tue Feb 12 17:28:55 2019, MaxMem=  1342177280 cpu:               7.3 elap:               0.5
 (Enter /gpfs/apps/hpc/Apps/Restricted/Gaussian/g16/Rev_B.01-AVX/g16/l9999.exe)

 ----------------------------------------------------------------------

 Electric dipole moment (input orientation):
 (Debye = 10**-18 statcoulomb cm , SI units = C m)
                  (au)            (Debye)         (10**-30 SI)
   Tot        0.194184D+01      0.493567D+01      0.164636D+02
   x         -0.177095D+01     -0.450132D+01     -0.150148D+02
   y          0.432629D+00      0.109963D+01      0.366798D+01
   z          0.668807D+00      0.169994D+01      0.567038D+01

 Dipole polarizability, Alpha (input orientation).
 (esu units = cm**3 , SI units = C**2 m**2 J**-1)
 Alpha(0;0):
               (au)            (10**-24 esu)      (10**-40 SI)
   iso        0.504574D+03      0.747702D+02      0.831931D+02
   aniso      0.619506D+03      0.918013D+02      0.102143D+03
   xx         0.445531D+03      0.660209D+02      0.734582D+02
   yx         0.650625D+02      0.964127D+01      0.107274D+02
   yy         0.881358D+03      0.130604D+03      0.145316D+03
   zx         0.178866D+02      0.265052D+01      0.294910D+01
   zy        -0.130630D+02     -0.193574D+01     -0.215380D+01
   zz         0.186834D+03      0.276859D+02      0.308047D+02

 ----------------------------------------------------------------------

 Dipole orientation:
     6          1.21867522          4.65912472          2.23571268
     6          0.01994691          4.53860082          4.63396318
     6         -0.22762548          6.72123054          6.11435018
     6          0.74437808          8.95052262          5.13432608
     6          1.93153584          9.04443031          2.74771325
     6          2.19923035          6.90761845          1.22825919
     6         -0.04274157          0.75579738          3.01276289
     1         -1.14220717          6.65945042          7.94285645
     1          0.59659592         10.67821827          6.22114588
     1          2.65417075         10.85027850          2.10982147
     7         -0.73394043          2.08751945          5.04993149
     6         -1.88127472         -3.14373889          4.87094770
     6         -0.57119409         -1.91023212          2.78095117
     6          0.06664774         -3.30683264          0.67148170
     6         -0.52316361         -5.89620447          0.51380639
     6         -1.78159181         -7.05957465          2.57730220
     6         -2.48023902         -5.80448688          4.74902513
     1          1.02370270         -2.40224829         -0.89271195
     1         -2.21288329         -9.04328994          2.42504319
     6          0.15419690         -7.34950321         -1.86746704
     6         -3.83288546         -7.13140388          6.92836073
     8         -2.53223384         -1.84397603          6.84953511
     1         -1.96082212          0.05653373          6.59680973
     7          1.14652300          2.25296443          1.28108481
     1          1.89276322          1.83308717         -0.43327067
     6          3.39319624          6.81626434         -1.32340208
     6         -1.28369552         -6.13411250         -4.10476345
     1         -0.78858538         -4.14401592         -4.32889322
     1         -0.78579852         -7.12499784         -5.84686379
     1         -3.32511649         -6.27569273         -3.83332768
     6          3.02745648         -7.12541563         -2.34322087
     1          4.09997939         -7.96652096         -0.79335201
     1          3.49901472         -8.13155307         -4.08360319
     1          3.62035229         -5.16153968         -2.56112047
     6         -0.55060882        -10.15713610         -1.70666691
     1          0.44545391        -11.10876921         -0.16781316
     1         -2.58178092        -10.42328441         -1.44394075
     1         -0.01744714        -11.08342955         -3.47101489
     6         -6.47038107         -5.94147621          7.32972950
     1         -7.43499062         -6.95250683          8.85005800
     1         -6.35161659         -3.95316079          7.84775144
     1         -7.61244193         -6.11204197          5.61790659
     6         -2.24268514         -6.89987429          9.36835095
     1         -2.03573873         -4.94149097          9.96500171
     1         -3.17778481         -7.94856757         10.88157400
     1         -0.36272551         -7.70667588          9.08795040
     6         -4.20136024         -9.95640731          6.36140903
     1         -5.35949194        -10.25614092          4.67755411
     1         -2.39585789        -10.92337648          6.09551752
     1         -5.16505727        -10.83536537          7.95945449
     8          3.55495992          4.77407165         -2.47281913
     7          4.28159216          8.99082113         -2.29996629
     1          4.03183005         10.68079525         -1.46347170
     1          5.00806098          8.95863441         -4.06239946

 Electric dipole moment (dipole orientation):
 (Debye = 10**-18 statcoulomb cm , SI units = C m)
                  (au)            (Debye)         (10**-30 SI)
   Tot        0.194184D+01      0.493567D+01      0.164636D+02
   x          0.000000D+00      0.000000D+00      0.000000D+00
   y          0.000000D+00      0.000000D+00      0.000000D+00
   z          0.194184D+01      0.493567D+01      0.164636D+02

 Dipole polarizability, Alpha (dipole orientation).
 (esu units = cm**3 , SI units = C**2 m**2 J**-1)
 Alpha(0;0):
               (au)            (10**-24 esu)      (10**-40 SI)
   iso        0.504574D+03      0.747702D+02      0.831931D+02
   aniso      0.619506D+03      0.918013D+02      0.102143D+03
   xx         0.256657D+03      0.380326D+02      0.423170D+02
   yx         0.131293D+03      0.194556D+02      0.216473D+02
   yy         0.860270D+03      0.127479D+03      0.141839D+03
   zx        -0.858863D+02     -0.127270D+02     -0.141607D+02
   zy         0.592906D+02      0.878596D+01      0.977570D+01
   zz         0.396795D+03      0.587990D+02      0.654227D+02

 ----------------------------------------------------------------------

 This type of calculation cannot be archived.


 RESEARCH IS WHAT I AM DOING WHEN I DON'T KNOW WHAT I AM DOING.
     -- WERNER VON BRAUN
 Job cpu time:       0 days  0 hours  0 minutes 21.2 seconds.
 Elapsed time:       0 days  0 hours  0 minutes  1.6 seconds.
 File lengths (MBytes):  RWF=     72 Int=      0 D2E=      0 Chk=     56 Scr=      8
 Normal termination of Gaussian 16 at Tue Feb 12 17:28:55 2019.
