 Entering Gaussian System, Link 0=g16
 Initial command:
 /gpfs/apps/hpc/Apps/Restricted/Gaussian/Rev_A.03/g16/l1.exe "/gpfs/scratch60/fas/hammes_schiffer/jg2487/c43n04/Gau-107549.inp" -scrdir="/gpfs/scratch60/fas/hammes_schiffer/jg2487/c43n04/"
 Entering Link 1 = /gpfs/apps/hpc/Apps/Restricted/Gaussian/Rev_A.03/g16/l1.exe PID=    107550.
  
 Copyright (c) 1988,1990,1992,1993,1995,1998,2003,2009,2016,
            Gaussian, Inc.  All Rights Reserved.
  
 This is part of the Gaussian(R) 16 program.  It is based on
 the Gaussian(R) 09 system (copyright 2009, Gaussian, Inc.),
 the Gaussian(R) 03 system (copyright 2003, Gaussian, Inc.),
 the Gaussian(R) 98 system (copyright 1998, Gaussian, Inc.),
 the Gaussian(R) 94 system (copyright 1995, Gaussian, Inc.),
 the Gaussian 92(TM) system (copyright 1992, Gaussian, Inc.),
 the Gaussian 90(TM) system (copyright 1990, Gaussian, Inc.),
 the Gaussian 88(TM) system (copyright 1988, Gaussian, Inc.),
 the Gaussian 86(TM) system (copyright 1986, Carnegie Mellon
 University), and the Gaussian 82(TM) system (copyright 1983,
 Carnegie Mellon University). Gaussian is a federally registered
 trademark of Gaussian, Inc.
  
 This software contains proprietary and confidential information,
 including trade secrets, belonging to Gaussian, Inc.
  
 This software is provided under written license and may be
 used, copied, transmitted, or stored only in accord with that
 written license.
  
 The following legend is applicable only to US Government
 contracts under FAR:
  
                    RESTRICTED RIGHTS LEGEND
  
 Use, reproduction and disclosure by the US Government is
 subject to restrictions as set forth in subparagraphs (a)
 and (c) of the Commercial Computer Software - Restricted
 Rights clause in FAR 52.227-19.
  
 Gaussian, Inc.
 340 Quinnipiac St., Bldg. 40, Wallingford CT 06492
  
  
 ---------------------------------------------------------------
 Warning -- This program may not be used in any manner that
 competes with the business of Gaussian, Inc. or will provide
 assistance to any competitor of Gaussian, Inc.  The licensee
 of this program is prohibited from giving any competitor of
 Gaussian, Inc. access to this program.  By using this program,
 the user acknowledges that Gaussian, Inc. is engaged in the
 business of creating and licensing software in the field of
 computational chemistry and represents and warrants to the
 licensee that it is not a competitor of Gaussian, Inc. and that
 it will not use this program in any manner prohibited above.
 ---------------------------------------------------------------
  

 Cite this work as:
 Gaussian 16, Revision A.03,
 M. J. Frisch, G. W. Trucks, H. B. Schlegel, G. E. Scuseria, 
 M. A. Robb, J. R. Cheeseman, G. Scalmani, V. Barone, 
 G. A. Petersson, H. Nakatsuji, X. Li, M. Caricato, A. V. Marenich, 
 J. Bloino, B. G. Janesko, R. Gomperts, B. Mennucci, H. P. Hratchian, 
 J. V. Ortiz, A. F. Izmaylov, J. L. Sonnenberg, D. Williams-Young, 
 F. Ding, F. Lipparini, F. Egidi, J. Goings, B. Peng, A. Petrone, 
 T. Henderson, D. Ranasinghe, V. G. Zakrzewski, J. Gao, N. Rega, 
 G. Zheng, W. Liang, M. Hada, M. Ehara, K. Toyota, R. Fukuda, 
 J. Hasegawa, M. Ishida, T. Nakajima, Y. Honda, O. Kitao, H. Nakai, 
 T. Vreven, K. Throssell, J. A. Montgomery, Jr., J. E. Peralta, 
 F. Ogliaro, M. J. Bearpark, J. J. Heyd, E. N. Brothers, K. N. Kudin, 
 V. N. Staroverov, T. A. Keith, R. Kobayashi, J. Normand, 
 K. Raghavachari, A. P. Rendell, J. C. Burant, S. S. Iyengar, 
 J. Tomasi, M. Cossi, J. M. Millam, M. Klene, C. Adamo, R. Cammi, 
 J. W. Ochterski, R. L. Martin, K. Morokuma, O. Farkas, 
 J. B. Foresman, and D. J. Fox, Gaussian, Inc., Wallingford CT, 2016.
 
 ******************************************
 Gaussian 16:  ES64L-G16RevA.03 25-Dec-2016
                13-Dec-2018 
 ******************************************
 %chk=cyclohexyl-monoBIP-neutral.chk
 %mem=10GB
 %nprocshared=16
 Will use up to   16 processors via shared memory.
 ----------------------------------------------------------------------
 #p opt=tight freq=internalmodes b3lyp/6-31g(d,p) scrf=(cpcm,solvent=di
 chloromethane,read) nosymm empiricaldispersion=gd3bj int=grid=ultrafin
 e
 ----------------------------------------------------------------------
 1/7=10,18=20,19=15,26=6,38=1,40=2/1,3;
 2/9=110,12=2,15=1,17=6,18=5,40=1/2;
 3/5=1,6=6,7=101,11=2,25=1,30=1,70=2103,71=1,72=9,74=-5,75=-5,124=41/1,2,3;
 4//1;
 5/5=2,38=5,53=9/2;
 6/7=2,8=2,9=2,10=2,28=1/1;
 7/30=1/1,2,3,16;
 1/7=10,18=20,19=15,26=6/3(2);
 2/9=110,15=1/2;
 99//99;
 2/9=110,15=1/2;
 3/5=1,6=6,7=101,11=2,25=1,30=1,70=2105,71=1,72=9,74=-5,75=-5,124=41/1,2,3;
 4/5=5,16=3,69=1/1;
 5/5=2,38=5,53=9/2;
 7/30=1/1,2,3,16;
 1/7=10,18=20,19=15,26=6/3(-5);
 2/9=110,15=1/2;
 6/7=2,8=2,9=2,10=2,19=2,28=1/1;
 99/9=1/99;
 Leave Link    1 at Thu Dec 13 14:18:10 2018, MaxMem=  1342177280 cpu:              10.1 elap:               0.7
 (Enter /gpfs/apps/hpc/Apps/Restricted/Gaussian/Rev_A.03/g16/l101.exe)
 --------------------------------------------
 cyclohexylimine monoBIP neutral optimization
 --------------------------------------------
 Symbolic Z-matrix:
 Charge =  0 Multiplicity = 1
 C                    -0.46402   2.68791   0.30292 
 C                    -1.86559   2.86169   0.26696 
 C                    -2.40613   4.15085   0.19418 
 C                    -1.51927   5.22726   0.16518 
 C                    -0.12823   5.0378    0.20066 
 C                     0.44092   3.75929   0.26813 
 C                    -1.48609   0.71971   0.3688 
 H                    -3.47819   4.3021    0.16242 
 H                    -1.91162   6.2361    0.11299 
 H                     0.53033   5.89929   0.17621 
 N                    -2.47353   1.61652   0.30846 
 C                    -3.02751  -1.21428   0.365 
 C                    -1.70217  -0.7161    0.41778 
 C                    -0.62863  -1.62      0.4994 
 C                    -0.83819  -2.99415   0.5331 
 C                    -2.16213  -3.45785   0.47676 
 C                    -3.25719  -2.60175   0.3963 
 H                     0.38567  -1.23677   0.54236 
 H                    -2.34229  -4.52854   0.50126 
 C                     0.316    -3.96056   0.6294 
 H                     1.05119  -3.78902  -0.1621 
 H                     0.84245  -3.86089   1.58389 
 H                    -0.03414  -4.99146   0.54817 
 C                    -4.66792  -3.11878   0.33948 
 H                    -5.2736   -2.70352   1.15019 
 H                    -5.15951  -2.83337  -0.59569 
 H                    -4.68348  -4.2069    0.41847 
 O                    -4.10482  -0.40263   0.28476 
 H                    -3.77383   0.54023   0.28035 
 N                    -0.25751   1.33091   0.36814 
 H                     0.67241   0.92968   0.39508 
 C                     1.88554   3.55256   0.29464 
 H                     2.49516   4.46137   0.24061 
 N                     2.3939    2.37862   0.37762 
 C                     3.85928   2.26297   0.40382 
 C                     4.49851   2.69909  -0.92482 
 C                     4.4984    3.01984   1.58009 
 H                     4.07514   1.19716   0.54111 
 C                     6.01567   2.48271  -0.8958 
 H                     4.27937   3.76153  -1.08519 
 H                     4.04172   2.14565  -1.75076 
 C                     6.01426   2.79582   1.61346 
 H                     4.29538   4.09164   1.46792 
 H                     4.03105   2.70109   2.51649 
 C                     6.66129   3.21274   0.28743 
 H                     6.46152   2.81247  -1.8392 
 H                     6.21982   1.40782  -0.8099 
 H                     6.45459   3.35172   2.44705 
 H                     6.21821   1.73349   1.79722 
 H                     7.7384    3.02073   0.31145 
 H                     6.53434   4.2944    0.15275 
 
 ITRead=  0  0  0  0  0  0  0  0  0  0  0  0  0  0  0  0  0  0  0  0
 ITRead=  0  0  0  0  0  0  0  0  0  0  0  0  0  0  0  0  0  0  0  0
 ITRead=  0  0  0  0  0  0  0  0  0  0  0
 MicOpt= -1 -1 -1 -1 -1 -1 -1 -1 -1 -1 -1 -1 -1 -1 -1 -1 -1 -1 -1 -1
 MicOpt= -1 -1 -1 -1 -1 -1 -1 -1 -1 -1 -1 -1 -1 -1 -1 -1 -1 -1 -1 -1
 MicOpt= -1 -1 -1 -1 -1 -1 -1 -1 -1 -1 -1
 NAtoms=     51 NQM=       51 NQMF=       0 NMMI=      0 NMMIF=      0
                NMic=       0 NMicF=      0.
                    Isotopes and Nuclear Properties:
 (Nuclear quadrupole moments (NQMom) in fm**2, nuclear magnetic moments (NMagM)
  in nuclear magnetons)

  Atom         1           2           3           4           5           6           7           8           9          10
 IAtWgt=          12          12          12          12          12          12          12           1           1           1
 AtmWgt=  12.0000000  12.0000000  12.0000000  12.0000000  12.0000000  12.0000000  12.0000000   1.0078250   1.0078250   1.0078250
 NucSpn=           0           0           0           0           0           0           0           1           1           1
 AtZEff=  -0.0000000  -0.0000000  -0.0000000  -0.0000000  -0.0000000  -0.0000000  -0.0000000  -0.0000000  -0.0000000  -0.0000000
 NQMom=    0.0000000   0.0000000   0.0000000   0.0000000   0.0000000   0.0000000   0.0000000   0.0000000   0.0000000   0.0000000
 NMagM=    0.0000000   0.0000000   0.0000000   0.0000000   0.0000000   0.0000000   0.0000000   2.7928460   2.7928460   2.7928460
 AtZNuc=   6.0000000   6.0000000   6.0000000   6.0000000   6.0000000   6.0000000   6.0000000   1.0000000   1.0000000   1.0000000

  Atom        11          12          13          14          15          16          17          18          19          20
 IAtWgt=          14          12          12          12          12          12          12           1           1          12
 AtmWgt=  14.0030740  12.0000000  12.0000000  12.0000000  12.0000000  12.0000000  12.0000000   1.0078250   1.0078250  12.0000000
 NucSpn=           2           0           0           0           0           0           0           1           1           0
 AtZEff=  -0.0000000  -0.0000000  -0.0000000  -0.0000000  -0.0000000  -0.0000000  -0.0000000  -0.0000000  -0.0000000  -0.0000000
 NQMom=    2.0440000   0.0000000   0.0000000   0.0000000   0.0000000   0.0000000   0.0000000   0.0000000   0.0000000   0.0000000
 NMagM=    0.4037610   0.0000000   0.0000000   0.0000000   0.0000000   0.0000000   0.0000000   2.7928460   2.7928460   0.0000000
 AtZNuc=   7.0000000   6.0000000   6.0000000   6.0000000   6.0000000   6.0000000   6.0000000   1.0000000   1.0000000   6.0000000

  Atom        21          22          23          24          25          26          27          28          29          30
 IAtWgt=           1           1           1          12           1           1           1          16           1          14
 AtmWgt=   1.0078250   1.0078250   1.0078250  12.0000000   1.0078250   1.0078250   1.0078250  15.9949146   1.0078250  14.0030740
 NucSpn=           1           1           1           0           1           1           1           0           1           2
 AtZEff=  -0.0000000  -0.0000000  -0.0000000  -0.0000000  -0.0000000  -0.0000000  -0.0000000  -0.0000000  -0.0000000  -0.0000000
 NQMom=    0.0000000   0.0000000   0.0000000   0.0000000   0.0000000   0.0000000   0.0000000   0.0000000   0.0000000   2.0440000
 NMagM=    2.7928460   2.7928460   2.7928460   0.0000000   2.7928460   2.7928460   2.7928460   0.0000000   2.7928460   0.4037610
 AtZNuc=   1.0000000   1.0000000   1.0000000   6.0000000   1.0000000   1.0000000   1.0000000   8.0000000   1.0000000   7.0000000

  Atom        31          32          33          34          35          36          37          38          39          40
 IAtWgt=           1          12           1          14          12          12          12           1          12           1
 AtmWgt=   1.0078250  12.0000000   1.0078250  14.0030740  12.0000000  12.0000000  12.0000000   1.0078250  12.0000000   1.0078250
 NucSpn=           1           0           1           2           0           0           0           1           0           1
 AtZEff=  -0.0000000  -0.0000000  -0.0000000  -0.0000000  -0.0000000  -0.0000000  -0.0000000  -0.0000000  -0.0000000  -0.0000000
 NQMom=    0.0000000   0.0000000   0.0000000   2.0440000   0.0000000   0.0000000   0.0000000   0.0000000   0.0000000   0.0000000
 NMagM=    2.7928460   0.0000000   2.7928460   0.4037610   0.0000000   0.0000000   0.0000000   2.7928460   0.0000000   2.7928460
 AtZNuc=   1.0000000   6.0000000   1.0000000   7.0000000   6.0000000   6.0000000   6.0000000   1.0000000   6.0000000   1.0000000

  Atom        41          42          43          44          45          46          47          48          49          50
 IAtWgt=           1          12           1           1          12           1           1           1           1           1
 AtmWgt=   1.0078250  12.0000000   1.0078250   1.0078250  12.0000000   1.0078250   1.0078250   1.0078250   1.0078250   1.0078250
 NucSpn=           1           0           1           1           0           1           1           1           1           1
 AtZEff=  -0.0000000  -0.0000000  -0.0000000  -0.0000000  -0.0000000  -0.0000000  -0.0000000  -0.0000000  -0.0000000  -0.0000000
 NQMom=    0.0000000   0.0000000   0.0000000   0.0000000   0.0000000   0.0000000   0.0000000   0.0000000   0.0000000   0.0000000
 NMagM=    2.7928460   0.0000000   2.7928460   2.7928460   0.0000000   2.7928460   2.7928460   2.7928460   2.7928460   2.7928460
 AtZNuc=   1.0000000   6.0000000   1.0000000   1.0000000   6.0000000   1.0000000   1.0000000   1.0000000   1.0000000   1.0000000

  Atom        51
 IAtWgt=           1
 AtmWgt=   1.0078250
 NucSpn=           1
 AtZEff=  -0.0000000
 NQMom=    0.0000000
 NMagM=    2.7928460
 AtZNuc=   1.0000000
 Leave Link  101 at Thu Dec 13 14:18:11 2018, MaxMem=  1342177280 cpu:               6.0 elap:               0.4
 (Enter /gpfs/apps/hpc/Apps/Restricted/Gaussian/Rev_A.03/g16/l103.exe)

 GradGradGradGradGradGradGradGradGradGradGradGradGradGradGradGradGradGrad
 Berny optimization.
 Initialization pass.
                           ----------------------------
                           !    Initial Parameters    !
                           ! (Angstroms and Degrees)  !
 --------------------------                            --------------------------
 ! Name  Definition              Value          Derivative Info.                !
 --------------------------------------------------------------------------------
 ! R1    R(1,2)                  1.4128         estimate D2E/DX2                !
 ! R2    R(1,6)                  1.4029         estimate D2E/DX2                !
 ! R3    R(1,30)                 1.3742         estimate D2E/DX2                !
 ! R4    R(2,3)                  1.3998         estimate D2E/DX2                !
 ! R5    R(2,11)                 1.3863         estimate D2E/DX2                !
 ! R6    R(3,4)                  1.395          estimate D2E/DX2                !
 ! R7    R(3,8)                  1.0831         estimate D2E/DX2                !
 ! R8    R(4,5)                  1.4043         estimate D2E/DX2                !
 ! R9    R(4,9)                  1.0837         estimate D2E/DX2                !
 ! R10   R(5,6)                  1.4011         estimate D2E/DX2                !
 ! R11   R(5,10)                 1.0846         estimate D2E/DX2                !
 ! R12   R(6,32)                 1.4596         estimate D2E/DX2                !
 ! R13   R(7,11)                 1.3353         estimate D2E/DX2                !
 ! R14   R(7,13)                 1.4528         estimate D2E/DX2                !
 ! R15   R(7,30)                 1.3722         estimate D2E/DX2                !
 ! R16   R(12,13)                1.4169         estimate D2E/DX2                !
 ! R17   R(12,17)                1.4067         estimate D2E/DX2                !
 ! R18   R(12,28)                1.3512         estimate D2E/DX2                !
 ! R19   R(13,14)                1.4058         estimate D2E/DX2                !
 ! R20   R(14,15)                1.3904         estimate D2E/DX2                !
 ! R21   R(14,18)                1.0851         estimate D2E/DX2                !
 ! R22   R(15,16)                1.4039         estimate D2E/DX2                !
 ! R23   R(15,20)                1.5084         estimate D2E/DX2                !
 ! R24   R(16,17)                1.3923         estimate D2E/DX2                !
 ! R25   R(16,19)                1.086          estimate D2E/DX2                !
 ! R26   R(17,24)                1.5036         estimate D2E/DX2                !
 ! R27   R(20,21)                1.0938         estimate D2E/DX2                !
 ! R28   R(20,22)                1.0946         estimate D2E/DX2                !
 ! R29   R(20,23)                1.0918         estimate D2E/DX2                !
 ! R30   R(24,25)                1.0939         estimate D2E/DX2                !
 ! R31   R(24,26)                1.0944         estimate D2E/DX2                !
 ! R32   R(24,27)                1.0911         estimate D2E/DX2                !
 ! R33   R(28,29)                0.9993         estimate D2E/DX2                !
 ! R34   R(30,31)                1.0131         estimate D2E/DX2                !
 ! R35   R(32,33)                1.0957         estimate D2E/DX2                !
 ! R36   R(32,34)                1.282          estimate D2E/DX2                !
 ! R37   R(34,35)                1.4702         estimate D2E/DX2                !
 ! R38   R(35,36)                1.5376         estimate D2E/DX2                !
 ! R39   R(35,37)                1.5378         estimate D2E/DX2                !
 ! R40   R(35,38)                1.0961         estimate D2E/DX2                !
 ! R41   R(36,39)                1.5328         estimate D2E/DX2                !
 ! R42   R(36,40)                1.0966         estimate D2E/DX2                !
 ! R43   R(36,41)                1.0941         estimate D2E/DX2                !
 ! R44   R(37,42)                1.5327         estimate D2E/DX2                !
 ! R45   R(37,43)                1.0966         estimate D2E/DX2                !
 ! R46   R(37,44)                1.094          estimate D2E/DX2                !
 ! R47   R(39,45)                1.5329         estimate D2E/DX2                !
 ! R48   R(39,46)                1.0943         estimate D2E/DX2                !
 ! R49   R(39,47)                1.0975         estimate D2E/DX2                !
 ! R50   R(42,45)                1.5332         estimate D2E/DX2                !
 ! R51   R(42,48)                1.0944         estimate D2E/DX2                !
 ! R52   R(42,49)                1.0972         estimate D2E/DX2                !
 ! R53   R(45,50)                1.0944         estimate D2E/DX2                !
 ! R54   R(45,51)                1.0974         estimate D2E/DX2                !
 ! A1    A(2,1,6)              123.0508         estimate D2E/DX2                !
 ! A2    A(2,1,30)             105.7696         estimate D2E/DX2                !
 ! A3    A(6,1,30)             131.1792         estimate D2E/DX2                !
 ! A4    A(1,2,3)              119.8486         estimate D2E/DX2                !
 ! A5    A(1,2,11)             108.8939         estimate D2E/DX2                !
 ! A6    A(3,2,11)             131.2568         estimate D2E/DX2                !
 ! A7    A(2,3,4)              117.7894         estimate D2E/DX2                !
 ! A8    A(2,3,8)              120.819          estimate D2E/DX2                !
 ! A9    A(4,3,8)              121.3915         estimate D2E/DX2                !
 ! A10   A(3,4,5)              121.6748         estimate D2E/DX2                !
 ! A11   A(3,4,9)              119.2846         estimate D2E/DX2                !
 ! A12   A(5,4,9)              119.0406         estimate D2E/DX2                !
 ! A13   A(4,5,6)              121.7828         estimate D2E/DX2                !
 ! A14   A(4,5,10)             119.5835         estimate D2E/DX2                !
 ! A15   A(6,5,10)             118.6337         estimate D2E/DX2                !
 ! A16   A(1,6,5)              115.8524         estimate D2E/DX2                !
 ! A17   A(1,6,32)             121.9945         estimate D2E/DX2                !
 ! A18   A(5,6,32)             122.1526         estimate D2E/DX2                !
 ! A19   A(11,7,13)            123.7316         estimate D2E/DX2                !
 ! A20   A(11,7,30)            111.28           estimate D2E/DX2                !
 ! A21   A(13,7,30)            124.9867         estimate D2E/DX2                !
 ! A22   A(2,11,7)             106.2789         estimate D2E/DX2                !
 ! A23   A(13,12,17)           119.9141         estimate D2E/DX2                !
 ! A24   A(13,12,28)           122.466          estimate D2E/DX2                !
 ! A25   A(17,12,28)           117.6198         estimate D2E/DX2                !
 ! A26   A(7,13,12)            119.0366         estimate D2E/DX2                !
 ! A27   A(7,13,14)            121.5903         estimate D2E/DX2                !
 ! A28   A(12,13,14)           119.3684         estimate D2E/DX2                !
 ! A29   A(13,14,15)           121.4509         estimate D2E/DX2                !
 ! A30   A(13,14,18)           119.2774         estimate D2E/DX2                !
 ! A31   A(15,14,18)           119.2709         estimate D2E/DX2                !
 ! A32   A(14,15,16)           117.8767         estimate D2E/DX2                !
 ! A33   A(14,15,20)           121.2913         estimate D2E/DX2                !
 ! A34   A(16,15,20)           120.8319         estimate D2E/DX2                !
 ! A35   A(15,16,17)           122.7469         estimate D2E/DX2                !
 ! A36   A(15,16,19)           118.7606         estimate D2E/DX2                !
 ! A37   A(17,16,19)           118.4919         estimate D2E/DX2                !
 ! A38   A(12,17,16)           118.6422         estimate D2E/DX2                !
 ! A39   A(12,17,24)           119.4408         estimate D2E/DX2                !
 ! A40   A(16,17,24)           121.9168         estimate D2E/DX2                !
 ! A41   A(15,20,21)           111.5688         estimate D2E/DX2                !
 ! A42   A(15,20,22)           111.4281         estimate D2E/DX2                !
 ! A43   A(15,20,23)           110.7818         estimate D2E/DX2                !
 ! A44   A(21,20,22)           107.0647         estimate D2E/DX2                !
 ! A45   A(21,20,23)           108.0478         estimate D2E/DX2                !
 ! A46   A(22,20,23)           107.765          estimate D2E/DX2                !
 ! A47   A(17,24,25)           111.1598         estimate D2E/DX2                !
 ! A48   A(17,24,26)           111.3503         estimate D2E/DX2                !
 ! A49   A(17,24,27)           110.7063         estimate D2E/DX2                !
 ! A50   A(25,24,26)           106.594          estimate D2E/DX2                !
 ! A51   A(25,24,27)           108.4849         estimate D2E/DX2                !
 ! A52   A(26,24,27)           108.3932         estimate D2E/DX2                !
 ! A53   A(12,28,29)           107.634          estimate D2E/DX2                !
 ! A54   A(1,30,7)             107.7776         estimate D2E/DX2                !
 ! A55   A(1,30,31)            122.0236         estimate D2E/DX2                !
 ! A56   A(7,30,31)            130.1937         estimate D2E/DX2                !
 ! A57   A(6,32,33)            115.6144         estimate D2E/DX2                !
 ! A58   A(6,32,34)            121.5577         estimate D2E/DX2                !
 ! A59   A(33,32,34)           122.8279         estimate D2E/DX2                !
 ! A60   A(32,34,35)           117.9331         estimate D2E/DX2                !
 ! A61   A(34,35,36)           112.1275         estimate D2E/DX2                !
 ! A62   A(34,35,37)           112.9019         estimate D2E/DX2                !
 ! A63   A(34,35,38)           105.9628         estimate D2E/DX2                !
 ! A64   A(36,35,37)           110.4002         estimate D2E/DX2                !
 ! A65   A(36,35,38)           107.5882         estimate D2E/DX2                !
 ! A66   A(37,35,38)           107.5136         estimate D2E/DX2                !
 ! A67   A(35,36,39)           110.7994         estimate D2E/DX2                !
 ! A68   A(35,36,40)           108.5486         estimate D2E/DX2                !
 ! A69   A(35,36,41)           109.5886         estimate D2E/DX2                !
 ! A70   A(39,36,40)           109.7145         estimate D2E/DX2                !
 ! A71   A(39,36,41)           110.8618         estimate D2E/DX2                !
 ! A72   A(40,36,41)           107.2326         estimate D2E/DX2                !
 ! A73   A(35,37,42)           110.839          estimate D2E/DX2                !
 ! A74   A(35,37,43)           109.0172         estimate D2E/DX2                !
 ! A75   A(35,37,44)           109.4966         estimate D2E/DX2                !
 ! A76   A(42,37,43)           109.1587         estimate D2E/DX2                !
 ! A77   A(42,37,44)           111.179          estimate D2E/DX2                !
 ! A78   A(43,37,44)           107.0519         estimate D2E/DX2                !
 ! A79   A(36,39,45)           111.362          estimate D2E/DX2                !
 ! A80   A(36,39,46)           110.1455         estimate D2E/DX2                !
 ! A81   A(36,39,47)           108.8965         estimate D2E/DX2                !
 ! A82   A(45,39,46)           110.5081         estimate D2E/DX2                !
 ! A83   A(45,39,47)           109.1283         estimate D2E/DX2                !
 ! A84   A(46,39,47)           106.6681         estimate D2E/DX2                !
 ! A85   A(37,42,45)           111.0264         estimate D2E/DX2                !
 ! A86   A(37,42,48)           109.8921         estimate D2E/DX2                !
 ! A87   A(37,42,49)           109.2077         estimate D2E/DX2                !
 ! A88   A(45,42,48)           110.5373         estimate D2E/DX2                !
 ! A89   A(45,42,49)           109.2497         estimate D2E/DX2                !
 ! A90   A(48,42,49)           106.8243         estimate D2E/DX2                !
 ! A91   A(39,45,42)           111.1206         estimate D2E/DX2                !
 ! A92   A(39,45,50)           110.3596         estimate D2E/DX2                !
 ! A93   A(39,45,51)           109.0235         estimate D2E/DX2                !
 ! A94   A(42,45,50)           110.4057         estimate D2E/DX2                !
 ! A95   A(42,45,51)           108.9873         estimate D2E/DX2                !
 ! A96   A(50,45,51)           106.8279         estimate D2E/DX2                !
 ! D1    D(6,1,2,3)             -0.0461         estimate D2E/DX2                !
 ! D2    D(6,1,2,11)           179.668          estimate D2E/DX2                !
 ! D3    D(30,1,2,3)          -179.8157         estimate D2E/DX2                !
 ! D4    D(30,1,2,11)           -0.1016         estimate D2E/DX2                !
 ! D5    D(2,1,6,5)              0.2871         estimate D2E/DX2                !
 ! D6    D(2,1,6,32)          -179.4493         estimate D2E/DX2                !
 ! D7    D(30,1,6,5)           179.9925         estimate D2E/DX2                !
 ! D8    D(30,1,6,32)            0.2561         estimate D2E/DX2                !
 ! D9    D(2,1,30,7)             0.0955         estimate D2E/DX2                !
 ! D10   D(2,1,30,31)          179.3483         estimate D2E/DX2                !
 ! D11   D(6,1,30,7)          -179.648          estimate D2E/DX2                !
 ! D12   D(6,1,30,31)           -0.3951         estimate D2E/DX2                !
 ! D13   D(1,2,3,4)             -0.2523         estimate D2E/DX2                !
 ! D14   D(1,2,3,8)            179.7926         estimate D2E/DX2                !
 ! D15   D(11,2,3,4)          -179.8925         estimate D2E/DX2                !
 ! D16   D(11,2,3,8)             0.1524         estimate D2E/DX2                !
 ! D17   D(1,2,11,7)             0.0676         estimate D2E/DX2                !
 ! D18   D(3,2,11,7)           179.7377         estimate D2E/DX2                !
 ! D19   D(2,3,4,5)              0.3045         estimate D2E/DX2                !
 ! D20   D(2,3,4,9)           -179.7559         estimate D2E/DX2                !
 ! D21   D(8,3,4,5)           -179.7407         estimate D2E/DX2                !
 ! D22   D(8,3,4,9)              0.199          estimate D2E/DX2                !
 ! D23   D(3,4,5,6)             -0.0564         estimate D2E/DX2                !
 ! D24   D(3,4,5,10)           179.9852         estimate D2E/DX2                !
 ! D25   D(9,4,5,6)           -179.9962         estimate D2E/DX2                !
 ! D26   D(9,4,5,10)             0.0454         estimate D2E/DX2                !
 ! D27   D(4,5,6,1)             -0.2354         estimate D2E/DX2                !
 ! D28   D(4,5,6,32)           179.5006         estimate D2E/DX2                !
 ! D29   D(10,5,6,1)           179.7233         estimate D2E/DX2                !
 ! D30   D(10,5,6,32)           -0.5406         estimate D2E/DX2                !
 ! D31   D(1,6,32,33)          178.6912         estimate D2E/DX2                !
 ! D32   D(1,6,32,34)           -1.3907         estimate D2E/DX2                !
 ! D33   D(5,6,32,33)           -1.0287         estimate D2E/DX2                !
 ! D34   D(5,6,32,34)          178.8894         estimate D2E/DX2                !
 ! D35   D(13,7,11,2)         -179.5624         estimate D2E/DX2                !
 ! D36   D(30,7,11,2)           -0.0069         estimate D2E/DX2                !
 ! D37   D(11,7,13,12)           1.6929         estimate D2E/DX2                !
 ! D38   D(11,7,13,14)        -179.1044         estimate D2E/DX2                !
 ! D39   D(30,7,13,12)        -177.8015         estimate D2E/DX2                !
 ! D40   D(30,7,13,14)           1.4012         estimate D2E/DX2                !
 ! D41   D(11,7,30,1)           -0.0577         estimate D2E/DX2                !
 ! D42   D(11,7,30,31)        -179.2284         estimate D2E/DX2                !
 ! D43   D(13,7,30,1)          179.491          estimate D2E/DX2                !
 ! D44   D(13,7,30,31)           0.3203         estimate D2E/DX2                !
 ! D45   D(17,12,13,7)         179.3029         estimate D2E/DX2                !
 ! D46   D(17,12,13,14)          0.0822         estimate D2E/DX2                !
 ! D47   D(28,12,13,7)          -0.7205         estimate D2E/DX2                !
 ! D48   D(28,12,13,14)       -179.9412         estimate D2E/DX2                !
 ! D49   D(13,12,17,16)         -0.119          estimate D2E/DX2                !
 ! D50   D(13,12,17,24)       -179.9902         estimate D2E/DX2                !
 ! D51   D(28,12,17,16)        179.9032         estimate D2E/DX2                !
 ! D52   D(28,12,17,24)          0.032          estimate D2E/DX2                !
 ! D53   D(13,12,28,29)         -0.4528         estimate D2E/DX2                !
 ! D54   D(17,12,28,29)        179.5244         estimate D2E/DX2                !
 ! D55   D(7,13,14,15)        -179.3705         estimate D2E/DX2                !
 ! D56   D(7,13,14,18)           0.9591         estimate D2E/DX2                !
 ! D57   D(12,13,14,15)         -0.1703         estimate D2E/DX2                !
 ! D58   D(12,13,14,18)       -179.8408         estimate D2E/DX2                !
 ! D59   D(13,14,15,16)          0.2863         estimate D2E/DX2                !
 ! D60   D(13,14,15,20)       -179.6132         estimate D2E/DX2                !
 ! D61   D(18,14,15,16)        179.9568         estimate D2E/DX2                !
 ! D62   D(18,14,15,20)          0.0573         estimate D2E/DX2                !
 ! D63   D(14,15,16,17)         -0.3302         estimate D2E/DX2                !
 ! D64   D(14,15,16,19)        179.949          estimate D2E/DX2                !
 ! D65   D(20,15,16,17)        179.5699         estimate D2E/DX2                !
 ! D66   D(20,15,16,19)         -0.1509         estimate D2E/DX2                !
 ! D67   D(14,15,20,21)        -54.2081         estimate D2E/DX2                !
 ! D68   D(14,15,20,22)         65.4035         estimate D2E/DX2                !
 ! D69   D(14,15,20,23)       -174.6282         estimate D2E/DX2                !
 ! D70   D(16,15,20,21)        125.8953         estimate D2E/DX2                !
 ! D71   D(16,15,20,22)       -114.4931         estimate D2E/DX2                !
 ! D72   D(16,15,20,23)          5.4751         estimate D2E/DX2                !
 ! D73   D(15,16,17,12)          0.2487         estimate D2E/DX2                !
 ! D74   D(15,16,17,24)       -179.8834         estimate D2E/DX2                !
 ! D75   D(19,16,17,12)        179.9702         estimate D2E/DX2                !
 ! D76   D(19,16,17,24)         -0.1619         estimate D2E/DX2                !
 ! D77   D(12,17,24,25)        -56.7769         estimate D2E/DX2                !
 ! D78   D(12,17,24,26)         61.9153         estimate D2E/DX2                !
 ! D79   D(12,17,24,27)       -177.425          estimate D2E/DX2                !
 ! D80   D(16,17,24,25)        123.3563         estimate D2E/DX2                !
 ! D81   D(16,17,24,26)       -117.9516         estimate D2E/DX2                !
 ! D82   D(16,17,24,27)          2.7082         estimate D2E/DX2                !
 ! D83   D(6,32,34,35)        -179.7533         estimate D2E/DX2                !
 ! D84   D(33,32,34,35)          0.1589         estimate D2E/DX2                !
 ! D85   D(32,34,35,36)        -66.4293         estimate D2E/DX2                !
 ! D86   D(32,34,35,37)         59.0402         estimate D2E/DX2                !
 ! D87   D(32,34,35,38)        176.4678         estimate D2E/DX2                !
 ! D88   D(34,35,36,39)       -176.3994         estimate D2E/DX2                !
 ! D89   D(34,35,36,40)         63.0647         estimate D2E/DX2                !
 ! D90   D(34,35,36,41)        -53.7486         estimate D2E/DX2                !
 ! D91   D(37,35,36,39)         56.7716         estimate D2E/DX2                !
 ! D92   D(37,35,36,40)        -63.7642         estimate D2E/DX2                !
 ! D93   D(37,35,36,41)        179.4224         estimate D2E/DX2                !
 ! D94   D(38,35,36,39)        -60.2743         estimate D2E/DX2                !
 ! D95   D(38,35,36,40)        179.1898         estimate D2E/DX2                !
 ! D96   D(38,35,36,41)         62.3765         estimate D2E/DX2                !
 ! D97   D(34,35,37,42)        176.4333         estimate D2E/DX2                !
 ! D98   D(34,35,37,43)        -63.393          estimate D2E/DX2                !
 ! D99   D(34,35,37,44)         53.4187         estimate D2E/DX2                !
 ! D100  D(36,35,37,42)        -57.1698         estimate D2E/DX2                !
 ! D101  D(36,35,37,43)         63.0039         estimate D2E/DX2                !
 ! D102  D(36,35,37,44)        179.8157         estimate D2E/DX2                !
 ! D103  D(38,35,37,42)         59.9223         estimate D2E/DX2                !
 ! D104  D(38,35,37,43)       -179.904          estimate D2E/DX2                !
 ! D105  D(38,35,37,44)        -63.0922         estimate D2E/DX2                !
 ! D106  D(35,36,39,45)        -56.0527         estimate D2E/DX2                !
 ! D107  D(35,36,39,46)       -179.0216         estimate D2E/DX2                !
 ! D108  D(35,36,39,47)         64.3311         estimate D2E/DX2                !
 ! D109  D(40,36,39,45)         63.7879         estimate D2E/DX2                !
 ! D110  D(40,36,39,46)        -59.181          estimate D2E/DX2                !
 ! D111  D(40,36,39,47)       -175.8283         estimate D2E/DX2                !
 ! D112  D(41,36,39,45)       -177.9608         estimate D2E/DX2                !
 ! D113  D(41,36,39,46)         59.0702         estimate D2E/DX2                !
 ! D114  D(41,36,39,47)        -57.5771         estimate D2E/DX2                !
 ! D115  D(35,37,42,45)         56.6217         estimate D2E/DX2                !
 ! D116  D(35,37,42,48)        179.2222         estimate D2E/DX2                !
 ! D117  D(35,37,42,49)        -63.9052         estimate D2E/DX2                !
 ! D118  D(43,37,42,45)        -63.4676         estimate D2E/DX2                !
 ! D119  D(43,37,42,48)         59.1329         estimate D2E/DX2                !
 ! D120  D(43,37,42,49)        176.0055         estimate D2E/DX2                !
 ! D121  D(44,37,42,45)        178.6583         estimate D2E/DX2                !
 ! D122  D(44,37,42,48)        -58.7412         estimate D2E/DX2                !
 ! D123  D(44,37,42,49)         58.1314         estimate D2E/DX2                !
 ! D124  D(36,39,45,42)         55.3289         estimate D2E/DX2                !
 ! D125  D(36,39,45,50)        178.1507         estimate D2E/DX2                !
 ! D126  D(36,39,45,51)        -64.8117         estimate D2E/DX2                !
 ! D127  D(46,39,45,42)        178.0899         estimate D2E/DX2                !
 ! D128  D(46,39,45,50)        -59.0883         estimate D2E/DX2                !
 ! D129  D(46,39,45,51)         57.9494         estimate D2E/DX2                !
 ! D130  D(47,39,45,42)        -64.9182         estimate D2E/DX2                !
 ! D131  D(47,39,45,50)         57.9035         estimate D2E/DX2                !
 ! D132  D(47,39,45,51)        174.9412         estimate D2E/DX2                !
 ! D133  D(37,42,45,39)        -55.5122         estimate D2E/DX2                !
 ! D134  D(37,42,45,50)       -178.3073         estimate D2E/DX2                !
 ! D135  D(37,42,45,51)         64.6499         estimate D2E/DX2                !
 ! D136  D(48,42,45,39)       -177.7385         estimate D2E/DX2                !
 ! D137  D(48,42,45,50)         59.4663         estimate D2E/DX2                !
 ! D138  D(48,42,45,51)        -57.5765         estimate D2E/DX2                !
 ! D139  D(49,42,45,39)         64.9899         estimate D2E/DX2                !
 ! D140  D(49,42,45,50)        -57.8053         estimate D2E/DX2                !
 ! D141  D(49,42,45,51)       -174.8481         estimate D2E/DX2                !
 --------------------------------------------------------------------------------
 Trust Radius=3.00D-01 FncErr=5.00D-06 GrdErr=5.00D-06 EigMax=2.50D+02 EigMin=1.00D-04
 Number of steps in this run=    301 maximum allowed number of steps=    306.
 GradGradGradGradGradGradGradGradGradGradGradGradGradGradGradGradGradGrad

 Leave Link  103 at Thu Dec 13 14:18:11 2018, MaxMem=  1342177280 cpu:               0.8 elap:               0.1
 (Enter /gpfs/apps/hpc/Apps/Restricted/Gaussian/Rev_A.03/g16/l202.exe)
 Symmetry turned off by external request.
 Stoichiometry    C22H25N3O
 Framework group  C1[X(C22H25N3O)]
 Deg. of freedom   147
 Full point group                 C1      NOp   1
                          Input orientation:                          
 ---------------------------------------------------------------------
 Center     Atomic      Atomic             Coordinates (Angstroms)
 Number     Number       Type             X           Y           Z
 ---------------------------------------------------------------------
      1          6           0       -0.464016    2.687907    0.302918
      2          6           0       -1.865592    2.861694    0.266958
      3          6           0       -2.406128    4.150853    0.194177
      4          6           0       -1.519270    5.227263    0.165183
      5          6           0       -0.128231    5.037800    0.200664
      6          6           0        0.440920    3.759294    0.268134
      7          6           0       -1.486085    0.719710    0.368798
      8          1           0       -3.478186    4.302097    0.162417
      9          1           0       -1.911621    6.236101    0.112988
     10          1           0        0.530326    5.899288    0.176209
     11          7           0       -2.473534    1.616523    0.308464
     12          6           0       -3.027505   -1.214277    0.365002
     13          6           0       -1.702172   -0.716102    0.417776
     14          6           0       -0.628631   -1.619999    0.499398
     15          6           0       -0.838191   -2.994148    0.533102
     16          6           0       -2.162132   -3.457845    0.476757
     17          6           0       -3.257186   -2.601750    0.396295
     18          1           0        0.385673   -1.236769    0.542363
     19          1           0       -2.342285   -4.528541    0.501258
     20          6           0        0.316003   -3.960563    0.629400
     21          1           0        1.051190   -3.789018   -0.162099
     22          1           0        0.842452   -3.860889    1.583888
     23          1           0       -0.034136   -4.991455    0.548166
     24          6           0       -4.667919   -3.118784    0.339484
     25          1           0       -5.273600   -2.703515    1.150189
     26          1           0       -5.159514   -2.833373   -0.595691
     27          1           0       -4.683477   -4.206905    0.418466
     28          8           0       -4.104821   -0.402634    0.284758
     29          1           0       -3.773832    0.540227    0.280353
     30          7           0       -0.257510    1.330909    0.368136
     31          1           0        0.672409    0.929681    0.395081
     32          6           0        1.885543    3.552563    0.294638
     33          1           0        2.495162    4.461370    0.240612
     34          7           0        2.393902    2.378618    0.377624
     35          6           0        3.859284    2.262967    0.403824
     36          6           0        4.498506    2.699094   -0.924819
     37          6           0        4.498399    3.019840    1.580094
     38          1           0        4.075136    1.197155    0.541106
     39          6           0        6.015675    2.482711   -0.895801
     40          1           0        4.279374    3.761530   -1.085188
     41          1           0        4.041718    2.145649   -1.750758
     42          6           0        6.014261    2.795815    1.613456
     43          1           0        4.295379    4.091638    1.467922
     44          1           0        4.031049    2.701085    2.516487
     45          6           0        6.661290    3.212743    0.287433
     46          1           0        6.461519    2.812467   -1.839203
     47          1           0        6.219816    1.407819   -0.809903
     48          1           0        6.454588    3.351723    2.447047
     49          1           0        6.218205    1.733493    1.797219
     50          1           0        7.738403    3.020732    0.311445
     51          1           0        6.534339    4.294400    0.152747
 ---------------------------------------------------------------------
 Rotational constants (GHZ):           0.2888500           0.1041760           0.0790835
 Leave Link  202 at Thu Dec 13 14:18:11 2018, MaxMem=  1342177280 cpu:               1.3 elap:               0.1
 (Enter /gpfs/apps/hpc/Apps/Restricted/Gaussian/Rev_A.03/g16/l301.exe)
 Standard basis: 6-31G(d,p) (6D, 7F)
 Ernie: Thresh=  0.10000D-02 Tol=  0.10000D-05 Strict=F.
   515 basis functions,   903 primitive gaussians,   515 cartesian basis functions
    93 alpha electrons       93 beta electrons
       nuclear repulsion energy      2186.4011707212 Hartrees.
 IExCor=  402 DFT=T Ex+Corr=B3LYP ExCW=0 ScaHFX=  0.200000
 ScaDFX=  0.800000  0.720000  1.000000  0.810000 ScalE2=  1.000000  1.000000
 IRadAn=      5 IRanWt=     -1 IRanGd=            0 ICorTp=0 IEmpDi=141
 NAtoms=   51 NActive=   51 NUniq=   51 SFac= 1.00D+00 NAtFMM=   60 NAOKFM=F Big=F
 Integral buffers will be    131072 words long.
 Raffenetti 2 integral format.
 Two-electron integral symmetry is turned off.
 R6Disp:  Grimme-D3(BJ) Dispersion energy=       -0.1083040774 Hartrees.
 Nuclear repulsion after empirical dispersion term =     2186.2928666439 Hartrees.
 Using the following non-standard input for PCM:
 radii=bondi
 dis
 rep
 cav
 --- end of non-standard input.
 ------------------------------------------------------------------------------
 Polarizable Continuum Model (PCM)
 =================================
 Model                : C-PCM.
 Atomic radii         : Bondi.
 Polarization charges : Total charges.
 Charge compensation  : None.
 Solution method      : On-the-fly selection.
 Cavity type          : Scaled VdW (van der Waals Surface) (Alpha=1.100).
 Cavity algorithm     : GePol (No added spheres)
                        Default sphere list used, NSphG=   51.
                        Lebedev-Laikov grids with approx.  5.0 points / Ang**2.
                        Smoothing algorithm: York/Karplus (Gamma=1.0000).
                        Polarization charges: spherical gaussians, with
                                              point-specific exponents (IZeta= 3).
                        Self-potential: point-specific (ISelfS= 7).
                        Self-field    : sphere-specific E.n sum rule (ISelfD= 2).
 1st derivatives      : Analytical E(r).r(x)/FMM algorithm (CHGder, D1EAlg=3).
                        Cavity 1st derivative terms included.
 Solvent              : Dichloromethane, Eps=   8.930000 Eps(inf)=   2.028346
 ------------------------------------------------------------------------------
 GePol: Number of generator spheres                  =      51
 GePol: Total number of spheres                      =      51
 GePol: Number of exposed spheres                    =      51 (100.00%)
 GePol: Number of points                             =    3443
 GePol: Average weight of points                     =       0.12
 GePol: Minimum weight of points                     =   0.10D-10
 GePol: Maximum weight of points                     =    0.21770
 GePol: Number of points with low weight             =     228
 GePol: Fraction of low-weight points (<1% of avg)   =       6.62%
 GePol: Cavity surface area                          =    409.725 Ang**2
 GePol: Cavity volume                                =    387.232 Ang**3
 PCM non-electrostatic energy =         0.0149834877 Hartrees.
 Nuclear repulsion after PCM non-electrostatic terms =     2186.3078501315 Hartrees.
 Leave Link  301 at Thu Dec 13 14:18:12 2018, MaxMem=  1342177280 cpu:               3.3 elap:               0.3
 (Enter /gpfs/apps/hpc/Apps/Restricted/Gaussian/Rev_A.03/g16/l302.exe)
 NPDir=0 NMtPBC=     1 NCelOv=     1 NCel=       1 NClECP=     1 NCelD=      1
         NCelK=      1 NCelE2=     1 NClLst=     1 CellRange=     0.0.
 One-electron integrals computed using PRISM.
 NBasis=   515 RedAO= T EigKep=  2.95D-04  NBF=   515
 NBsUse=   515 1.00D-06 EigRej= -1.00D+00 NBFU=   515
 Precomputing XC quadrature grid using
 IXCGrd= 4 IRadAn=           5 IRanWt=          -1 IRanGd=           0 AccXCQ= 0.00D+00.
 Generated NRdTot=       0 NPtTot=           0 NUsed=           0 NTot=          32
 NSgBfM=   507   507   507   507   507 MxSgAt=    51 MxSgA2=    51.
 Leave Link  302 at Thu Dec 13 14:18:13 2018, MaxMem=  1342177280 cpu:              11.4 elap:               0.8
 (Enter /gpfs/apps/hpc/Apps/Restricted/Gaussian/Rev_A.03/g16/l303.exe)
 DipDrv:  MaxL=1.
 Leave Link  303 at Thu Dec 13 14:18:14 2018, MaxMem=  1342177280 cpu:               1.9 elap:               0.3
 (Enter /gpfs/apps/hpc/Apps/Restricted/Gaussian/Rev_A.03/g16/l401.exe)
 ExpMin= 1.61D-01 ExpMax= 5.48D+03 ExpMxC= 8.25D+02 IAcc=3 IRadAn=         5 AccDes= 0.00D+00
 Harris functional with IExCor=  402 and IRadAn=       5 diagonalized for initial guess.
 HarFok:  IExCor=  402 AccDes= 0.00D+00 IRadAn=         5 IDoV= 1 UseB2=F ITyADJ=14
 ICtDFT=  3500011 ScaDFX=  1.000000  1.000000  1.000000  1.000000
 FoFCou: FMM=F IPFlag=           0 FMFlag=      100000 FMFlg1=           0
         NFxFlg=           0 DoJE=T BraDBF=F KetDBF=T FulRan=T
         wScrn=  0.000000 ICntrl=       500 IOpCl=  0 I1Cent=   200000004 NGrid=           0
         NMat0=    1 NMatS0=      1 NMatT0=    0 NMatD0=    1 NMtDS0=    0 NMtDT0=    0
 Symmetry not used in FoFCou.
 Harris En= -1093.07621304255    
 JPrj=0 DoOrth=F DoCkMO=F.
 Leave Link  401 at Thu Dec 13 14:18:17 2018, MaxMem=  1342177280 cpu:              47.3 elap:               3.1
 (Enter /gpfs/apps/hpc/Apps/Restricted/Gaussian/Rev_A.03/g16/l502.exe)
 Two-electron integral symmetry not used.
 Closed shell SCF:
 Using DIIS extrapolation, IDIIS=  1040.
 NGot=  1342177280 LenX=  1341634262 LenY=  1341368522
 Requested convergence on RMS density matrix=1.00D-08 within 128 cycles.
 Requested convergence on MAX density matrix=1.00D-06.
 Requested convergence on             energy=1.00D-06.
 No special actions if energy rises.
 Fock matrices will be formed incrementally for  20 cycles.

 Cycle   1  Pass 1  IDiag  1:
 FoFJK:  IHMeth= 1 ICntrl=       0 DoSepK=F KAlg= 0 I1Cent=           0 FoldK=F
 IRaf= 600000000 NMat=       1 IRICut=       1 DoRegI=T DoRafI=F ISym2E= 0 IDoP0=0 IntGTp=1.
 FoFCou: FMM=F IPFlag=           0 FMFlag=      100000 FMFlg1=           0
         NFxFlg=           0 DoJE=F BraDBF=F KetDBF=F FulRan=T
         wScrn=  0.000000 ICntrl=         0 IOpCl=  0 I1Cent=           0 NGrid=           0
         NMat0=    1 NMatS0=      1 NMatT0=    0 NMatD0=    1 NMtDS0=    0 NMtDT0=    0
 Symmetry not used in FoFCou.
 Inv3:  Mode=1 IEnd=    35562747.
 Iteration    1 A*A^-1 deviation from unit magnitude is 7.11D-15 for   3435.
 Iteration    1 A*A^-1 deviation from orthogonality  is 2.88D-15 for   1955   1339.
 Iteration    1 A^-1*A deviation from unit magnitude is 6.88D-15 for   3435.
 Iteration    1 A^-1*A deviation from orthogonality  is 5.34D-15 for   3422   3306.
 E= -1092.47308574182    
 DIIS: error= 2.73D-02 at cycle   1 NSaved=   1.
 NSaved= 1 IEnMin= 1 EnMin= -1092.47308574182     IErMin= 1 ErrMin= 2.73D-02
 ErrMax= 2.73D-02  0.00D+00 EMaxC= 1.00D-01 BMatC= 5.78D-01 BMatP= 5.78D-01
 IDIUse=3 WtCom= 7.27D-01 WtEn= 2.73D-01
 Coeff-Com:  0.100D+01
 Coeff-En:   0.100D+01
 Coeff:      0.100D+01
 Gap=     0.156 Goal=   None    Shift=    0.000
 GapD=    0.156 DampG=1.000 DampE=0.500 DampFc=0.5000 IDamp=-1.
 Damping current iteration by 5.00D-01
 RMSDP=3.52D-03 MaxDP=1.39D-01              OVMax= 1.85D-01

 Cycle   2  Pass 1  IDiag  1:
 RMSU=  1.71D-03    CP:  9.70D-01
 E= -1092.74827486990     Delta-E=       -0.275189128080 Rises=F Damp=T
 DIIS: error= 8.89D-03 at cycle   2 NSaved=   2.
 NSaved= 2 IEnMin= 2 EnMin= -1092.74827486990     IErMin= 2 ErrMin= 8.89D-03
 ErrMax= 8.89D-03  0.00D+00 EMaxC= 1.00D-01 BMatC= 3.92D-02 BMatP= 5.78D-01
 IDIUse=3 WtCom= 9.11D-01 WtEn= 8.89D-02
 Coeff-Com:  0.411D-01 0.959D+00
 Coeff-En:   0.706D-01 0.929D+00
 Coeff:      0.437D-01 0.956D+00
 Gap=     0.164 Goal=   None    Shift=    0.000
 RMSDP=9.57D-04 MaxDP=4.97D-02 DE=-2.75D-01 OVMax= 1.56D-01

 Cycle   3  Pass 1  IDiag  1:
 RMSU=  9.36D-04    CP:  9.56D-01  9.76D-01
 E= -1093.05371641972     Delta-E=       -0.305441549826 Rises=F Damp=F
 DIIS: error= 5.37D-03 at cycle   3 NSaved=   3.
 NSaved= 3 IEnMin= 3 EnMin= -1093.05371641972     IErMin= 3 ErrMin= 5.37D-03
 ErrMax= 5.37D-03  0.00D+00 EMaxC= 1.00D-01 BMatC= 2.54D-02 BMatP= 3.92D-02
 IDIUse=3 WtCom= 9.46D-01 WtEn= 5.37D-02
 Coeff-Com: -0.319D-01 0.444D+00 0.588D+00
 Coeff-En:   0.000D+00 0.000D+00 0.100D+01
 Coeff:     -0.302D-01 0.420D+00 0.610D+00
 Gap=     0.148 Goal=   None    Shift=    0.000
 RMSDP=4.82D-04 MaxDP=3.31D-02 DE=-3.05D-01 OVMax= 5.78D-02

 Cycle   4  Pass 1  IDiag  1:
 RMSU=  3.50D-04    CP:  9.57D-01  1.05D+00  6.70D-01
 E= -1093.07413140964     Delta-E=       -0.020414989917 Rises=F Damp=F
 DIIS: error= 3.74D-03 at cycle   4 NSaved=   4.
 NSaved= 4 IEnMin= 4 EnMin= -1093.07413140964     IErMin= 4 ErrMin= 3.74D-03
 ErrMax= 3.74D-03  0.00D+00 EMaxC= 1.00D-01 BMatC= 5.97D-03 BMatP= 2.54D-02
 IDIUse=3 WtCom= 9.63D-01 WtEn= 3.74D-02
 Coeff-Com: -0.173D-01 0.105D+00 0.351D+00 0.562D+00
 Coeff-En:   0.000D+00 0.000D+00 0.197D+00 0.803D+00
 Coeff:     -0.167D-01 0.101D+00 0.345D+00 0.571D+00
 Gap=     0.146 Goal=   None    Shift=    0.000
 RMSDP=1.86D-04 MaxDP=1.28D-02 DE=-2.04D-02 OVMax= 2.14D-02

 Cycle   5  Pass 1  IDiag  1:
 RMSU=  9.74D-05    CP:  9.57D-01  1.03D+00  7.53D-01  6.16D-01
 E= -1093.07975590319     Delta-E=       -0.005624493548 Rises=F Damp=F
 DIIS: error= 1.07D-03 at cycle   5 NSaved=   5.
 NSaved= 5 IEnMin= 5 EnMin= -1093.07975590319     IErMin= 5 ErrMin= 1.07D-03
 ErrMax= 1.07D-03  0.00D+00 EMaxC= 1.00D-01 BMatC= 5.34D-04 BMatP= 5.97D-03
 IDIUse=3 WtCom= 9.89D-01 WtEn= 1.07D-02
 Coeff-Com: -0.690D-02 0.217D-01 0.147D+00 0.324D+00 0.514D+00
 Coeff-En:   0.000D+00 0.000D+00 0.000D+00 0.000D+00 0.100D+01
 Coeff:     -0.683D-02 0.215D-01 0.146D+00 0.320D+00 0.519D+00
 Gap=     0.146 Goal=   None    Shift=    0.000
 RMSDP=5.61D-05 MaxDP=4.10D-03 DE=-5.62D-03 OVMax= 5.35D-03

 Cycle   6  Pass 1  IDiag  1:
 RMSU=  2.83D-05    CP:  9.57D-01  1.03D+00  7.60D-01  6.48D-01  5.26D-01
 E= -1093.08022868054     Delta-E=       -0.000472777353 Rises=F Damp=F
 DIIS: error= 2.61D-04 at cycle   6 NSaved=   6.
 NSaved= 6 IEnMin= 6 EnMin= -1093.08022868054     IErMin= 6 ErrMin= 2.61D-04
 ErrMax= 2.61D-04  0.00D+00 EMaxC= 1.00D-01 BMatC= 3.57D-05 BMatP= 5.34D-04
 IDIUse=3 WtCom= 9.97D-01 WtEn= 2.61D-03
 Coeff-Com: -0.253D-02 0.481D-02 0.544D-01 0.133D+00 0.284D+00 0.527D+00
 Coeff-En:   0.000D+00 0.000D+00 0.000D+00 0.000D+00 0.000D+00 0.100D+01
 Coeff:     -0.253D-02 0.479D-02 0.542D-01 0.132D+00 0.283D+00 0.528D+00
 Gap=     0.146 Goal=   None    Shift=    0.000
 RMSDP=1.50D-05 MaxDP=1.26D-03 DE=-4.73D-04 OVMax= 1.92D-03

 Cycle   7  Pass 1  IDiag  1:
 RMSU=  9.27D-06    CP:  9.57D-01  1.03D+00  7.59D-01  6.52D-01  5.86D-01
                    CP:  6.46D-01
 E= -1093.08025768879     Delta-E=       -0.000029008251 Rises=F Damp=F
 DIIS: error= 5.86D-05 at cycle   7 NSaved=   7.
 NSaved= 7 IEnMin= 7 EnMin= -1093.08025768879     IErMin= 7 ErrMin= 5.86D-05
 ErrMax= 5.86D-05  0.00D+00 EMaxC= 1.00D-01 BMatC= 4.32D-06 BMatP= 3.57D-05
 IDIUse=1 WtCom= 1.00D+00 WtEn= 0.00D+00
 Coeff-Com: -0.823D-03 0.687D-03 0.174D-01 0.460D-01 0.118D+00 0.315D+00
 Coeff-Com:  0.504D+00
 Coeff:     -0.823D-03 0.687D-03 0.174D-01 0.460D-01 0.118D+00 0.315D+00
 Coeff:      0.504D+00
 Gap=     0.146 Goal=   None    Shift=    0.000
 RMSDP=4.67D-06 MaxDP=4.00D-04 DE=-2.90D-05 OVMax= 6.52D-04

 Cycle   8  Pass 1  IDiag  1:
 RMSU=  2.15D-06    CP:  9.57D-01  1.03D+00  7.60D-01  6.53D-01  5.87D-01
                    CP:  6.89D-01  5.79D-01
 E= -1093.08026173662     Delta-E=       -0.000004047824 Rises=F Damp=F
 DIIS: error= 1.15D-05 at cycle   8 NSaved=   8.
 NSaved= 8 IEnMin= 8 EnMin= -1093.08026173662     IErMin= 8 ErrMin= 1.15D-05
 ErrMax= 1.15D-05  0.00D+00 EMaxC= 1.00D-01 BMatC= 1.26D-07 BMatP= 4.32D-06
 IDIUse=1 WtCom= 1.00D+00 WtEn= 0.00D+00
 Coeff-Com: -0.157D-03-0.557D-04 0.308D-02 0.873D-02 0.273D-01 0.898D-01
 Coeff-Com:  0.208D+00 0.663D+00
 Coeff:     -0.157D-03-0.557D-04 0.308D-02 0.873D-02 0.273D-01 0.898D-01
 Coeff:      0.208D+00 0.663D+00
 Gap=     0.146 Goal=   None    Shift=    0.000
 RMSDP=1.02D-06 MaxDP=7.70D-05 DE=-4.05D-06 OVMax= 1.14D-04

 Cycle   9  Pass 1  IDiag  1:
 RMSU=  8.13D-07    CP:  9.57D-01  1.03D+00  7.60D-01  6.53D-01  5.87D-01
                    CP:  6.90D-01  6.19D-01  7.81D-01
 E= -1093.08026182999     Delta-E=       -0.000000093373 Rises=F Damp=F
 DIIS: error= 7.47D-06 at cycle   9 NSaved=   9.
 NSaved= 9 IEnMin= 9 EnMin= -1093.08026182999     IErMin= 9 ErrMin= 7.47D-06
 ErrMax= 7.47D-06  0.00D+00 EMaxC= 1.00D-01 BMatC= 3.67D-08 BMatP= 1.26D-07
 IDIUse=1 WtCom= 1.00D+00 WtEn= 0.00D+00
 Coeff-Com:  0.889D-05-0.125D-03-0.345D-03-0.648D-03 0.145D-02 0.136D-01
 Coeff-Com:  0.599D-01 0.394D+00 0.532D+00
 Coeff:      0.889D-05-0.125D-03-0.345D-03-0.648D-03 0.145D-02 0.136D-01
 Coeff:      0.599D-01 0.394D+00 0.532D+00
 Gap=     0.146 Goal=   None    Shift=    0.000
 RMSDP=4.37D-07 MaxDP=3.89D-05 DE=-9.34D-08 OVMax= 4.82D-05

 Cycle  10  Pass 1  IDiag  1:
 RMSU=  2.61D-07    CP:  9.57D-01  1.03D+00  7.60D-01  6.53D-01  5.88D-01
                    CP:  6.92D-01  6.22D-01  8.52D-01  6.30D-01
 E= -1093.08026186378     Delta-E=       -0.000000033785 Rises=F Damp=F
 DIIS: error= 2.74D-06 at cycle  10 NSaved=  10.
 NSaved=10 IEnMin=10 EnMin= -1093.08026186378     IErMin=10 ErrMin= 2.74D-06
 ErrMax= 2.74D-06  0.00D+00 EMaxC= 1.00D-01 BMatC= 2.88D-09 BMatP= 3.67D-08
 IDIUse=1 WtCom= 1.00D+00 WtEn= 0.00D+00
 Coeff-Com:  0.176D-04-0.635D-04-0.436D-03-0.109D-02-0.142D-02 0.201D-03
 Coeff-Com:  0.154D-01 0.159D+00 0.291D+00 0.537D+00
 Coeff:      0.176D-04-0.635D-04-0.436D-03-0.109D-02-0.142D-02 0.201D-03
 Coeff:      0.154D-01 0.159D+00 0.291D+00 0.537D+00
 Gap=     0.146 Goal=   None    Shift=    0.000
 RMSDP=1.40D-07 MaxDP=1.17D-05 DE=-3.38D-08 OVMax= 1.54D-05

 Cycle  11  Pass 1  IDiag  1:
 RMSU=  9.17D-08    CP:  9.57D-01  1.03D+00  7.60D-01  6.53D-01  5.88D-01
                    CP:  6.93D-01  6.24D-01  8.64D-01  6.95D-01  6.89D-01
 E= -1093.08026186624     Delta-E=       -0.000000002469 Rises=F Damp=F
 DIIS: error= 9.77D-07 at cycle  11 NSaved=  11.
 NSaved=11 IEnMin=11 EnMin= -1093.08026186624     IErMin=11 ErrMin= 9.77D-07
 ErrMax= 9.77D-07  0.00D+00 EMaxC= 1.00D-01 BMatC= 3.20D-10 BMatP= 2.88D-09
 IDIUse=1 WtCom= 1.00D+00 WtEn= 0.00D+00
 Coeff-Com:  0.742D-05-0.127D-04-0.174D-03-0.492D-03-0.961D-03-0.182D-02
 Coeff-Com: -0.424D-03 0.271D-01 0.778D-01 0.287D+00 0.612D+00
 Coeff:      0.742D-05-0.127D-04-0.174D-03-0.492D-03-0.961D-03-0.182D-02
 Coeff:     -0.424D-03 0.271D-01 0.778D-01 0.287D+00 0.612D+00
 Gap=     0.146 Goal=   None    Shift=    0.000
 RMSDP=4.37D-08 MaxDP=3.30D-06 DE=-2.47D-09 OVMax= 6.34D-06

 Cycle  12  Pass 1  IDiag  1:
 RMSU=  2.46D-08    CP:  9.57D-01  1.03D+00  7.60D-01  6.53D-01  5.88D-01
                    CP:  6.93D-01  6.24D-01  8.68D-01  7.02D-01  7.67D-01
                    CP:  6.99D-01
 E= -1093.08026186648     Delta-E=       -0.000000000232 Rises=F Damp=F
 DIIS: error= 2.03D-07 at cycle  12 NSaved=  12.
 NSaved=12 IEnMin=12 EnMin= -1093.08026186648     IErMin=12 ErrMin= 2.03D-07
 ErrMax= 2.03D-07  0.00D+00 EMaxC= 1.00D-01 BMatC= 2.11D-11 BMatP= 3.20D-10
 IDIUse=1 WtCom= 1.00D+00 WtEn= 0.00D+00
 Coeff-Com:  0.225D-05-0.140D-05-0.493D-04-0.155D-03-0.342D-03-0.850D-03
 Coeff-Com: -0.126D-02 0.607D-03 0.148D-01 0.884D-01 0.279D+00 0.620D+00
 Coeff:      0.225D-05-0.140D-05-0.493D-04-0.155D-03-0.342D-03-0.850D-03
 Coeff:     -0.126D-02 0.607D-03 0.148D-01 0.884D-01 0.279D+00 0.620D+00
 Gap=     0.146 Goal=   None    Shift=    0.000
 RMSDP=1.35D-08 MaxDP=8.14D-07 DE=-2.32D-10 OVMax= 2.04D-06

 Cycle  13  Pass 1  IDiag  1:
 RMSU=  1.02D-08    CP:  9.57D-01  1.03D+00  7.60D-01  6.53D-01  5.88D-01
                    CP:  6.93D-01  6.24D-01  8.68D-01  7.05D-01  7.76D-01
                    CP:  7.65D-01  8.03D-01
 E= -1093.08026186652     Delta-E=       -0.000000000045 Rises=F Damp=F
 DIIS: error= 7.85D-08 at cycle  13 NSaved=  13.
 NSaved=13 IEnMin=13 EnMin= -1093.08026186652     IErMin=13 ErrMin= 7.85D-08
 ErrMax= 7.85D-08  0.00D+00 EMaxC= 1.00D-01 BMatC= 4.17D-12 BMatP= 2.11D-11
 IDIUse=1 WtCom= 1.00D+00 WtEn= 0.00D+00
 Coeff-Com: -0.196D-06 0.162D-05 0.741D-05 0.974D-05-0.151D-05-0.126D-03
 Coeff-Com: -0.640D-03-0.537D-02-0.713D-02-0.769D-02 0.397D-01 0.337D+00
 Coeff-Com:  0.644D+00
 Coeff:     -0.196D-06 0.162D-05 0.741D-05 0.974D-05-0.151D-05-0.126D-03
 Coeff:     -0.640D-03-0.537D-02-0.713D-02-0.769D-02 0.397D-01 0.337D+00
 Coeff:      0.644D+00
 Gap=     0.146 Goal=   None    Shift=    0.000
 RMSDP=5.63D-09 MaxDP=3.14D-07 DE=-4.50D-11 OVMax= 1.16D-06

 Error on total polarization charges =  0.04135
 SCF Done:  E(RB3LYP) =  -1093.08026187     A.U. after   13 cycles
            NFock= 13  Conv=0.56D-08     -V/T= 2.0096
 KE= 1.082720934399D+03 PE=-6.908738161581D+03 EE= 2.546629115184D+03
 Leave Link  502 at Thu Dec 13 14:19:39 2018, MaxMem=  1342177280 cpu:            1220.4 elap:              82.3
 (Enter /gpfs/apps/hpc/Apps/Restricted/Gaussian/Rev_A.03/g16/l601.exe)
 Copying SCF densities to generalized density rwf, IOpCl= 0 IROHF=0.

 **********************************************************************

            Population analysis using the SCF density.

 **********************************************************************

 Alpha  occ. eigenvalues --  -19.15905 -14.38616 -14.33313 -14.32845 -10.26992
 Alpha  occ. eigenvalues --  -10.24795 -10.23255 -10.22956 -10.21902 -10.20701
 Alpha  occ. eigenvalues --  -10.20399 -10.20281 -10.19681 -10.19611 -10.19102
 Alpha  occ. eigenvalues --  -10.19037 -10.19018 -10.18961 -10.18504 -10.17566
 Alpha  occ. eigenvalues --  -10.17557 -10.17512 -10.17468 -10.17417 -10.17416
 Alpha  occ. eigenvalues --  -10.17251  -1.04789  -1.02240  -0.92455  -0.88419
 Alpha  occ. eigenvalues --   -0.86073  -0.84989  -0.81911  -0.78623  -0.77270
 Alpha  occ. eigenvalues --   -0.76404  -0.73649  -0.73152  -0.72429  -0.68647
 Alpha  occ. eigenvalues --   -0.67378  -0.65653  -0.64290  -0.61626  -0.61372
 Alpha  occ. eigenvalues --   -0.60505  -0.58849  -0.57307  -0.56690  -0.55196
 Alpha  occ. eigenvalues --   -0.53400  -0.51123  -0.50872  -0.49074  -0.47801
 Alpha  occ. eigenvalues --   -0.47443  -0.46008  -0.45657  -0.44534  -0.44041
 Alpha  occ. eigenvalues --   -0.43742  -0.43381  -0.42789  -0.42552  -0.41327
 Alpha  occ. eigenvalues --   -0.40770  -0.40452  -0.39903  -0.39664  -0.39484
 Alpha  occ. eigenvalues --   -0.38496  -0.38131  -0.37397  -0.37385  -0.36795
 Alpha  occ. eigenvalues --   -0.36381  -0.35785  -0.34855  -0.34083  -0.33815
 Alpha  occ. eigenvalues --   -0.33385  -0.33135  -0.32021  -0.31604  -0.31489
 Alpha  occ. eigenvalues --   -0.30653  -0.28821  -0.28418  -0.26656  -0.25090
 Alpha  occ. eigenvalues --   -0.22825  -0.22436  -0.20501
 Alpha virt. eigenvalues --   -0.05876  -0.02449   0.01083   0.01740   0.04624
 Alpha virt. eigenvalues --    0.07587   0.08941   0.09508   0.10547   0.11334
 Alpha virt. eigenvalues --    0.11965   0.12644   0.13407   0.13771   0.13964
 Alpha virt. eigenvalues --    0.15450   0.15536   0.16097   0.16598   0.16732
 Alpha virt. eigenvalues --    0.17222   0.17769   0.17932   0.18071   0.18293
 Alpha virt. eigenvalues --    0.18699   0.18991   0.19426   0.19500   0.19809
 Alpha virt. eigenvalues --    0.20345   0.20884   0.21302   0.21809   0.22813
 Alpha virt. eigenvalues --    0.23506   0.24273   0.24697   0.24834   0.25763
 Alpha virt. eigenvalues --    0.26407   0.26860   0.27300   0.28055   0.28669
 Alpha virt. eigenvalues --    0.30038   0.30871   0.32265   0.32766   0.33694
 Alpha virt. eigenvalues --    0.35133   0.35921   0.37220   0.39486   0.40521
 Alpha virt. eigenvalues --    0.41653   0.43352   0.45509   0.46834   0.48971
 Alpha virt. eigenvalues --    0.49785   0.50204   0.50379   0.51695   0.52136
 Alpha virt. eigenvalues --    0.52543   0.53167   0.53679   0.54019   0.54135
 Alpha virt. eigenvalues --    0.54472   0.54909   0.55175   0.55872   0.55908
 Alpha virt. eigenvalues --    0.56197   0.57218   0.57368   0.57872   0.58117
 Alpha virt. eigenvalues --    0.58441   0.59415   0.59921   0.60785   0.61066
 Alpha virt. eigenvalues --    0.61584   0.61731   0.62438   0.63012   0.63356
 Alpha virt. eigenvalues --    0.63648   0.64201   0.65615   0.66670   0.66930
 Alpha virt. eigenvalues --    0.67270   0.67923   0.68383   0.69074   0.70094
 Alpha virt. eigenvalues --    0.70988   0.71113   0.72313   0.73984   0.74194
 Alpha virt. eigenvalues --    0.74247   0.76329   0.76516   0.77380   0.78152
 Alpha virt. eigenvalues --    0.78724   0.79157   0.80492   0.80792   0.81428
 Alpha virt. eigenvalues --    0.81938   0.82239   0.82611   0.82966   0.83775
 Alpha virt. eigenvalues --    0.84568   0.85182   0.85509   0.85738   0.86832
 Alpha virt. eigenvalues --    0.87588   0.87967   0.88040   0.88251   0.88921
 Alpha virt. eigenvalues --    0.89703   0.89976   0.90372   0.90642   0.91498
 Alpha virt. eigenvalues --    0.92026   0.92090   0.93005   0.93095   0.93996
 Alpha virt. eigenvalues --    0.94834   0.95346   0.95776   0.95956   0.96922
 Alpha virt. eigenvalues --    0.98574   0.99045   1.00051   1.00897   1.01462
 Alpha virt. eigenvalues --    1.02723   1.05296   1.07480   1.08247   1.09825
 Alpha virt. eigenvalues --    1.10308   1.11099   1.11997   1.12639   1.15667
 Alpha virt. eigenvalues --    1.15707   1.17813   1.18848   1.19382   1.20949
 Alpha virt. eigenvalues --    1.22724   1.24095   1.24248   1.24726   1.26321
 Alpha virt. eigenvalues --    1.27267   1.27853   1.28999   1.29359   1.29593
 Alpha virt. eigenvalues --    1.30010   1.31463   1.31914   1.32883   1.35794
 Alpha virt. eigenvalues --    1.36827   1.37500   1.38083   1.38835   1.39821
 Alpha virt. eigenvalues --    1.40676   1.41393   1.41674   1.42056   1.43017
 Alpha virt. eigenvalues --    1.43719   1.44836   1.46486   1.49668   1.50156
 Alpha virt. eigenvalues --    1.51920   1.52270   1.53655   1.54052   1.58237
 Alpha virt. eigenvalues --    1.60492   1.61195   1.61392   1.61628   1.63467
 Alpha virt. eigenvalues --    1.64614   1.69565   1.70190   1.72107   1.72956
 Alpha virt. eigenvalues --    1.73065   1.73556   1.73825   1.74757   1.75596
 Alpha virt. eigenvalues --    1.75752   1.77604   1.77762   1.78769   1.80372
 Alpha virt. eigenvalues --    1.81556   1.81785   1.82681   1.82846   1.83832
 Alpha virt. eigenvalues --    1.84795   1.85199   1.85910   1.86996   1.87859
 Alpha virt. eigenvalues --    1.88003   1.88472   1.90845   1.91524   1.92330
 Alpha virt. eigenvalues --    1.92875   1.93530   1.94077   1.94657   1.96068
 Alpha virt. eigenvalues --    1.96356   1.96521   1.97485   1.99261   1.99983
 Alpha virt. eigenvalues --    2.00915   2.01711   2.02290   2.02583   2.05224
 Alpha virt. eigenvalues --    2.05285   2.05606   2.05866   2.07933   2.08600
 Alpha virt. eigenvalues --    2.10088   2.11111   2.11278   2.11520   2.12506
 Alpha virt. eigenvalues --    2.13365   2.15105   2.15283   2.15894   2.16180
 Alpha virt. eigenvalues --    2.16309   2.16705   2.18451   2.19032   2.19434
 Alpha virt. eigenvalues --    2.20722   2.21752   2.21880   2.22933   2.24379
 Alpha virt. eigenvalues --    2.25465   2.26045   2.26608   2.26991   2.27047
 Alpha virt. eigenvalues --    2.28380   2.30040   2.30321   2.31092   2.31800
 Alpha virt. eigenvalues --    2.34078   2.34735   2.35039   2.35795   2.36289
 Alpha virt. eigenvalues --    2.37601   2.38166   2.39669   2.39812   2.40056
 Alpha virt. eigenvalues --    2.40505   2.41901   2.42920   2.43585   2.44456
 Alpha virt. eigenvalues --    2.45315   2.47159   2.48118   2.48322   2.49667
 Alpha virt. eigenvalues --    2.51224   2.51446   2.52625   2.53977   2.54270
 Alpha virt. eigenvalues --    2.54589   2.55822   2.55997   2.56365   2.56727
 Alpha virt. eigenvalues --    2.58785   2.59581   2.59944   2.60368   2.60887
 Alpha virt. eigenvalues --    2.62931   2.64285   2.64744   2.65103   2.66765
 Alpha virt. eigenvalues --    2.67913   2.68391   2.69730   2.71028   2.71432
 Alpha virt. eigenvalues --    2.72308   2.72732   2.74127   2.75014   2.75222
 Alpha virt. eigenvalues --    2.75339   2.76709   2.77203   2.77463   2.80320
 Alpha virt. eigenvalues --    2.81146   2.81684   2.82192   2.83957   2.84753
 Alpha virt. eigenvalues --    2.86419   2.87210   2.87788   2.88022   2.88147
 Alpha virt. eigenvalues --    2.89279   2.89872   2.91794   2.92138   2.92709
 Alpha virt. eigenvalues --    2.93550   2.95228   2.95864   2.97995   3.01089
 Alpha virt. eigenvalues --    3.03408   3.05766   3.07361   3.11654   3.14522
 Alpha virt. eigenvalues --    3.15528   3.17442   3.19587   3.21481   3.21672
 Alpha virt. eigenvalues --    3.23108   3.24292   3.27758   3.30844   3.31491
 Alpha virt. eigenvalues --    3.32248   3.34046   3.35195   3.39640   3.40863
 Alpha virt. eigenvalues --    3.42672   3.43838   3.44206   3.44452   3.46189
 Alpha virt. eigenvalues --    3.46866   3.47721   3.49745   3.52251   3.53442
 Alpha virt. eigenvalues --    3.54450   3.56849   3.61783   3.64026   3.73921
 Alpha virt. eigenvalues --    3.81523   4.07057   4.07979   4.11181   4.13142
 Alpha virt. eigenvalues --    4.14362   4.15312   4.16092   4.26875   4.30224
 Alpha virt. eigenvalues --    4.31571   4.35270   4.38292   4.41677   4.43828
 Alpha virt. eigenvalues --    4.47053   4.48317   4.51291   4.57267   4.60303
 Alpha virt. eigenvalues --    4.62725   4.67882   4.74255   4.75696   4.80005
 Alpha virt. eigenvalues --    4.89222   4.91442
          Condensed to atoms (all electrons):
 Mulliken charges:
               1
     1  C    0.250028
     2  C    0.261904
     3  C   -0.130168
     4  C   -0.121535
     5  C   -0.176912
     6  C    0.092925
     7  C    0.550451
     8  H    0.117712
     9  H    0.110009
    10  H    0.112729
    11  N   -0.723278
    12  C    0.231566
    13  C    0.080214
    14  C   -0.195470
    15  C    0.104364
    16  C   -0.183834
    17  C    0.091791
    18  H    0.103853
    19  H    0.095507
    20  C   -0.386809
    21  H    0.126262
    22  H    0.128312
    23  H    0.119650
    24  C   -0.376097
    25  H    0.127579
    26  H    0.128414
    27  H    0.116296
    28  O   -0.614657
    29  H    0.352531
    30  N   -0.667889
    31  H    0.299948
    32  C    0.147561
    33  H    0.108611
    34  N   -0.490886
    35  C    0.061428
    36  C   -0.178032
    37  C   -0.181337
    38  H    0.090081
    39  C   -0.186015
    40  H    0.100443
    41  H    0.098235
    42  C   -0.186523
    43  H    0.101461
    44  H    0.098169
    45  C   -0.179603
    46  H    0.094845
    47  H    0.097243
    48  H    0.094701
    49  H    0.097156
    50  H    0.092171
    51  H    0.094896
 Sum of Mulliken charges =  -0.00000
 Mulliken charges with hydrogens summed into heavy atoms:
               1
     1  C    0.250028
     2  C    0.261904
     3  C   -0.012456
     4  C   -0.011526
     5  C   -0.064183
     6  C    0.092925
     7  C    0.550451
    11  N   -0.723278
    12  C    0.231566
    13  C    0.080214
    14  C   -0.091617
    15  C    0.104364
    16  C   -0.088327
    17  C    0.091791
    20  C   -0.012585
    24  C   -0.003808
    28  O   -0.262126
    30  N   -0.367941
    32  C    0.256171
    34  N   -0.490886
    35  C    0.151509
    36  C    0.020645
    37  C    0.018293
    39  C    0.006074
    42  C    0.005335
    45  C    0.007464
 Electronic spatial extent (au):  <R**2>=          14277.1074
 Charge=              0.0000 electrons
 Dipole moment (field-independent basis, Debye):
    X=              6.1766    Y=              1.5864    Z=              0.0296  Tot=              6.3772
 Quadrupole moment (field-independent basis, Debye-Ang):
   XX=           -151.3770   YY=           -126.1133   ZZ=           -156.9402
   XY=              7.9022   XZ=              2.1410   YZ=             -0.7305
 Traceless Quadrupole moment (field-independent basis, Debye-Ang):
   XX=             -6.5668   YY=             18.6968   ZZ=            -12.1300
   XY=              7.9022   XZ=              2.1410   YZ=             -0.7305
 Octapole moment (field-independent basis, Debye-Ang**2):
  XXX=            -63.5111  YYY=           -430.6139  ZZZ=           -165.4135  XYY=            -48.3334
  XXY=           -130.4294  XXZ=            -53.8244  XZZ=            -46.0525  YZZ=           -177.9195
  YYZ=            -47.8247  XYZ=              3.1392
 Hexadecapole moment (field-independent basis, Debye-Ang**3):
 XXXX=         -10410.6025 YYYY=          -7534.6605 ZZZZ=           -600.5613 XXXY=          -2008.3340
 XXXZ=            -28.8225 YYYX=          -2001.7920 YYYZ=           -101.0579 ZZZX=            -52.6704
 ZZZY=            -87.7541 XXYY=          -2885.5439 XXZZ=          -1853.2474 YYZZ=          -1583.9840
 XXYZ=            -21.8212 YYXZ=            -13.5635 ZZXY=           -704.7506
 N-N= 2.186307850132D+03 E-N=-6.908738142816D+03  KE= 1.082720934399D+03
 No NMR shielding tensors so no spin-rotation constants.
 Leave Link  601 at Thu Dec 13 14:19:40 2018, MaxMem=  1342177280 cpu:               2.5 elap:               0.3
 (Enter /gpfs/apps/hpc/Apps/Restricted/Gaussian/Rev_A.03/g16/l701.exe)
 ... and contract with generalized density number  0.
 Compute integral first derivatives.
 R6Disp: Adding Grimme-D3(BJ) dispersion energy 1st derivatives to the gradient.
 D1PCM: C-PCM CHGder 1st derivatives, ID1Alg=3 FixD1E=F DoIter=F DoCFld=F I1PDM=0.
 GePol: Maximum number of non-zero 1st derivatives   =     214
 Leave Link  701 at Thu Dec 13 14:19:41 2018, MaxMem=  1342177280 cpu:              23.3 elap:               1.5
 (Enter /gpfs/apps/hpc/Apps/Restricted/Gaussian/Rev_A.03/g16/l702.exe)
 L702 exits ... SP integral derivatives will be done elsewhere.
 Leave Link  702 at Thu Dec 13 14:19:42 2018, MaxMem=  1342177280 cpu:               0.6 elap:               0.1
 (Enter /gpfs/apps/hpc/Apps/Restricted/Gaussian/Rev_A.03/g16/l703.exe)
 Integral derivatives from FoFJK, PRISM(SPDF).
 Compute integral first derivatives, UseDBF=F ICtDFT=           0.
 Calling FoFJK, ICntrl=      2127 FMM=F ISym2X=0 I1Cent= 0 IOpClX= 0 NMat=1 NMatS=1 NMatT=0.
 FoFJK:  IHMeth= 1 ICntrl=    2127 DoSepK=F KAlg= 0 I1Cent=           0 FoldK=F
 IRaf=         0 NMat=       1 IRICut=       1 DoRegI=T DoRafI=F ISym2E= 0 IDoP0=0 IntGTp=1.
 FoFCou: FMM=F IPFlag=           0 FMFlag=      100000 FMFlg1=         800
         NFxFlg=           0 DoJE=F BraDBF=F KetDBF=F FulRan=T
         wScrn=  0.000000 ICntrl=      2127 IOpCl=  0 I1Cent=           0 NGrid=           0
         NMat0=    1 NMatS0=      1 NMatT0=    0 NMatD0=    1 NMtDS0=    0 NMtDT0=    0
 Symmetry not used in FoFCou.
 Leave Link  703 at Thu Dec 13 14:19:53 2018, MaxMem=  1342177280 cpu:             173.3 elap:              11.1
 (Enter /gpfs/apps/hpc/Apps/Restricted/Gaussian/Rev_A.03/g16/l716.exe)
 Dipole        = 2.43006886D+00 6.24143827D-01 1.16561212D-02
 -------------------------------------------------------------------
 Center     Atomic                   Forces (Hartrees/Bohr)
 Number     Number              X              Y              Z
 -------------------------------------------------------------------
      1        6           0.000005371    0.000005385   -0.000006156
      2        6           0.000006631    0.000009146   -0.000009356
      3        6           0.000010832    0.000010739   -0.000012893
      4        6           0.000015091    0.000007953   -0.000012975
      5        6           0.000013311    0.000002794   -0.000009445
      6        6           0.000009567    0.000001016   -0.000005635
      7        6          -0.000000789    0.000008102   -0.000004810
      8        1           0.000011382    0.000014576   -0.000015588
      9        1           0.000018060    0.000009284   -0.000015585
     10        1           0.000017092    0.000001224   -0.000009505
     11        7           0.000001758    0.000011682   -0.000008515
     12        6          -0.000007194    0.000014066   -0.000004516
     13        6          -0.000007121    0.000008561   -0.000002551
     14        6          -0.000009054    0.000005068    0.000001423
     15        6          -0.000014329    0.000006196    0.000003357
     16        6          -0.000014977    0.000009909    0.000001382
     17        6          -0.000013611    0.000014151   -0.000002724
     18        1          -0.000008205    0.000002075    0.000003077
     19        1          -0.000019418    0.000011709    0.000002873
     20        6          -0.000017655    0.000003163    0.000008229
     21        1          -0.000015467   -0.000001560    0.000009040
     22        1          -0.000019655    0.000002320    0.000008623
     23        1          -0.000021229    0.000003094    0.000008757
     24        6          -0.000014253    0.000019657   -0.000004457
     25        1          -0.000014357    0.000022274   -0.000007325
     26        1          -0.000011118    0.000018792   -0.000006425
     27        1          -0.000018154    0.000018820   -0.000003020
     28        8          -0.000004932    0.000016848   -0.000008566
     29        1          -0.000001614    0.000015590   -0.000009479
     30        7           0.000001416    0.000003252   -0.000002778
     31        1          -0.000001102    0.000000996   -0.000000324
     32        6           0.000008262   -0.000003612   -0.000002418
     33        1           0.000011890   -0.000005608   -0.000002471
     34        7           0.000004655   -0.000005189    0.000000947
     35        6           0.000003907   -0.000009945    0.000004418
     36        6           0.000008532   -0.000014818    0.000005181
     37        6           0.000004090   -0.000009892    0.000004539
     38        1          -0.000000041   -0.000010577    0.000006917
     39        6           0.000008042   -0.000019717    0.000008571
     40        1           0.000012415   -0.000014088    0.000002748
     41        1           0.000008364   -0.000014583    0.000005120
     42        6           0.000003367   -0.000015544    0.000008550
     43        1           0.000007787   -0.000009806    0.000002219
     44        1           0.000000670   -0.000006804    0.000004142
     45        6           0.000007422   -0.000020315    0.000008844
     46        1           0.000010659   -0.000023032    0.000009586
     47        1           0.000003666   -0.000020118    0.000011379
     48        1           0.000003045   -0.000015209    0.000008348
     49        1          -0.000001039   -0.000015188    0.000010586
     50        1           0.000006562   -0.000023402    0.000011801
     51        1           0.000011469   -0.000019432    0.000006857
 -------------------------------------------------------------------
 Cartesian Forces:  Max     0.000023402 RMS     0.000010600
 Leave Link  716 at Thu Dec 13 14:19:53 2018, MaxMem=  1342177280 cpu:               0.4 elap:               0.0
 (Enter /gpfs/apps/hpc/Apps/Restricted/Gaussian/Rev_A.03/g16/l103.exe)

 GradGradGradGradGradGradGradGradGradGradGradGradGradGradGradGradGradGrad
 Berny optimization.
 FormGI is forming the generalized inverse of G from B-inverse, IUseBI=4.
 GSVD:  received Info=                   1 from GESDD.
 Internal  Forces:  Max     0.000000587 RMS     0.000000119
 Search for a local minimum.
 Step number   1 out of a maximum of  301
 All quantities printed in internal units (Hartrees-Bohrs-Radians)
 RMS Force = .11942D-06 SwitMx=.10000D-02 MixMth= 2
 Mixed Optimization -- En-DIIS/RFO-DIIS
 Second derivative matrix not updated -- first step.
 ITU=  0
     Eigenvalues ---    0.00500   0.00515   0.00614   0.00654   0.00719
     Eigenvalues ---    0.00764   0.01301   0.01390   0.01501   0.01542
     Eigenvalues ---    0.01782   0.01810   0.01854   0.01859   0.01891
     Eigenvalues ---    0.01933   0.01977   0.02011   0.02012   0.02014
     Eigenvalues ---    0.02018   0.02048   0.02051   0.02059   0.02079
     Eigenvalues ---    0.02092   0.02096   0.02102   0.02125   0.02126
     Eigenvalues ---    0.02147   0.02228   0.02337   0.03253   0.03704
     Eigenvalues ---    0.03872   0.03920   0.04145   0.04800   0.04840
     Eigenvalues ---    0.04858   0.05537   0.05593   0.05803   0.06081
     Eigenvalues ---    0.07034   0.07095   0.07146   0.07176   0.07214
     Eigenvalues ---    0.07977   0.07991   0.08046   0.08065   0.08102
     Eigenvalues ---    0.08253   0.08759   0.12013   0.12034   0.14216
     Eigenvalues ---    0.15998   0.16000   0.16000   0.16000   0.16000
     Eigenvalues ---    0.16000   0.16000   0.16000   0.16000   0.16000
     Eigenvalues ---    0.16000   0.16000   0.16000   0.16000   0.16151
     Eigenvalues ---    0.17479   0.21610   0.22000   0.22095   0.23446
     Eigenvalues ---    0.23483   0.23513   0.23800   0.24926   0.24997
     Eigenvalues ---    0.24999   0.24999   0.25000   0.25000   0.25000
[...]
 00017677,0.00130489,-0.00001598,-0.00002292,0.00000226,0.00001438,-0.0
 0000246,-0.00004407,-0.05494556,-0.11995399,-0.10293584,-0.00065485,0.
 00119160,0.00051342,-0.00046747,-0.00001060,-0.00013612,0.00461709,0.0
 0469306,0.00898878,-0.00000319,0.00035578,0.00035258,0.00005171,0.0003
 2380,0.00025054,0.05966594,0.12514967,-0.00000903,0.00004127,-0.000001
 18,0.00001003,-0.00000008,0.00000082,-0.00000880,0.00002135,-0.0000008
 2,-0.00002759,-0.00000985,0.00000252,0.00000490,-0.00004166,0.00000836
 ,-0.00004296,0.00002736,-0.00003235,0.00003089,0.00001805,0.00000004,-
 0.00000209,0.00000025,-0.00000037,-0.00000446,0.00000325,-0.00000105,0
 .00000378,0.00000038,-0.00000192,-0.00002010,-0.00000271,0.00000008,0.
 00000760,-0.00000621,0.00000020,-0.00000237,-0.00000681,0.00000024,-0.
 00000218,0.00000436,0.00000066,-0.00000491,-0.00000404,0.00000005,0.00
 000423,-0.00000250,0.00000046,0.00000053,0.00000365,0.00000011,-0.0000
 0057,0.00000137,-0.00000091,-0.00000011,-0.00000091,-0.00000013,-0.000
 00012,0.00000045,-0.00000082,0.00000002,0.00000024,0.00000052,0.000000
 79,0.00000016,0.00000021,-0.00000032,-0.00000081,0.,0.00000066,0.00000
 027,-0.00000015,-0.00000080,0.00000003,0.00000023,-0.00000059,-0.00000
 013,-0.00000018,-0.00000032,-0.00000071,-0.00000005,-0.00000930,-0.000
 00166,0.00000034,0.00000773,0.00000697,-0.00000056,-0.00003191,-0.0000
 3831,0.00000363,0.00002598,0.00002249,-0.00000551,0.00009809,-0.000218
 50,0.00000007,0.00002659,-0.00000391,0.00003046,-0.00010510,0.00003522
 ,-0.00003618,0.00045674,0.00061341,0.00146066,0.00064344,-0.00005076,0
 .00040489,0.00012318,0.00049289,-0.00012214,0.00002987,-0.00014364,-0.
 00008870,0.00413242,0.00354451,-0.00375701,-0.00010025,0.00006472,-0.0
 0000202,-0.00020095,-0.00004545,0.00000533,-0.07899490,-0.10172233,-0.
 19715988,-0.00008829,0.00049115,0.00035585,-0.00038164,0.00007035,0.00
 049265,-0.01187828,-0.01532820,-0.02123229,-0.00093554,-0.00088357,-0.
 00174572,0.00011235,-0.00012509,0.00021067,0.08465275,0.11049505,0.214
 27763,-0.00004497,0.00003966,0.00000642,0.00000915,-0.00000873,0.00000
 410,-0.00000445,0.00001080,-0.00000122,-0.00001303,-0.00000705,0.00000
 483,0.00001745,-0.00001650,-0.00000625,-0.00000936,-0.00013050,-0.0000
 5103,0.00000944,0.00001352,0.00000082,-0.00000167,0.00000014,-0.000000
 44,-0.00000212,0.00000166,0.00000043,0.00000409,-0.00000349,-0.0000002
 6,-0.00001587,-0.00001279,-0.00000110,0.00000163,-0.00000127,0.0000000
 2,-0.00000034,-0.00000275,0.00000016,-0.00000538,0.00000091,-0.0000000
 7,-0.00000320,-0.00000207,-0.00000015,0.00000238,-0.00000282,0.0000002
 0,0.00000028,0.00000088,0.00000005,-0.00000003,0.00000253,-0.00000083,
 0.,-0.00000037,0.,-0.00000108,0.00000054,-0.00000007,0.00000021,-0.000
 00101,-0.00000103,0.00000011,-0.00000129,0.00000100,0.00000080,-0.0000
 0006,0.00000014,0.00000050,-0.00000034,0.00000006,-0.00000002,0.000000
 13,-0.00000013,-0.00000005,0.00000012,0.00000010,-0.00000021,-0.000000
 30,-0.00000002,-0.00000219,-0.00000621,0.00000014,0.00000621,0.0000077
 0,-0.00000002,-0.00002046,-0.00002099,0.00000003,0.00001477,0.00001915
 ,-0.00000423,0.00006441,0.00011667,-0.00007759,0.00005278,-0.00019528,
 0.00010260,0.00010360,-0.00034418,0.00025247,0.00126714,0.00171136,0.0
 0078676,-0.00012975,-0.00009469,0.00004336,-0.00812618,0.03347257,-0.0
 0560673,-0.00035405,-0.00109129,-0.00010057,0.00014434,0.00016781,-0.0
 0082805,-0.00002971,-0.00007622,0.00007476,0.00007236,0.00000982,-0.00
 009380,-0.05551339,0.04394827,-0.00812460,-0.00668092,0.00102164,-0.00
 072953,0.00150043,-0.00067456,0.00027959,0.00186778,-0.01538510,0.0030
 9064,-0.00014577,0.00002566,-0.00012036,-0.00004786,0.00041173,-0.0001
 0722,0.00220159,-0.01254722,0.00265422,0.06354397,0.00002601,-0.000047
 70,-0.00000006,-0.00001746,0.00000025,-0.00000104,0.00001138,-0.000024
 42,0.00000121,0.00002616,0.00001582,-0.00000137,-0.00001009,0.00002870
 ,0.00000229,0.00001292,0.00001662,-0.00000635,-0.00002262,-0.00002088,
 0.00000288,0.00000199,-0.00000013,0.00000035,0.00000282,-0.00000257,0.
 ,-0.00000381,0.00000311,0.00000053,0.00001539,0.00001300,-0.00000094,-
 0.00000348,0.00000193,-0.00000007,0.00000021,0.00000633,-0.00000050,0.
 00000610,-0.00000278,-0.00000057,0.00000609,0.00000291,0.00000025,-0.0
 0000452,0.00000437,-0.00000049,-0.00000051,-0.00000165,-0.00000006,-0.
 00000049,-0.00000286,0.00000049,0.00000022,0.00000081,0.00000008,0.000
 00115,-0.00000128,0.00000038,-0.00000187,0.00000018,0.00000149,-0.0000
 0205,0.00000056,-0.00000255,-0.00000087,0.00000047,-0.00000015,-0.0000
 0083,0.00000028,0.00000001,0.00000020,-0.00000022,0.00000016,0.0000001
 3,-0.00000015,-0.00000018,0.00000035,0.00000064,0.00000005,0.00000346,
 0.00000842,-0.00000050,-0.00000857,-0.00001071,0.00000020,0.00002579,0
 .00004569,-0.00000361,-0.00001780,-0.00002542,0.00000097,-0.00021674,0
 .00001592,0.00006238,0.00001966,0.00005536,0.00000305,0.00024343,0.000
 26606,-0.00009903,-0.00088739,0.00019509,-0.00043280,-0.00006703,0.000
 17681,0.00002445,0.00157815,-0.00520419,0.00048356,-0.00008931,-0.0001
 8371,0.00059307,0.00007488,0.00059273,-0.00086135,-0.00007765,-0.00011
 644,-0.00010206,0.00007523,-0.00003148,0.00007342,0.04468202,-0.287704
 90,0.03843131,0.00129564,0.00098590,-0.00015684,0.00018310,0.00101605,
 -0.00050491,0.00099838,-0.00975315,0.00176959,-0.00009012,0.00028337,0
 .00010968,0.00038671,0.00021932,0.00042255,0.00281516,-0.01585407,0.00
 242519,-0.04940507,0.31389123,0.00000402,-0.00001506,0.00000066,-0.000
 00347,-0.00000071,0.00000241,0.00000473,-0.00000708,0.00000021,0.00000
 790,0.00000414,0.00000015,0.00000068,0.00001209,0.00000239,0.00001765,
 -0.00000873,-0.00002630,-0.00001087,-0.00000411,0.00000112,0.00000071,
 -0.00000006,-0.00000007,0.00000150,-0.00000130,0.,-0.00000137,-0.00000
 009,-0.00000056,0.00000606,0.00000008,-0.00000045,-0.00000312,0.000002
 72,-0.00000011,0.00000119,0.00000272,-0.00000003,0.00000016,-0.0000017
 8,-0.00000024,0.00000186,0.00000182,-0.00000003,-0.00000144,0.00000073
 ,-0.00000016,-0.00000013,-0.00000159,0.00000001,0.00000069,-0.00000004
 ,0.00000095,0.00000006,0.00000035,0.00000007,0.00000003,0.00000017,0.0
 0000084,-0.00000013,-0.00000039,-0.00000059,0.,0.00000005,0.00000046,0
 .00000036,0.00000037,-0.00000003,-0.00000018,-0.00000016,0.00000005,0.
 00000037,0.00000002,-0.00000010,0.00000028,0.00000010,0.00000009,0.000
 00012,0.00000025,0.00000003,0.00000410,-0.00000039,-0.00000002,-0.0000
 0253,-0.00000189,0.00000018,0.00000908,0.00001445,-0.00000142,-0.00000
 682,-0.00000487,0.00000071,-0.00005991,-0.00008563,0.00000059,0.000033
 27,0.00000879,0.00003507,0.00000397,-0.00003862,-0.00004926,-0.0001499
 5,0.00081618,0.00010670,0.00006249,-0.00013721,-0.00014393,-0.00001882
 ,-0.00004746,-0.00070534,-0.00005700,0.00006232,0.00017247,-0.00026341
 ,0.00105766,0.00168563,0.00005828,-0.00009105,0.00004365,-0.00007817,-
 0.00000749,-0.00001160,-0.00810956,0.03740258,-0.05655589,0.00024454,0
 .00015277,0.00103346,-0.00028375,-0.00065795,0.00068455,-0.00483880,0.
 02900445,-0.00606659,0.00020552,-0.00027693,0.00024794,-0.00001592,-0.
 00065181,-0.00015710,0.00502486,-0.02354592,0.00436228,0.00601597,-0.0
 4420586,0.05913112,-0.00002717,0.00007007,-0.00000322,0.00002227,0.000
 00093,0.00000043,-0.00001883,0.00003809,-0.00000205,-0.00004276,-0.000
 02188,0.00000003,0.00000557,-0.00005773,0.00000388,-0.00005513,0.00003
 645,-0.00000470,0.00005254,0.00003216,-0.00000004,-0.00000366,0.000000
 24,0.00000003,-0.00000658,0.00000558,-0.00000048,0.00000635,-0.0000016
 1,0.,-0.00003166,-0.00000966,-0.00000044,0.00001270,-0.00000998,0.0000
 0072,-0.00000296,-0.00001346,0.00000031,-0.00000503,0.00000830,-0.0000
 0004,-0.00001089,-0.00000740,-0.00000056,0.00000865,-0.00000557,0.0000
 0052,0.00000118,0.00000658,0.00000013,-0.00000136,0.00000312,-0.000000
 48,-0.00000041,-0.00000189,0.00000005,-0.00000073,0.00000093,-0.000000
 02,0.00000079,0.00000032,0.00000005,0.00000119,0.00000017,0.00000027,-
 0.00000055,-0.00000174,-0.00000005,0.00000129,0.00000053,-0.00000006,-
 0.00000117,0.00000002,0.00000020,-0.00000126,-0.00000007,-0.00000037,-
 0.00000064,-0.00000147,0.00000003,-0.00001565,-0.00000589,-0.00000049,
 0.00001488,0.00001473,0.00000014,-0.00004950,-0.00006573,0.00000201,0.
 00003624,0.00003127,-0.00000089,0.00011799,-0.00012426,0.00000753,0.00
 002356,-0.00002238,0.00000164,-0.00011834,0.00011057,-0.00000933,0.000
 71818,0.00039282,-0.00003122,0.00076415,-0.00223433,-0.00274592,0.0007
 1714,-0.00149526,0.00322362,-0.00003539,-0.00008033,0.00000767,-0.0126
 7372,0.00304036,0.00032393,0.00015314,0.00009771,0.00005809,-0.0011012
 3,0.00009763,0.00008334,-0.01220294,0.00282485,-0.00095191,0.00017085,
 0.00007279,-0.00007067,-0.00110477,0.00007442,-0.00011806,-0.30017477,
 0.04854655,-0.00584001,0.00043157,0.00038071,-0.00032829,0.00057039,-0
 .00032104,0.00032755,0.00028220,0.00011422,0.00027188,0.00059745,-0.00
 044550,-0.00025737,0.32618473,-0.00000788,0.00002482,-0.00000109,0.000
 00725,0.00000020,0.00000023,-0.00000678,0.00001276,-0.00000073,-0.0000
 1420,-0.00000575,0.00000050,-0.00000164,-0.00002110,0.00000154,-0.0000
 1595,0.00001857,-0.00000959,0.00001429,0.00000807,0.00000021,-0.000000
 84,0.00000018,-0.00000005,-0.00000248,0.00000173,-0.00000015,0.0000015
 4,0.00000122,-0.00000024,-0.00000831,-0.00000178,-0.00000011,0.0000024
 8,-0.00000171,0.00000009,-0.00000088,-0.00000296,0.00000008,-0.0000018
 3,0.00000137,0.00000006,-0.00000236,-0.00000133,-0.00000014,0.00000170
 ,-0.00000150,0.00000013,0.00000012,0.00000096,0.00000004,-0.00000013,0
 .00000102,-0.00000025,-0.00000009,-0.00000030,0.,-0.00000036,0.0000001
 7,0.,0.00000005,-0.00000017,-0.00000030,0.00000018,-0.00000023,0.00000
 035,0.00000010,-0.00000022,0.00000002,0.00000027,-0.00000007,0.,-0.000
 00015,0.00000001,-0.00000002,-0.00000014,0.,0.,-0.00000015,-0.00000021
 ,0.,-0.00000269,-0.00000190,0.00000002,0.00000331,0.00000348,-0.000000
 05,-0.00001433,-0.00002240,0.00000092,0.00000960,0.00000991,-0.0000011
 7,0.00003669,-0.00005858,0.00001751,-0.00000467,-0.00000770,0.00000323
 ,-0.00002943,0.00007998,0.00003444,0.00045710,0.00003760,-0.00011123,-
 0.00066168,-0.00121187,-0.00264605,-0.00038218,0.00008650,0.00154476,-
 0.00001636,-0.00006206,0.00002318,-0.01716949,0.00227825,-0.00036816,-
 0.00030198,0.00027689,-0.00004026,-0.00090924,0.00027167,-0.00015392,-
 0.01053634,0.00075228,0.00008499,-0.00035459,0.00028166,-0.00004731,-0
 .00041574,0.00032659,0.00007132,0.05020668,-0.05825447,0.00136917,0.00
 077484,0.00039087,0.00039951,0.00017683,0.00068033,0.00086374,0.000326
 74,0.00015141,-0.00021054,-0.00004225,0.00054444,-0.00070872,-0.052299
 06,0.05874093,0.00000083,-0.00000185,0.00000004,-0.00000045,0.00000051
 ,0.00000065,0.00000023,-0.00000055,-0.00000021,0.00000079,-0.00000001,
 0.00000414,0.00000046,0.00000176,0.00000315,0.00000217,-0.00000172,-0.
 00005847,-0.00000080,-0.00000131,0.00000160,0.00000013,-0.00000004,-0.
 00000049,0.00000030,-0.00000014,-0.00000007,-0.00000023,0.00000004,-0.
 00000162,0.00000142,0.00000069,0.00000047,-0.00000010,0.00000009,-0.00
 000030,0.00000011,0.00000020,-0.00000004,0.00000025,-0.00000006,0.0000
 0087,0.00000020,0.00000014,0.00000020,-0.00000015,0.00000022,0.0000001
 0,0.,-0.00000004,0.00000009,0.00000004,-0.00000025,-0.00000108,0.00000
 001,0.00000002,-0.00000011,0.00000020,0.00000003,-0.00000059,-0.000000
 31,0.00000015,0.00000018,0.00000015,-0.00000010,0.00000021,-0.00000004
 ,0.00000002,0.00000010,-0.00000003,0.00000003,-0.00000009,-0.00000010,
 0.00000002,0.00000004,0.00000010,-0.00000002,0.00000004,0.00000002,0.,
 -0.00000003,0.00000011,0.00000043,0.00000059,-0.00000038,-0.00000055,-
 0.00000068,0.00000351,0.00000248,0.00000119,-0.00000254,-0.00000327,-0
 .00000603,-0.00001177,0.00001164,0.00009839,-0.00000264,0.00000854,0.0
 0001155,0.00003521,0.00004171,0.00036113,-0.00006671,-0.00013104,-0.00
 089257,-0.00101534,-0.00363120,-0.00421832,0.00121254,0.00253045,-0.00
 554658,0.00000241,0.00002516,0.00012639,-0.02619231,0.00605490,-0.0006
 5539,0.00033253,0.00004430,-0.00000738,-0.00191269,-0.00007819,0.00002
 360,0.02996756,-0.00642649,0.00098454,-0.00027035,-0.00010258,-0.00000
 024,0.00208972,-0.00000695,0.00000226,-0.00623632,0.00143062,-0.046258
 50,0.00058345,0.00071194,0.00088718,0.00070333,0.00017204,0.00102353,-
 0.00070463,-0.00049661,0.00117285,-0.00085653,-0.00003054,0.00113293,0
 .00631487,-0.00062724,0.05241206,0.00000572,-0.00000872,0.00000049,-0.
 00000262,0.00000032,-0.00000004,0.00000160,-0.00000410,0.00000020,0.00
 000503,0.00000361,-0.00000011,-0.00000252,0.00000577,-0.00000022,0.000
 00618,0.00000855,-0.00000039,-0.00000658,-0.00000536,0.00000006,0.0000
 0066,0.00000008,0.,0.00000059,-0.00000071,0.00000007,-0.00000150,0.000
 00091,0.00000018,0.00000459,0.00000277,0.,-0.00000186,0.00000153,-0.00
 000011,0.00000034,0.00000199,-0.00000005,0.00000107,-0.00000127,0.0000
 0002,0.00000183,0.00000125,0.00000010,-0.00000141,0.00000098,-0.000000
 09,-0.00000023,-0.00000110,-0.00000003,0.00000032,-0.00000040,0.000000
 07,0.00000005,0.00000032,0.,0.00000021,-0.00000017,-0.00000003,-0.0000
 0020,0.,0.00000005,-0.00000022,0.00000004,-0.00000009,0.00000001,0.000
 00027,0.,-0.00000021,-0.00000008,0.00000001,0.00000019,-0.00000001,-0.
 00000003,0.00000021,0.,0.00000006,0.00000010,0.00000025,0.,0.00000244,
 0.00000122,0.00000006,-0.00000252,-0.00000261,-0.00000001,0.00000673,0
 .00000701,-0.00000026,-0.00000428,-0.00000360,0.00000021,-0.00002476,-
 0.00001405,-0.00000025,0.00003329,-0.00000295,0.00000951,0.00000937,0.
 00001191,-0.00000032,-0.00007619,-0.00000788,-0.00000402,0.00093287,-0
 .00093546,0.00041276,0.00093830,-0.00097945,-0.00015352,-0.00000131,0.
 00017154,-0.00002039,0.00085296,-0.01414095,0.00137380,-0.00025301,-0.
 00016504,0.00000538,0.00015912,0.00016614,0.00001019,0.00080764,-0.013
 81900,0.00201854,-0.00033918,0.00035180,0.00001890,0.00016136,0.000155
 50,-0.00005398,-0.05650773,0.03187669,-0.00339434,0.00017050,0.0002904
 2,0.00040109,-0.00031237,-0.00170323,-0.00211678,0.00039567,0.00053426
 ,-0.00044516,-0.00033081,-0.00111895,0.00245222,-0.00320792,0.03118444
 ,-0.00397826,0.05657849,-0.00000294,0.00001821,-0.00000061,0.00000392,
 -0.00000061,0.00000016,-0.00000736,0.00001077,-0.00000070,-0.00001185,
 -0.00000276,-0.00000014,-0.00000581,-0.00002263,0.00000090,-0.00001684
 ,0.00003026,-0.00000506,0.00001983,0.00000508,0.00000038,-0.00000096,0
 .00000027,0.00000004,-0.00000346,0.00000253,-0.00000011,0.00000348,0.0
 0000409,0.00000006,-0.00001192,0.00000554,-0.00000062,0.00000603,-0.00
 000536,0.00000041,-0.00000230,-0.00000310,0.,0.00000129,0.00000257,0.0
 0000011,-0.00000072,-0.00000237,0.00000019,0.00000154,0.,0.00000007,0.
 00000025,0.00000265,-0.00000003,-0.00000020,-0.00000045,-0.00000012,0.
 00000009,-0.00000034,0.00000001,0.00000070,-0.00000009,-0.00000043,-0.
 00000033,0.00000060,0.00000140,0.00000008,0.00000075,-0.00000114,-0.00
 000067,-0.00000040,-0.00000001,0.00000021,0.00000034,-0.00000003,-0.00
 000057,-0.00000014,0.00000028,-0.00000056,-0.00000020,-0.00000034,-0.0
 0000011,-0.00000025,0.,-0.00000745,0.00000354,-0.00000051,0.00000281,0
 .00000067,0.00000014,-0.00001936,-0.00001838,0.00000012,0.00001699,0.0
 0000930,0.00000028,0.00001225,-0.00014131,0.00001168,-0.00001738,0.000
 01882,-0.00001313,-0.00016064,0.00005243,0.00001422,0.00002953,0.00027
 394,-0.00006378,0.00085579,0.00046012,0.00071331,0.00057389,0.00035111
 ,-0.00061070,0.00013960,-0.00001848,-0.00000411,0.00207219,-0.01664449
 ,0.00104061,-0.00114815,-0.00035582,0.00005940,-0.00008736,0.00034394,
 -0.00014678,0.00128175,-0.00938338,0.00175904,-0.00059204,-0.00032847,
 -0.00008678,-0.00014715,0.00029784,0.00004683,0.03044245,-0.29307058,0
 .03053287,-0.00007593,0.00005905,-0.00011585,-0.00170984,-0.00067573,-
 0.00304938,0.00011654,0.00052856,0.00046399,-0.00090887,0.00059634,0.0
 0195809,0.00122409,-0.00532754,0.00050261,-0.03186449,0.32292357,0.000
 00018,-0.00000203,0.00000069,-0.00000034,0.00000021,-0.00000003,0.0000
 0076,-0.00000113,0.,0.00000130,0.00000013,0.00000099,0.00000075,0.0000
 0297,-0.00000016,0.00000246,-0.00000393,-0.00001505,-0.00000239,-0.000
 00096,0.00000025,0.00000011,-0.00000005,-0.00000009,0.00000046,-0.0000
 0028,0.00000022,-0.00000036,-0.00000024,0.00000067,0.00000162,-0.00000
 057,0.00000020,-0.00000061,0.00000052,-0.00000018,0.00000025,0.0000003
 6,0.00000007,-0.00000011,-0.00000026,0.00000048,0.00000013,0.00000022,
 0.00000018,-0.00000019,0.00000006,0.00000009,-0.00000003,-0.00000026,0
 .00000002,0.00000007,-0.00000004,-0.00000062,0.,0.00000004,-0.00000009
 ,0.00000009,0.00000006,-0.00000072,-0.00000020,-0.00000002,0.00000004,
 0.00000009,-0.00000017,0.00000041,0.00000007,0.00000007,0.00000009,-0.
 00000003,-0.00000003,-0.00000002,0.,0.00000004,0.,0.00000011,0.,0.0000
 0006,0.00000002,0.00000002,-0.00000004,0.00000074,-0.00000023,0.000000
 27,-0.00000036,-0.00000018,-0.00000021,0.00000304,0.00000233,0.0000001
 7,-0.00000250,-0.00000183,-0.00000121,-0.00000232,0.00002018,0.0000235
 2,-0.00000201,-0.00000074,0.00000255,0.00002667,0.00001005,0.00012560,
 -0.00000858,-0.00007236,-0.00027545,0.00120317,0.00006640,0.00095297,-
 0.00143082,0.00009353,0.00112650,-0.00001704,-0.00000836,-0.00006052,0
 .00298375,-0.02788303,0.00171283,-0.00007103,0.00057353,0.00022939,0.0
 0025642,0.00025791,-0.00008963,-0.00338258,0.03036442,-0.00566061,0.00
 030112,-0.00062785,0.00032341,-0.00022758,-0.00035253,-0.00003476,-0.0
 0330521,0.03064230,-0.05183608,0.00075372,0.00079442,0.00124047,-0.003
 05257,-0.00309677,-0.00367027,-0.00062546,-0.00028260,0.00139813,0.003
 39293,0.00200226,-0.00492689,-0.00026223,0.00051129,-0.00060132,0.0034
 6451,-0.03300684,0.06003366\\-0.00000542,-0.00000551,0.00000616,-0.000
 00645,-0.00000919,0.00000936,-0.00001095,-0.00001090,0.00001290,-0.000
 01514,-0.00000781,0.00001297,-0.00001322,-0.00000273,0.00000944,-0.000
 00967,-0.00000124,0.00000564,0.00000092,-0.00000809,0.00000481,-0.0000
 1139,-0.00001456,0.00001559,-0.00001806,-0.00000926,0.00001558,-0.0000
 1708,-0.00000118,0.00000950,-0.00000187,-0.00001158,0.00000851,0.00000
 703,-0.00001430,0.00000451,0.00000709,-0.00000852,0.00000255,0.0000091
 4,-0.00000514,-0.00000142,0.00001427,-0.00000627,-0.00000336,0.0000148
 7,-0.00000973,-0.00000139,0.00001371,-0.00001418,0.00000273,0.00000822
 ,-0.00000206,-0.00000308,0.00001943,-0.00001171,-0.00000287,0.00001764
 ,-0.00000314,-0.00000823,0.00001547,0.00000156,-0.00000904,0.00001966,
 -0.00000232,-0.00000863,0.00002123,-0.00000309,-0.00000876,0.00001436,
 -0.00001961,0.00000446,0.00001435,-0.00002228,0.00000731,0.00001111,-0
 .00001880,0.00000644,0.00001814,-0.00001881,0.00000302,0.00000495,-0.0
 0001682,0.00000857,0.00000161,-0.00001561,0.00000948,-0.00000134,-0.00
 000303,0.00000277,0.00000104,-0.00000099,0.00000032,-0.00000826,0.0000
 0362,0.00000242,-0.00001187,0.00000565,0.00000247,-0.00000458,0.000005
 16,-0.00000094,-0.00000391,0.00000996,-0.00000442,-0.00000858,0.000014
 82,-0.00000513,-0.00000413,0.00000988,-0.00000459,0.00000004,0.0000105
 8,-0.00000692,-0.00000806,0.00001971,-0.00000859,-0.00001241,0.0000140
 9,-0.00000276,-0.00000836,0.00001458,-0.00000513,-0.00000338,0.0000155
 5,-0.00000853,-0.00000778,0.00000981,-0.00000221,-0.00000066,0.0000068
 0,-0.00000413,-0.00000741,0.00002033,-0.00000885,-0.00001065,0.0000230
 4,-0.00000959,-0.00000366,0.00002011,-0.00001138,-0.00000304,0.0000152
 1,-0.00000835,0.00000104,0.00001518,-0.00001059,-0.00000656,0.00002340
 ,-0.00001180,-0.00001147,0.00001943,-0.00000686\\\@


 ALL MY ATTEMPTS TO ADAPT THE THEORETICAL FOUNDATIONS OF PHYSICS
 TO THESE NEW NOTIONS FAILED COMPLETELY. IT WAS AS IF THE GROUND HAD
 BEEN PULLED OUT FROM UNDER ONE WITH NO FIRM FOUNDATION TO BE SEEN ANYWHERE,
 UPON WHICH ONE COULD HAVE BUILT.  -- A.EINSTEIN
 Job cpu time:       0 days  3 hours 32 minutes 38.7 seconds.
 Elapsed time:       0 days  0 hours 13 minutes 24.6 seconds.
 File lengths (MBytes):  RWF=   1696 Int=      0 D2E=      0 Chk=     44 Scr=      8
 Normal termination of Gaussian 16 at Thu Dec 13 14:33:24 2018.
