 Entering Gaussian System, Link 0=g16
 Initial command:
 /gpfs/apps/hpc/Apps/Restricted/Gaussian/Rev_A.03/g16/l1.exe "/gpfs/scratch60/fas/hammes_schiffer/jg2487/c42n03/Gau-346302.inp" -scrdir="/gpfs/scratch60/fas/hammes_schiffer/jg2487/c42n03/"
 Entering Link 1 = /gpfs/apps/hpc/Apps/Restricted/Gaussian/Rev_A.03/g16/l1.exe PID=    346304.
  
 Copyright (c) 1988,1990,1992,1993,1995,1998,2003,2009,2016,
            Gaussian, Inc.  All Rights Reserved.
  
 This is part of the Gaussian(R) 16 program.  It is based on
 the Gaussian(R) 09 system (copyright 2009, Gaussian, Inc.),
 the Gaussian(R) 03 system (copyright 2003, Gaussian, Inc.),
 the Gaussian(R) 98 system (copyright 1998, Gaussian, Inc.),
 the Gaussian(R) 94 system (copyright 1995, Gaussian, Inc.),
 the Gaussian 92(TM) system (copyright 1992, Gaussian, Inc.),
 the Gaussian 90(TM) system (copyright 1990, Gaussian, Inc.),
 the Gaussian 88(TM) system (copyright 1988, Gaussian, Inc.),
 the Gaussian 86(TM) system (copyright 1986, Carnegie Mellon
 University), and the Gaussian 82(TM) system (copyright 1983,
 Carnegie Mellon University). Gaussian is a federally registered
 trademark of Gaussian, Inc.
  
 This software contains proprietary and confidential information,
 including trade secrets, belonging to Gaussian, Inc.
  
 This software is provided under written license and may be
 used, copied, transmitted, or stored only in accord with that
 written license.
  
 The following legend is applicable only to US Government
 contracts under FAR:
  
                    RESTRICTED RIGHTS LEGEND
  
 Use, reproduction and disclosure by the US Government is
 subject to restrictions as set forth in subparagraphs (a)
 and (c) of the Commercial Computer Software - Restricted
 Rights clause in FAR 52.227-19.
  
 Gaussian, Inc.
 340 Quinnipiac St., Bldg. 40, Wallingford CT 06492
  
  
 ---------------------------------------------------------------
 Warning -- This program may not be used in any manner that
 competes with the business of Gaussian, Inc. or will provide
 assistance to any competitor of Gaussian, Inc.  The licensee
 of this program is prohibited from giving any competitor of
 Gaussian, Inc. access to this program.  By using this program,
 the user acknowledges that Gaussian, Inc. is engaged in the
 business of creating and licensing software in the field of
 computational chemistry and represents and warrants to the
 licensee that it is not a competitor of Gaussian, Inc. and that
 it will not use this program in any manner prohibited above.
 ---------------------------------------------------------------
  

 Cite this work as:
 Gaussian 16, Revision A.03,
 M. J. Frisch, G. W. Trucks, H. B. Schlegel, G. E. Scuseria, 
 M. A. Robb, J. R. Cheeseman, G. Scalmani, V. Barone, 
 G. A. Petersson, H. Nakatsuji, X. Li, M. Caricato, A. V. Marenich, 
 J. Bloino, B. G. Janesko, R. Gomperts, B. Mennucci, H. P. Hratchian, 
 J. V. Ortiz, A. F. Izmaylov, J. L. Sonnenberg, D. Williams-Young, 
 F. Ding, F. Lipparini, F. Egidi, J. Goings, B. Peng, A. Petrone, 
 T. Henderson, D. Ranasinghe, V. G. Zakrzewski, J. Gao, N. Rega, 
 G. Zheng, W. Liang, M. Hada, M. Ehara, K. Toyota, R. Fukuda, 
 J. Hasegawa, M. Ishida, T. Nakajima, Y. Honda, O. Kitao, H. Nakai, 
 T. Vreven, K. Throssell, J. A. Montgomery, Jr., J. E. Peralta, 
 F. Ogliaro, M. J. Bearpark, J. J. Heyd, E. N. Brothers, K. N. Kudin, 
 V. N. Staroverov, T. A. Keith, R. Kobayashi, J. Normand, 
 K. Raghavachari, A. P. Rendell, J. C. Burant, S. S. Iyengar, 
 J. Tomasi, M. Cossi, J. M. Millam, M. Klene, C. Adamo, R. Cammi, 
 J. W. Ochterski, R. L. Martin, K. Morokuma, O. Farkas, 
 J. B. Foresman, and D. J. Fox, Gaussian, Inc., Wallingford CT, 2016.
 
 ******************************************
 Gaussian 16:  ES64L-G16RevA.03 25-Dec-2016
                20-Dec-2018 
 ******************************************
 %chk=cyclohexyl-monoBIP-neutral.chk
 %mem=10GB
 %nprocshared=16
 Will use up to   16 processors via shared memory.
 ----------------------------------------------------------------------
 #p opt=tight freq=internalmodes b3lyp/6-31g(d,p) scrf=(cpcm,solvent=di
 chloromethane,read) nosymm empiricaldispersion=gd3bj int=grid=ultrafin
 e
 ----------------------------------------------------------------------
 1/7=10,18=20,19=15,26=6,38=1,40=2/1,3;
 2/9=110,12=2,15=1,17=6,18=5,40=1/2;
 3/5=1,6=6,7=101,11=2,25=1,30=1,70=2103,71=1,72=9,74=-5,75=-5,124=41/1,2,3;
 4//1;
 5/5=2,38=5,53=9/2;
 6/7=2,8=2,9=2,10=2,28=1/1;
 7/30=1/1,2,3,16;
 1/7=10,18=20,19=15,26=6/3(2);
 2/9=110,15=1/2;
 99//99;
 2/9=110,15=1/2;
 3/5=1,6=6,7=101,11=2,25=1,30=1,70=2105,71=1,72=9,74=-5,75=-5,124=41/1,2,3;
 4/5=5,16=3,69=1/1;
 5/5=2,38=5,53=9/2;
 7/30=1/1,2,3,16;
 1/7=10,18=20,19=15,26=6/3(-5);
 2/9=110,15=1/2;
 6/7=2,8=2,9=2,10=2,19=2,28=1/1;
 99/9=1/99;
 Leave Link    1 at Thu Dec 20 17:50:50 2018, MaxMem=  1342177280 cpu:               6.8 elap:               0.5
 (Enter /gpfs/apps/hpc/Apps/Restricted/Gaussian/Rev_A.03/g16/l101.exe)
 --------------------------------------------
 cyclohexylimine monoBIP neutral optimization
 --------------------------------------------
 Symbolic Z-matrix:
 Charge =  0 Multiplicity = 1
 C                    -0.46402   2.68791   0.30292 
 C                    -1.86559   2.86169   0.26696 
 C                    -2.40613   4.15085   0.19418 
 C                    -1.51927   5.22726   0.16518 
 C                    -0.12823   5.0378    0.20066 
 C                     0.44092   3.75929   0.26813 
 C                    -1.48609   0.71971   0.3688 
 H                    -3.47819   4.3021    0.16242 
 H                    -1.91162   6.2361    0.11299 
 H                     0.53033   5.89929   0.17621 
 N                    -2.47353   1.61652   0.30846 
 C                    -3.02751  -1.21428   0.365 
 C                    -1.70217  -0.7161    0.41778 
 C                    -0.62863  -1.62      0.4994 
 C                    -0.83819  -2.99415   0.5331 
 C                    -2.16213  -3.45785   0.47676 
 C                    -3.25719  -2.60175   0.3963 
 H                     0.38567  -1.23677   0.54236 
 H                    -2.34229  -4.52854   0.50126 
 C                     0.316    -3.96056   0.6294 
 C                    -4.66792  -3.11878   0.33948 
 O                    -4.10482  -0.40263   0.28476 
 H                    -3.77383   0.54023   0.28035 
 N                    -0.25751   1.33091   0.36814 
 H                     0.67241   0.92968   0.39508 
 C                     1.88554   3.55256   0.29464 
 H                     2.49516   4.46137   0.24061 
 N                     2.3939    2.37862   0.37762 
 C                     3.85928   2.26297   0.40382 
 C                     4.49851   2.69909  -0.92482 
 C                     4.4984    3.01984   1.58009 
 H                     4.07514   1.19716   0.54111 
 C                     6.01567   2.48271  -0.8958 
 H                     4.27937   3.76153  -1.08519 
 H                     4.04172   2.14565  -1.75076 
 C                     6.01426   2.79582   1.61346 
 H                     4.29538   4.09164   1.46792 
 H                     4.03105   2.70109   2.51649 
 C                     6.66129   3.21274   0.28743 
 H                     6.46152   2.81247  -1.8392 
 H                     6.21982   1.40782  -0.8099 
 H                     6.45459   3.35172   2.44705 
 H                     6.21821   1.73349   1.79722 
 H                     7.7384    3.02073   0.31145 
 H                     6.53434   4.2944    0.15275 
 C                     1.3511   -3.71904  -0.48498 
 H                     2.04716  -2.97031  -0.16906 
 H                     1.87479  -4.6296   -0.68879 
 H                     0.85054  -3.3894   -1.37137 
 C                     1.05667  -3.82033   1.97229 
 H                     0.34407  -3.71047   2.76287 
 H                     1.64967  -4.69398   2.14547 
 H                     1.69091  -2.95911   1.94156 
 C                    -0.17789  -5.41471   0.51481 
 H                    -0.84187  -5.6308    1.32558 
 H                    -0.69441  -5.54386  -0.41332 
 H                     0.65944  -6.0798    0.55257 
 C                    -5.35968  -2.71716  -0.97648 
 H                    -5.97516  -3.52369  -1.31648 
 H                    -5.96592  -1.85116  -0.81089 
 H                    -4.61861  -2.49758  -1.71641 
 C                    -5.52063  -2.53415   1.48084 
 H                    -6.02247  -1.65414   1.13638 
 H                    -6.24401  -3.25832   1.79258 
 H                    -4.88787  -2.28376   2.30656 
 C                    -4.68988  -4.65459   0.45096 
 H                    -4.15044  -5.0795   -0.36962 
 H                    -4.23188  -4.95199   1.37112 
 H                    -5.70257  -4.99936   0.42883 
 
 ITRead=  0  0  0  0  0  0  0  0  0  0  0  0  0  0  0  0  0  0  0  0
 ITRead=  0  0  0  0  0  0  0  0  0  0  0  0  0  0  0  0  0  0  0  0
 ITRead=  0  0  0  0  0  0  0  0  0  0  0  0  0  0  0  0  0  0  0  0
 ITRead=  0  0  0  0  0  0  0  0  0
 MicOpt= -1 -1 -1 -1 -1 -1 -1 -1 -1 -1 -1 -1 -1 -1 -1 -1 -1 -1 -1 -1
 MicOpt= -1 -1 -1 -1 -1 -1 -1 -1 -1 -1 -1 -1 -1 -1 -1 -1 -1 -1 -1 -1
 MicOpt= -1 -1 -1 -1 -1 -1 -1 -1 -1 -1 -1 -1 -1 -1 -1 -1 -1 -1 -1 -1
 MicOpt= -1 -1 -1 -1 -1 -1 -1 -1 -1
 NAtoms=     69 NQM=       69 NQMF=       0 NMMI=      0 NMMIF=      0
                NMic=       0 NMicF=      0.
                    Isotopes and Nuclear Properties:
 (Nuclear quadrupole moments (NQMom) in fm**2, nuclear magnetic moments (NMagM)
  in nuclear magnetons)

  Atom         1           2           3           4           5           6           7           8           9          10
 IAtWgt=          12          12          12          12          12          12          12           1           1           1
 AtmWgt=  12.0000000  12.0000000  12.0000000  12.0000000  12.0000000  12.0000000  12.0000000   1.0078250   1.0078250   1.0078250
 NucSpn=           0           0           0           0           0           0           0           1           1           1
 AtZEff=  -0.0000000  -0.0000000  -0.0000000  -0.0000000  -0.0000000  -0.0000000  -0.0000000  -0.0000000  -0.0000000  -0.0000000
 NQMom=    0.0000000   0.0000000   0.0000000   0.0000000   0.0000000   0.0000000   0.0000000   0.0000000   0.0000000   0.0000000
 NMagM=    0.0000000   0.0000000   0.0000000   0.0000000   0.0000000   0.0000000   0.0000000   2.7928460   2.7928460   2.7928460
 AtZNuc=   6.0000000   6.0000000   6.0000000   6.0000000   6.0000000   6.0000000   6.0000000   1.0000000   1.0000000   1.0000000

  Atom        11          12          13          14          15          16          17          18          19          20
 IAtWgt=          14          12          12          12          12          12          12           1           1          12
 AtmWgt=  14.0030740  12.0000000  12.0000000  12.0000000  12.0000000  12.0000000  12.0000000   1.0078250   1.0078250  12.0000000
 NucSpn=           2           0           0           0           0           0           0           1           1           0
 AtZEff=  -0.0000000  -0.0000000  -0.0000000  -0.0000000  -0.0000000  -0.0000000  -0.0000000  -0.0000000  -0.0000000  -0.0000000
 NQMom=    2.0440000   0.0000000   0.0000000   0.0000000   0.0000000   0.0000000   0.0000000   0.0000000   0.0000000   0.0000000
 NMagM=    0.4037610   0.0000000   0.0000000   0.0000000   0.0000000   0.0000000   0.0000000   2.7928460   2.7928460   0.0000000
 AtZNuc=   7.0000000   6.0000000   6.0000000   6.0000000   6.0000000   6.0000000   6.0000000   1.0000000   1.0000000   6.0000000

  Atom        21          22          23          24          25          26          27          28          29          30
 IAtWgt=          12          16           1          14           1          12           1          14          12          12
 AtmWgt=  12.0000000  15.9949146   1.0078250  14.0030740   1.0078250  12.0000000   1.0078250  14.0030740  12.0000000  12.0000000
 NucSpn=           0           0           1           2           1           0           1           2           0           0
 AtZEff=  -0.0000000  -0.0000000  -0.0000000  -0.0000000  -0.0000000  -0.0000000  -0.0000000  -0.0000000  -0.0000000  -0.0000000
 NQMom=    0.0000000   0.0000000   0.0000000   2.0440000   0.0000000   0.0000000   0.0000000   2.0440000   0.0000000   0.0000000
 NMagM=    0.0000000   0.0000000   2.7928460   0.4037610   2.7928460   0.0000000   2.7928460   0.4037610   0.0000000   0.0000000
 AtZNuc=   6.0000000   8.0000000   1.0000000   7.0000000   1.0000000   6.0000000   1.0000000   7.0000000   6.0000000   6.0000000

  Atom        31          32          33          34          35          36          37          38          39          40
 IAtWgt=          12           1          12           1           1          12           1           1          12           1
 AtmWgt=  12.0000000   1.0078250  12.0000000   1.0078250   1.0078250  12.0000000   1.0078250   1.0078250  12.0000000   1.0078250
 NucSpn=           0           1           0           1           1           0           1           1           0           1
 AtZEff=  -0.0000000  -0.0000000  -0.0000000  -0.0000000  -0.0000000  -0.0000000  -0.0000000  -0.0000000  -0.0000000  -0.0000000
 NQMom=    0.0000000   0.0000000   0.0000000   0.0000000   0.0000000   0.0000000   0.0000000   0.0000000   0.0000000   0.0000000
 NMagM=    0.0000000   2.7928460   0.0000000   2.7928460   2.7928460   0.0000000   2.7928460   2.7928460   0.0000000   2.7928460
 AtZNuc=   6.0000000   1.0000000   6.0000000   1.0000000   1.0000000   6.0000000   1.0000000   1.0000000   6.0000000   1.0000000

  Atom        41          42          43          44          45          46          47          48          49          50
 IAtWgt=           1           1           1           1           1          12           1           1           1          12
 AtmWgt=   1.0078250   1.0078250   1.0078250   1.0078250   1.0078250  12.0000000   1.0078250   1.0078250   1.0078250  12.0000000
 NucSpn=           1           1           1           1           1           0           1           1           1           0
 AtZEff=  -0.0000000  -0.0000000  -0.0000000  -0.0000000  -0.0000000  -0.0000000  -0.0000000  -0.0000000  -0.0000000  -0.0000000
 NQMom=    0.0000000   0.0000000   0.0000000   0.0000000   0.0000000   0.0000000   0.0000000   0.0000000   0.0000000   0.0000000
 NMagM=    2.7928460   2.7928460   2.7928460   2.7928460   2.7928460   0.0000000   2.7928460   2.7928460   2.7928460   0.0000000
 AtZNuc=   1.0000000   1.0000000   1.0000000   1.0000000   1.0000000   6.0000000   1.0000000   1.0000000   1.0000000   6.0000000

  Atom        51          52          53          54          55          56          57          58          59          60
 IAtWgt=           1           1           1          12           1           1           1          12           1           1
 AtmWgt=   1.0078250   1.0078250   1.0078250  12.0000000   1.0078250   1.0078250   1.0078250  12.0000000   1.0078250   1.0078250
 NucSpn=           1           1           1           0           1           1           1           0           1           1
 AtZEff=  -0.0000000  -0.0000000  -0.0000000  -0.0000000  -0.0000000  -0.0000000  -0.0000000  -0.0000000  -0.0000000  -0.0000000
 NQMom=    0.0000000   0.0000000   0.0000000   0.0000000   0.0000000   0.0000000   0.0000000   0.0000000   0.0000000   0.0000000
 NMagM=    2.7928460   2.7928460   2.7928460   0.0000000   2.7928460   2.7928460   2.7928460   0.0000000   2.7928460   2.7928460
 AtZNuc=   1.0000000   1.0000000   1.0000000   6.0000000   1.0000000   1.0000000   1.0000000   6.0000000   1.0000000   1.0000000

  Atom        61          62          63          64          65          66          67          68          69
 IAtWgt=           1          12           1           1           1          12           1           1           1
 AtmWgt=   1.0078250  12.0000000   1.0078250   1.0078250   1.0078250  12.0000000   1.0078250   1.0078250   1.0078250
 NucSpn=           1           0           1           1           1           0           1           1           1
 AtZEff=  -0.0000000  -0.0000000  -0.0000000  -0.0000000  -0.0000000  -0.0000000  -0.0000000  -0.0000000  -0.0000000
 NQMom=    0.0000000   0.0000000   0.0000000   0.0000000   0.0000000   0.0000000   0.0000000   0.0000000   0.0000000
 NMagM=    2.7928460   0.0000000   2.7928460   2.7928460   2.7928460   0.0000000   2.7928460   2.7928460   2.7928460
 AtZNuc=   1.0000000   6.0000000   1.0000000   1.0000000   1.0000000   6.0000000   1.0000000   1.0000000   1.0000000
 Leave Link  101 at Thu Dec 20 17:50:50 2018, MaxMem=  1342177280 cpu:               3.8 elap:               0.3
 (Enter /gpfs/apps/hpc/Apps/Restricted/Gaussian/Rev_A.03/g16/l103.exe)

 GradGradGradGradGradGradGradGradGradGradGradGradGradGradGradGradGradGrad
 Berny optimization.
 Initialization pass.
                           ----------------------------
                           !    Initial Parameters    !
                           ! (Angstroms and Degrees)  !
 --------------------------                            --------------------------
 ! Name  Definition              Value          Derivative Info.                !
 --------------------------------------------------------------------------------
 ! R1    R(1,2)                  1.4128         estimate D2E/DX2                !
 ! R2    R(1,6)                  1.4029         estimate D2E/DX2                !
 ! R3    R(1,24)                 1.3742         estimate D2E/DX2                !
 ! R4    R(2,3)                  1.3998         estimate D2E/DX2                !
 ! R5    R(2,11)                 1.3863         estimate D2E/DX2                !
 ! R6    R(3,4)                  1.395          estimate D2E/DX2                !
 ! R7    R(3,8)                  1.0831         estimate D2E/DX2                !
 ! R8    R(4,5)                  1.4043         estimate D2E/DX2                !
 ! R9    R(4,9)                  1.0837         estimate D2E/DX2                !
 ! R10   R(5,6)                  1.4011         estimate D2E/DX2                !
 ! R11   R(5,10)                 1.0846         estimate D2E/DX2                !
 ! R12   R(6,26)                 1.4596         estimate D2E/DX2                !
 ! R13   R(7,11)                 1.3353         estimate D2E/DX2                !
 ! R14   R(7,13)                 1.4528         estimate D2E/DX2                !
 ! R15   R(7,24)                 1.3722         estimate D2E/DX2                !
 ! R16   R(12,13)                1.4169         estimate D2E/DX2                !
 ! R17   R(12,17)                1.4067         estimate D2E/DX2                !
 ! R18   R(12,22)                1.3512         estimate D2E/DX2                !
 ! R19   R(13,14)                1.4058         estimate D2E/DX2                !
 ! R20   R(14,15)                1.3904         estimate D2E/DX2                !
 ! R21   R(14,18)                1.0851         estimate D2E/DX2                !
 ! R22   R(15,16)                1.4039         estimate D2E/DX2                !
 ! R23   R(15,20)                1.5084         estimate D2E/DX2                !
 ! R24   R(16,17)                1.3923         estimate D2E/DX2                !
 ! R25   R(16,19)                1.086          estimate D2E/DX2                !
 ! R26   R(17,21)                1.5036         estimate D2E/DX2                !
 ! R27   R(20,46)                1.54           estimate D2E/DX2                !
 ! R28   R(20,50)                1.54           estimate D2E/DX2                !
 ! R29   R(20,54)                1.54           estimate D2E/DX2                !
 ! R30   R(21,58)                1.54           estimate D2E/DX2                !
 ! R31   R(21,62)                1.54           estimate D2E/DX2                !
 ! R32   R(21,66)                1.54           estimate D2E/DX2                !
 ! R33   R(22,23)                0.9993         estimate D2E/DX2                !
 ! R34   R(24,25)                1.0131         estimate D2E/DX2                !
 ! R35   R(26,27)                1.0957         estimate D2E/DX2                !
 ! R36   R(26,28)                1.282          estimate D2E/DX2                !
 ! R37   R(28,29)                1.4702         estimate D2E/DX2                !
 ! R38   R(29,30)                1.5376         estimate D2E/DX2                !
 ! R39   R(29,31)                1.5378         estimate D2E/DX2                !
 ! R40   R(29,32)                1.0961         estimate D2E/DX2                !
 ! R41   R(30,33)                1.5328         estimate D2E/DX2                !
 ! R42   R(30,34)                1.0966         estimate D2E/DX2                !
 ! R43   R(30,35)                1.0941         estimate D2E/DX2                !
 ! R44   R(31,36)                1.5327         estimate D2E/DX2                !
 ! R45   R(31,37)                1.0966         estimate D2E/DX2                !
 ! R46   R(31,38)                1.094          estimate D2E/DX2                !
 ! R47   R(33,39)                1.5329         estimate D2E/DX2                !
 ! R48   R(33,40)                1.0943         estimate D2E/DX2                !
 ! R49   R(33,41)                1.0975         estimate D2E/DX2                !
 ! R50   R(36,39)                1.5332         estimate D2E/DX2                !
 ! R51   R(36,42)                1.0944         estimate D2E/DX2                !
 ! R52   R(36,43)                1.0972         estimate D2E/DX2                !
 ! R53   R(39,44)                1.0944         estimate D2E/DX2                !
 ! R54   R(39,45)                1.0974         estimate D2E/DX2                !
 ! R55   R(46,47)                1.07           estimate D2E/DX2                !
 ! R56   R(46,48)                1.07           estimate D2E/DX2                !
 ! R57   R(46,49)                1.07           estimate D2E/DX2                !
 ! R58   R(50,51)                1.07           estimate D2E/DX2                !
 ! R59   R(50,52)                1.07           estimate D2E/DX2                !
 ! R60   R(50,53)                1.07           estimate D2E/DX2                !
 ! R61   R(54,55)                1.07           estimate D2E/DX2                !
 ! R62   R(54,56)                1.07           estimate D2E/DX2                !
 ! R63   R(54,57)                1.07           estimate D2E/DX2                !
 ! R64   R(58,59)                1.07           estimate D2E/DX2                !
 ! R65   R(58,60)                1.07           estimate D2E/DX2                !
 ! R66   R(58,61)                1.07           estimate D2E/DX2                !
 ! R67   R(62,63)                1.07           estimate D2E/DX2                !
 ! R68   R(62,64)                1.07           estimate D2E/DX2                !
 ! R69   R(62,65)                1.07           estimate D2E/DX2                !
 ! R70   R(66,67)                1.07           estimate D2E/DX2                !
 ! R71   R(66,68)                1.07           estimate D2E/DX2                !
 ! R72   R(66,69)                1.07           estimate D2E/DX2                !
 ! A1    A(2,1,6)              123.0508         estimate D2E/DX2                !
 ! A2    A(2,1,24)             105.7696         estimate D2E/DX2                !
 ! A3    A(6,1,24)             131.1792         estimate D2E/DX2                !
 ! A4    A(1,2,3)              119.8486         estimate D2E/DX2                !
 ! A5    A(1,2,11)             108.8939         estimate D2E/DX2                !
 ! A6    A(3,2,11)             131.2568         estimate D2E/DX2                !
 ! A7    A(2,3,4)              117.7894         estimate D2E/DX2                !
 ! A8    A(2,3,8)              120.819          estimate D2E/DX2                !
 ! A9    A(4,3,8)              121.3915         estimate D2E/DX2                !
 ! A10   A(3,4,5)              121.6748         estimate D2E/DX2                !
 ! A11   A(3,4,9)              119.2846         estimate D2E/DX2                !
 ! A12   A(5,4,9)              119.0406         estimate D2E/DX2                !
 ! A13   A(4,5,6)              121.7828         estimate D2E/DX2                !
 ! A14   A(4,5,10)             119.5835         estimate D2E/DX2                !
 ! A15   A(6,5,10)             118.6337         estimate D2E/DX2                !
 ! A16   A(1,6,5)              115.8524         estimate D2E/DX2                !
 ! A17   A(1,6,26)             121.9945         estimate D2E/DX2                !
 ! A18   A(5,6,26)             122.1526         estimate D2E/DX2                !
 ! A19   A(11,7,13)            123.7316         estimate D2E/DX2                !
 ! A20   A(11,7,24)            111.28           estimate D2E/DX2                !
 ! A21   A(13,7,24)            124.9867         estimate D2E/DX2                !
 ! A22   A(2,11,7)             106.2789         estimate D2E/DX2                !
 ! A23   A(13,12,17)           119.9141         estimate D2E/DX2                !
 ! A24   A(13,12,22)           122.466          estimate D2E/DX2                !
 ! A25   A(17,12,22)           117.6198         estimate D2E/DX2                !
 ! A26   A(7,13,12)            119.0366         estimate D2E/DX2                !
 ! A27   A(7,13,14)            121.5903         estimate D2E/DX2                !
 ! A28   A(12,13,14)           119.3684         estimate D2E/DX2                !
 ! A29   A(13,14,15)           121.4509         estimate D2E/DX2                !
 ! A30   A(13,14,18)           119.2774         estimate D2E/DX2                !
 ! A31   A(15,14,18)           119.2709         estimate D2E/DX2                !
 ! A32   A(14,15,16)           117.8767         estimate D2E/DX2                !
 ! A33   A(14,15,20)           121.2913         estimate D2E/DX2                !
 ! A34   A(16,15,20)           120.8319         estimate D2E/DX2                !
 ! A35   A(15,16,17)           122.7469         estimate D2E/DX2                !
 ! A36   A(15,16,19)           118.7606         estimate D2E/DX2                !
 ! A37   A(17,16,19)           118.4919         estimate D2E/DX2                !
 ! A38   A(12,17,16)           118.6422         estimate D2E/DX2                !
 ! A39   A(12,17,21)           119.4408         estimate D2E/DX2                !
 ! A40   A(16,17,21)           121.9168         estimate D2E/DX2                !
 ! A41   A(15,20,46)           111.5688         estimate D2E/DX2                !
 ! A42   A(15,20,50)           111.4281         estimate D2E/DX2                !
 ! A43   A(15,20,54)           110.7818         estimate D2E/DX2                !
 ! A44   A(46,20,50)           107.0647         estimate D2E/DX2                !
 ! A45   A(46,20,54)           108.0478         estimate D2E/DX2                !
 ! A46   A(50,20,54)           107.765          estimate D2E/DX2                !
 ! A47   A(17,21,58)           111.3503         estimate D2E/DX2                !
 ! A48   A(17,21,62)           111.1598         estimate D2E/DX2                !
 ! A49   A(17,21,66)           110.7063         estimate D2E/DX2                !
 ! A50   A(58,21,62)           106.594          estimate D2E/DX2                !
 ! A51   A(58,21,66)           108.3932         estimate D2E/DX2                !
 ! A52   A(62,21,66)           108.4849         estimate D2E/DX2                !
 ! A53   A(12,22,23)           107.634          estimate D2E/DX2                !
 ! A54   A(1,24,7)             107.7776         estimate D2E/DX2                !
 ! A55   A(1,24,25)            122.0236         estimate D2E/DX2                !
 ! A56   A(7,24,25)            130.1937         estimate D2E/DX2                !
 ! A57   A(6,26,27)            115.6144         estimate D2E/DX2                !
 ! A58   A(6,26,28)            121.5577         estimate D2E/DX2                !
 ! A59   A(27,26,28)           122.8279         estimate D2E/DX2                !
 ! A60   A(26,28,29)           117.9331         estimate D2E/DX2                !
 ! A61   A(28,29,30)           112.1275         estimate D2E/DX2                !
 ! A62   A(28,29,31)           112.9019         estimate D2E/DX2                !
 ! A63   A(28,29,32)           105.9628         estimate D2E/DX2                !
 ! A64   A(30,29,31)           110.4002         estimate D2E/DX2                !
 ! A65   A(30,29,32)           107.5882         estimate D2E/DX2                !
 ! A66   A(31,29,32)           107.5136         estimate D2E/DX2                !
 ! A67   A(29,30,33)           110.7994         estimate D2E/DX2                !
 ! A68   A(29,30,34)           108.5486         estimate D2E/DX2                !
 ! A69   A(29,30,35)           109.5886         estimate D2E/DX2                !
 ! A70   A(33,30,34)           109.7145         estimate D2E/DX2                !
 ! A71   A(33,30,35)           110.8618         estimate D2E/DX2                !
 ! A72   A(34,30,35)           107.2326         estimate D2E/DX2                !
 ! A73   A(29,31,36)           110.839          estimate D2E/DX2                !
 ! A74   A(29,31,37)           109.0172         estimate D2E/DX2                !
 ! A75   A(29,31,38)           109.4966         estimate D2E/DX2                !
 ! A76   A(36,31,37)           109.1587         estimate D2E/DX2                !
 ! A77   A(36,31,38)           111.179          estimate D2E/DX2                !
 ! A78   A(37,31,38)           107.0519         estimate D2E/DX2                !
 ! A79   A(30,33,39)           111.362          estimate D2E/DX2                !
 ! A80   A(30,33,40)           110.1455         estimate D2E/DX2                !
 ! A81   A(30,33,41)           108.8965         estimate D2E/DX2                !
 ! A82   A(39,33,40)           110.5081         estimate D2E/DX2                !
 ! A83   A(39,33,41)           109.1283         estimate D2E/DX2                !
 ! A84   A(40,33,41)           106.6681         estimate D2E/DX2                !
 ! A85   A(31,36,39)           111.0264         estimate D2E/DX2                !
 ! A86   A(31,36,42)           109.8921         estimate D2E/DX2                !
 ! A87   A(31,36,43)           109.2077         estimate D2E/DX2                !
 ! A88   A(39,36,42)           110.5373         estimate D2E/DX2                !
 ! A89   A(39,36,43)           109.2497         estimate D2E/DX2                !
 ! A90   A(42,36,43)           106.8243         estimate D2E/DX2                !
 ! A91   A(33,39,36)           111.1206         estimate D2E/DX2                !
 ! A92   A(33,39,44)           110.3596         estimate D2E/DX2                !
 ! A93   A(33,39,45)           109.0235         estimate D2E/DX2                !
 ! A94   A(36,39,44)           110.4057         estimate D2E/DX2                !
 ! A95   A(36,39,45)           108.9873         estimate D2E/DX2                !
 ! A96   A(44,39,45)           106.8279         estimate D2E/DX2                !
 ! A97   A(20,46,47)           109.4712         estimate D2E/DX2                !
 ! A98   A(20,46,48)           109.4712         estimate D2E/DX2                !
 ! A99   A(20,46,49)           109.4712         estimate D2E/DX2                !
 ! A100  A(47,46,48)           109.4713         estimate D2E/DX2                !
 ! A101  A(47,46,49)           109.4712         estimate D2E/DX2                !
 ! A102  A(48,46,49)           109.4712         estimate D2E/DX2                !
 ! A103  A(20,50,51)           109.4712         estimate D2E/DX2                !
 ! A104  A(20,50,52)           109.4712         estimate D2E/DX2                !
 ! A105  A(20,50,53)           109.4712         estimate D2E/DX2                !
 ! A106  A(51,50,52)           109.4713         estimate D2E/DX2                !
 ! A107  A(51,50,53)           109.4712         estimate D2E/DX2                !
 ! A108  A(52,50,53)           109.4712         estimate D2E/DX2                !
 ! A109  A(20,54,55)           109.4712         estimate D2E/DX2                !
 ! A110  A(20,54,56)           109.4712         estimate D2E/DX2                !
 ! A111  A(20,54,57)           109.4712         estimate D2E/DX2                !
 ! A112  A(55,54,56)           109.4713         estimate D2E/DX2                !
 ! A113  A(55,54,57)           109.4712         estimate D2E/DX2                !
 ! A114  A(56,54,57)           109.4712         estimate D2E/DX2                !
 ! A115  A(21,58,59)           109.4712         estimate D2E/DX2                !
 ! A116  A(21,58,60)           109.4712         estimate D2E/DX2                !
 ! A117  A(21,58,61)           109.4712         estimate D2E/DX2                !
 ! A118  A(59,58,60)           109.4713         estimate D2E/DX2                !
 ! A119  A(59,58,61)           109.4712         estimate D2E/DX2                !
 ! A120  A(60,58,61)           109.4712         estimate D2E/DX2                !
 ! A121  A(21,62,63)           109.4712         estimate D2E/DX2                !
 ! A122  A(21,62,64)           109.4712         estimate D2E/DX2                !
 ! A123  A(21,62,65)           109.4712         estimate D2E/DX2                !
 ! A124  A(63,62,64)           109.4713         estimate D2E/DX2                !
 ! A125  A(63,62,65)           109.4712         estimate D2E/DX2                !
 ! A126  A(64,62,65)           109.4712         estimate D2E/DX2                !
 ! A127  A(21,66,67)           109.4712         estimate D2E/DX2                !
 ! A128  A(21,66,68)           109.4712         estimate D2E/DX2                !
 ! A129  A(21,66,69)           109.4712         estimate D2E/DX2                !
 ! A130  A(67,66,68)           109.4713         estimate D2E/DX2                !
 ! A131  A(67,66,69)           109.4712         estimate D2E/DX2                !
 ! A132  A(68,66,69)           109.4712         estimate D2E/DX2                !
 ! D1    D(6,1,2,3)             -0.0461         estimate D2E/DX2                !
 ! D2    D(6,1,2,11)           179.668          estimate D2E/DX2                !
 ! D3    D(24,1,2,3)          -179.8157         estimate D2E/DX2                !
 ! D4    D(24,1,2,11)           -0.1016         estimate D2E/DX2                !
 ! D5    D(2,1,6,5)              0.2871         estimate D2E/DX2                !
 ! D6    D(2,1,6,26)          -179.4493         estimate D2E/DX2                !
 ! D7    D(24,1,6,5)           179.9925         estimate D2E/DX2                !
 ! D8    D(24,1,6,26)            0.2561         estimate D2E/DX2                !
 ! D9    D(2,1,24,7)             0.0955         estimate D2E/DX2                !
 ! D10   D(2,1,24,25)          179.3483         estimate D2E/DX2                !
 ! D11   D(6,1,24,7)          -179.648          estimate D2E/DX2                !
 ! D12   D(6,1,24,25)           -0.3951         estimate D2E/DX2                !
 ! D13   D(1,2,3,4)             -0.2523         estimate D2E/DX2                !
 ! D14   D(1,2,3,8)            179.7926         estimate D2E/DX2                !
 ! D15   D(11,2,3,4)          -179.8925         estimate D2E/DX2                !
 ! D16   D(11,2,3,8)             0.1524         estimate D2E/DX2                !
 ! D17   D(1,2,11,7)             0.0676         estimate D2E/DX2                !
 ! D18   D(3,2,11,7)           179.7377         estimate D2E/DX2                !
 ! D19   D(2,3,4,5)              0.3045         estimate D2E/DX2                !
 ! D20   D(2,3,4,9)           -179.7559         estimate D2E/DX2                !
 ! D21   D(8,3,4,5)           -179.7407         estimate D2E/DX2                !
 ! D22   D(8,3,4,9)              0.199          estimate D2E/DX2                !
 ! D23   D(3,4,5,6)             -0.0564         estimate D2E/DX2                !
 ! D24   D(3,4,5,10)           179.9852         estimate D2E/DX2                !
 ! D25   D(9,4,5,6)           -179.9962         estimate D2E/DX2                !
 ! D26   D(9,4,5,10)             0.0454         estimate D2E/DX2                !
 ! D27   D(4,5,6,1)             -0.2354         estimate D2E/DX2                !
 ! D28   D(4,5,6,26)           179.5006         estimate D2E/DX2                !
 ! D29   D(10,5,6,1)           179.7233         estimate D2E/DX2                !
 ! D30   D(10,5,6,26)           -0.5406         estimate D2E/DX2                !
 ! D31   D(1,6,26,27)          178.6912         estimate D2E/DX2                !
 ! D32   D(1,6,26,28)           -1.3907         estimate D2E/DX2                !
 ! D33   D(5,6,26,27)           -1.0287         estimate D2E/DX2                !
 ! D34   D(5,6,26,28)          178.8894         estimate D2E/DX2                !
 ! D35   D(13,7,11,2)         -179.5624         estimate D2E/DX2                !
 ! D36   D(24,7,11,2)           -0.0069         estimate D2E/DX2                !
 ! D37   D(11,7,13,12)           1.6929         estimate D2E/DX2                !
 ! D38   D(11,7,13,14)        -179.1044         estimate D2E/DX2                !
 ! D39   D(24,7,13,12)        -177.8015         estimate D2E/DX2                !
 ! D40   D(24,7,13,14)           1.4012         estimate D2E/DX2                !
 ! D41   D(11,7,24,1)           -0.0577         estimate D2E/DX2                !
 ! D42   D(11,7,24,25)        -179.2284         estimate D2E/DX2                !
 ! D43   D(13,7,24,1)          179.491          estimate D2E/DX2                !
 ! D44   D(13,7,24,25)           0.3203         estimate D2E/DX2                !
 ! D45   D(17,12,13,7)         179.3029         estimate D2E/DX2                !
 ! D46   D(17,12,13,14)          0.0822         estimate D2E/DX2                !
 ! D47   D(22,12,13,7)          -0.7205         estimate D2E/DX2                !
 ! D48   D(22,12,13,14)       -179.9412         estimate D2E/DX2                !
 ! D49   D(13,12,17,16)         -0.119          estimate D2E/DX2                !
 ! D50   D(13,12,17,21)       -179.9902         estimate D2E/DX2                !
 ! D51   D(22,12,17,16)        179.9032         estimate D2E/DX2                !
 ! D52   D(22,12,17,21)          0.032          estimate D2E/DX2                !
 ! D53   D(13,12,22,23)         -0.4528         estimate D2E/DX2                !
 ! D54   D(17,12,22,23)        179.5244         estimate D2E/DX2                !
 ! D55   D(7,13,14,15)        -179.3705         estimate D2E/DX2                !
 ! D56   D(7,13,14,18)           0.9591         estimate D2E/DX2                !
 ! D57   D(12,13,14,15)         -0.1703         estimate D2E/DX2                !
 ! D58   D(12,13,14,18)       -179.8408         estimate D2E/DX2                !
 ! D59   D(13,14,15,16)          0.2863         estimate D2E/DX2                !
 ! D60   D(13,14,15,20)       -179.6132         estimate D2E/DX2                !
 ! D61   D(18,14,15,16)        179.9568         estimate D2E/DX2                !
 ! D62   D(18,14,15,20)          0.0573         estimate D2E/DX2                !
 ! D63   D(14,15,16,17)         -0.3302         estimate D2E/DX2                !
 ! D64   D(14,15,16,19)        179.949          estimate D2E/DX2                !
 ! D65   D(20,15,16,17)        179.5699         estimate D2E/DX2                !
 ! D66   D(20,15,16,19)         -0.1509         estimate D2E/DX2                !
 ! D67   D(14,15,20,46)        -54.2081         estimate D2E/DX2                !
 ! D68   D(14,15,20,50)         65.4035         estimate D2E/DX2                !
 ! D69   D(14,15,20,54)       -174.6282         estimate D2E/DX2                !
 ! D70   D(16,15,20,46)        125.8953         estimate D2E/DX2                !
 ! D71   D(16,15,20,50)       -114.4931         estimate D2E/DX2                !
 ! D72   D(16,15,20,54)          5.4751         estimate D2E/DX2                !
 ! D73   D(15,16,17,12)          0.2487         estimate D2E/DX2                !
 ! D74   D(15,16,17,21)       -179.8834         estimate D2E/DX2                !
 ! D75   D(19,16,17,12)        179.9702         estimate D2E/DX2                !
 ! D76   D(19,16,17,21)         -0.1619         estimate D2E/DX2                !
 ! D77   D(12,17,21,58)         61.9153         estimate D2E/DX2                !
 ! D78   D(12,17,21,62)        -56.7769         estimate D2E/DX2                !
 ! D79   D(12,17,21,66)       -177.425          estimate D2E/DX2                !
 ! D80   D(16,17,21,58)       -117.9516         estimate D2E/DX2                !
 ! D81   D(16,17,21,62)        123.3563         estimate D2E/DX2                !
 ! D82   D(16,17,21,66)          2.7082         estimate D2E/DX2                !
 ! D83   D(15,20,46,47)         86.4527         estimate D2E/DX2                !
 ! D84   D(15,20,46,48)       -153.5473         estimate D2E/DX2                !
 ! D85   D(15,20,46,49)        -33.5473         estimate D2E/DX2                !
 ! D86   D(50,20,46,47)        -35.7068         estimate D2E/DX2                !
 ! D87   D(50,20,46,48)         84.2932         estimate D2E/DX2                !
 ! D88   D(50,20,46,49)       -155.7068         estimate D2E/DX2                !
 ! D89   D(54,20,46,47)       -151.5369         estimate D2E/DX2                !
 ! D90   D(54,20,46,48)        -31.5369         estimate D2E/DX2                !
 ! D91   D(54,20,46,49)         88.4631         estimate D2E/DX2                !
 ! D92   D(15,20,50,51)         42.218          estimate D2E/DX2                !
 ! D93   D(15,20,50,52)        162.2181         estimate D2E/DX2                !
 ! D94   D(15,20,50,53)        -77.782          estimate D2E/DX2                !
 ! D95   D(46,20,50,51)        164.4654         estimate D2E/DX2                !
 ! D96   D(46,20,50,52)        -75.5345         estimate D2E/DX2                !
 ! D97   D(46,20,50,53)         44.4654         estimate D2E/DX2                !
 ! D98   D(54,20,50,51)        -79.5164         estimate D2E/DX2                !
 ! D99   D(54,20,50,52)         40.4836         estimate D2E/DX2                !
 ! D100  D(54,20,50,53)        160.4836         estimate D2E/DX2                !
 ! D101  D(15,20,54,55)        -61.8902         estimate D2E/DX2                !
 ! D102  D(15,20,54,56)         58.1098         estimate D2E/DX2                !
 ! D103  D(15,20,54,57)        178.1098         estimate D2E/DX2                !
 ! D104  D(46,20,54,55)        175.6163         estimate D2E/DX2                !
 ! D105  D(46,20,54,56)        -64.3837         estimate D2E/DX2                !
 ! D106  D(46,20,54,57)         55.6163         estimate D2E/DX2                !
 ! D107  D(50,20,54,55)         60.2446         estimate D2E/DX2                !
 ! D108  D(50,20,54,56)       -179.7554         estimate D2E/DX2                !
 ! D109  D(50,20,54,57)        -59.7554         estimate D2E/DX2                !
 ! D110  D(17,21,58,59)        141.7451         estimate D2E/DX2                !
 ! D111  D(17,21,58,60)        -98.2549         estimate D2E/DX2                !
 ! D112  D(17,21,58,61)         21.7451         estimate D2E/DX2                !
 ! D113  D(62,21,58,59)        -96.8624         estimate D2E/DX2                !
 ! D114  D(62,21,58,60)         23.1376         estimate D2E/DX2                !
 ! D115  D(62,21,58,61)        143.1376         estimate D2E/DX2                !
 ! D116  D(66,21,58,59)         19.7361         estimate D2E/DX2                !
 ! D117  D(66,21,58,60)        139.7361         estimate D2E/DX2                !
 ! D118  D(66,21,58,61)       -100.2639         estimate D2E/DX2                !
 ! D119  D(17,21,62,63)         93.2002         estimate D2E/DX2                !
 ! D120  D(17,21,62,64)       -146.7998         estimate D2E/DX2                !
 ! D121  D(17,21,62,65)        -26.7998         estimate D2E/DX2                !
 ! D122  D(58,21,62,63)        -28.3135         estimate D2E/DX2                !
 ! D123  D(58,21,62,64)         91.6865         estimate D2E/DX2                !
 ! D124  D(58,21,62,65)       -148.3135         estimate D2E/DX2                !
 ! D125  D(66,21,62,63)       -144.8509         estimate D2E/DX2                !
 ! D126  D(66,21,62,64)        -24.8509         estimate D2E/DX2                !
 ! D127  D(66,21,62,65)         95.1491         estimate D2E/DX2                !
 ! D128  D(17,21,66,67)        -61.164          estimate D2E/DX2                !
 ! D129  D(17,21,66,68)         58.836          estimate D2E/DX2                !
 ! D130  D(17,21,66,69)        178.836          estimate D2E/DX2                !
 ! D131  D(58,21,66,67)         61.238          estimate D2E/DX2                !
 ! D132  D(58,21,66,68)       -178.762          estimate D2E/DX2                !
 ! D133  D(58,21,66,69)        -58.762          estimate D2E/DX2                !
 ! D134  D(62,21,66,67)        176.6103         estimate D2E/DX2                !
 ! D135  D(62,21,66,68)        -63.3897         estimate D2E/DX2                !
 ! D136  D(62,21,66,69)         56.6103         estimate D2E/DX2                !
 ! D137  D(6,26,28,29)        -179.7533         estimate D2E/DX2                !
 ! D138  D(27,26,28,29)          0.1589         estimate D2E/DX2                !
 ! D139  D(26,28,29,30)        -66.4293         estimate D2E/DX2                !
 ! D140  D(26,28,29,31)         59.0402         estimate D2E/DX2                !
 ! D141  D(26,28,29,32)        176.4678         estimate D2E/DX2                !
 ! D142  D(28,29,30,33)       -176.3994         estimate D2E/DX2                !
 ! D143  D(28,29,30,34)         63.0647         estimate D2E/DX2                !
 ! D144  D(28,29,30,35)        -53.7486         estimate D2E/DX2                !
 ! D145  D(31,29,30,33)         56.7716         estimate D2E/DX2                !
 ! D146  D(31,29,30,34)        -63.7642         estimate D2E/DX2                !
 ! D147  D(31,29,30,35)        179.4224         estimate D2E/DX2                !
 ! D148  D(32,29,30,33)        -60.2743         estimate D2E/DX2                !
 ! D149  D(32,29,30,34)        179.1898         estimate D2E/DX2                !
 ! D150  D(32,29,30,35)         62.3765         estimate D2E/DX2                !
 ! D151  D(28,29,31,36)        176.4333         estimate D2E/DX2                !
 ! D152  D(28,29,31,37)        -63.393          estimate D2E/DX2                !
 ! D153  D(28,29,31,38)         53.4187         estimate D2E/DX2                !
 ! D154  D(30,29,31,36)        -57.1698         estimate D2E/DX2                !
 ! D155  D(30,29,31,37)         63.0039         estimate D2E/DX2                !
 ! D156  D(30,29,31,38)        179.8157         estimate D2E/DX2                !
 ! D157  D(32,29,31,36)         59.9223         estimate D2E/DX2                !
 ! D158  D(32,29,31,37)       -179.904          estimate D2E/DX2                !
 ! D159  D(32,29,31,38)        -63.0922         estimate D2E/DX2                !
 ! D160  D(29,30,33,39)        -56.0527         estimate D2E/DX2                !
 ! D161  D(29,30,33,40)       -179.0216         estimate D2E/DX2                !
 ! D162  D(29,30,33,41)         64.3311         estimate D2E/DX2                !
 ! D163  D(34,30,33,39)         63.7879         estimate D2E/DX2                !
 ! D164  D(34,30,33,40)        -59.181          estimate D2E/DX2                !
 ! D165  D(34,30,33,41)       -175.8283         estimate D2E/DX2                !
 ! D166  D(35,30,33,39)       -177.9608         estimate D2E/DX2                !
 ! D167  D(35,30,33,40)         59.0702         estimate D2E/DX2                !
 ! D168  D(35,30,33,41)        -57.5771         estimate D2E/DX2                !
 ! D169  D(29,31,36,39)         56.6217         estimate D2E/DX2                !
 ! D170  D(29,31,36,42)        179.2222         estimate D2E/DX2                !
 ! D171  D(29,31,36,43)        -63.9052         estimate D2E/DX2                !
 ! D172  D(37,31,36,39)        -63.4676         estimate D2E/DX2                !
 ! D173  D(37,31,36,42)         59.1329         estimate D2E/DX2                !
 ! D174  D(37,31,36,43)        176.0055         estimate D2E/DX2                !
 ! D175  D(38,31,36,39)        178.6583         estimate D2E/DX2                !
 ! D176  D(38,31,36,42)        -58.7412         estimate D2E/DX2                !
 ! D177  D(38,31,36,43)         58.1314         estimate D2E/DX2                !
 ! D178  D(30,33,39,36)         55.3289         estimate D2E/DX2                !
 ! D179  D(30,33,39,44)        178.1507         estimate D2E/DX2                !
 ! D180  D(30,33,39,45)        -64.8117         estimate D2E/DX2                !
 ! D181  D(40,33,39,36)        178.0899         estimate D2E/DX2                !
 ! D182  D(40,33,39,44)        -59.0883         estimate D2E/DX2                !
 ! D183  D(40,33,39,45)         57.9494         estimate D2E/DX2                !
 ! D184  D(41,33,39,36)        -64.9182         estimate D2E/DX2                !
 ! D185  D(41,33,39,44)         57.9035         estimate D2E/DX2                !
 ! D186  D(41,33,39,45)        174.9412         estimate D2E/DX2                !
 ! D187  D(31,36,39,33)        -55.5122         estimate D2E/DX2                !
 ! D188  D(31,36,39,44)       -178.3073         estimate D2E/DX2                !
 ! D189  D(31,36,39,45)         64.6499         estimate D2E/DX2                !
 ! D190  D(42,36,39,33)       -177.7385         estimate D2E/DX2                !
 ! D191  D(42,36,39,44)         59.4663         estimate D2E/DX2                !
 ! D192  D(42,36,39,45)        -57.5765         estimate D2E/DX2                !
 ! D193  D(43,36,39,33)         64.9899         estimate D2E/DX2                !
 ! D194  D(43,36,39,44)        -57.8053         estimate D2E/DX2                !
 ! D195  D(43,36,39,45)       -174.8481         estimate D2E/DX2                !
 --------------------------------------------------------------------------------
 Trust Radius=3.00D-01 FncErr=5.00D-06 GrdErr=5.00D-06 EigMax=2.50D+02 EigMin=1.00D-04
 Number of steps in this run=    409 maximum allowed number of steps=    414.
 GradGradGradGradGradGradGradGradGradGradGradGradGradGradGradGradGradGrad

 Leave Link  103 at Thu Dec 20 17:50:50 2018, MaxMem=  1342177280 cpu:               0.5 elap:               0.1
 (Enter /gpfs/apps/hpc/Apps/Restricted/Gaussian/Rev_A.03/g16/l202.exe)
 Symmetry turned off by external request.
 Stoichiometry    C28H37N3O
 Framework group  C1[X(C28H37N3O)]
 Deg. of freedom   201
 Full point group                 C1      NOp   1
                          Input orientation:                          
 ---------------------------------------------------------------------
 Center     Atomic      Atomic             Coordinates (Angstroms)
 Number     Number       Type             X           Y           Z
 ---------------------------------------------------------------------
      1          6           0       -0.464016    2.687907    0.302918
      2          6           0       -1.865592    2.861694    0.266958
      3          6           0       -2.406128    4.150853    0.194177
      4          6           0       -1.519270    5.227263    0.165183
      5          6           0       -0.128231    5.037800    0.200664
      6          6           0        0.440920    3.759294    0.268134
      7          6           0       -1.486085    0.719710    0.368798
      8          1           0       -3.478186    4.302097    0.162417
      9          1           0       -1.911621    6.236101    0.112988
     10          1           0        0.530326    5.899288    0.176209
     11          7           0       -2.473534    1.616523    0.308464
     12          6           0       -3.027505   -1.214277    0.365002
     13          6           0       -1.702172   -0.716102    0.417776
     14          6           0       -0.628631   -1.619999    0.499398
     15          6           0       -0.838191   -2.994148    0.533102
     16          6           0       -2.162132   -3.457845    0.476757
     17          6           0       -3.257186   -2.601750    0.396295
     18          1           0        0.385673   -1.236769    0.542363
     19          1           0       -2.342285   -4.528541    0.501258
     20          6           0        0.316003   -3.960563    0.629400
     21          6           0       -4.667919   -3.118784    0.339484
     22          8           0       -4.104821   -0.402634    0.284758
     23          1           0       -3.773832    0.540227    0.280353
     24          7           0       -0.257510    1.330909    0.368136
     25          1           0        0.672409    0.929681    0.395081
     26          6           0        1.885543    3.552563    0.294638
     27          1           0        2.495162    4.461370    0.240612
     28          7           0        2.393902    2.378618    0.377624
     29          6           0        3.859284    2.262967    0.403824
     30          6           0        4.498506    2.699094   -0.924819
     31          6           0        4.498399    3.019840    1.580094
     32          1           0        4.075136    1.197155    0.541106
     33          6           0        6.015675    2.482711   -0.895801
     34          1           0        4.279374    3.761530   -1.085188
     35          1           0        4.041718    2.145649   -1.750758
     36          6           0        6.014261    2.795815    1.613456
     37          1           0        4.295379    4.091638    1.467922
     38          1           0        4.031049    2.701085    2.516487
     39          6           0        6.661290    3.212743    0.287433
     40          1           0        6.461519    2.812467   -1.839203
     41          1           0        6.219816    1.407819   -0.809903
     42          1           0        6.454588    3.351723    2.447047
     43          1           0        6.218205    1.733493    1.797219
     44          1           0        7.738403    3.020732    0.311445
     45          1           0        6.534339    4.294400    0.152747
     46          6           0        1.351099   -3.719039   -0.484980
     47          1           0        2.047156   -2.970307   -0.169059
     48          1           0        1.874787   -4.629595   -0.688789
     49          1           0        0.850545   -3.389401   -1.371368
     50          6           0        1.056673   -3.820330    1.972286
     51          1           0        0.344068   -3.710469    2.762871
     52          1           0        1.649668   -4.693980    2.145471
     53          1           0        1.690905   -2.959106    1.941560
     54          6           0       -0.177892   -5.414708    0.514814
     55          1           0       -0.841867   -5.630804    1.325579
     56          1           0       -0.694409   -5.543863   -0.413318
     57          1           0        0.659438   -6.079804    0.552565
     58          6           0       -5.359683   -2.717158   -0.976479
     59          1           0       -5.975161   -3.523688   -1.316476
     60          1           0       -5.965917   -1.851156   -0.810887
     61          1           0       -4.618614   -2.497579   -1.716412
     62          6           0       -5.520628   -2.534147    1.480837
     63          1           0       -6.022472   -1.654144    1.136383
     64          1           0       -6.244011   -3.258323    1.792582
     65          1           0       -4.887868   -2.283764    2.306562
     66          6           0       -4.689878   -4.654587    0.450961
     67          1           0       -4.150437   -5.079503   -0.369617
     68          1           0       -4.231884   -4.951986    1.371122
     69          1           0       -5.702570   -4.999355    0.428834
 ---------------------------------------------------------------------
 Rotational constants (GHZ):           0.1857191           0.0715386           0.0539557
 Leave Link  202 at Thu Dec 20 17:50:51 2018, MaxMem=  1342177280 cpu:               1.2 elap:               0.1
 (Enter /gpfs/apps/hpc/Apps/Restricted/Gaussian/Rev_A.03/g16/l301.exe)
 Standard basis: 6-31G(d,p) (6D, 7F)
 Ernie: Thresh=  0.10000D-02 Tol=  0.10000D-05 Strict=F.
   665 basis functions,  1155 primitive gaussians,   665 cartesian basis functions
   117 alpha electrons      117 beta electrons
       nuclear repulsion energy      3174.6864160123 Hartrees.
 IExCor=  402 DFT=T Ex+Corr=B3LYP ExCW=0 ScaHFX=  0.200000
 ScaDFX=  0.800000  0.720000  1.000000  0.810000 ScalE2=  1.000000  1.000000
 IRadAn=      5 IRanWt=     -1 IRanGd=            0 ICorTp=0 IEmpDi=141
 NAtoms=   69 NActive=   69 NUniq=   69 SFac= 1.00D+00 NAtFMM=   60 NAOKFM=T Big=T
 Integral buffers will be    131072 words long.
 Raffenetti 2 integral format.
 Two-electron integral symmetry is turned off.
 R6Disp:  Grimme-D3(BJ) Dispersion energy=       -0.1513149580 Hartrees.
 Nuclear repulsion after empirical dispersion term =     3174.5351010543 Hartrees.
 Using the following non-standard input for PCM:
 radii=bondi
 dis
 rep
 cav
 --- end of non-standard input.
 ------------------------------------------------------------------------------
 Polarizable Continuum Model (PCM)
 =================================
 Model                : C-PCM.
 Atomic radii         : Bondi.
 Polarization charges : Total charges.
 Charge compensation  : None.
 Solution method      : On-the-fly selection.
 Cavity type          : Scaled VdW (van der Waals Surface) (Alpha=1.100).
 Cavity algorithm     : GePol (No added spheres)
                        Default sphere list used, NSphG=   69.
                        Lebedev-Laikov grids with approx.  5.0 points / Ang**2.
                        Smoothing algorithm: York/Karplus (Gamma=1.0000).
                        Polarization charges: spherical gaussians, with
                                              point-specific exponents (IZeta= 3).
                        Self-potential: point-specific (ISelfS= 7).
                        Self-field    : sphere-specific E.n sum rule (ISelfD= 2).
 1st derivatives      : Analytical E(r).r(x)/FMM algorithm (CHGder, D1EAlg=3).
                        Cavity 1st derivative terms included.
 Solvent              : Dichloromethane, Eps=   8.930000 Eps(inf)=   2.028346
 ------------------------------------------------------------------------------
 GePol: Number of generator spheres                  =      69
 GePol: Total number of spheres                      =      69
 GePol: Number of exposed spheres                    =      69 (100.00%)
 GePol: Number of points                             =    4291
 GePol: Average weight of points                     =       0.12
 GePol: Minimum weight of points                     =   0.20D-11
 GePol: Maximum weight of points                     =    0.21770
 GePol: Number of points with low weight             =     311
 GePol: Fraction of low-weight points (<1% of avg)   =       7.25%
 GePol: Cavity surface area                          =    512.026 Ang**2
 GePol: Cavity volume                                =    497.926 Ang**3
 PCM non-electrostatic energy =         0.0243679123 Hartrees.
 Nuclear repulsion after PCM non-electrostatic terms =     3174.5594689666 Hartrees.
 Leave Link  301 at Thu Dec 20 17:50:51 2018, MaxMem=  1342177280 cpu:               3.5 elap:               0.3
 (Enter /gpfs/apps/hpc/Apps/Restricted/Gaussian/Rev_A.03/g16/l302.exe)
 NPDir=0 NMtPBC=     1 NCelOv=     1 NCel=       1 NClECP=     1 NCelD=      1
         NCelK=      1 NCelE2=     1 NClLst=     1 CellRange=     0.0.
 One-electron integrals computed using PRISM.
 NBasis=   665 RedAO= T EigKep=  2.84D-04  NBF=   665
 NBsUse=   665 1.00D-06 EigRej= -1.00D+00 NBFU=   665
 Precomputing XC quadrature grid using
 IXCGrd= 4 IRadAn=           5 IRanWt=          -1 IRanGd=           0 AccXCQ= 0.00D+00.
 Generated NRdTot=       0 NPtTot=           0 NUsed=           0 NTot=          32
 NSgBfM=   646   646   646   646   646 MxSgAt=    69 MxSgA2=    69.
 Leave Link  302 at Thu Dec 20 17:50:52 2018, MaxMem=  1342177280 cpu:              18.1 elap:               1.2
 (Enter /gpfs/apps/hpc/Apps/Restricted/Gaussian/Rev_A.03/g16/l303.exe)
 DipDrv:  MaxL=1.
 Leave Link  303 at Thu Dec 20 17:50:52 2018, MaxMem=  1342177280 cpu:               1.2 elap:               0.1
 (Enter /gpfs/apps/hpc/Apps/Restricted/Gaussian/Rev_A.03/g16/l401.exe)
 ExpMin= 1.61D-01 ExpMax= 5.48D+03 ExpMxC= 8.25D+02 IAcc=3 IRadAn=         5 AccDes= 0.00D+00
 Harris functional with IExCor=  402 and IRadAn=       5 diagonalized for initial guess.
 HarFok:  IExCor=  402 AccDes= 0.00D+00 IRadAn=         5 IDoV= 1 UseB2=F ITyADJ=14
 ICtDFT=  3500011 ScaDFX=  1.000000  1.000000  1.000000  1.000000
 FoFCou: FMM=F IPFlag=           0 FMFlag=      100000 FMFlg1=        2001
         NFxFlg=           0 DoJE=T BraDBF=F KetDBF=T FulRan=T
         wScrn=  0.000000 ICntrl=       500 IOpCl=  0 I1Cent=   200000004 NGrid=           0
         NMat0=    1 NMatS0=      1 NMatT0=    0 NMatD0=    1 NMtDS0=    0 NMtDT0=    0
 Symmetry not used in FoFCou.
 Harris En= -1329.06311927539    
 JPrj=0 DoOrth=F DoCkMO=F.
 Leave Link  401 at Thu Dec 20 17:50:56 2018, MaxMem=  1342177280 cpu:              57.2 elap:               3.6
 (Enter /gpfs/apps/hpc/Apps/Restricted/Gaussian/Rev_A.03/g16/l502.exe)
 Two-electron integral symmetry not used.
 Closed shell SCF:
 Using DIIS extrapolation, IDIIS=  1040.
 NGot=  1342177280 LenX=  1341276554 LenY=  1340833664
 Requested convergence on RMS density matrix=1.00D-08 within 128 cycles.
 Requested convergence on MAX density matrix=1.00D-06.
 Requested convergence on             energy=1.00D-06.
 No special actions if energy rises.
 Fock matrices will be formed incrementally for  20 cycles.

 Cycle   1  Pass 1  IDiag  1:
 FoFJK:  IHMeth= 1 ICntrl=       0 DoSepK=F KAlg= 0 I1Cent=           0 FoldK=F
 IRaf= 760000000 NMat=       1 IRICut=       1 DoRegI=T DoRafI=F ISym2E= 0 IDoP0=0 IntGTp=1.
 FoFCou: FMM=T IPFlag=           0 FMFlag=      100000 FMFlg1=        2001
         NFxFlg=           0 DoJE=F BraDBF=F KetDBF=F FulRan=T
         wScrn=  0.000000 ICntrl=         0 IOpCl=  0 I1Cent=           0 NGrid=           0
         NMat0=    1 NMatS0=      1 NMatT0=    0 NMatD0=    1 NMtDS0=    0 NMtDT0=    0
 Symmetry not used in FoFCou.
 FMM levels:  10  Number of levels for PrismC:   9
 Inv3:  Mode=1 IEnd=    55238043.
 Iteration    1 A*A^-1 deviation from unit magnitude is 9.77D-15 for   1074.
 Iteration    1 A*A^-1 deviation from orthogonality  is 7.45D-15 for   4264   1952.
 Iteration    1 A^-1*A deviation from unit magnitude is 9.99D-15 for   1074.
 Iteration    1 A^-1*A deviation from orthogonality  is 4.43D-15 for   4270   4154.
 E= -1328.07775205615    
 DIIS: error= 3.49D-02 at cycle   1 NSaved=   1.
 NSaved= 1 IEnMin= 1 EnMin= -1328.07775205615     IErMin= 1 ErrMin= 3.49D-02
 ErrMax= 3.49D-02  0.00D+00 EMaxC= 1.00D-01 BMatC= 8.46D-01 BMatP= 8.46D-01
 IDIUse=3 WtCom= 6.51D-01 WtEn= 3.49D-01
 Coeff-Com:  0.100D+01
 Coeff-En:   0.100D+01
 Coeff:      0.100D+01
 Gap=     0.158 Goal=   None    Shift=    0.000
 GapD=    0.158 DampG=1.000 DampE=0.500 DampFc=0.5000 IDamp=-1.
 Damping current iteration by 5.00D-01
 RMSDP=3.29D-03 MaxDP=1.39D-01              OVMax= 1.95D-01

 Cycle   2  Pass 1  IDiag  1:
 RMSU=  1.60D-03    CP:  9.68D-01
 E= -1328.48511989443     Delta-E=       -0.407367838285 Rises=F Damp=T
 DIIS: error= 7.56D-03 at cycle   2 NSaved=   2.
 NSaved= 2 IEnMin= 2 EnMin= -1328.48511989443     IErMin= 2 ErrMin= 7.56D-03
 ErrMax= 7.56D-03  0.00D+00 EMaxC= 1.00D-01 BMatC= 4.87D-02 BMatP= 8.46D-01
 IDIUse=3 WtCom= 9.24D-01 WtEn= 7.56D-02
 Coeff-Com:  0.454D-01 0.955D+00
 Coeff-En:   0.790D-01 0.921D+00
 Coeff:      0.479D-01 0.952D+00
 Gap=     0.170 Goal=   None    Shift=    0.000
 RMSDP=8.39D-04 MaxDP=4.92D-02 DE=-4.07D-01 OVMax= 1.59D-01

 Cycle   3  Pass 1  IDiag  1:
 RMSU=  8.19D-04    CP:  9.55D-01  9.38D-01
 E= -1328.94454625226     Delta-E=       -0.459426357824 Rises=F Damp=F
 DIIS: error= 4.95D-03 at cycle   3 NSaved=   3.
 NSaved= 3 IEnMin= 3 EnMin= -1328.94454625226     IErMin= 3 ErrMin= 4.95D-03
 ErrMax= 4.95D-03  0.00D+00 EMaxC= 1.00D-01 BMatC= 2.78D-02 BMatP= 4.87D-02
 IDIUse=3 WtCom= 9.50D-01 WtEn= 4.95D-02
 Coeff-Com: -0.199D-01 0.418D+00 0.601D+00
 Coeff-En:   0.000D+00 0.000D+00 0.100D+01
 Coeff:     -0.189D-01 0.398D+00 0.621D+00
 Gap=     0.148 Goal=   None    Shift=    0.000
 RMSDP=4.18D-04 MaxDP=3.54D-02 DE=-4.59D-01 OVMax= 6.41D-02

 Cycle   4  Pass 1  IDiag  1:
 RMSU=  3.09D-04    CP:  9.56D-01  1.00D+00  6.82D-01
 E= -1328.96517734313     Delta-E=       -0.020631090876 Rises=F Damp=F
 DIIS: error= 2.99D-03 at cycle   4 NSaved=   4.
 NSaved= 4 IEnMin= 4 EnMin= -1328.96517734313     IErMin= 4 ErrMin= 2.99D-03
 ErrMax= 2.99D-03  0.00D+00 EMaxC= 1.00D-01 BMatC= 8.43D-03 BMatP= 2.78D-02
 IDIUse=3 WtCom= 9.70D-01 WtEn= 2.99D-02
 Coeff-Com: -0.138D-01 0.955D-01 0.371D+00 0.547D+00
 Coeff-En:   0.000D+00 0.000D+00 0.244D+00 0.756D+00
 Coeff:     -0.134D-01 0.926D-01 0.367D+00 0.553D+00
 Gap=     0.145 Goal=   None    Shift=    0.000
 RMSDP=1.67D-04 MaxDP=1.44D-02 DE=-2.06D-02 OVMax= 2.50D-02

 Cycle   5  Pass 1  IDiag  1:
 RMSU=  8.53D-05    CP:  9.56D-01  9.87D-01  7.66D-01  6.01D-01
 E= -1328.97320673391     Delta-E=       -0.008029390779 Rises=F Damp=F
 DIIS: error= 7.24D-04 at cycle   5 NSaved=   5.
 NSaved= 5 IEnMin= 5 EnMin= -1328.97320673391     IErMin= 5 ErrMin= 7.24D-04
 ErrMax= 7.24D-04  0.00D+00 EMaxC= 1.00D-01 BMatC= 5.77D-04 BMatP= 8.43D-03
 IDIUse=3 WtCom= 9.93D-01 WtEn= 7.24D-03
 Coeff-Com: -0.558D-02 0.184D-01 0.154D+00 0.301D+00 0.532D+00
 Coeff-En:   0.000D+00 0.000D+00 0.000D+00 0.000D+00 0.100D+01
 Coeff:     -0.554D-02 0.182D-01 0.152D+00 0.299D+00 0.536D+00
 Gap=     0.145 Goal=   None    Shift=    0.000
 RMSDP=4.76D-05 MaxDP=4.40D-03 DE=-8.03D-03 OVMax= 5.27D-03

 Cycle   6  Pass 1  IDiag  1:
 RMSU=  2.41D-05    CP:  9.56D-01  9.90D-01  7.73D-01  6.29D-01  5.37D-01
 E= -1328.97371674462     Delta-E=       -0.000510010706 Rises=F Damp=F
 DIIS: error= 2.15D-04 at cycle   6 NSaved=   6.
 NSaved= 6 IEnMin= 6 EnMin= -1328.97371674462     IErMin= 6 ErrMin= 2.15D-04
 ErrMax= 2.15D-04  0.00D+00 EMaxC= 1.00D-01 BMatC= 4.46D-05 BMatP= 5.77D-04
 IDIUse=3 WtCom= 9.98D-01 WtEn= 2.15D-03
 Coeff-Com: -0.204D-02 0.346D-02 0.567D-01 0.123D+00 0.295D+00 0.524D+00
 Coeff-En:   0.000D+00 0.000D+00 0.000D+00 0.000D+00 0.000D+00 0.100D+01
 Coeff:     -0.203D-02 0.346D-02 0.566D-01 0.123D+00 0.294D+00 0.525D+00
 Gap=     0.145 Goal=   None    Shift=    0.000
 RMSDP=1.26D-05 MaxDP=1.29D-03 DE=-5.10D-04 OVMax= 2.03D-03

 Cycle   7  Pass 1  IDiag  1:
 RMSU=  7.75D-06    CP:  9.56D-01  9.90D-01  7.73D-01  6.32D-01  5.95D-01
                    CP:  6.43D-01
 E= -1328.97375345943     Delta-E=       -0.000036714808 Rises=F Damp=F
 DIIS: error= 6.06D-05 at cycle   7 NSaved=   7.
 NSaved= 7 IEnMin= 7 EnMin= -1328.97375345943     IErMin= 7 ErrMin= 6.06D-05
 ErrMax= 6.06D-05  0.00D+00 EMaxC= 1.00D-01 BMatC= 4.94D-06 BMatP= 4.46D-05
 IDIUse=1 WtCom= 1.00D+00 WtEn= 0.00D+00
 Coeff-Com: -0.674D-03 0.350D-03 0.186D-01 0.434D-01 0.123D+00 0.309D+00
 Coeff-Com:  0.506D+00
 Coeff:     -0.674D-03 0.350D-03 0.186D-01 0.434D-01 0.123D+00 0.309D+00
 Coeff:      0.506D+00
 Gap=     0.145 Goal=   None    Shift=    0.000
 RMSDP=4.02D-06 MaxDP=4.34D-04 DE=-3.67D-05 OVMax= 6.95D-04

 Cycle   8  Pass 1  IDiag  1:
 RMSU=  2.02D-06    CP:  9.56D-01  9.90D-01  7.74D-01  6.33D-01  5.97D-01
                    CP:  6.79D-01  5.73D-01
 E= -1328.97375790102     Delta-E=       -0.000004441591 Rises=F Damp=F
 DIIS: error= 1.17D-05 at cycle   8 NSaved=   8.
 NSaved= 8 IEnMin= 8 EnMin= -1328.97375790102     IErMin= 8 ErrMin= 1.17D-05
 ErrMax= 1.17D-05  0.00D+00 EMaxC= 1.00D-01 BMatC= 2.19D-07 BMatP= 4.94D-06
 IDIUse=1 WtCom= 1.00D+00 WtEn= 0.00D+00
 Coeff-Com: -0.148D-03-0.928D-04 0.384D-02 0.946D-02 0.322D-01 0.977D-01
 Coeff-Com:  0.234D+00 0.623D+00
 Coeff:     -0.148D-03-0.928D-04 0.384D-02 0.946D-02 0.322D-01 0.977D-01
 Coeff:      0.234D+00 0.623D+00
 Gap=     0.145 Goal=   None    Shift=    0.000
 RMSDP=1.00D-06 MaxDP=9.98D-05 DE=-4.44D-06 OVMax= 1.68D-04

 Cycle   9  Pass 1  IDiag  1:
 RMSU=  7.40D-07    CP:  9.56D-01  9.90D-01  7.74D-01  6.33D-01  5.98D-01
                    CP:  6.80D-01  6.19D-01  7.35D-01
 E= -1328.97375808048     Delta-E=       -0.000000179466 Rises=F Damp=F
 DIIS: error= 5.87D-06 at cycle   9 NSaved=   9.
 NSaved= 9 IEnMin= 9 EnMin= -1328.97375808048     IErMin= 9 ErrMin= 5.87D-06
 ErrMax= 5.87D-06  0.00D+00 EMaxC= 1.00D-01 BMatC= 4.25D-08 BMatP= 2.19D-07
 IDIUse=1 WtCom= 1.00D+00 WtEn= 0.00D+00
 Coeff-Com:  0.597D-05-0.111D-03-0.341D-03-0.567D-03 0.170D-02 0.137D-01
 Coeff-Com:  0.632D-01 0.350D+00 0.573D+00
 Coeff:      0.597D-05-0.111D-03-0.341D-03-0.567D-03 0.170D-02 0.137D-01
 Coeff:      0.632D-01 0.350D+00 0.573D+00
 Gap=     0.145 Goal=   None    Shift=    0.000
 RMSDP=3.80D-07 MaxDP=4.24D-05 DE=-1.79D-07 OVMax= 5.53D-05

 Cycle  10  Pass 1  IDiag  1:
 RMSU=  2.37D-07    CP:  9.56D-01  9.90D-01  7.74D-01  6.33D-01  5.98D-01
                    CP:  6.82D-01  6.22D-01  8.07D-01  6.79D-01
 E= -1328.97375811961     Delta-E=       -0.000000039128 Rises=F Damp=F
 DIIS: error= 2.03D-06 at cycle  10 NSaved=  10.
 NSaved=10 IEnMin=10 EnMin= -1328.97375811961     IErMin=10 ErrMin= 2.03D-06
 ErrMax= 2.03D-06  0.00D+00 EMaxC= 1.00D-01 BMatC= 4.07D-09 BMatP= 4.25D-08
 IDIUse=1 WtCom= 1.00D+00 WtEn= 0.00D+00
 Coeff-Com:  0.145D-04-0.559D-04-0.489D-03-0.107D-02-0.147D-02 0.369D-03
 Coeff-Com:  0.176D-01 0.150D+00 0.321D+00 0.514D+00
 Coeff:      0.145D-04-0.559D-04-0.489D-03-0.107D-02-0.147D-02 0.369D-03
 Coeff:      0.176D-01 0.150D+00 0.321D+00 0.514D+00
 Gap=     0.145 Goal=   None    Shift=    0.000
 RMSDP=1.25D-07 MaxDP=1.32D-05 DE=-3.91D-08 OVMax= 1.77D-05

 Cycle  11  Pass 1  IDiag  1:
 RMSU=  8.12D-08    CP:  9.56D-01  9.90D-01  7.74D-01  6.33D-01  5.98D-01
                    CP:  6.83D-01  6.24D-01  8.19D-01  7.35D-01  6.75D-01
 E= -1328.97375812304     Delta-E=       -0.000000003424 Rises=F Damp=F
 DIIS: error= 7.67D-07 at cycle  11 NSaved=  11.
 NSaved=11 IEnMin=11 EnMin= -1328.97375812304     IErMin=11 ErrMin= 7.67D-07
 ErrMax= 7.67D-07  0.00D+00 EMaxC= 1.00D-01 BMatC= 3.85D-10 BMatP= 4.07D-09
 IDIUse=1 WtCom= 1.00D+00 WtEn= 0.00D+00
 Coeff-Com:  0.576D-05-0.962D-05-0.197D-03-0.476D-03-0.100D-02-0.169D-02
 Coeff-Com:  0.229D-03 0.285D-01 0.847D-01 0.268D+00 0.622D+00
 Coeff:      0.576D-05-0.962D-05-0.197D-03-0.476D-03-0.100D-02-0.169D-02
 Coeff:      0.229D-03 0.285D-01 0.847D-01 0.268D+00 0.622D+00
 Gap=     0.145 Goal=   None    Shift=    0.000
 RMSDP=3.96D-08 MaxDP=4.20D-06 DE=-3.42D-09 OVMax= 6.82D-06

 Cycle  12  Pass 1  IDiag  1:
 RMSU=  2.46D-08    CP:  9.56D-01  9.90D-01  7.74D-01  6.33D-01  5.98D-01
                    CP:  6.83D-01  6.24D-01  8.23D-01  7.44D-01  7.45D-01
                    CP:  7.05D-01
 E= -1328.97375812342     Delta-E=       -0.000000000379 Rises=F Damp=F
 DIIS: error= 2.00D-07 at cycle  12 NSaved=  12.
 NSaved=12 IEnMin=12 EnMin= -1328.97375812342     IErMin=12 ErrMin= 2.00D-07
 ErrMax= 2.00D-07  0.00D+00 EMaxC= 1.00D-01 BMatC= 3.92D-11 BMatP= 3.85D-10
 IDIUse=1 WtCom= 1.00D+00 WtEn= 0.00D+00
 Coeff-Com:  0.171D-05-0.236D-06-0.604D-04-0.160D-03-0.387D-03-0.882D-03
 Coeff-Com: -0.132D-02 0.215D-02 0.165D-01 0.895D-01 0.318D+00 0.577D+00
 Coeff:      0.171D-05-0.236D-06-0.604D-04-0.160D-03-0.387D-03-0.882D-03
 Coeff:     -0.132D-02 0.215D-02 0.165D-01 0.895D-01 0.318D+00 0.577D+00
 Gap=     0.145 Goal=   None    Shift=    0.000
 RMSDP=1.37D-08 MaxDP=1.01D-06 DE=-3.79D-10 OVMax= 2.33D-06

 Cycle  13  Pass 1  IDiag  1:
 RMSU=  9.53D-09    CP:  9.56D-01  9.90D-01  7.74D-01  6.33D-01  5.98D-01
                    CP:  6.83D-01  6.24D-01  8.23D-01  7.46D-01  7.55D-01
                    CP:  7.78D-01  7.33D-01
 E= -1328.97375812342     Delta-E=       -0.000000000002 Rises=F Damp=F
 DIIS: error= 6.82D-08 at cycle  13 NSaved=  13.
 NSaved=13 IEnMin=13 EnMin= -1328.97375812342     IErMin=13 ErrMin= 6.82D-08
 ErrMax= 6.82D-08  0.00D+00 EMaxC= 1.00D-01 BMatC= 4.74D-12 BMatP= 3.92D-11
 IDIUse=1 WtCom= 1.00D+00 WtEn= 0.00D+00
 Coeff-Com: -0.237D-06 0.159D-05 0.729D-05 0.827D-05-0.519D-05-0.134D-03
 Coeff-Com: -0.749D-03-0.458D-02-0.797D-02-0.693D-02 0.486D-01 0.285D+00
 Coeff-Com:  0.686D+00
 Coeff:     -0.237D-06 0.159D-05 0.729D-05 0.827D-05-0.519D-05-0.134D-03
 Coeff:     -0.749D-03-0.458D-02-0.797D-02-0.693D-02 0.486D-01 0.285D+00
 Coeff:      0.686D+00
 Gap=     0.145 Goal=   None    Shift=    0.000
 RMSDP=4.99D-09 MaxDP=3.36D-07 DE=-1.82D-12 OVMax= 1.26D-06

 Error on total polarization charges =  0.04677
 SCF Done:  E(RB3LYP) =  -1328.97375812     A.U. after   13 cycles
            NFock= 13  Conv=0.50D-08     -V/T= 2.0090
 KE= 1.317146557414D+03 PE=-9.430957786955D+03 EE= 3.610278002452D+03
 Leave Link  502 at Thu Dec 20 17:52:50 2018, MaxMem=  1342177280 cpu:            1758.3 elap:             114.0
 (Enter /gpfs/apps/hpc/Apps/Restricted/Gaussian/Rev_A.03/g16/l601.exe)
 Copying SCF densities to generalized density rwf, IOpCl= 0 IROHF=0.

 **********************************************************************

            Population analysis using the SCF density.

 **********************************************************************

 Alpha  occ. eigenvalues --  -19.15690 -14.38575 -14.33254 -14.32836 -10.26932
 Alpha  occ. eigenvalues --  -10.24613 -10.23246 -10.22927 -10.21873 -10.20697
 Alpha  occ. eigenvalues --  -10.20380 -10.20131 -10.19660 -10.19590 -10.19084
 Alpha  occ. eigenvalues --  -10.18831 -10.18801 -10.18593 -10.18215 -10.18162
 Alpha  occ. eigenvalues --  -10.17907 -10.17554 -10.17509 -10.17415 -10.17414
 Alpha  occ. eigenvalues --  -10.17249 -10.15740 -10.15702 -10.15660 -10.15637
 Alpha  occ. eigenvalues --  -10.15157 -10.15034  -1.04738  -1.02200  -0.92446
 Alpha  occ. eigenvalues --   -0.88383  -0.86353  -0.85240  -0.82294  -0.81918
 Alpha  occ. eigenvalues --   -0.80695  -0.76546  -0.76221  -0.73646  -0.72728
 Alpha  occ. eigenvalues --   -0.72360  -0.72088  -0.68810  -0.68340  -0.68072
 Alpha  occ. eigenvalues --   -0.67548  -0.65430  -0.63847  -0.62079  -0.61397
 Alpha  occ. eigenvalues --   -0.60505  -0.60502  -0.59660  -0.57847  -0.55834
 Alpha  occ. eigenvalues --   -0.54795  -0.53344  -0.51952  -0.50946  -0.50472
 Alpha  occ. eigenvalues --   -0.48911  -0.47548  -0.47142  -0.46510  -0.45787
 Alpha  occ. eigenvalues --   -0.45607  -0.44810  -0.44515  -0.43694  -0.43445
 Alpha  occ. eigenvalues --   -0.43414  -0.43364  -0.42764  -0.42530  -0.42161
 Alpha  occ. eigenvalues --   -0.41390  -0.41317  -0.41214  -0.39876  -0.39542
 Alpha  occ. eigenvalues --   -0.39413  -0.37876  -0.37746  -0.37631  -0.37394
 Alpha  occ. eigenvalues --   -0.37292  -0.36801  -0.36757  -0.36045  -0.35820
 Alpha  occ. eigenvalues --   -0.35781  -0.35067  -0.34033  -0.33813  -0.33704
 Alpha  occ. eigenvalues --   -0.33261  -0.32820  -0.31603  -0.31533  -0.31484
 Alpha  occ. eigenvalues --   -0.31386  -0.30863  -0.30802  -0.30559  -0.30429
 Alpha  occ. eigenvalues --   -0.28396  -0.28331  -0.26500  -0.25082  -0.22807
 Alpha  occ. eigenvalues --   -0.22252  -0.20345
 Alpha virt. eigenvalues --   -0.05833  -0.02371   0.01232   0.01776   0.04625
 Alpha virt. eigenvalues --    0.07560   0.08238   0.09444   0.09973   0.10585
 Alpha virt. eigenvalues --    0.11096   0.11437   0.13048   0.13549   0.13768
 Alpha virt. eigenvalues --    0.14247   0.14361   0.15078   0.15475   0.15674
 Alpha virt. eigenvalues --    0.15827   0.16229   0.16712   0.16774   0.17522
 Alpha virt. eigenvalues --    0.17782   0.17923   0.17995   0.18076   0.18297
 Alpha virt. eigenvalues --    0.18416   0.18684   0.18852   0.18996   0.19423
 Alpha virt. eigenvalues --    0.19482   0.19541   0.19942   0.20413   0.20562
 Alpha virt. eigenvalues --    0.20720   0.20795   0.21107   0.22063   0.22555
 Alpha virt. eigenvalues --    0.22739   0.23698   0.24016   0.24121   0.24750
 Alpha virt. eigenvalues --    0.24824   0.24941   0.25601   0.25849   0.26837
 Alpha virt. eigenvalues --    0.27344   0.28213   0.28376   0.28675   0.29048
 Alpha virt. eigenvalues --    0.29725   0.30034   0.30307   0.30867   0.32103
 Alpha virt. eigenvalues --    0.32820   0.33389   0.35607   0.36609   0.37663
 Alpha virt. eigenvalues --    0.39394   0.40111   0.41002   0.41840   0.43722
 Alpha virt. eigenvalues --    0.46740   0.47845   0.47962   0.49353   0.49859
 Alpha virt. eigenvalues --    0.50280   0.50900   0.51293   0.51617   0.52174
 Alpha virt. eigenvalues --    0.52214   0.52709   0.53381   0.53894   0.54042
 Alpha virt. eigenvalues --    0.54380   0.54893   0.55052   0.55413   0.55603
 Alpha virt. eigenvalues --    0.56429   0.56585   0.56686   0.57081   0.57891
 Alpha virt. eigenvalues --    0.58460   0.59270   0.59715   0.59961   0.60239
 Alpha virt. eigenvalues --    0.61047   0.61325   0.61466   0.62507   0.62573
 Alpha virt. eigenvalues --    0.62891   0.63144   0.63314   0.63918   0.64088
 Alpha virt. eigenvalues --    0.64400   0.64692   0.65478   0.65559   0.66688
 Alpha virt. eigenvalues --    0.67654   0.68026   0.68275   0.69097   0.69775
 Alpha virt. eigenvalues --    0.70004   0.70772   0.70955   0.71854   0.72318
 Alpha virt. eigenvalues --    0.73711   0.74271   0.74451   0.75465   0.75491
 Alpha virt. eigenvalues --    0.76687   0.76900   0.77235   0.77657   0.78878
 Alpha virt. eigenvalues --    0.79249   0.79860   0.80545   0.81269   0.81574
 Alpha virt. eigenvalues --    0.81998   0.82140   0.82579   0.82699   0.83545
 Alpha virt. eigenvalues --    0.83932   0.84481   0.84817   0.85603   0.85866
 Alpha virt. eigenvalues --    0.86396   0.86821   0.87034   0.87231   0.87824
 Alpha virt. eigenvalues --    0.87999   0.88224   0.88682   0.89046   0.89590
 Alpha virt. eigenvalues --    0.89829   0.90296   0.90462   0.90763   0.91020
 Alpha virt. eigenvalues --    0.91147   0.91585   0.91711   0.91955   0.92099
 Alpha virt. eigenvalues --    0.92327   0.93103   0.93842   0.94680   0.95017
 Alpha virt. eigenvalues --    0.95323   0.95705   0.95792   0.95882   0.96111
 Alpha virt. eigenvalues --    0.96294   0.97152   0.98341   0.98836   0.99592
 Alpha virt. eigenvalues --    0.99972   1.00066   1.00761   1.02548   1.02870
 Alpha virt. eigenvalues --    1.03225   1.04206   1.05839   1.07042   1.08047
 Alpha virt. eigenvalues --    1.08965   1.10851   1.11410   1.12554   1.13132
 Alpha virt. eigenvalues --    1.14167   1.15678   1.16129   1.17280   1.18899
 Alpha virt. eigenvalues --    1.19592   1.21261   1.22038   1.22534   1.23045
 Alpha virt. eigenvalues --    1.24685   1.25275   1.26356   1.26688   1.27182
 Alpha virt. eigenvalues --    1.27459   1.27922   1.28649   1.29408   1.31175
 Alpha virt. eigenvalues --    1.31398   1.33097   1.35824   1.36195   1.37161
 Alpha virt. eigenvalues --    1.37474   1.38467   1.38783   1.39430   1.40306
 Alpha virt. eigenvalues --    1.40753   1.41713   1.42097   1.42877   1.43408
 Alpha virt. eigenvalues --    1.44831   1.45787   1.46162   1.48100   1.48467
 Alpha virt. eigenvalues --    1.50159   1.51891   1.52186   1.52560   1.53280
 Alpha virt. eigenvalues --    1.54627   1.55154   1.56180   1.56458   1.58236
 Alpha virt. eigenvalues --    1.58648   1.59306   1.60205   1.61422   1.61624
 Alpha virt. eigenvalues --    1.62077   1.62276   1.64627   1.68611   1.69547
 Alpha virt. eigenvalues --    1.72165   1.72483   1.72866   1.73387   1.74286
 Alpha virt. eigenvalues --    1.74909   1.77380   1.77885   1.78062   1.78902
 Alpha virt. eigenvalues --    1.79469   1.80900   1.81298   1.81396   1.82255
 Alpha virt. eigenvalues --    1.82512   1.83118   1.83712   1.83886   1.85198
 Alpha virt. eigenvalues --    1.85295   1.85754   1.86113   1.86544   1.87220
[...]
   D87        1.02910  -0.00000   0.00000   0.00001   0.00001   1.02911
   D88        3.12178  -0.00000   0.00000   0.00001   0.00001   3.12179
   D89       -3.12487   0.00000   0.00000   0.00001   0.00001  -3.12486
   D90       -1.03118   0.00000   0.00000   0.00001   0.00001  -1.03117
   D91        1.06150   0.00000   0.00000   0.00001   0.00001   1.06150
   D92        1.07875  -0.00000   0.00000   0.00000   0.00000   1.07875
   D93       -3.11405  -0.00000   0.00000   0.00000   0.00000  -3.11405
   D94       -1.02427  -0.00000   0.00000   0.00001   0.00001  -1.02426
   D95       -3.12827   0.00000   0.00000   0.00001   0.00001  -3.12826
   D96       -1.03788   0.00000   0.00000   0.00001   0.00001  -1.03788
   D97        1.05190   0.00000   0.00000   0.00001   0.00001   1.05191
   D98       -1.06710  -0.00000   0.00000   0.00001   0.00001  -1.06709
   D99        1.02329  -0.00000   0.00000   0.00001   0.00001   1.02329
   D100       3.11307  -0.00000   0.00000   0.00001   0.00001   3.11308
   D101      -1.06096   0.00000   0.00000   0.00000   0.00000  -1.06096
   D102       1.05779   0.00000   0.00000   0.00000   0.00000   1.05779
   D103       3.13917   0.00000   0.00000   0.00000   0.00000   3.13917
   D104       3.12226  -0.00000   0.00000   0.00000   0.00000   3.12226
   D105      -1.04217   0.00000   0.00000   0.00000   0.00000  -1.04217
   D106       1.03920  -0.00000   0.00000   0.00000   0.00000   1.03920
   D107       1.05687   0.00000   0.00000  -0.00000  -0.00000   1.05687
   D108      -3.10756   0.00000   0.00000  -0.00000  -0.00000  -3.10756
   D109      -1.02619   0.00000   0.00000  -0.00000  -0.00000  -1.02619
   D110      -3.13070   0.00000   0.00000   0.00000   0.00000  -3.13070
   D111      -1.03010   0.00000   0.00000   0.00000   0.00000  -1.03009
   D112       1.07496   0.00000   0.00000   0.00000   0.00000   1.07496
   D113      -1.01634  -0.00000   0.00000   0.00000   0.00000  -1.01634
   D114       1.08426  -0.00000   0.00000   0.00000   0.00000   1.08426
   D115      -3.09387  -0.00000   0.00000   0.00000   0.00000  -3.09387
   D116       1.02501  -0.00000   0.00000   0.00000   0.00000   1.02502
   D117       3.12562  -0.00000   0.00000   0.00000   0.00000   3.12562
   D118      -1.05251  -0.00000   0.00000   0.00000   0.00000  -1.05251
   D119       1.07563  -0.00000   0.00000   0.00000   0.00000   1.07563
   D120      -3.10618  -0.00000   0.00000   0.00000   0.00000  -3.10618
   D121      -1.02585  -0.00000   0.00000   0.00000   0.00000  -1.02584
   D122      -1.03855   0.00000   0.00000   0.00000   0.00000  -1.03854
   D123       1.06282   0.00000   0.00000   0.00000   0.00000   1.06282
   D124      -3.14003   0.00000   0.00000   0.00001   0.00001  -3.14002
   D125      -3.07946   0.00000   0.00000   0.00000   0.00000  -3.07946
   D126      -0.97810   0.00000   0.00000   0.00000   0.00000  -0.97809
   D127       1.10224   0.00000   0.00000   0.00000   0.00000   1.10225
   D128      -1.05824  -0.00000   0.00000  -0.00001  -0.00001  -1.05824
   D129       1.06327  -0.00000   0.00000  -0.00000  -0.00000   1.06326
   D130      -3.13886  -0.00000   0.00000  -0.00000  -0.00000  -3.13886
   D131       1.04865  -0.00000   0.00000  -0.00000  -0.00000   1.04864
   D132      -3.11303   0.00000   0.00000  -0.00000  -0.00000  -3.11303
   D133      -1.03197  -0.00000   0.00000  -0.00000  -0.00000  -1.03197
   D134       3.11723  -0.00000   0.00000  -0.00000  -0.00000   3.11723
   D135      -1.04445   0.00000   0.00000  -0.00000  -0.00000  -1.04445
   D136       1.03661   0.00000   0.00000  -0.00000  -0.00000   1.03661
   D137       3.10747   0.00000   0.00000   0.00000   0.00000   3.10748
   D138      -0.03013  -0.00000   0.00000   0.00000   0.00000  -0.03013
   D139      -1.47066  -0.00000   0.00000   0.00001   0.00001  -1.47065
   D140       0.72325  -0.00000   0.00000   0.00001   0.00001   0.72326
   D141       2.79509   0.00000   0.00000   0.00001   0.00001   2.79510
   D142      -3.06277   0.00000   0.00000   0.00000   0.00000  -3.06277
   D143       1.11200   0.00000   0.00000   0.00000   0.00000   1.11201
   D144      -0.92002   0.00000   0.00000   0.00000   0.00000  -0.92001
   D145       0.97666  -0.00000   0.00000   0.00000   0.00000   0.97666
   D146      -1.13174  -0.00000   0.00000   0.00000   0.00000  -1.13174
   D147       3.11942  -0.00000   0.00000   0.00000   0.00000   3.11943
   D148      -1.06212  -0.00000   0.00000   0.00000   0.00000  -1.06212
   D149       3.11265   0.00000   0.00000   0.00000   0.00000   3.11266
   D150       1.08063  -0.00000   0.00000   0.00000   0.00000   1.08064
   D151       3.10274   0.00000   0.00000  -0.00000  -0.00000   3.10274
   D152      -1.08709   0.00000   0.00000  -0.00000  -0.00000  -1.08709
   D153       0.96237   0.00000   0.00000  -0.00000  -0.00000   0.96236
   D154      -0.99165  -0.00000   0.00000  -0.00000  -0.00000  -0.99166
   D155       1.10170  -0.00000   0.00000  -0.00000  -0.00000   1.10169
   D156      -3.13203  -0.00000   0.00000  -0.00000  -0.00000  -3.13204
   D157       1.04632  -0.00000   0.00000  -0.00000  -0.00000   1.04631
   D158       3.13967  -0.00000   0.00000  -0.00000  -0.00000   3.13966
   D159      -1.09406  -0.00000   0.00000  -0.00001  -0.00001  -1.09407
   D160      -0.96424   0.00000   0.00000  -0.00000  -0.00000  -0.96424
   D161      -3.10925  -0.00000   0.00000  -0.00000  -0.00000  -3.10925
   D162       1.13912  -0.00000   0.00000  -0.00000  -0.00000   1.13912
   D163       1.12630  -0.00000   0.00000  -0.00000  -0.00000   1.12629
   D164      -1.01871  -0.00000   0.00000  -0.00001  -0.00001  -1.01872
   D165      -3.05353  -0.00000   0.00000  -0.00001  -0.00001  -3.05353
   D166      -3.09621   0.00000   0.00000  -0.00000  -0.00000  -3.09621
   D167       1.04197  -0.00000   0.00000  -0.00000  -0.00000   1.04196
   D168      -0.99285  -0.00000   0.00000  -0.00001  -0.00001  -0.99286
   D169       0.99566   0.00000   0.00000   0.00000   0.00000   0.99566
   D170       3.13414   0.00000   0.00000   0.00000   0.00000   3.13414
   D171      -1.11070   0.00000   0.00000   0.00001   0.00001  -1.11070
   D172      -1.11105  -0.00000   0.00000   0.00000   0.00000  -1.11104
   D173       1.02743  -0.00000   0.00000   0.00001   0.00001   1.02744
   D174       3.06578   0.00000   0.00000   0.00001   0.00001   3.06578
   D175       3.12133   0.00000   0.00000   0.00000   0.00000   3.12133
   D176      -1.02338   0.00000   0.00000   0.00001   0.00001  -1.02337
   D177       1.01497   0.00000   0.00000   0.00001   0.00001   1.01498
   D178       0.95874   0.00000   0.00000   0.00000   0.00000   0.95874
   D179       3.09919   0.00000   0.00000   0.00000   0.00000   3.09919
   D180      -1.14066   0.00000   0.00000   0.00000   0.00000  -1.14066
   D181       3.09642   0.00000   0.00000   0.00000   0.00000   3.09642
   D182      -1.04632  -0.00000   0.00000   0.00000   0.00000  -1.04632
   D183       0.99702   0.00000   0.00000   0.00001   0.00001   0.99702
   D184      -1.14417   0.00000   0.00000   0.00000   0.00000  -1.14416
   D185       0.99628  -0.00000   0.00000   0.00000   0.00000   0.99629
   D186       3.03962   0.00000   0.00000   0.00001   0.00001   3.03962
   D187      -0.97442  -0.00000   0.00000  -0.00000  -0.00000  -0.97442
   D188      -3.11436  -0.00000   0.00000  -0.00000  -0.00000  -3.11436
   D189       1.12639  -0.00000   0.00000  -0.00000  -0.00000   1.12638
   D190      -3.10506   0.00000   0.00000  -0.00000  -0.00000  -3.10506
   D191       1.03818   0.00000   0.00000  -0.00000  -0.00000   1.03818
   D192      -1.00426   0.00000   0.00000  -0.00000  -0.00000  -1.00426
   D193       1.13378  -0.00000   0.00000  -0.00000  -0.00000   1.13377
   D194      -1.00616  -0.00000   0.00000  -0.00000  -0.00000  -1.00617
   D195      -3.04861  -0.00000   0.00000  -0.00000  -0.00000  -3.04861
         Item               Value     Threshold  Converged?
 Maximum Force            0.000001     0.000015     YES
 RMS     Force            0.000000     0.000010     YES
 Maximum Displacement     0.000086     0.000060     NO 
 RMS     Displacement     0.000014     0.000040     YES
 Predicted change in Energy=-1.548631D-11
 Lowest energy point so far.  Saving SCF results.
 GradGradGradGradGradGradGradGradGradGradGradGradGradGradGradGradGradGrad

 Leave Link  103 at Thu Dec 20 19:15:30 2018, MaxMem=  1342177280 cpu:               8.0 elap:               0.6
 (Enter /gpfs/apps/hpc/Apps/Restricted/Gaussian/Rev_A.03/g16/l202.exe)
 Symmetry turned off by external request.
 Stoichiometry    C28H37N3O
 Framework group  C1[X(C28H37N3O)]
 Deg. of freedom   201
 Full point group                 C1      NOp   1
                          Input orientation:                          
 ---------------------------------------------------------------------
 Center     Atomic      Atomic             Coordinates (Angstroms)
 Number     Number       Type             X           Y           Z
 ---------------------------------------------------------------------
      1          6           0       -0.483053    2.715585    0.416145
      2          6           0       -1.881052    2.898360    0.327600
      3          6           0       -2.412893    4.190123    0.243418
      4          6           0       -1.520454    5.261989    0.256274
      5          6           0       -0.133594    5.064531    0.350312
      6          6           0        0.427051    3.782688    0.429804
      7          6           0       -1.518544    0.752016    0.424651
      8          1           0       -3.482078    4.346341    0.169017
      9          1           0       -1.905264    6.273154    0.194127
     10          1           0        0.529541    5.922760    0.360614
     11          7           0       -2.496428    1.656284    0.336302
     12          6           0       -3.063670   -1.189037    0.352315
     13          6           0       -1.739221   -0.685003    0.447266
     14          6           0       -0.658724   -1.573623    0.540497
     15          6           0       -0.848757   -2.950288    0.541355
     16          6           0       -2.167874   -3.417640    0.446447
     17          6           0       -3.286126   -2.585002    0.353326
     18          1           0        0.347043   -1.175372    0.612680
     19          1           0       -2.332311   -4.483824    0.445490
     20          6           0        0.361420   -3.887796    0.614442
     21          6           0       -4.705200   -3.167415    0.253386
     22          8           0       -4.117256   -0.346877    0.257498
     23          1           0       -3.767810    0.591510    0.268643
     24          7           0       -0.287014    1.356600    0.476441
     25          1           0        0.638259    0.947632    0.528156
     26          6           0        1.869640    3.577069    0.516071
     27          1           0        2.471752    4.490980    0.533985
     28          7           0        2.383341    2.403645    0.562667
     29          6           0        3.846217    2.273146    0.605016
     30          6           0        4.417795    2.330346   -0.823281
     31          6           0        4.574369    3.275289    1.514633
     32          1           0        4.045817    1.268605    0.997125
     33          6           0        5.930588    2.085735   -0.826621
     34          1           0        4.198842    3.321292   -1.239880
     35          1           0        3.906196    1.596843   -1.453374
     36          6           0        6.083737    3.007998    1.520530
     37          1           0        4.402404    4.296058    1.156043
     38          1           0        4.163006    3.214756    2.526856
     39          6           0        6.660177    3.063292    0.101127
     40          1           0        6.316770    2.164125   -1.847368
     41          1           0        6.127824    1.059565   -0.492795
     42          1           0        6.585310    3.735119    2.166713
     43          1           0        6.276760    2.017183    1.950502
     44          1           0        7.732057    2.843664    0.116825
     45          1           0        6.551013    4.082401   -0.290657
     46          6           0        1.245779   -3.654516   -0.627283
     47          1           0        1.575564   -2.614300   -0.683503
     48          1           0        2.133819   -4.292370   -0.588641
     49          1           0        0.697388   -3.887074   -1.544178
     50          6           0        1.182784   -3.575549    1.880733
     51          1           0        0.588651   -3.743890    2.782861
     52          1           0        2.064320   -4.221634    1.926388
     53          1           0        1.524896   -2.537627    1.887379
     54          6           0       -0.049459   -5.366086    0.652095
     55          1           0       -0.664682   -5.591666    1.527390
     56          1           0       -0.608158   -5.652067   -0.243337
     57          1           0        0.845241   -5.991637    0.701279
     58          6           0       -5.359002   -2.732161   -1.075250
     59          1           0       -6.372936   -3.138228   -1.139956
     60          1           0       -5.413697   -1.647266   -1.155354
     61          1           0       -4.786356   -3.113818   -1.925275
     62          6           0       -5.557474   -2.682551    1.445688
     63          1           0       -5.658132   -1.598208    1.446627
     64          1           0       -6.556545   -3.125769    1.394153
     65          1           0       -5.097955   -2.986881    2.390278
     66          6           0       -4.694230   -4.704660    0.283816
     67          1           0       -4.126053   -5.123401   -0.551058
     68          1           0       -4.268832   -5.089760    1.214380
     69          1           0       -5.721458   -5.069140    0.207541
 ---------------------------------------------------------------------
 Rotational constants (GHZ):           0.1846885           0.0719214           0.0540705
 Leave Link  202 at Thu Dec 20 19:15:31 2018, MaxMem=  1342177280 cpu:               1.3 elap:               0.1
 (Enter /gpfs/apps/hpc/Apps/Restricted/Gaussian/Rev_A.03/g16/l301.exe)
 Standard basis: 6-31G(d,p) (6D, 7F)
 Ernie: Thresh=  0.10000D-02 Tol=  0.10000D-05 Strict=F.
   665 basis functions,  1155 primitive gaussians,   665 cartesian basis functions
   117 alpha electrons      117 beta electrons
       nuclear repulsion energy      3168.0963659179 Hartrees.
 IExCor=  402 DFT=T Ex+Corr=B3LYP ExCW=0 ScaHFX=  0.200000
 ScaDFX=  0.800000  0.720000  1.000000  0.810000 ScalE2=  1.000000  1.000000
 IRadAn=      5 IRanWt=     -1 IRanGd=            0 ICorTp=0 IEmpDi=141
 NAtoms=   69 NActive=   69 NUniq=   69 SFac= 1.00D+00 NAtFMM=   60 NAOKFM=T Big=T
 Integral buffers will be    131072 words long.
 Raffenetti 2 integral format.
 Two-electron integral symmetry is turned off.
 R6Disp:  Grimme-D3(BJ) Dispersion energy=       -0.1501396452 Hartrees.
 Nuclear repulsion after empirical dispersion term =     3167.9462262727 Hartrees.
 ------------------------------------------------------------------------------
 Polarizable Continuum Model (PCM)
 =================================
 Model                : C-PCM.
 Atomic radii         : Bondi.
 Polarization charges : Total charges.
 Charge compensation  : None.
 Solution method      : On-the-fly selection.
 Cavity type          : Scaled VdW (van der Waals Surface) (Alpha=1.100).
 Cavity algorithm     : GePol (No added spheres)
                        Default sphere list used, NSphG=   69.
                        Lebedev-Laikov grids with approx.  5.0 points / Ang**2.
                        Smoothing algorithm: York/Karplus (Gamma=1.0000).
                        Polarization charges: spherical gaussians, with
                                              point-specific exponents (IZeta= 3).
                        Self-potential: point-specific (ISelfS= 7).
                        Self-field    : sphere-specific E.n sum rule (ISelfD= 2).
 1st derivatives      : Analytical E(r).r(x)/FMM algorithm (CHGder, D1EAlg=3).
                        Cavity 1st derivative terms included.
 Solvent              : Dichloromethane, Eps=   8.930000 Eps(inf)=   2.028346
 ------------------------------------------------------------------------------
 GePol: Number of generator spheres                  =      69
 GePol: Total number of spheres                      =      69
 GePol: Number of exposed spheres                    =      69 (100.00%)
 GePol: Number of points                             =    4354
 GePol: Average weight of points                     =       0.12
 GePol: Minimum weight of points                     =   0.13D-10
 GePol: Maximum weight of points                     =    0.21770
 GePol: Number of points with low weight             =     338
 GePol: Fraction of low-weight points (<1% of avg)   =       7.76%
 GePol: Cavity surface area                          =    517.216 Ang**2
 GePol: Cavity volume                                =    498.953 Ang**3
 PCM non-electrostatic energy =         0.0253494351 Hartrees.
 Nuclear repulsion after PCM non-electrostatic terms =     3167.9715757078 Hartrees.
 Leave Link  301 at Thu Dec 20 19:15:31 2018, MaxMem=  1342177280 cpu:               3.2 elap:               0.2
 (Enter /gpfs/apps/hpc/Apps/Restricted/Gaussian/Rev_A.03/g16/l302.exe)
 NPDir=0 NMtPBC=     1 NCelOv=     1 NCel=       1 NClECP=     1 NCelD=      1
         NCelK=      1 NCelE2=     1 NClLst=     1 CellRange=     0.0.
 One-electron integrals computed using PRISM.
 NBasis=   665 RedAO= T EigKep=  2.85D-04  NBF=   665
 NBsUse=   665 1.00D-06 EigRej= -1.00D+00 NBFU=   665
 Precomputing XC quadrature grid using
 IXCGrd= 4 IRadAn=           5 IRanWt=          -1 IRanGd=           0 AccXCQ= 0.00D+00.
 Generated NRdTot=       0 NPtTot=           0 NUsed=           0 NTot=          32
 NSgBfM=   647   647   647   647   647 MxSgAt=    69 MxSgA2=    69.
 Leave Link  302 at Thu Dec 20 19:15:32 2018, MaxMem=  1342177280 cpu:              17.3 elap:               1.1
 (Enter /gpfs/apps/hpc/Apps/Restricted/Gaussian/Rev_A.03/g16/l303.exe)
 DipDrv:  MaxL=1.
 Leave Link  303 at Thu Dec 20 19:15:32 2018, MaxMem=  1342177280 cpu:               1.3 elap:               0.1
 (Enter /gpfs/apps/hpc/Apps/Restricted/Gaussian/Rev_A.03/g16/l401.exe)
 Initial guess from the checkpoint file:  "cyclohexyl-monoBIP-neutral.chk"
 B after Tr=    -0.000000   -0.000000   -0.000000
         Rot=    1.000000    0.000000   -0.000000   -0.000000 Ang=  -0.00 deg.
 Guess basis will be translated and rotated to current coordinates.
 JPrj=2 DoOrth=T DoCkMO=T.
 Leave Link  401 at Thu Dec 20 19:15:33 2018, MaxMem=  1342177280 cpu:              12.1 elap:               0.8
 (Enter /gpfs/apps/hpc/Apps/Restricted/Gaussian/Rev_A.03/g16/l502.exe)
 Two-electron integral symmetry not used.
 Closed shell SCF:
 Using DIIS extrapolation, IDIIS=  1040.
 NGot=  1342177280 LenX=  1341276554 LenY=  1340833664
 Requested convergence on RMS density matrix=1.00D-08 within 128 cycles.
 Requested convergence on MAX density matrix=1.00D-06.
 Requested convergence on             energy=1.00D-06.
 No special actions if energy rises.
 Fock matrices will be formed incrementally for  20 cycles.

 Cycle   1  Pass 1  IDiag  1:
 FoFJK:  IHMeth= 1 ICntrl=       0 DoSepK=F KAlg= 0 I1Cent=           0 FoldK=F
 IRaf= 760000000 NMat=       1 IRICut=       1 DoRegI=T DoRafI=F ISym2E= 0 IDoP0=0 IntGTp=1.
 FoFCou: FMM=T IPFlag=           0 FMFlag=      100000 FMFlg1=        2001
         NFxFlg=           0 DoJE=F BraDBF=F KetDBF=F FulRan=T
         wScrn=  0.000000 ICntrl=         0 IOpCl=  0 I1Cent=           0 NGrid=           0
         NMat0=    1 NMatS0=      1 NMatT0=    0 NMatD0=    1 NMtDS0=    0 NMtDT0=    0
 Symmetry not used in FoFCou.
 FMM levels:  10  Number of levels for PrismC:   9
 Inv3:  Mode=1 IEnd=    56871948.
