 Entering Gaussian System, Link 0=g16
 Initial command:
 /gpfs/apps/hpc/Apps/Restricted/Gaussian/Rev_A.03/g16/l1.exe "/gpfs/scratch60/fas/hammes_schiffer/jg2487/c43n01/Gau-258028.inp" -scrdir="/gpfs/scratch60/fas/hammes_schiffer/jg2487/c43n01/"
 Entering Link 1 = /gpfs/apps/hpc/Apps/Restricted/Gaussian/Rev_A.03/g16/l1.exe PID=    258029.
  
 Copyright (c) 1988,1990,1992,1993,1995,1998,2003,2009,2016,
            Gaussian, Inc.  All Rights Reserved.
  
 This is part of the Gaussian(R) 16 program.  It is based on
 the Gaussian(R) 09 system (copyright 2009, Gaussian, Inc.),
 the Gaussian(R) 03 system (copyright 2003, Gaussian, Inc.),
 the Gaussian(R) 98 system (copyright 1998, Gaussian, Inc.),
 the Gaussian(R) 94 system (copyright 1995, Gaussian, Inc.),
 the Gaussian 92(TM) system (copyright 1992, Gaussian, Inc.),
 the Gaussian 90(TM) system (copyright 1990, Gaussian, Inc.),
 the Gaussian 88(TM) system (copyright 1988, Gaussian, Inc.),
 the Gaussian 86(TM) system (copyright 1986, Carnegie Mellon
 University), and the Gaussian 82(TM) system (copyright 1983,
 Carnegie Mellon University). Gaussian is a federally registered
 trademark of Gaussian, Inc.
  
 This software contains proprietary and confidential information,
 including trade secrets, belonging to Gaussian, Inc.
  
 This software is provided under written license and may be
 used, copied, transmitted, or stored only in accord with that
 written license.
  
 The following legend is applicable only to US Government
 contracts under FAR:
  
                    RESTRICTED RIGHTS LEGEND
  
 Use, reproduction and disclosure by the US Government is
 subject to restrictions as set forth in subparagraphs (a)
 and (c) of the Commercial Computer Software - Restricted
 Rights clause in FAR 52.227-19.
  
 Gaussian, Inc.
 340 Quinnipiac St., Bldg. 40, Wallingford CT 06492
  
  
 ---------------------------------------------------------------
 Warning -- This program may not be used in any manner that
 competes with the business of Gaussian, Inc. or will provide
 assistance to any competitor of Gaussian, Inc.  The licensee
 of this program is prohibited from giving any competitor of
 Gaussian, Inc. access to this program.  By using this program,
 the user acknowledges that Gaussian, Inc. is engaged in the
 business of creating and licensing software in the field of
 computational chemistry and represents and warrants to the
 licensee that it is not a competitor of Gaussian, Inc. and that
 it will not use this program in any manner prohibited above.
 ---------------------------------------------------------------
  

 Cite this work as:
 Gaussian 16, Revision A.03,
 M. J. Frisch, G. W. Trucks, H. B. Schlegel, G. E. Scuseria, 
 M. A. Robb, J. R. Cheeseman, G. Scalmani, V. Barone, 
 G. A. Petersson, H. Nakatsuji, X. Li, M. Caricato, A. V. Marenich, 
 J. Bloino, B. G. Janesko, R. Gomperts, B. Mennucci, H. P. Hratchian, 
 J. V. Ortiz, A. F. Izmaylov, J. L. Sonnenberg, D. Williams-Young, 
 F. Ding, F. Lipparini, F. Egidi, J. Goings, B. Peng, A. Petrone, 
 T. Henderson, D. Ranasinghe, V. G. Zakrzewski, J. Gao, N. Rega, 
 G. Zheng, W. Liang, M. Hada, M. Ehara, K. Toyota, R. Fukuda, 
 J. Hasegawa, M. Ishida, T. Nakajima, Y. Honda, O. Kitao, H. Nakai, 
 T. Vreven, K. Throssell, J. A. Montgomery, Jr., J. E. Peralta, 
 F. Ogliaro, M. J. Bearpark, J. J. Heyd, E. N. Brothers, K. N. Kudin, 
 V. N. Staroverov, T. A. Keith, R. Kobayashi, J. Normand, 
 K. Raghavachari, A. P. Rendell, J. C. Burant, S. S. Iyengar, 
 J. Tomasi, M. Cossi, J. M. Millam, M. Klene, C. Adamo, R. Cammi, 
 J. W. Ochterski, R. L. Martin, K. Morokuma, O. Farkas, 
 J. B. Foresman, and D. J. Fox, Gaussian, Inc., Wallingford CT, 2016.
 
 ******************************************
 Gaussian 16:  ES64L-G16RevA.03 25-Dec-2016
                21-Dec-2018 
 ******************************************
 %chk=cyclohexyl-monoBIP-neutral.chk
 %mem=10GB
 %nprocshared=16
 Will use up to   16 processors via shared memory.
 ----------------------------------------------------------------------
 #p opt=tight freq=internalmodes b3lyp/6-31g(d,p) scrf=(cpcm,solvent=di
 chloromethane,read) nosymm empiricaldispersion=gd3bj int=grid=ultrafin
 e
 ----------------------------------------------------------------------
 1/7=10,18=20,19=15,26=6,38=1,40=2/1,3;
 2/9=110,12=2,15=1,17=6,18=5,40=1/2;
 3/5=1,6=6,7=101,11=2,25=1,30=1,70=2103,71=1,72=9,74=-5,75=-5,124=41/1,2,3;
 4//1;
 5/5=2,38=5,53=9/2;
 6/7=2,8=2,9=2,10=2,28=1/1;
 7/30=1/1,2,3,16;
 1/7=10,18=20,19=15,26=6/3(2);
 2/9=110,15=1/2;
 99//99;
 2/9=110,15=1/2;
 3/5=1,6=6,7=101,11=2,25=1,30=1,70=2105,71=1,72=9,74=-5,75=-5,124=41/1,2,3;
 4/5=5,16=3,69=1/1;
 5/5=2,38=5,53=9/2;
 7/30=1/1,2,3,16;
 1/7=10,18=20,19=15,26=6/3(-5);
 2/9=110,15=1/2;
 6/7=2,8=2,9=2,10=2,19=2,28=1/1;
 99/9=1/99;
 Leave Link    1 at Fri Dec 21 13:53:15 2018, MaxMem=  1342177280 cpu:               7.6 elap:               0.5
 (Enter /gpfs/apps/hpc/Apps/Restricted/Gaussian/Rev_A.03/g16/l101.exe)
 --------------------------------------------
 cyclohexylimine monoBIP neutral optimization
 --------------------------------------------
 Symbolic Z-matrix:
 Charge =  0 Multiplicity = 1
 C                    -0.48305   2.71558   0.41615 
 C                    -1.88105   2.89836   0.3276 
 C                    -2.41289   4.19012   0.24342 
 C                    -1.52046   5.26199   0.25628 
 C                    -0.1336    5.06453   0.35031 
 C                     0.42705   3.78269   0.4298 
 C                    -1.51854   0.75202   0.42465 
 H                    -3.48208   4.34634   0.16902 
 H                    -1.90527   6.27315   0.19413 
 H                     0.52954   5.92276   0.36062 
 N                    -2.49643   1.65628   0.3363 
 C                    -3.06367  -1.18904   0.35231 
 C                    -1.73922  -0.685     0.44727 
 C                    -0.65872  -1.57362   0.5405 
 C                    -0.84876  -2.95029   0.54136 
 C                    -2.16787  -3.41764   0.44645 
 C                    -3.28613  -2.585     0.35333 
 H                     0.34704  -1.17537   0.61268 
 H                    -2.33231  -4.48383   0.44549 
 C                     0.36142  -3.8878    0.61444 
 C                    -4.7052   -3.16741   0.25339 
 O                    -4.11726  -0.34688   0.2575 
 H                    -3.76781   0.59151   0.26864 
 N                    -0.28701   1.3566    0.47644 
 H                     0.63826   0.94763   0.52815 
 C                     1.86964   3.57707   0.51607 
 H                     2.47175   4.49098   0.53399 
 N                     2.38334   2.40365   0.56267 
 C                     3.84622   2.27315   0.60502 
 C                     4.4178    2.33035  -0.82328 
 C                     4.57437   3.27529   1.51463 
 H                     4.04582   1.26861   0.99713 
 C                     5.93059   2.08574  -0.82662 
 H                     4.19884   3.32129  -1.23988 
 H                     3.9062    1.59684  -1.45337 
 C                     6.08374   3.008     1.52053 
 H                     4.4024    4.29606   1.15604 
 H                     4.16301   3.21476   2.52686 
 C                     6.66018   3.06329   0.10113 
 H                     6.31677   2.16413  -1.84737 
 H                     6.12783   1.05957  -0.4928 
 H                     6.58531   3.73512   2.16671 
 H                     6.27676   2.01719   1.9505 
 H                     7.73206   2.84367   0.11683 
 H                     6.55101   4.0824   -0.29066 
 C                     1.24578  -3.65452  -0.62729 
 H                     1.57556  -2.61431  -0.68351 
 H                     2.13382  -4.29238  -0.58864 
 H                     0.69738  -3.88708  -1.54418 
 C                     1.18279  -3.57555   1.88073 
 H                     0.58865  -3.74389   2.78286 
 H                     2.06432  -4.22163   1.92639 
 H                     1.5249   -2.53763   1.88737 
 C                    -0.04946  -5.36609   0.6521 
 H                    -0.66468  -5.59166   1.5274 
 H                    -0.60816  -5.65207  -0.24333 
 H                     0.84524  -5.99164   0.70128 
 C                    -5.359    -2.73216  -1.07525 
 H                    -6.37293  -3.13823  -1.13996 
 H                    -5.4137   -1.64727  -1.15536 
 H                    -4.78635  -3.11382  -1.92528 
 C                    -5.55747  -2.68255   1.44569 
 H                    -5.65813  -1.59821   1.44663 
 H                    -6.55655  -3.12577   1.39415 
 H                    -5.09796  -2.98688   2.39028 
 C                    -4.69423  -4.70466   0.28382 
 H                    -4.12605  -5.1234   -0.55106 
 H                    -4.26884  -5.08976   1.21438 
 H                    -5.72146  -5.06914   0.20754 
 
 ITRead=  0  0  0  0  0  0  0  0  0  0  0  0  0  0  0  0  0  0  0  0
 ITRead=  0  0  0  0  0  0  0  0  0  0  0  0  0  0  0  0  0  0  0  0
 ITRead=  0  0  0  0  0  0  0  0  0  0  0  0  0  0  0  0  0  0  0  0
 ITRead=  0  0  0  0  0  0  0  0  0
 MicOpt= -1 -1 -1 -1 -1 -1 -1 -1 -1 -1 -1 -1 -1 -1 -1 -1 -1 -1 -1 -1
 MicOpt= -1 -1 -1 -1 -1 -1 -1 -1 -1 -1 -1 -1 -1 -1 -1 -1 -1 -1 -1 -1
 MicOpt= -1 -1 -1 -1 -1 -1 -1 -1 -1 -1 -1 -1 -1 -1 -1 -1 -1 -1 -1 -1
 MicOpt= -1 -1 -1 -1 -1 -1 -1 -1 -1
 NAtoms=     69 NQM=       69 NQMF=       0 NMMI=      0 NMMIF=      0
                NMic=       0 NMicF=      0.
                    Isotopes and Nuclear Properties:
 (Nuclear quadrupole moments (NQMom) in fm**2, nuclear magnetic moments (NMagM)
  in nuclear magnetons)

  Atom         1           2           3           4           5           6           7           8           9          10
 IAtWgt=          12          12          12          12          12          12          12           1           1           1
 AtmWgt=  12.0000000  12.0000000  12.0000000  12.0000000  12.0000000  12.0000000  12.0000000   1.0078250   1.0078250   1.0078250
 NucSpn=           0           0           0           0           0           0           0           1           1           1
 AtZEff=  -0.0000000  -0.0000000  -0.0000000  -0.0000000  -0.0000000  -0.0000000  -0.0000000  -0.0000000  -0.0000000  -0.0000000
 NQMom=    0.0000000   0.0000000   0.0000000   0.0000000   0.0000000   0.0000000   0.0000000   0.0000000   0.0000000   0.0000000
 NMagM=    0.0000000   0.0000000   0.0000000   0.0000000   0.0000000   0.0000000   0.0000000   2.7928460   2.7928460   2.7928460
 AtZNuc=   6.0000000   6.0000000   6.0000000   6.0000000   6.0000000   6.0000000   6.0000000   1.0000000   1.0000000   1.0000000

  Atom        11          12          13          14          15          16          17          18          19          20
 IAtWgt=          14          12          12          12          12          12          12           1           1          12
 AtmWgt=  14.0030740  12.0000000  12.0000000  12.0000000  12.0000000  12.0000000  12.0000000   1.0078250   1.0078250  12.0000000
 NucSpn=           2           0           0           0           0           0           0           1           1           0
 AtZEff=  -0.0000000  -0.0000000  -0.0000000  -0.0000000  -0.0000000  -0.0000000  -0.0000000  -0.0000000  -0.0000000  -0.0000000
 NQMom=    2.0440000   0.0000000   0.0000000   0.0000000   0.0000000   0.0000000   0.0000000   0.0000000   0.0000000   0.0000000
 NMagM=    0.4037610   0.0000000   0.0000000   0.0000000   0.0000000   0.0000000   0.0000000   2.7928460   2.7928460   0.0000000
 AtZNuc=   7.0000000   6.0000000   6.0000000   6.0000000   6.0000000   6.0000000   6.0000000   1.0000000   1.0000000   6.0000000

  Atom        21          22          23          24          25          26          27          28          29          30
 IAtWgt=          12          16           1          14           1          12           1          14          12          12
 AtmWgt=  12.0000000  15.9949146   1.0078250  14.0030740   1.0078250  12.0000000   1.0078250  14.0030740  12.0000000  12.0000000
 NucSpn=           0           0           1           2           1           0           1           2           0           0
 AtZEff=  -0.0000000  -0.0000000  -0.0000000  -0.0000000  -0.0000000  -0.0000000  -0.0000000  -0.0000000  -0.0000000  -0.0000000
 NQMom=    0.0000000   0.0000000   0.0000000   2.0440000   0.0000000   0.0000000   0.0000000   2.0440000   0.0000000   0.0000000
 NMagM=    0.0000000   0.0000000   2.7928460   0.4037610   2.7928460   0.0000000   2.7928460   0.4037610   0.0000000   0.0000000
 AtZNuc=   6.0000000   8.0000000   1.0000000   7.0000000   1.0000000   6.0000000   1.0000000   7.0000000   6.0000000   6.0000000

  Atom        31          32          33          34          35          36          37          38          39          40
 IAtWgt=          12           1          12           1           1          12           1           1          12           1
 AtmWgt=  12.0000000   1.0078250  12.0000000   1.0078250   1.0078250  12.0000000   1.0078250   1.0078250  12.0000000   1.0078250
 NucSpn=           0           1           0           1           1           0           1           1           0           1
 AtZEff=  -0.0000000  -0.0000000  -0.0000000  -0.0000000  -0.0000000  -0.0000000  -0.0000000  -0.0000000  -0.0000000  -0.0000000
 NQMom=    0.0000000   0.0000000   0.0000000   0.0000000   0.0000000   0.0000000   0.0000000   0.0000000   0.0000000   0.0000000
 NMagM=    0.0000000   2.7928460   0.0000000   2.7928460   2.7928460   0.0000000   2.7928460   2.7928460   0.0000000   2.7928460
 AtZNuc=   6.0000000   1.0000000   6.0000000   1.0000000   1.0000000   6.0000000   1.0000000   1.0000000   6.0000000   1.0000000

  Atom        41          42          43          44          45          46          47          48          49          50
 IAtWgt=           1           1           1           1           1          12           1           1           1          12
 AtmWgt=   1.0078250   1.0078250   1.0078250   1.0078250   1.0078250  12.0000000   1.0078250   1.0078250   1.0078250  12.0000000
 NucSpn=           1           1           1           1           1           0           1           1           1           0
 AtZEff=  -0.0000000  -0.0000000  -0.0000000  -0.0000000  -0.0000000  -0.0000000  -0.0000000  -0.0000000  -0.0000000  -0.0000000
 NQMom=    0.0000000   0.0000000   0.0000000   0.0000000   0.0000000   0.0000000   0.0000000   0.0000000   0.0000000   0.0000000
 NMagM=    2.7928460   2.7928460   2.7928460   2.7928460   2.7928460   0.0000000   2.7928460   2.7928460   2.7928460   0.0000000
 AtZNuc=   1.0000000   1.0000000   1.0000000   1.0000000   1.0000000   6.0000000   1.0000000   1.0000000   1.0000000   6.0000000

  Atom        51          52          53          54          55          56          57          58          59          60
 IAtWgt=           1           1           1          12           1           1           1          12           1           1
 AtmWgt=   1.0078250   1.0078250   1.0078250  12.0000000   1.0078250   1.0078250   1.0078250  12.0000000   1.0078250   1.0078250
 NucSpn=           1           1           1           0           1           1           1           0           1           1
 AtZEff=  -0.0000000  -0.0000000  -0.0000000  -0.0000000  -0.0000000  -0.0000000  -0.0000000  -0.0000000  -0.0000000  -0.0000000
 NQMom=    0.0000000   0.0000000   0.0000000   0.0000000   0.0000000   0.0000000   0.0000000   0.0000000   0.0000000   0.0000000
 NMagM=    2.7928460   2.7928460   2.7928460   0.0000000   2.7928460   2.7928460   2.7928460   0.0000000   2.7928460   2.7928460
 AtZNuc=   1.0000000   1.0000000   1.0000000   6.0000000   1.0000000   1.0000000   1.0000000   6.0000000   1.0000000   1.0000000

  Atom        61          62          63          64          65          66          67          68          69
 IAtWgt=           1          12           1           1           1          12           1           1           1
 AtmWgt=   1.0078250  12.0000000   1.0078250   1.0078250   1.0078250  12.0000000   1.0078250   1.0078250   1.0078250
 NucSpn=           1           0           1           1           1           0           1           1           1
 AtZEff=  -0.0000000  -0.0000000  -0.0000000  -0.0000000  -0.0000000  -0.0000000  -0.0000000  -0.0000000  -0.0000000
 NQMom=    0.0000000   0.0000000   0.0000000   0.0000000   0.0000000   0.0000000   0.0000000   0.0000000   0.0000000
 NMagM=    2.7928460   0.0000000   2.7928460   2.7928460   2.7928460   0.0000000   2.7928460   2.7928460   2.7928460
 AtZNuc=   1.0000000   6.0000000   1.0000000   1.0000000   1.0000000   6.0000000   1.0000000   1.0000000   1.0000000
 Leave Link  101 at Fri Dec 21 13:53:15 2018, MaxMem=  1342177280 cpu:               4.8 elap:               0.3
 (Enter /gpfs/apps/hpc/Apps/Restricted/Gaussian/Rev_A.03/g16/l103.exe)

 GradGradGradGradGradGradGradGradGradGradGradGradGradGradGradGradGradGrad
 Berny optimization.
 Initialization pass.
                           ----------------------------
                           !    Initial Parameters    !
                           ! (Angstroms and Degrees)  !
 --------------------------                            --------------------------
 ! Name  Definition              Value          Derivative Info.                !
 --------------------------------------------------------------------------------
 ! R1    R(1,2)                  1.4127         estimate D2E/DX2                !
 ! R2    R(1,6)                  1.4026         estimate D2E/DX2                !
 ! R3    R(1,24)                 1.3744         estimate D2E/DX2                !
 ! R4    R(2,3)                  1.3995         estimate D2E/DX2                !
 ! R5    R(2,11)                 1.3862         estimate D2E/DX2                !
 ! R6    R(3,4)                  1.3948         estimate D2E/DX2                !
 ! R7    R(3,8)                  1.0831         estimate D2E/DX2                !
 ! R8    R(4,5)                  1.404          estimate D2E/DX2                !
 ! R9    R(4,9)                  1.0837         estimate D2E/DX2                !
 ! R10   R(5,6)                  1.4013         estimate D2E/DX2                !
 ! R11   R(5,10)                 1.0846         estimate D2E/DX2                !
 ! R12   R(6,26)                 1.4597         estimate D2E/DX2                !
 ! R13   R(7,11)                 1.3348         estimate D2E/DX2                !
 ! R14   R(7,13)                 1.454          estimate D2E/DX2                !
 ! R15   R(7,24)                 1.3729         estimate D2E/DX2                !
 ! R16   R(12,13)                1.4203         estimate D2E/DX2                !
 ! R17   R(12,17)                1.4136         estimate D2E/DX2                !
 ! R18   R(12,22)                1.3521         estimate D2E/DX2                !
 ! R19   R(13,14)                1.4021         estimate D2E/DX2                !
 ! R20   R(14,15)                1.3897         estimate D2E/DX2                !
 ! R21   R(14,18)                1.0842         estimate D2E/DX2                !
 ! R22   R(15,16)                1.4027         estimate D2E/DX2                !
 ! R23   R(15,20)                1.5326         estimate D2E/DX2                !
 ! R24   R(16,17)                1.3973         estimate D2E/DX2                !
 ! R25   R(16,19)                1.0788         estimate D2E/DX2                !
 ! R26   R(17,21)                1.5372         estimate D2E/DX2                !
 ! R27   R(20,46)                1.5422         estimate D2E/DX2                !
 ! R28   R(20,50)                1.5413         estimate D2E/DX2                !
 ! R29   R(20,54)                1.5348         estimate D2E/DX2                !
 ! R30   R(21,58)                1.5434         estimate D2E/DX2                !
 ! R31   R(21,62)                1.5437         estimate D2E/DX2                !
 ! R32   R(21,66)                1.5376         estimate D2E/DX2                !
 ! R33   R(22,23)                1.0014         estimate D2E/DX2                !
 ! R34   R(24,25)                1.0129         estimate D2E/DX2                !
 ! R35   R(26,27)                1.0946         estimate D2E/DX2                !
 ! R36   R(26,28)                1.2818         estimate D2E/DX2                !
 ! R37   R(28,29)                1.4693         estimate D2E/DX2                !
 ! R38   R(29,30)                1.5395         estimate D2E/DX2                !
 ! R39   R(29,31)                1.5368         estimate D2E/DX2                !
 ! R40   R(29,32)                1.0967         estimate D2E/DX2                !
 ! R41   R(30,33)                1.5324         estimate D2E/DX2                !
 ! R42   R(30,34)                1.097          estimate D2E/DX2                !
 ! R43   R(30,35)                1.094          estimate D2E/DX2                !
 ! R44   R(31,36)                1.5329         estimate D2E/DX2                !
 ! R45   R(31,37)                1.0955         estimate D2E/DX2                !
 ! R46   R(31,38)                1.0943         estimate D2E/DX2                !
 ! R47   R(33,39)                1.5325         estimate D2E/DX2                !
 ! R48   R(33,40)                1.0942         estimate D2E/DX2                !
 ! R49   R(33,41)                1.097          estimate D2E/DX2                !
 ! R50   R(36,39)                1.533          estimate D2E/DX2                !
 ! R51   R(36,42)                1.0945         estimate D2E/DX2                !
 ! R52   R(36,43)                1.0972         estimate D2E/DX2                !
 ! R53   R(39,44)                1.0943         estimate D2E/DX2                !
 ! R54   R(39,45)                1.0973         estimate D2E/DX2                !
 ! R55   R(46,47)                1.0927         estimate D2E/DX2                !
 ! R56   R(46,48)                1.0941         estimate D2E/DX2                !
 ! R57   R(46,49)                1.0934         estimate D2E/DX2                !
 ! R58   R(50,51)                1.0932         estimate D2E/DX2                !
 ! R59   R(50,52)                1.0939         estimate D2E/DX2                !
 ! R60   R(50,53)                1.0929         estimate D2E/DX2                !
 ! R61   R(54,55)                1.0934         estimate D2E/DX2                !
 ! R62   R(54,56)                1.0935         estimate D2E/DX2                !
 ! R63   R(54,57)                1.0928         estimate D2E/DX2                !
 ! R64   R(58,59)                1.0941         estimate D2E/DX2                !
 ! R65   R(58,60)                1.0892         estimate D2E/DX2                !
 ! R66   R(58,61)                1.0937         estimate D2E/DX2                !
 ! R67   R(62,63)                1.089          estimate D2E/DX2                !
 ! R68   R(62,64)                1.0942         estimate D2E/DX2                !
 ! R69   R(62,65)                1.0936         estimate D2E/DX2                !
 ! R70   R(66,67)                1.0932         estimate D2E/DX2                !
 ! R71   R(66,68)                1.0933         estimate D2E/DX2                !
 ! R72   R(66,69)                1.0926         estimate D2E/DX2                !
 ! A1    A(2,1,6)              122.9781         estimate D2E/DX2                !
 ! A2    A(2,1,24)             105.7738         estimate D2E/DX2                !
 ! A3    A(6,1,24)             131.2481         estimate D2E/DX2                !
 ! A4    A(1,2,3)              119.9516         estimate D2E/DX2                !
 ! A5    A(1,2,11)             108.8443         estimate D2E/DX2                !
 ! A6    A(3,2,11)             131.2033         estimate D2E/DX2                !
 ! A7    A(2,3,4)              117.7494         estimate D2E/DX2                !
 ! A8    A(2,3,8)              120.8241         estimate D2E/DX2                !
 ! A9    A(4,3,8)              121.4265         estimate D2E/DX2                !
 ! A10   A(3,4,5)              121.6384         estimate D2E/DX2                !
 ! A11   A(3,4,9)              119.2951         estimate D2E/DX2                !
 ! A12   A(5,4,9)              119.0664         estimate D2E/DX2                !
 ! A13   A(4,5,6)              121.8461         estimate D2E/DX2                !
 ! A14   A(4,5,10)             119.5567         estimate D2E/DX2                !
 ! A15   A(6,5,10)             118.5972         estimate D2E/DX2                !
 ! A16   A(1,6,5)              115.8354         estimate D2E/DX2                !
 ! A17   A(1,6,26)             122.3219         estimate D2E/DX2                !
 ! A18   A(5,6,26)             121.8423         estimate D2E/DX2                !
 ! A19   A(11,7,13)            124.0113         estimate D2E/DX2                !
 ! A20   A(11,7,24)            111.1816         estimate D2E/DX2                !
 ! A21   A(13,7,24)            124.8037         estimate D2E/DX2                !
 ! A22   A(2,11,7)             106.3919         estimate D2E/DX2                !
 ! A23   A(13,12,17)           119.8125         estimate D2E/DX2                !
 ! A24   A(13,12,22)           120.6822         estimate D2E/DX2                !
 ! A25   A(17,12,22)           119.5052         estimate D2E/DX2                !
 ! A26   A(7,13,12)            119.4203         estimate D2E/DX2                !
 ! A27   A(7,13,14)            120.6936         estimate D2E/DX2                !
 ! A28   A(12,13,14)           119.8785         estimate D2E/DX2                !
 ! A29   A(13,14,15)           121.5            estimate D2E/DX2                !
 ! A30   A(13,14,18)           119.1133         estimate D2E/DX2                !
 ! A31   A(15,14,18)           119.3867         estimate D2E/DX2                !
 ! A32   A(14,15,16)           117.2975         estimate D2E/DX2                !
 ! A33   A(14,15,20)           119.8696         estimate D2E/DX2                !
 ! A34   A(16,15,20)           122.8203         estimate D2E/DX2                !
 ! A35   A(15,16,17)           123.9582         estimate D2E/DX2                !
 ! A36   A(15,16,19)           118.2098         estimate D2E/DX2                !
 ! A37   A(17,16,19)           117.8321         estimate D2E/DX2                !
 ! A38   A(12,17,16)           117.5531         estimate D2E/DX2                !
 ! A39   A(12,17,21)           121.2915         estimate D2E/DX2                !
 ! A40   A(16,17,21)           121.1554         estimate D2E/DX2                !
 ! A41   A(15,20,46)           108.7766         estimate D2E/DX2                !
 ! A42   A(15,20,50)           109.6365         estimate D2E/DX2                !
 ! A43   A(15,20,54)           112.2704         estimate D2E/DX2                !
 ! A44   A(46,20,50)           108.9818         estimate D2E/DX2                !
 ! A45   A(46,20,54)           108.6003         estimate D2E/DX2                !
 ! A46   A(50,20,54)           108.5199         estimate D2E/DX2                !
 ! A47   A(17,21,58)           109.8876         estimate D2E/DX2                !
 ! A48   A(17,21,62)           109.9045         estimate D2E/DX2                !
 ! A49   A(17,21,66)           111.7726         estimate D2E/DX2                !
 ! A50   A(58,21,62)           110.025          estimate D2E/DX2                !
 ! A51   A(58,21,66)           107.5778         estimate D2E/DX2                !
 ! A52   A(62,21,66)           107.6182         estimate D2E/DX2                !
 ! A53   A(12,22,23)           108.1169         estimate D2E/DX2                !
 ! A54   A(1,24,7)             107.8083         estimate D2E/DX2                !
 ! A55   A(1,24,25)            122.1239         estimate D2E/DX2                !
 ! A56   A(7,24,25)            130.0545         estimate D2E/DX2                !
 ! A57   A(6,26,27)            115.2765         estimate D2E/DX2                !
 ! A58   A(6,26,28)            121.8142         estimate D2E/DX2                !
 ! A59   A(27,26,28)           122.9089         estimate D2E/DX2                !
 ! A60   A(26,28,29)           118.7752         estimate D2E/DX2                !
 ! A61   A(28,29,30)           109.8535         estimate D2E/DX2                !
 ! A62   A(28,29,31)           115.5228         estimate D2E/DX2                !
 ! A63   A(28,29,32)           105.8352         estimate D2E/DX2                !
 ! A64   A(30,29,31)           110.4254         estimate D2E/DX2                !
 ! A65   A(30,29,32)           107.3483         estimate D2E/DX2                !
 ! A66   A(31,29,32)           107.4241         estimate D2E/DX2                !
 ! A67   A(29,30,33)           111.2605         estimate D2E/DX2                !
 ! A68   A(29,30,34)           108.1668         estimate D2E/DX2                !
 ! A69   A(29,30,35)           109.6228         estimate D2E/DX2                !
 ! A70   A(33,30,34)           109.9004         estimate D2E/DX2                !
 ! A71   A(33,30,35)           110.6939         estimate D2E/DX2                !
 ! A72   A(34,30,35)           107.0734         estimate D2E/DX2                !
 ! A73   A(29,31,36)           110.7999         estimate D2E/DX2                !
 ! A74   A(29,31,37)           109.8453         estimate D2E/DX2                !
 ! A75   A(29,31,38)           109.4694         estimate D2E/DX2                !
 ! A76   A(36,31,37)           108.5604         estimate D2E/DX2                !
 ! A77   A(36,31,38)           110.9129         estimate D2E/DX2                !
 ! A78   A(37,31,38)           107.1764         estimate D2E/DX2                !
 ! A79   A(30,33,39)           111.5201         estimate D2E/DX2                !
 ! A80   A(30,33,40)           109.8168         estimate D2E/DX2                !
 ! A81   A(30,33,41)           109.0351         estimate D2E/DX2                !
 ! A82   A(39,33,40)           110.55           estimate D2E/DX2                !
 ! A83   A(39,33,41)           109.0795         estimate D2E/DX2                !
 ! A84   A(40,33,41)           106.7055         estimate D2E/DX2                !
 ! A85   A(31,36,39)           111.1253         estimate D2E/DX2                !
 ! A86   A(31,36,42)           109.7358         estimate D2E/DX2                !
 ! A87   A(31,36,43)           109.4025         estimate D2E/DX2                !
 ! A88   A(39,36,42)           110.5105         estimate D2E/DX2                !
 ! A89   A(39,36,43)           109.2242         estimate D2E/DX2                !
 ! A90   A(42,36,43)           106.7356         estimate D2E/DX2                !
 ! A91   A(33,39,36)           111.0079         estimate D2E/DX2                !
 ! A92   A(33,39,44)           110.3033         estimate D2E/DX2                !
 ! A93   A(33,39,45)           109.2035         estimate D2E/DX2                !
 ! A94   A(36,39,44)           110.3535         estimate D2E/DX2                !
 ! A95   A(36,39,45)           109.068          estimate D2E/DX2                !
 ! A96   A(44,39,45)           106.7973         estimate D2E/DX2                !
 ! A97   A(20,46,47)           111.0079         estimate D2E/DX2                !
 ! A98   A(20,46,48)           110.4156         estimate D2E/DX2                !
 ! A99   A(20,46,49)           110.8186         estimate D2E/DX2                !
 ! A100  A(47,46,48)           108.1713         estimate D2E/DX2                !
 ! A101  A(47,46,49)           108.1019         estimate D2E/DX2                !
 ! A102  A(48,46,49)           108.2231         estimate D2E/DX2                !
 ! A103  A(20,50,51)           110.9249         estimate D2E/DX2                !
 ! A104  A(20,50,52)           110.1259         estimate D2E/DX2                !
 ! A105  A(20,50,53)           111.3593         estimate D2E/DX2                !
 ! A106  A(51,50,52)           108.2142         estimate D2E/DX2                !
 ! A107  A(51,50,53)           108.1405         estimate D2E/DX2                !
 ! A108  A(52,50,53)           107.9633         estimate D2E/DX2                !
 ! A109  A(20,54,55)           111.6532         estimate D2E/DX2                !
 ! A110  A(20,54,56)           111.6288         estimate D2E/DX2                !
 ! A111  A(20,54,57)           109.4679         estimate D2E/DX2                !
 ! A112  A(55,54,56)           108.3057         estimate D2E/DX2                !
 ! A113  A(55,54,57)           107.851          estimate D2E/DX2                !
 ! A114  A(56,54,57)           107.7857         estimate D2E/DX2                !
 ! A115  A(21,58,59)           109.8038         estimate D2E/DX2                !
 ! A116  A(21,58,60)           111.436          estimate D2E/DX2                !
 ! A117  A(21,58,61)           110.4168         estimate D2E/DX2                !
 ! A118  A(59,58,60)           108.5887         estimate D2E/DX2                !
 ! A119  A(59,58,61)           108.0436         estimate D2E/DX2                !
 ! A120  A(60,58,61)           108.4643         estimate D2E/DX2                !
 ! A121  A(21,62,63)           111.3732         estimate D2E/DX2                !
 ! A122  A(21,62,64)           109.9071         estimate D2E/DX2                !
 ! A123  A(21,62,65)           110.3481         estimate D2E/DX2                !
 ! A124  A(63,62,64)           108.601          estimate D2E/DX2                !
 ! A125  A(63,62,65)           108.3715         estimate D2E/DX2                !
 ! A126  A(64,62,65)           108.1565         estimate D2E/DX2                !
 ! A127  A(21,66,67)           111.8103         estimate D2E/DX2                !
 ! A128  A(21,66,68)           111.8262         estimate D2E/DX2                !
 ! A129  A(21,66,69)           108.9907         estimate D2E/DX2                !
 ! A130  A(67,66,68)           108.2325         estimate D2E/DX2                !
 ! A131  A(67,66,69)           107.9102         estimate D2E/DX2                !
 ! A132  A(68,66,69)           107.9226         estimate D2E/DX2                !
 ! D1    D(6,1,2,3)              0.2438         estimate D2E/DX2                !
 ! D2    D(6,1,2,11)           179.9405         estimate D2E/DX2                !
 ! D3    D(24,1,2,3)          -179.6885         estimate D2E/DX2                !
 ! D4    D(24,1,2,11)            0.0082         estimate D2E/DX2                !
 ! D5    D(2,1,6,5)              0.0379         estimate D2E/DX2                !
 ! D6    D(2,1,6,26)          -179.7344         estimate D2E/DX2                !
 ! D7    D(24,1,6,5)           179.9512         estimate D2E/DX2                !
 ! D8    D(24,1,6,26)            0.1789         estimate D2E/DX2                !
 ! D9    D(2,1,24,7)             0.0559         estimate D2E/DX2                !
 ! D10   D(2,1,24,25)          178.8517         estimate D2E/DX2                !
 ! D11   D(6,1,24,7)          -179.8685         estimate D2E/DX2                !
 ! D12   D(6,1,24,25)           -1.0727         estimate D2E/DX2                !
 ! D13   D(1,2,3,4)             -0.2517         estimate D2E/DX2                !
 ! D14   D(1,2,3,8)            179.6311         estimate D2E/DX2                !
 ! D15   D(11,2,3,4)          -179.8701         estimate D2E/DX2                !
 ! D16   D(11,2,3,8)             0.0127         estimate D2E/DX2                !
 ! D17   D(1,2,11,7)            -0.0703         estimate D2E/DX2                !
 ! D18   D(3,2,11,7)           179.5804         estimate D2E/DX2                !
 ! D19   D(2,3,4,5)             -0.0101         estimate D2E/DX2                !
 ! D20   D(2,3,4,9)           -179.8914         estimate D2E/DX2                !
 ! D21   D(8,3,4,5)           -179.8921         estimate D2E/DX2                !
 ! D22   D(8,3,4,9)              0.2265         estimate D2E/DX2                !
 ! D23   D(3,4,5,6)              0.3026         estimate D2E/DX2                !
 ! D24   D(3,4,5,10)          -179.8059         estimate D2E/DX2                !
 ! D25   D(9,4,5,6)           -179.8158         estimate D2E/DX2                !
 ! D26   D(9,4,5,10)             0.0758         estimate D2E/DX2                !
 ! D27   D(4,5,6,1)             -0.306          estimate D2E/DX2                !
 ! D28   D(4,5,6,26)           179.4674         estimate D2E/DX2                !
 ! D29   D(10,5,6,1)           179.8014         estimate D2E/DX2                !
 ! D30   D(10,5,6,26)           -0.4251         estimate D2E/DX2                !
 ! D31   D(1,6,26,27)         -179.078          estimate D2E/DX2                !
 ! D32   D(1,6,26,28)            1.1339         estimate D2E/DX2                !
 ! D33   D(5,6,26,27)            1.1633         estimate D2E/DX2                !
 ! D34   D(5,6,26,28)         -178.6248         estimate D2E/DX2                !
 ! D35   D(13,7,11,2)         -179.2549         estimate D2E/DX2                !
 ! D36   D(24,7,11,2)            0.1079         estimate D2E/DX2                !
 ! D37   D(11,7,13,12)           0.9293         estimate D2E/DX2                !
 ! D38   D(11,7,13,14)         179.9279         estimate D2E/DX2                !
 ! D39   D(24,7,13,12)        -178.3471         estimate D2E/DX2                !
 ! D40   D(24,7,13,14)           0.6515         estimate D2E/DX2                !
 ! D41   D(11,7,24,1)           -0.105          estimate D2E/DX2                !
 ! D42   D(11,7,24,25)        -178.7727         estimate D2E/DX2                !
 ! D43   D(13,7,24,1)          179.2517         estimate D2E/DX2                !
 ! D44   D(13,7,24,25)           0.584          estimate D2E/DX2                !
 ! D45   D(17,12,13,7)         179.0558         estimate D2E/DX2                !
 ! D46   D(17,12,13,14)          0.0489         estimate D2E/DX2                !
 ! D47   D(22,12,13,7)          -0.7867         estimate D2E/DX2                !
 ! D48   D(22,12,13,14)       -179.7936         estimate D2E/DX2                !
 ! D49   D(13,12,17,16)         -0.1531         estimate D2E/DX2                !
 ! D50   D(13,12,17,21)        179.9458         estimate D2E/DX2                !
 ! D51   D(22,12,17,16)        179.6912         estimate D2E/DX2                !
 ! D52   D(22,12,17,21)         -0.2098         estimate D2E/DX2                !
 ! D53   D(13,12,22,23)          0.0849         estimate D2E/DX2                !
 ! D54   D(17,12,22,23)       -179.7581         estimate D2E/DX2                !
 ! D55   D(7,13,14,15)        -178.9292         estimate D2E/DX2                !
 ! D56   D(7,13,14,18)           1.0221         estimate D2E/DX2                !
 ! D57   D(12,13,14,15)          0.0648         estimate D2E/DX2                !
 ! D58   D(12,13,14,18)       -179.9839         estimate D2E/DX2                !
 ! D59   D(13,14,15,16)         -0.0661         estimate D2E/DX2                !
 ! D60   D(13,14,15,20)        178.681          estimate D2E/DX2                !
 ! D61   D(18,14,15,16)        179.9828         estimate D2E/DX2                !
 ! D62   D(18,14,15,20)         -1.2702         estimate D2E/DX2                !
 ! D63   D(14,15,16,17)         -0.0479         estimate D2E/DX2                !
 ! D64   D(14,15,16,19)        179.9813         estimate D2E/DX2                !
 ! D65   D(20,15,16,17)       -178.755          estimate D2E/DX2                !
 ! D66   D(20,15,16,19)          1.2742         estimate D2E/DX2                !
 ! D67   D(14,15,20,46)        -61.714          estimate D2E/DX2                !
 ! D68   D(14,15,20,50)         57.3684         estimate D2E/DX2                !
 ! D69   D(14,15,20,54)        178.069          estimate D2E/DX2                !
 ! D70   D(16,15,20,46)        116.9611         estimate D2E/DX2                !
 ! D71   D(16,15,20,50)       -123.9565         estimate D2E/DX2                !
 ! D72   D(16,15,20,54)         -3.2559         estimate D2E/DX2                !
 ! D73   D(15,16,17,12)          0.1569         estimate D2E/DX2                !
 ! D74   D(15,16,17,21)       -179.9419         estimate D2E/DX2                !
 ! D75   D(19,16,17,12)       -179.8722         estimate D2E/DX2                !
 ! D76   D(19,16,17,21)          0.0289         estimate D2E/DX2                !
 ! D77   D(12,17,21,58)         61.037          estimate D2E/DX2                !
 ! D78   D(12,17,21,62)        -60.1791         estimate D2E/DX2                !
 ! D79   D(12,17,21,66)       -179.602          estimate D2E/DX2                !
 ! D80   D(16,17,21,58)       -118.8605         estimate D2E/DX2                !
 ! D81   D(16,17,21,62)        119.9235         estimate D2E/DX2                !
 ! D82   D(16,17,21,66)          0.5005         estimate D2E/DX2                !
 ! D83   D(15,20,46,47)         58.4954         estimate D2E/DX2                !
 ! D84   D(15,20,46,48)        178.4551         estimate D2E/DX2                !
 ! D85   D(15,20,46,49)        -61.6435         estimate D2E/DX2                !
 ! D86   D(50,20,46,47)        -60.996          estimate D2E/DX2                !
 ! D87   D(50,20,46,48)         58.9637         estimate D2E/DX2                !
 ! D88   D(50,20,46,49)        178.8652         estimate D2E/DX2                !
 ! D89   D(54,20,46,47)       -179.0416         estimate D2E/DX2                !
 ! D90   D(54,20,46,48)        -59.0819         estimate D2E/DX2                !
 ! D91   D(54,20,46,49)         60.8196         estimate D2E/DX2                !
 ! D92   D(15,20,50,51)         61.8079         estimate D2E/DX2                !
 ! D93   D(15,20,50,52)       -178.4219         estimate D2E/DX2                !
 ! D94   D(15,20,50,53)        -58.686          estimate D2E/DX2                !
 ! D95   D(46,20,50,51)       -179.2362         estimate D2E/DX2                !
 ! D96   D(46,20,50,52)        -59.466          estimate D2E/DX2                !
 ! D97   D(46,20,50,53)         60.2699         estimate D2E/DX2                !
 ! D98   D(54,20,50,51)        -61.14           estimate D2E/DX2                !
 ! D99   D(54,20,50,52)         58.6302         estimate D2E/DX2                !
 ! D100  D(54,20,50,53)        178.3661         estimate D2E/DX2                !
 ! D101  D(15,20,54,55)        -60.7885         estimate D2E/DX2                !
 ! D102  D(15,20,54,56)         60.6072         estimate D2E/DX2                !
 ! D103  D(15,20,54,57)        179.861          estimate D2E/DX2                !
 ! D104  D(46,20,54,55)        178.8923         estimate D2E/DX2                !
 ! D105  D(46,20,54,56)        -59.712          estimate D2E/DX2                !
 ! D106  D(46,20,54,57)         59.5418         estimate D2E/DX2                !
 ! D107  D(50,20,54,55)         60.5543         estimate D2E/DX2                !
 ! D108  D(50,20,54,56)       -178.0501         estimate D2E/DX2                !
 ! D109  D(50,20,54,57)        -58.7962         estimate D2E/DX2                !
 ! D110  D(17,21,58,59)       -179.376          estimate D2E/DX2                !
 ! D111  D(17,21,58,60)        -59.02           estimate D2E/DX2                !
 ! D112  D(17,21,58,61)         61.5907         estimate D2E/DX2                !
 ! D113  D(62,21,58,59)        -58.2323         estimate D2E/DX2                !
 ! D114  D(62,21,58,60)         62.1237         estimate D2E/DX2                !
 ! D115  D(62,21,58,61)       -177.2656         estimate D2E/DX2                !
 ! D116  D(66,21,58,59)         58.7289         estimate D2E/DX2                !
 ! D117  D(66,21,58,60)        179.0848         estimate D2E/DX2                !
 ! D118  D(66,21,58,61)        -60.3044         estimate D2E/DX2                !
 ! D119  D(17,21,62,63)         61.6293         estimate D2E/DX2                !
 ! D120  D(17,21,62,64)       -177.9712         estimate D2E/DX2                !
 ! D121  D(17,21,62,65)        -58.7765         estimate D2E/DX2                !
 ! D122  D(58,21,62,63)        -59.5042         estimate D2E/DX2                !
 ! D123  D(58,21,62,64)         60.8953         estimate D2E/DX2                !
 ! D124  D(58,21,62,65)       -179.91           estimate D2E/DX2                !
 ! D125  D(66,21,62,63)       -176.4401         estimate D2E/DX2                !
 ! D126  D(66,21,62,64)        -56.0406         estimate D2E/DX2                !
 ! D127  D(66,21,62,65)         63.1541         estimate D2E/DX2                !
 ! D128  D(17,21,66,67)        -60.6327         estimate D2E/DX2                !
 ! D129  D(17,21,66,68)         60.9206         estimate D2E/DX2                !
 ! D130  D(17,21,66,69)       -179.8434         estimate D2E/DX2                !
 ! D131  D(58,21,66,67)         60.0831         estimate D2E/DX2                !
 ! D132  D(58,21,66,68)       -178.3636         estimate D2E/DX2                !
 ! D133  D(58,21,66,69)        -59.1276         estimate D2E/DX2                !
 ! D134  D(62,21,66,67)        178.6042         estimate D2E/DX2                !
 ! D135  D(62,21,66,68)        -59.8425         estimate D2E/DX2                !
 ! D136  D(62,21,66,69)         59.3935         estimate D2E/DX2                !
 ! D137  D(6,26,28,29)         178.0453         estimate D2E/DX2                !
 ! D138  D(27,26,28,29)         -1.7265         estimate D2E/DX2                !
 ! D139  D(26,28,29,30)        -84.262          estimate D2E/DX2                !
 ! D140  D(26,28,29,31)         41.4397         estimate D2E/DX2                !
 ! D141  D(26,28,29,32)        160.1471         estimate D2E/DX2                !
 ! D142  D(28,29,30,33)       -175.484          estimate D2E/DX2                !
 ! D143  D(28,29,30,34)         63.7134         estimate D2E/DX2                !
 ! D144  D(28,29,30,35)        -52.7128         estimate D2E/DX2                !
 ! D145  D(31,29,30,33)         55.9587         estimate D2E/DX2                !
 ! D146  D(31,29,30,34)        -64.8439         estimate D2E/DX2                !
 ! D147  D(31,29,30,35)        178.7299         estimate D2E/DX2                !
 ! D148  D(32,29,30,33)        -60.8552         estimate D2E/DX2                !
 ! D149  D(32,29,30,34)        178.3422         estimate D2E/DX2                !
 ! D150  D(32,29,30,35)         61.916          estimate D2E/DX2                !
 ! D151  D(28,29,31,36)        177.7741         estimate D2E/DX2                !
 ! D152  D(28,29,31,37)        -62.2859         estimate D2E/DX2                !
 ! D153  D(28,29,31,38)         55.1394         estimate D2E/DX2                !
 ! D154  D(30,29,31,36)        -56.8176         estimate D2E/DX2                !
 ! D155  D(30,29,31,37)         63.1224         estimate D2E/DX2                !
 ! D156  D(30,29,31,38)       -179.4523         estimate D2E/DX2                !
 ! D157  D(32,29,31,36)         59.9493         estimate D2E/DX2                !
 ! D158  D(32,29,31,37)        179.8893         estimate D2E/DX2                !
 ! D159  D(32,29,31,38)        -62.6854         estimate D2E/DX2                !
 ! D160  D(29,30,33,39)        -55.247          estimate D2E/DX2                !
 ! D161  D(29,30,33,40)       -178.1469         estimate D2E/DX2                !
 ! D162  D(29,30,33,41)         65.2667         estimate D2E/DX2                !
 ! D163  D(34,30,33,39)         64.5318         estimate D2E/DX2                !
 ! D164  D(34,30,33,40)        -58.3681         estimate D2E/DX2                !
 ! D165  D(34,30,33,41)       -174.9546         estimate D2E/DX2                !
 ! D166  D(35,30,33,39)       -177.4            estimate D2E/DX2                !
 ! D167  D(35,30,33,40)         59.7            estimate D2E/DX2                !
 ! D168  D(35,30,33,41)        -56.8864         estimate D2E/DX2                !
 ! D169  D(29,31,36,39)         57.0472         estimate D2E/DX2                !
 ! D170  D(29,31,36,42)        179.573          estimate D2E/DX2                !
 ! D171  D(29,31,36,43)        -63.6383         estimate D2E/DX2                !
 ! D172  D(37,31,36,39)        -63.658          estimate D2E/DX2                !
 ! D173  D(37,31,36,42)         58.8678         estimate D2E/DX2                !
 ! D174  D(37,31,36,43)        175.6565         estimate D2E/DX2                !
 ! D175  D(38,31,36,39)        178.8392         estimate D2E/DX2                !
 ! D176  D(38,31,36,42)        -58.6349         estimate D2E/DX2                !
 ! D177  D(38,31,36,43)         58.1538         estimate D2E/DX2                !
 ! D178  D(30,33,39,36)         54.9319         estimate D2E/DX2                !
 ! D179  D(30,33,39,44)        177.5705         estimate D2E/DX2                !
 ! D180  D(30,33,39,45)        -65.3548         estimate D2E/DX2                !
 ! D181  D(40,33,39,36)        177.4119         estimate D2E/DX2                !
 ! D182  D(40,33,39,44)        -59.9495         estimate D2E/DX2                !
 ! D183  D(40,33,39,45)         57.1252         estimate D2E/DX2                !
 ! D184  D(41,33,39,36)        -65.5557         estimate D2E/DX2                !
 ! D185  D(41,33,39,44)         57.0829         estimate D2E/DX2                !
 ! D186  D(41,33,39,45)        174.1576         estimate D2E/DX2                !
 ! D187  D(31,36,39,33)        -55.8301         estimate D2E/DX2                !
 ! D188  D(31,36,39,44)       -178.4397         estimate D2E/DX2                !
 ! D189  D(31,36,39,45)         64.537          estimate D2E/DX2                !
 ! D190  D(42,36,39,33)       -177.907          estimate D2E/DX2                !
 ! D191  D(42,36,39,44)         59.4835         estimate D2E/DX2                !
 ! D192  D(42,36,39,45)        -57.5399         estimate D2E/DX2                !
 ! D193  D(43,36,39,33)         64.9604         estimate D2E/DX2                !
 ! D194  D(43,36,39,44)        -57.6491         estimate D2E/DX2                !
 ! D195  D(43,36,39,45)       -174.6725         estimate D2E/DX2                !
 --------------------------------------------------------------------------------
 Trust Radius=3.00D-01 FncErr=5.00D-06 GrdErr=5.00D-06 EigMax=2.50D+02 EigMin=1.00D-04
 Number of steps in this run=    409 maximum allowed number of steps=    414.
 GradGradGradGradGradGradGradGradGradGradGradGradGradGradGradGradGradGrad

 Leave Link  103 at Fri Dec 21 13:53:15 2018, MaxMem=  1342177280 cpu:               0.6 elap:               0.1
 (Enter /gpfs/apps/hpc/Apps/Restricted/Gaussian/Rev_A.03/g16/l202.exe)
 Symmetry turned off by external request.
 Stoichiometry    C28H37N3O
 Framework group  C1[X(C28H37N3O)]
 Deg. of freedom   201
 Full point group                 C1      NOp   1
                          Input orientation:                          
 ---------------------------------------------------------------------
 Center     Atomic      Atomic             Coordinates (Angstroms)
 Number     Number       Type             X           Y           Z
 ---------------------------------------------------------------------
      1          6           0       -0.483053    2.715584    0.416145
      2          6           0       -1.881052    2.898359    0.327601
      3          6           0       -2.412894    4.190122    0.243421
      4          6           0       -1.520456    5.261988    0.256277
      5          6           0       -0.133595    5.064531    0.350314
      6          6           0        0.427051    3.782688    0.429804
      7          6           0       -1.518543    0.752015    0.424651
      8          1           0       -3.482079    4.346339    0.169021
      9          1           0       -1.905266    6.273153    0.194132
     10          1           0        0.529539    5.922761    0.360617
     11          7           0       -2.496427    1.656282    0.336302
     12          6           0       -3.063668   -1.189037    0.352314
     13          6           0       -1.739219   -0.685003    0.447265
     14          6           0       -0.658724   -1.573623    0.540497
     15          6           0       -0.848757   -2.950289    0.541355
     16          6           0       -2.167874   -3.417641    0.446447
     17          6           0       -3.286126   -2.585001    0.353326
     18          1           0        0.347044   -1.175374    0.612680
     19          1           0       -2.332312   -4.483825    0.445491
     20          6           0        0.361420   -3.887798    0.614442
     21          6           0       -4.705200   -3.167413    0.253385
     22          8           0       -4.117255   -0.346876    0.257497
     23          1           0       -3.767809    0.591511    0.268641
     24          7           0       -0.287014    1.356600    0.476439
     25          1           0        0.638260    0.947632    0.528152
     26          6           0        1.869640    3.577070    0.516071
     27          1           0        2.471751    4.490981    0.533986
     28          7           0        2.383342    2.403646    0.562666
     29          6           0        3.846217    2.273148    0.605015
     30          6           0        4.417796    2.330347   -0.823282
     31          6           0        4.574369    3.275291    1.514632
     32          1           0        4.045818    1.268606    0.997125
     33          6           0        5.930590    2.085737   -0.826620
     34          1           0        4.198843    3.321293   -1.239881
     35          1           0        3.906197    1.596844   -1.453374
     36          6           0        6.083737    3.008000    1.520530
     37          1           0        4.402404    4.296059    1.156042
     38          1           0        4.163006    3.214757    2.526856
     39          6           0        6.660178    3.063293    0.101127
     40          1           0        6.316771    2.164127   -1.847368
     41          1           0        6.127826    1.059566   -0.492795
     42          1           0        6.585310    3.735122    2.166713
     43          1           0        6.276761    2.017185    1.950502
     44          1           0        7.732058    2.843665    0.116826
     45          1           0        6.551014    4.082402   -0.290657
     46          6           0        1.245777   -3.654521   -0.627285
     47          1           0        1.575562   -2.614306   -0.683508
     48          1           0        2.133816   -4.292376   -0.588643
     49          1           0        0.697384   -3.887082   -1.544179
     50          6           0        1.182786   -3.575549    1.880731
     51          1           0        0.588653   -3.743887    2.782861
     52          1           0        2.064321   -4.221634    1.926387
     53          1           0        1.524899   -2.537627    1.887374
     54          6           0       -0.049460   -5.366088    0.652100
     55          1           0       -0.664682   -5.591665    1.527396
     56          1           0       -0.608161   -5.652070   -0.243331
     57          1           0        0.845240   -5.991639    0.701283
     58          6           0       -5.359002   -2.732161   -1.075251
     59          1           0       -6.372934   -3.138229   -1.139958
     60          1           0       -5.413698   -1.647265   -1.155355
     61          1           0       -4.786354   -3.113816   -1.925275
     62          6           0       -5.557474   -2.682549    1.445687
     63          1           0       -5.658132   -1.598206    1.446625
     64          1           0       -6.556546   -3.125767    1.394151
     65          1           0       -5.097957   -2.986879    2.390277
     66          6           0       -4.694231   -4.704659    0.283816
     67          1           0       -4.126052   -5.123400   -0.551056
     68          1           0       -4.268835   -5.089758    1.214382
     69          1           0       -5.721459   -5.069139    0.207540
 ---------------------------------------------------------------------
 Rotational constants (GHZ):           0.1846884           0.0719214           0.0540704
 Leave Link  202 at Fri Dec 21 13:53:15 2018, MaxMem=  1342177280 cpu:               0.9 elap:               0.1
 (Enter /gpfs/apps/hpc/Apps/Restricted/Gaussian/Rev_A.03/g16/l301.exe)
 Standard basis: 6-31G(d,p) (6D, 7F)
 Ernie: Thresh=  0.10000D-02 Tol=  0.10000D-05 Strict=F.
   665 basis functions,  1155 primitive gaussians,   665 cartesian basis functions
   117 alpha electrons      117 beta electrons
       nuclear repulsion energy      3168.0962847641 Hartrees.
 IExCor=  402 DFT=T Ex+Corr=B3LYP ExCW=0 ScaHFX=  0.200000
 ScaDFX=  0.800000  0.720000  1.000000  0.810000 ScalE2=  1.000000  1.000000
 IRadAn=      5 IRanWt=     -1 IRanGd=            0 ICorTp=0 IEmpDi=141
 NAtoms=   69 NActive=   69 NUniq=   69 SFac= 1.00D+00 NAtFMM=   60 NAOKFM=T Big=T
 Integral buffers will be    131072 words long.
 Raffenetti 2 integral format.
 Two-electron integral symmetry is turned off.
 R6Disp:  Grimme-D3(BJ) Dispersion energy=       -0.1501396306 Hartrees.
 Nuclear repulsion after empirical dispersion term =     3167.9461451335 Hartrees.
 Using the following non-standard input for PCM:
 radii=bondi
 dis
 rep
 cav
 --- end of non-standard input.
 ------------------------------------------------------------------------------
 Polarizable Continuum Model (PCM)
 =================================
 Model                : C-PCM.
 Atomic radii         : Bondi.
 Polarization charges : Total charges.
 Charge compensation  : None.
 Solution method      : On-the-fly selection.
 Cavity type          : Scaled VdW (van der Waals Surface) (Alpha=1.100).
 Cavity algorithm     : GePol (No added spheres)
                        Default sphere list used, NSphG=   69.
                        Lebedev-Laikov grids with approx.  5.0 points / Ang**2.
                        Smoothing algorithm: York/Karplus (Gamma=1.0000).
                        Polarization charges: spherical gaussians, with
                                              point-specific exponents (IZeta= 3).
                        Self-potential: point-specific (ISelfS= 7).
                        Self-field    : sphere-specific E.n sum rule (ISelfD= 2).
 1st derivatives      : Analytical E(r).r(x)/FMM algorithm (CHGder, D1EAlg=3).
                        Cavity 1st derivative terms included.
 Solvent              : Dichloromethane, Eps=   8.930000 Eps(inf)=   2.028346
 ------------------------------------------------------------------------------
 GePol: Number of generator spheres                  =      69
 GePol: Total number of spheres                      =      69
 GePol: Number of exposed spheres                    =      69 (100.00%)
 GePol: Number of points                             =    4354
 GePol: Average weight of points                     =       0.12
 GePol: Minimum weight of points                     =   0.13D-10
 GePol: Maximum weight of points                     =    0.21770
 GePol: Number of points with low weight             =     338
 GePol: Fraction of low-weight points (<1% of avg)   =       7.76%
 GePol: Cavity surface area                          =    517.216 Ang**2
 GePol: Cavity volume                                =    498.953 Ang**3
 PCM non-electrostatic energy =         0.0253494454 Hartrees.
 Nuclear repulsion after PCM non-electrostatic terms =     3167.9714945789 Hartrees.
 Leave Link  301 at Fri Dec 21 13:53:16 2018, MaxMem=  1342177280 cpu:               3.2 elap:               0.2
 (Enter /gpfs/apps/hpc/Apps/Restricted/Gaussian/Rev_A.03/g16/l302.exe)
 NPDir=0 NMtPBC=     1 NCelOv=     1 NCel=       1 NClECP=     1 NCelD=      1
         NCelK=      1 NCelE2=     1 NClLst=     1 CellRange=     0.0.
 One-electron integrals computed using PRISM.
 NBasis=   665 RedAO= T EigKep=  2.85D-04  NBF=   665
 NBsUse=   665 1.00D-06 EigRej= -1.00D+00 NBFU=   665
 Precomputing XC quadrature grid using
 IXCGrd= 4 IRadAn=           5 IRanWt=          -1 IRanGd=           0 AccXCQ= 0.00D+00.
 Generated NRdTot=       0 NPtTot=           0 NUsed=           0 NTot=          32
 NSgBfM=   647   647   647   647   647 MxSgAt=    69 MxSgA2=    69.
 Leave Link  302 at Fri Dec 21 13:53:17 2018, MaxMem=  1342177280 cpu:              19.1 elap:               1.2
 (Enter /gpfs/apps/hpc/Apps/Restricted/Gaussian/Rev_A.03/g16/l303.exe)
 DipDrv:  MaxL=1.
 Leave Link  303 at Fri Dec 21 13:53:17 2018, MaxMem=  1342177280 cpu:               1.0 elap:               0.1
 (Enter /gpfs/apps/hpc/Apps/Restricted/Gaussian/Rev_A.03/g16/l401.exe)
 ExpMin= 1.61D-01 ExpMax= 5.48D+03 ExpMxC= 8.25D+02 IAcc=3 IRadAn=         5 AccDes= 0.00D+00
 Harris functional with IExCor=  402 and IRadAn=       5 diagonalized for initial guess.
 HarFok:  IExCor=  402 AccDes= 0.00D+00 IRadAn=         5 IDoV= 1 UseB2=F ITyADJ=14
 ICtDFT=  3500011 ScaDFX=  1.000000  1.000000  1.000000  1.000000
 FoFCou: FMM=F IPFlag=           0 FMFlag=      100000 FMFlg1=        2001
         NFxFlg=           0 DoJE=T BraDBF=F KetDBF=T FulRan=T
         wScrn=  0.000000 ICntrl=       500 IOpCl=  0 I1Cent=   200000004 NGrid=           0
         NMat0=    1 NMatS0=      1 NMatT0=    0 NMatD0=    1 NMtDS0=    0 NMtDT0=    0
 Symmetry not used in FoFCou.
 Harris En= -1329.05244168842    
 JPrj=0 DoOrth=F DoCkMO=F.
 Leave Link  401 at Fri Dec 21 13:53:21 2018, MaxMem=  1342177280 cpu:              56.1 elap:               3.7
 (Enter /gpfs/apps/hpc/Apps/Restricted/Gaussian/Rev_A.03/g16/l502.exe)
 Two-electron integral symmetry not used.
 Closed shell SCF:
 Using DIIS extrapolation, IDIIS=  1040.
 NGot=  1342177280 LenX=  1341276554 LenY=  1340833664
 Requested convergence on RMS density matrix=1.00D-08 within 128 cycles.
 Requested convergence on MAX density matrix=1.00D-06.
 Requested convergence on             energy=1.00D-06.
 No special actions if energy rises.
 Fock matrices will be formed incrementally for  20 cycles.

 Cycle   1  Pass 1  IDiag  1:
 FoFJK:  IHMeth= 1 ICntrl=       0 DoSepK=F KAlg= 0 I1Cent=           0 FoldK=F
 IRaf= 760000000 NMat=       1 IRICut=       1 DoRegI=T DoRafI=F ISym2E= 0 IDoP0=0 IntGTp=1.
 FoFCou: FMM=T IPFlag=           0 FMFlag=      100000 FMFlg1=        2001
         NFxFlg=           0 DoJE=F BraDBF=F KetDBF=F FulRan=T
         wScrn=  0.000000 ICntrl=         0 IOpCl=  0 I1Cent=           0 NGrid=           0
         NMat0=    1 NMatS0=      1 NMatT0=    0 NMatD0=    1 NMtDS0=    0 NMtDT0=    0
 Symmetry not used in FoFCou.
 FMM levels:  10  Number of levels for PrismC:   9
 Inv3:  Mode=1 IEnd=    56871948.
 Iteration    1 A*A^-1 deviation from unit magnitude is 1.22D-14 for    563.
 Iteration    1 A*A^-1 deviation from orthogonality  is 5.27D-15 for   2821    563.
 Iteration    1 A^-1*A deviation from unit magnitude is 1.07D-14 for    563.
 Iteration    1 A^-1*A deviation from orthogonality  is 3.69D-15 for   1744    658.
 E= -1328.13325939248    
 DIIS: error= 2.87D-02 at cycle   1 NSaved=   1.
 NSaved= 1 IEnMin= 1 EnMin= -1328.13325939248     IErMin= 1 ErrMin= 2.87D-02
 ErrMax= 2.87D-02  0.00D+00 EMaxC= 1.00D-01 BMatC= 8.15D-01 BMatP= 8.15D-01
 IDIUse=3 WtCom= 7.13D-01 WtEn= 2.87D-01
 Coeff-Com:  0.100D+01
 Coeff-En:   0.100D+01
 Coeff:      0.100D+01
 Gap=     0.159 Goal=   None    Shift=    0.000
 GapD=    0.159 DampG=1.000 DampE=0.500 DampFc=0.5000 IDamp=-1.
 Damping current iteration by 5.00D-01
 RMSDP=3.21D-03 MaxDP=1.39D-01              OVMax= 1.84D-01

 Cycle   2  Pass 1  IDiag  1:
 RMSU=  1.56D-03    CP:  9.69D-01
 E= -1328.52375205833     Delta-E=       -0.390492665852 Rises=F Damp=T
 DIIS: error= 9.53D-03 at cycle   2 NSaved=   2.
 NSaved= 2 IEnMin= 2 EnMin= -1328.52375205833     IErMin= 2 ErrMin= 9.53D-03
 ErrMax= 9.53D-03  0.00D+00 EMaxC= 1.00D-01 BMatC= 4.89D-02 BMatP= 8.15D-01
 IDIUse=3 WtCom= 9.05D-01 WtEn= 9.53D-02
 Coeff-Com:  0.499D-01 0.950D+00
 Coeff-En:   0.880D-01 0.912D+00
 Coeff:      0.535D-01 0.946D+00
 Gap=     0.171 Goal=   None    Shift=    0.000
 RMSDP=8.32D-04 MaxDP=4.91D-02 DE=-3.90D-01 OVMax= 1.59D-01

 Cycle   3  Pass 1  IDiag  1:
 RMSU=  8.13D-04    CP:  9.56D-01  9.42D-01
 E= -1328.97032715474     Delta-E=       -0.446575096405 Rises=F Damp=F
 DIIS: error= 4.77D-03 at cycle   3 NSaved=   3.
 NSaved= 3 IEnMin= 3 EnMin= -1328.97032715474     IErMin= 3 ErrMin= 4.77D-03
 ErrMax= 4.77D-03  0.00D+00 EMaxC= 1.00D-01 BMatC= 2.65D-02 BMatP= 4.89D-02
 IDIUse=3 WtCom= 9.52D-01 WtEn= 4.77D-02
 Coeff-Com: -0.187D-01 0.410D+00 0.608D+00
 Coeff-En:   0.000D+00 0.000D+00 0.100D+01
 Coeff:     -0.178D-01 0.391D+00 0.627D+00
 Gap=     0.150 Goal=   None    Shift=    0.000
 RMSDP=4.12D-04 MaxDP=3.43D-02 DE=-4.47D-01 OVMax= 6.54D-02

 Cycle   4  Pass 1  IDiag  1:
 RMSU=  3.04D-04    CP:  9.58D-01  1.01D+00  6.82D-01
 E= -1328.98994366616     Delta-E=       -0.019616511419 Rises=F Damp=F
 DIIS: error= 3.70D-03 at cycle   4 NSaved=   4.
 NSaved= 4 IEnMin= 4 EnMin= -1328.98994366616     IErMin= 4 ErrMin= 3.70D-03
 ErrMax= 3.70D-03  0.00D+00 EMaxC= 1.00D-01 BMatC= 8.19D-03 BMatP= 2.65D-02
 IDIUse=3 WtCom= 9.63D-01 WtEn= 3.70D-02
 Coeff-Com: -0.136D-01 0.945D-01 0.374D+00 0.545D+00
 Coeff-En:   0.000D+00 0.000D+00 0.248D+00 0.752D+00
 Coeff:     -0.130D-01 0.910D-01 0.369D+00 0.553D+00
 Gap=     0.147 Goal=   None    Shift=    0.000
 RMSDP=1.67D-04 MaxDP=1.40D-02 DE=-1.96D-02 OVMax= 2.59D-02

 Cycle   5  Pass 1  IDiag  1:
 RMSU=  8.34D-05    CP:  9.57D-01  9.90D-01  7.67D-01  5.93D-01
 E= -1328.99781484054     Delta-E=       -0.007871174388 Rises=F Damp=F
 DIIS: error= 9.53D-04 at cycle   5 NSaved=   5.
 NSaved= 5 IEnMin= 5 EnMin= -1328.99781484054     IErMin= 5 ErrMin= 9.53D-04
 ErrMax= 9.53D-04  0.00D+00 EMaxC= 1.00D-01 BMatC= 5.76D-04 BMatP= 8.19D-03
 IDIUse=3 WtCom= 9.90D-01 WtEn= 9.53D-03
 Coeff-Com: -0.549D-02 0.182D-01 0.154D+00 0.302D+00 0.531D+00
 Coeff-En:   0.000D+00 0.000D+00 0.000D+00 0.000D+00 0.100D+01
 Coeff:     -0.544D-02 0.180D-01 0.153D+00 0.300D+00 0.535D+00
 Gap=     0.147 Goal=   None    Shift=    0.000
 RMSDP=4.71D-05 MaxDP=4.45D-03 DE=-7.87D-03 OVMax= 5.26D-03

 Cycle   6  Pass 1  IDiag  1:
 RMSU=  2.36D-05    CP:  9.57D-01  9.92D-01  7.74D-01  6.24D-01  5.32D-01
 E= -1328.99832675547     Delta-E=       -0.000511914925 Rises=F Damp=F
 DIIS: error= 2.76D-04 at cycle   6 NSaved=   6.
 NSaved= 6 IEnMin= 6 EnMin= -1328.99832675547     IErMin= 6 ErrMin= 2.76D-04
 ErrMax= 2.76D-04  0.00D+00 EMaxC= 1.00D-01 BMatC= 4.40D-05 BMatP= 5.76D-04
 IDIUse=3 WtCom= 9.97D-01 WtEn= 2.76D-03
 Coeff-Com: -0.200D-02 0.346D-02 0.570D-01 0.124D+00 0.295D+00 0.523D+00
 Coeff-En:   0.000D+00 0.000D+00 0.000D+00 0.000D+00 0.000D+00 0.100D+01
 Coeff:     -0.199D-02 0.345D-02 0.569D-01 0.124D+00 0.294D+00 0.524D+00
 Gap=     0.147 Goal=   None    Shift=    0.000
 RMSDP=1.25D-05 MaxDP=1.29D-03 DE=-5.12D-04 OVMax= 2.02D-03

 Cycle   7  Pass 1  IDiag  1:
 RMSU=  7.63D-06    CP:  9.57D-01  9.92D-01  7.74D-01  6.27D-01  5.92D-01
                    CP:  6.40D-01
 E= -1328.99836285708     Delta-E=       -0.000036101605 Rises=F Damp=F
 DIIS: error= 6.91D-05 at cycle   7 NSaved=   7.
 NSaved= 7 IEnMin= 7 EnMin= -1328.99836285708     IErMin= 7 ErrMin= 6.91D-05
 ErrMax= 6.91D-05  0.00D+00 EMaxC= 1.00D-01 BMatC= 4.87D-06 BMatP= 4.40D-05
 IDIUse=1 WtCom= 1.00D+00 WtEn= 0.00D+00
 Coeff-Com: -0.653D-03 0.341D-03 0.186D-01 0.435D-01 0.123D+00 0.309D+00
 Coeff-Com:  0.507D+00
 Coeff:     -0.653D-03 0.341D-03 0.186D-01 0.435D-01 0.123D+00 0.309D+00
 Coeff:      0.507D+00
 Gap=     0.147 Goal=   None    Shift=    0.000
 RMSDP=3.95D-06 MaxDP=4.30D-04 DE=-3.61D-05 OVMax= 6.93D-04

 Cycle   8  Pass 1  IDiag  1:
 RMSU=  1.95D-06    CP:  9.57D-01  9.92D-01  7.74D-01  6.28D-01  5.94D-01
                    CP:  6.78D-01  5.73D-01
 E= -1328.99836727445     Delta-E=       -0.000004417373 Rises=F Damp=F
 DIIS: error= 1.02D-05 at cycle   8 NSaved=   8.
 NSaved= 8 IEnMin= 8 EnMin= -1328.99836727445     IErMin= 8 ErrMin= 1.02D-05
 ErrMax= 1.02D-05  0.00D+00 EMaxC= 1.00D-01 BMatC= 2.13D-07 BMatP= 4.87D-06
 IDIUse=1 WtCom= 1.00D+00 WtEn= 0.00D+00
 Coeff-Com: -0.144D-03-0.984D-04 0.389D-02 0.963D-02 0.324D-01 0.987D-01
 Coeff-Com:  0.235D+00 0.621D+00
 Coeff:     -0.144D-03-0.984D-04 0.389D-02 0.963D-02 0.324D-01 0.987D-01
 Coeff:      0.235D+00 0.621D+00
 Gap=     0.147 Goal=   None    Shift=    0.000
 RMSDP=9.77D-07 MaxDP=9.77D-05 DE=-4.42D-06 OVMax= 1.46D-04

 Cycle   9  Pass 1  IDiag  1:
 RMSU=  7.21D-07    CP:  9.57D-01  9.92D-01  7.74D-01  6.28D-01  5.94D-01
                    CP:  6.79D-01  6.19D-01  7.32D-01
 E= -1328.99836744741     Delta-E=       -0.000000172959 Rises=F Damp=F
 DIIS: error= 4.65D-06 at cycle   9 NSaved=   9.
 NSaved= 9 IEnMin= 9 EnMin= -1328.99836744741     IErMin= 9 ErrMin= 4.65D-06
 ErrMax= 4.65D-06  0.00D+00 EMaxC= 1.00D-01 BMatC= 4.14D-08 BMatP= 2.13D-07
 IDIUse=1 WtCom= 1.00D+00 WtEn= 0.00D+00
 Coeff-Com:  0.688D-05-0.114D-03-0.333D-03-0.530D-03 0.172D-02 0.139D-01
 Coeff-Com:  0.633D-01 0.349D+00 0.573D+00
 Coeff:      0.688D-05-0.114D-03-0.333D-03-0.530D-03 0.172D-02 0.139D-01
 Coeff:      0.633D-01 0.349D+00 0.573D+00
 Gap=     0.147 Goal=   None    Shift=    0.000
 RMSDP=3.71D-07 MaxDP=4.22D-05 DE=-1.73D-07 OVMax= 5.12D-05

 Cycle  10  Pass 1  IDiag  1:
 RMSU=  2.28D-07    CP:  9.57D-01  9.92D-01  7.74D-01  6.28D-01  5.95D-01
                    CP:  6.81D-01  6.22D-01  8.05D-01  6.75D-01
 E= -1328.99836748534     Delta-E=       -0.000000037930 Rises=F Damp=F
 DIIS: error= 2.37D-06 at cycle  10 NSaved=  10.
 NSaved=10 IEnMin=10 EnMin= -1328.99836748534     IErMin=10 ErrMin= 2.37D-06
 ErrMax= 2.37D-06  0.00D+00 EMaxC= 1.00D-01 BMatC= 3.89D-09 BMatP= 4.14D-08
 IDIUse=1 WtCom= 1.00D+00 WtEn= 0.00D+00
 Coeff-Com:  0.145D-04-0.571D-04-0.482D-03-0.104D-02-0.142D-02 0.630D-03
 Coeff-Com:  0.181D-01 0.151D+00 0.321D+00 0.513D+00
 Coeff:      0.145D-04-0.571D-04-0.482D-03-0.104D-02-0.142D-02 0.630D-03
 Coeff:      0.181D-01 0.151D+00 0.321D+00 0.513D+00
 Gap=     0.147 Goal=   None    Shift=    0.000
 RMSDP=1.21D-07 MaxDP=1.29D-05 DE=-3.79D-08 OVMax= 1.74D-05

 Cycle  11  Pass 1  IDiag  1:
 RMSU=  7.91D-08    CP:  9.57D-01  9.92D-01  7.74D-01  6.28D-01  5.95D-01
                    CP:  6.82D-01  6.24D-01  8.16D-01  7.31D-01  6.70D-01
 E= -1328.99836748858     Delta-E=       -0.000000003243 Rises=F Damp=F
 DIIS: error= 8.97D-07 at cycle  11 NSaved=  11.
 NSaved=11 IEnMin=11 EnMin= -1328.99836748858     IErMin=11 ErrMin= 8.97D-07
 ErrMax= 8.97D-07  0.00D+00 EMaxC= 1.00D-01 BMatC= 3.70D-10 BMatP= 3.89D-09
 IDIUse=1 WtCom= 1.00D+00 WtEn= 0.00D+00
 Coeff-Com:  0.559D-05-0.974D-05-0.194D-03-0.467D-03-0.980D-03-0.159D-02
 Coeff-Com:  0.428D-03 0.283D-01 0.844D-01 0.268D+00 0.622D+00
 Coeff:      0.559D-05-0.974D-05-0.194D-03-0.467D-03-0.980D-03-0.159D-02
 Coeff:      0.428D-03 0.283D-01 0.844D-01 0.268D+00 0.622D+00
 Gap=     0.147 Goal=   None    Shift=    0.000
 RMSDP=3.81D-08 MaxDP=3.99D-06 DE=-3.24D-09 OVMax= 6.64D-06

 Cycle  12  Pass 1  IDiag  1:
 RMSU=  2.31D-08    CP:  9.57D-01  9.92D-01  7.74D-01  6.28D-01  5.95D-01
                    CP:  6.82D-01  6.24D-01  8.20D-01  7.39D-01  7.43D-01
                    CP:  7.05D-01
 E= -1328.99836748894     Delta-E=       -0.000000000363 Rises=F Damp=F
 DIIS: error= 2.29D-07 at cycle  12 NSaved=  12.
 NSaved=12 IEnMin=12 EnMin= -1328.99836748894     IErMin=12 ErrMin= 2.29D-07
 ErrMax= 2.29D-07  0.00D+00 EMaxC= 1.00D-01 BMatC= 3.51D-11 BMatP= 3.70D-10
 IDIUse=1 WtCom= 1.00D+00 WtEn= 0.00D+00
 Coeff-Com:  0.167D-05-0.442D-06-0.606D-04-0.159D-03-0.381D-03-0.836D-03
 Coeff-Com: -0.118D-02 0.240D-02 0.174D-01 0.893D-01 0.314D+00 0.580D+00
 Coeff:      0.167D-05-0.442D-06-0.606D-04-0.159D-03-0.381D-03-0.836D-03
 Coeff:     -0.118D-02 0.240D-02 0.174D-01 0.893D-01 0.314D+00 0.580D+00
 Gap=     0.147 Goal=   None    Shift=    0.000
 RMSDP=1.30D-08 MaxDP=9.38D-07 DE=-3.63D-10 OVMax= 2.24D-06

 Cycle  13  Pass 1  IDiag  1:
 RMSU=  9.20D-09    CP:  9.57D-01  9.92D-01  7.74D-01  6.28D-01  5.95D-01
                    CP:  6.82D-01  6.24D-01  8.20D-01  7.41D-01  7.52D-01
                    CP:  7.76D-01  7.41D-01
 E= -1328.99836748901     Delta-E=       -0.000000000070 Rises=F Damp=F
 DIIS: error= 7.58D-08 at cycle  13 NSaved=  13.
 NSaved=13 IEnMin=13 EnMin= -1328.99836748901     IErMin=13 ErrMin= 7.58D-08
 ErrMax= 7.58D-08  0.00D+00 EMaxC= 1.00D-01 BMatC= 4.62D-12 BMatP= 3.51D-11
 IDIUse=1 WtCom= 1.00D+00 WtEn= 0.00D+00
 Coeff-Com: -0.258D-06 0.163D-05 0.737D-05 0.876D-05-0.378D-05-0.128D-03
 Coeff-Com: -0.741D-03-0.471D-02-0.803D-02-0.862D-02 0.455D-01 0.293D+00
 Coeff-Com:  0.683D+00
 Coeff:     -0.258D-06 0.163D-05 0.737D-05 0.876D-05-0.378D-05-0.128D-03
 Coeff:     -0.741D-03-0.471D-02-0.803D-02-0.862D-02 0.455D-01 0.293D+00
 Coeff:      0.683D+00
 Gap=     0.147 Goal=   None    Shift=    0.000
 RMSDP=4.82D-09 MaxDP=3.32D-07 DE=-7.00D-11 OVMax= 1.26D-06

 Error on total polarization charges =  0.04717
 SCF Done:  E(RB3LYP) =  -1328.99836749     A.U. after   13 cycles
            NFock= 13  Conv=0.48D-08     -V/T= 2.0096
 KE= 1.316360599128D+03 PE=-9.417076596374D+03 EE= 3.603746135179D+03
 Leave Link  502 at Fri Dec 21 13:55:13 2018, MaxMem=  1342177280 cpu:            1728.9 elap:             112.1
 (Enter /gpfs/apps/hpc/Apps/Restricted/Gaussian/Rev_A.03/g16/l601.exe)
 Copying SCF densities to generalized density rwf, IOpCl= 0 IROHF=0.

 **********************************************************************

            Population analysis using the SCF density.

 **********************************************************************

 Alpha  occ. eigenvalues --  -19.15723 -14.38658 -14.33363 -14.32906 -10.27034
 Alpha  occ. eigenvalues --  -10.24971 -10.23192 -10.22984 -10.21932 -10.20787
 Alpha  occ. eigenvalues --  -10.20392 -10.20207 -10.19680 -10.19600 -10.19599
 Alpha  occ. eigenvalues --  -10.19493 -10.19101 -10.18878 -10.18750 -10.18410
 Alpha  occ. eigenvalues --  -10.18128 -10.17619 -10.17452 -10.17430 -10.17411
 Alpha  occ. eigenvalues --  -10.17249 -10.16666 -10.16663 -10.16593 -10.16406
 Alpha  occ. eigenvalues --  -10.16003 -10.15993  -1.04747  -1.02256  -0.92396
 Alpha  occ. eigenvalues --   -0.88478  -0.86292  -0.85209  -0.81945  -0.81845
 Alpha  occ. eigenvalues --   -0.80484  -0.76568  -0.76235  -0.73680  -0.72736
 Alpha  occ. eigenvalues --   -0.72389  -0.72015  -0.68282  -0.67784  -0.67579
 Alpha  occ. eigenvalues --   -0.67321  -0.65468  -0.63865  -0.62076  -0.61519
 Alpha  occ. eigenvalues --   -0.60485  -0.60409  -0.59441  -0.57780  -0.55734
 Alpha  occ. eigenvalues --   -0.54811  -0.53469  -0.52122  -0.50997  -0.50583
 Alpha  occ. eigenvalues --   -0.49008  -0.47659  -0.47236  -0.46334  -0.45703
 Alpha  occ. eigenvalues --   -0.45639  -0.44766  -0.44542  -0.43756  -0.43401
 Alpha  occ. eigenvalues --   -0.43270  -0.42740  -0.42522  -0.42344  -0.41796
 Alpha  occ. eigenvalues --   -0.41164  -0.41087  -0.40991  -0.39942  -0.38974
 Alpha  occ. eigenvalues --   -0.38603  -0.37791  -0.37534  -0.37360  -0.37114
 Alpha  occ. eigenvalues --   -0.37072  -0.36778  -0.36529  -0.35990  -0.35896
 Alpha  occ. eigenvalues --   -0.35780  -0.35112  -0.34240  -0.33744  -0.33410
 Alpha  occ. eigenvalues --   -0.33247  -0.32932  -0.32268  -0.31901  -0.31539
 Alpha  occ. eigenvalues --   -0.31471  -0.31262  -0.31180  -0.30582  -0.30333
 Alpha  occ. eigenvalues --   -0.28500  -0.28273  -0.26628  -0.25154  -0.22833
 Alpha  occ. eigenvalues --   -0.22379  -0.20494
 Alpha virt. eigenvalues --   -0.05814  -0.02408   0.01024   0.01726   0.04632
 Alpha virt. eigenvalues --    0.07463   0.07853   0.09393   0.09873   0.10235
 Alpha virt. eigenvalues --    0.11013   0.11334   0.12888   0.13168   0.13788
 Alpha virt. eigenvalues --    0.13937   0.14344   0.14787   0.15321   0.15805
 Alpha virt. eigenvalues --    0.16218   0.16335   0.16639   0.16696   0.16878
 Alpha virt. eigenvalues --    0.17316   0.17486   0.17697   0.17949   0.18153
 Alpha virt. eigenvalues --    0.18340   0.18590   0.18647   0.18911   0.19113
 Alpha virt. eigenvalues --    0.19219   0.19525   0.19902   0.20643   0.20849
 Alpha virt. eigenvalues --    0.21117   0.21478   0.21623   0.21937   0.22563
 Alpha virt. eigenvalues --    0.22790   0.23217   0.23368   0.23954   0.24426
 Alpha virt. eigenvalues --    0.24529   0.24758   0.25056   0.25621   0.26158
 Alpha virt. eigenvalues --    0.26335   0.26743   0.26868   0.27146   0.28045
 Alpha virt. eigenvalues --    0.28705   0.28781   0.29420   0.29806   0.31609
 Alpha virt. eigenvalues --    0.32703   0.33274   0.35813   0.36211   0.37390
 Alpha virt. eigenvalues --    0.38535   0.39988   0.41054   0.41752   0.43515
 Alpha virt. eigenvalues --    0.46202   0.47610   0.48130   0.49625   0.49751
 Alpha virt. eigenvalues --    0.50270   0.50512   0.50899   0.51315   0.51741
 Alpha virt. eigenvalues --    0.51819   0.52398   0.52886   0.53311   0.53794
 Alpha virt. eigenvalues --    0.53877   0.54215   0.54534   0.54615   0.55292
 Alpha virt. eigenvalues --    0.55501   0.55905   0.55996   0.56746   0.57793
 Alpha virt. eigenvalues --    0.58499   0.59062   0.59209   0.59648   0.60120
 Alpha virt. eigenvalues --    0.60504   0.61069   0.61162   0.62066   0.62114
 Alpha virt. eigenvalues --    0.62274   0.62556   0.62704   0.63273   0.63619
 Alpha virt. eigenvalues --    0.63985   0.64367   0.65483   0.65623   0.66719
 Alpha virt. eigenvalues --    0.67310   0.67643   0.68314   0.69138   0.69415
 Alpha virt. eigenvalues --    0.70582   0.70705   0.71191   0.71925   0.72345
 Alpha virt. eigenvalues --    0.72669   0.73383   0.73781   0.74108   0.75753
 Alpha virt. eigenvalues --    0.77224   0.77305   0.77830   0.78709   0.79118
 Alpha virt. eigenvalues --    0.79721   0.80453   0.81170   0.81841   0.82082
 Alpha virt. eigenvalues --    0.82681   0.83016   0.83151   0.83484   0.84253
 Alpha virt. eigenvalues --    0.84589   0.85034   0.85791   0.85831   0.86337
 Alpha virt. eigenvalues --    0.86575   0.86994   0.87214   0.87604   0.87717
 Alpha virt. eigenvalues --    0.88074   0.88316   0.88662   0.88898   0.89216
 Alpha virt. eigenvalues --    0.89678   0.89785   0.89837   0.90011   0.90316
 Alpha virt. eigenvalues --    0.91219   0.91236   0.91725   0.92131   0.92301
 Alpha virt. eigenvalues --    0.92429   0.92964   0.93485   0.93842   0.94379
 Alpha virt. eigenvalues --    0.94723   0.95120   0.95304   0.95411   0.95611
 Alpha virt. eigenvalues --    0.96803   0.97057   0.97357   0.97983   0.98602
 Alpha virt. eigenvalues --    0.98838   0.99435   0.99982   1.00611   1.02554
 Alpha virt. eigenvalues --    1.04159   1.04421   1.06035   1.08017   1.08588
 Alpha virt. eigenvalues --    1.08749   1.10483   1.11973   1.12898   1.14647
 Alpha virt. eigenvalues --    1.15725   1.16644   1.17008   1.17632   1.19638
 Alpha virt. eigenvalues --    1.20359   1.21327   1.22134   1.22367   1.23992
 Alpha virt. eigenvalues --    1.24522   1.25424   1.26460   1.26905   1.27421
 Alpha virt. eigenvalues --    1.27630   1.28450   1.28772   1.29388   1.30917
 Alpha virt. eigenvalues --    1.31293   1.33009   1.33989   1.36073   1.36754
 Alpha virt. eigenvalues --    1.37889   1.38324   1.39808   1.39942   1.40346
 Alpha virt. eigenvalues --    1.40936   1.41172   1.41693   1.43135   1.43882
 Alpha virt. eigenvalues --    1.45594   1.45914   1.47150   1.48450   1.48603
 Alpha virt. eigenvalues --    1.49792   1.50812   1.50980   1.51139   1.52053
 Alpha virt. eigenvalues --    1.52518   1.53245   1.54747   1.54917   1.55747
 Alpha virt. eigenvalues --    1.55945   1.58215   1.60452   1.61123   1.61585
 Alpha virt. eigenvalues --    1.61900   1.63272   1.64738   1.65530   1.69695
 Alpha virt. eigenvalues --    1.70758   1.72102   1.73020   1.73468   1.74191
 Alpha virt. eigenvalues --    1.74819   1.76373   1.77706   1.78093   1.79255
 Alpha virt. eigenvalues --    1.79729   1.80269   1.80733   1.80958   1.81598
 Alpha virt. eigenvalues --    1.82144   1.83057   1.83267   1.83720   1.84135
 Alpha virt. eigenvalues --    1.84372   1.84986   1.85500   1.86350   1.86491
[...]
 00004,0.00000255,0.00000279,0.00000165,0.00002546,0.00003911,0.0000029
 2,0.00000451,0.00000783,-0.00000001,0.00032940,-0.00012798,0.00004303,
 0.00000896,-0.00000079,0.00000325,-0.00027568,0.00167805,-0.00162444,0
 .00005004,-0.00004651,0.00012483,-0.00039515,0.00014895,0.00001548,0.0
 0036665,-0.00034841,0.00055789,-0.00067514,-0.00725043,0.00137074,0.00
 137242,-0.00068982,-0.00192909,0.00005894,0.00024217,0.00029734,-0.000
 25155,0.00015066,-0.00001062,0.05116819,-0.08464364,-0.07408359,-0.057
 53612,0.09189465,0.00000591,0.00002139,-0.00000026,-0.00000696,0.00002
 344,-0.00000015,0.00000388,-0.00002175,0.00000094,0.00002336,0.0000120
 3,0.00000136,-0.00001574,0.00002068,-0.00000182,-0.00000620,-0.0000177
 9,0.00000087,-0.00002438,-0.00009272,0.00000065,-0.00000151,0.00000049
 ,-0.00000035,0.00000016,0.00000175,-0.00000015,0.00000035,0.00000097,-
 0.00000023,-0.00002633,0.00001266,-0.00000190,-0.00015467,-0.00017209,
 -0.00008157,0.00005090,0.00005521,0.00002409,0.00012551,0.00001024,-0.
 00006967,-0.00014169,0.00044965,0.00002263,0.00082921,-0.00056228,0.00
 027525,0.00042131,-0.00001729,0.00014127,0.00001804,0.00006073,-0.0000
 0111,-0.00099609,0.00038375,-0.00043987,-0.00004370,0.00001662,0.00003
 880,-0.00116914,0.00046931,-0.00046982,-0.00013560,0.00006074,0.000038
 06,0.00000137,0.00002866,0.00000361,0.00000914,0.00000181,0.00000169,-
 0.00000769,-0.00000511,-0.00000253,-0.00000566,-0.00000062,-0.00000048
 ,0.00000114,0.00000095,-0.00000011,0.00000411,-0.00000037,0.00000127,-
 0.00000119,-0.00000006,-0.00000077,0.00000037,-0.00000063,0.00000047,0
 .00000057,-0.00000057,-0.00000061,0.00000026,0.00000010,-0.00000017,-0
 .00000013,-0.00000023,-0.00000019,-0.00000004,0.00000038,-0.00000007,0
 .00000021,0.00000016,0.00000048,-0.00000006,0.00000011,0.00000029,-0.0
 0000006,0.00000024,-0.00000003,-0.00000009,0.,0.00000036,-0.00000008,-
 0.00000032,-0.00000011,0.00000020,-0.00000006,0.00000003,-0.00000013,0
 .00000027,-0.00000016,0.00000041,0.00000023,0.00000023,-0.00000006,0.0
 0000004,-0.00000017,0.00000017,0.00000002,0.00000008,-0.00000002,0.000
 00030,-0.00000001,0.00000249,-0.00000799,0.00001466,0.00000288,0.00000
 690,-0.00000111,0.00001005,-0.00000191,-0.00000728,0.00000518,0.000000
 68,0.00000456,0.00001548,-0.00000610,-0.00002625,-0.00000218,-0.000001
 17,0.00000358,0.00001071,-0.00000105,0.00001057,0.00000447,0.00000690,
 0.00000443,-0.00001427,-0.00001310,-0.00003816,-0.00000685,0.00000035,
 -0.00001319,0.00025046,0.00008886,0.00013151,0.00002197,-0.00000517,0.
 00000869,-0.00037700,0.00064846,0.00079670,-0.00004507,-0.00003257,-0.
 00001124,-0.00009830,-0.00013092,0.00021868,0.00026195,-0.00014183,0.0
 0032039,-0.00048869,-0.00095471,0.00102709,0.00038247,0.00002990,0.000
 04512,-0.00000170,0.00021883,-0.00001424,-0.00005037,0.00016609,0.0002
 9258,0.10578366,-0.07585941,-0.20492734,-0.11726333,0.08343675,0.21953
 909,0.00001237,0.00000617,0.00000310,-0.00000098,-0.00000078,-0.000003
 09,0.00000282,-0.00000906,0.00000096,0.00000997,0.00000614,0.00000043,
 -0.00000591,0.00000999,-0.00000040,-0.00000087,-0.00000662,0.00000022,
 0.00000573,-0.00003539,0.00000453,-0.00000099,-0.00000012,-0.00000031,
 0.00000007,0.00000127,-0.00000008,0.00000042,0.00000100,-0.00000025,0.
 00000956,0.00003335,0.00000373,0.00023301,-0.00002756,-0.00001702,-0.0
 0002723,0.00003950,-0.00002110,0.00004771,0.00004057,-0.00002372,0.000
 02562,-0.00005848,-0.00003773,-0.00089419,-0.00043298,0.00076070,0.000
 11424,0.00000528,0.00025286,0.00000873,0.00000623,-0.00000825,-0.00145
 510,-0.00093525,0.00045581,-0.00000219,0.00000815,0.00004321,-0.001371
 44,-0.00026110,0.00084211,-0.00003193,0.00016036,0.00005229,-0.0000261
 3,-0.00006160,0.00000719,0.00001133,0.00002220,-0.00000307,-0.00000636
 ,-0.00000260,-0.00000168,-0.00000632,0.00000091,-0.00000053,0.00000114
 ,0.00000091,-0.00000006,0.00000492,-0.00000140,0.00000090,-0.00000214,
 0.00000096,-0.00000103,0.00000065,-0.00000033,0.00000092,0.00000081,-0
 .00000069,-0.00000052,0.00000044,-0.00000017,0.00000011,-0.00000033,0.
 00000015,-0.00000047,-0.00000002,0.00000010,-0.00000008,-0.00000001,0.
 00000015,0.00000028,-0.00000027,0.00000041,0.00000025,-0.00000010,0.00
 000003,0.00000003,-0.00000010,0.00000002,0.00000016,-0.00000005,-0.000
 00028,0.,0.00000037,-0.00000003,-0.00000012,0.,-0.00000002,0.00000003,
 0.00000047,0.00000019,0.00000019,0.00000003,-0.00000014,-0.00000007,0.
 00000036,0.00000003,0.00000003,-0.00000006,0.00000012,0.,-0.00000177,0
 .00000515,0.00000740,0.00000064,-0.00000051,-0.00000138,0.00000322,-0.
 00000301,-0.00000190,-0.00000030,0.00000051,-0.00000170,0.00001277,-0.
 00000733,-0.00000729,-0.00000135,-0.00000055,0.00000141,0.00000646,-0.
 00000145,0.00000597,-0.00000079,0.00000137,0.00000008,0.00001234,-0.00
 005207,0.00001212,0.00009968,0.00021581,0.00015233,-0.00000929,0.00001
 437,0.00000734,0.00001350,0.00000017,-0.00000573,0.00032061,0.00075431
 ,0.00039048,0.00037692,-0.00003286,0.00026591,0.00041122,0.00000400,-0
 .00036990,0.00000828,-0.00012234,-0.00027201,-0.00009655,0.00014469,-0
 .00041126,-0.00003728,-0.00006329,0.00016533,-0.00005991,0.00001345,-0
 .00003807,0.00013837,0.00018019,0.00011067,-0.08544542,0.03665935,-0.0
 8950439,0.00676867,-0.00688142,0.01482638,0.09128255,-0.00000312,0.000
 00730,-0.00000313,-0.00000545,0.00001667,-0.00000055,0.00000103,-0.000
 00812,-0.00000004,0.00000804,0.00000355,-0.00000016,-0.00000561,0.0000
 0605,-0.00000048,-0.00000400,-0.00000586,-0.00000137,0.00000378,-0.000
 01805,0.00004382,-0.00000039,0.00000035,0.00000047,-0.00000001,0.00000
 037,0.00000022,-0.00000004,0.00000010,0.00000054,-0.00002119,-0.000026
 41,-0.00000709,0.00008784,-0.00034534,-0.00024839,0.00018105,0.0000173
 5,0.00003846,-0.00006038,0.00019883,-0.00001145,-0.00023565,0.00000737
 ,-0.00004695,-0.00017269,0.00007230,-0.00025348,0.00104777,0.00136109,
 0.00014851,-0.00000067,0.00001566,0.00000498,-0.00091640,0.00015000,0.
 00024477,-0.00000942,-0.00000722,0.00001353,0.01352168,-0.00926671,0.0
 2809084,-0.00015931,0.00002889,-0.00011447,0.00000436,0.00007603,-0.00
 000170,-0.00000757,-0.00000424,-0.00000457,-0.00000150,-0.00000126,0.0
 0000247,0.00000043,-0.00000157,0.00000004,0.,0.00000025,0.00000024,0.,
 0.00000125,-0.00000099,0.00000008,-0.00000077,0.00000056,-0.00000011,-
 0.00000006,0.00000016,-0.00000014,-0.00000002,0.00000021,-0.00000022,0
 .00000034,-0.00000013,0.,-0.00000020,0.00000009,0.00000004,0.00000028,
 -0.00000010,0.,-0.00000015,0.00000002,-0.00000005,-0.00000023,0.000000
 05,0.00000002,0.00000023,-0.00000006,0.00000007,-0.00000012,-0.0000002
 4,-0.00000001,-0.00000006,0.00000012,0.00000011,0.00000001,-0.00000017
 ,-0.00000012,0.00000017,-0.00000002,0.00000003,0.00000002,0.,-0.000000
 09,0.00000018,-0.00000008,0.00000006,-0.00000004,-0.00000004,0.,0.0000
 0017,-0.00000008,-0.00000766,0.00000293,0.00000282,0.00000273,0.000002
 52,-0.00000173,0.00000048,0.00000120,0.00000119,-0.00000043,-0.0000000
 8,-0.00000053,-0.00000198,-0.00000433,0.00000163,-0.00000082,0.0000012
 6,-0.00000240,0.00000223,0.00000063,-0.00000019,0.00000163,0.00000210,
 0.00000074,-0.00008902,-0.00003912,0.00000829,0.00025717,0.00002563,-0
 .00010728,-0.00000679,-0.00002449,0.00000649,0.00000733,0.,-0.00000138
 ,-0.00057809,-0.00727202,-0.00108052,0.00012132,0.00021423,-0.00028135
 ,0.00107195,-0.00061593,0.00212841,-0.00025642,0.00016006,-0.00004675,
 -0.00029623,0.00130385,0.00144707,-0.00037337,0.00014245,-0.00005702,0
 .00007552,-0.00001252,-0.00014455,-0.00001025,-0.00028010,-0.00065145,
 0.03613960,-0.07571399,0.07549957,-0.00586941,0.00415834,-0.01021327,-
 0.04003185,0.08257728,-0.00000340,-0.00002011,0.00000093,0.00000664,-0
 .00002375,0.00000280,-0.00000333,0.00002006,-0.00000095,-0.00002151,-0
 .00001083,-0.00000056,0.00001462,-0.00001875,0.00000164,0.00000601,0.0
 0001654,0.,0.00002478,0.00008481,0.00000084,0.00000135,-0.00000053,-0.
 00000011,-0.00000013,-0.00000151,-0.00000017,-0.00000025,-0.00000078,-
 0.00000016,0.00002820,-0.00000509,0.00000186,0.00020418,0.00018127,-0.
 00005854,-0.00006813,-0.00004520,0.00000910,-0.00009740,-0.00001702,-0
 .00008979,0.00015596,-0.00043875,0.00004711,-0.00083356,0.00062198,0.0
 0042100,-0.00046156,-0.00002268,0.00009471,-0.00001570,-0.00005794,-0.
 00000346,0.00033906,-0.00077125,-0.00011207,0.00003855,-0.00001109,0.0
 0004822,0.00058561,-0.00041568,-0.00096793,0.00012559,-0.00003145,0.00
 007559,-0.00000691,-0.00004213,0.00000673,-0.00000652,0.00000263,-0.00
 000027,0.00000660,0.00000445,-0.00000284,0.00000441,0.00000078,0.00000
 015,-0.00000090,-0.00000076,-0.00000029,-0.00000312,0.00000021,0.00000
 085,0.00000075,0.00000045,-0.00000027,-0.00000044,0.00000017,-0.000000
 93,-0.00000036,0.00000044,0.00000014,-0.00000008,-0.00000035,0.0000001
 4,0.00000003,0.00000035,0.00000015,0.,-0.00000050,0.00000017,0.0000000
 4,0.00000027,-0.00000010,0.00000006,0.00000021,-0.00000032,0.00000005,
 -0.00000034,0.00000007,-0.00000007,0.00000015,0.00000018,0.00000004,0.
 00000018,-0.00000015,-0.00000035,0.,0.00000026,0.00000017,-0.00000032,
 0.00000005,-0.00000023,-0.00000006,-0.00000004,0.00000011,-0.00000028,
 0.00000016,-0.00000008,0.00000005,0.00000003,0.00000001,-0.00000032,0.
 00000012,-0.00001384,0.00000535,-0.00002660,-0.00000469,-0.00000701,0.
 00000407,-0.00001078,0.00000082,0.00000958,0.00000184,0.00000164,0.000
 00305,-0.00000138,0.00000709,0.00001166,-0.00000026,0.00000097,0.00000
 236,-0.00000780,0.00000126,-0.00000666,-0.00000283,-0.00000644,-0.0000
 0163,0.00000861,0.00000371,-0.00002295,0.00020215,-0.00009644,0.000140
 16,-0.00000514,-0.00001909,-0.00001302,-0.00001991,0.00000536,0.000001
 98,0.00043247,0.00139974,0.00109765,0.00002542,-0.00022090,0.00003364,
 -0.00038087,-0.00000077,-0.00012731,0.00000035,-0.00016412,0.00030580,
 0.00047088,-0.00083683,0.00063858,0.00007213,0.00013274,0.00025321,0.0
 0005821,-0.00000716,0.00000401,-0.00017254,0.00009435,0.00015157,-0.08
 858347,0.07751564,-0.24087269,-0.01030163,0.00828930,-0.01946536,0.098
 18405,-0.08491432,0.25939834,-0.00003647,-0.00003414,-0.00000107,0.000
 01527,-0.00002409,0.00000258,-0.00001048,0.00004561,-0.00000234,-0.000
 04992,-0.00002753,-0.00000206,0.00003198,-0.00004706,0.00000381,0.0000
 0853,0.00003608,-0.00000141,0.00001469,0.00022886,-0.00000021,0.000003
 75,0.,0.00000033,-0.00000029,-0.00000483,0.00000004,-0.00000132,-0.000
 00341,0.00000018,0.00002059,-0.00008643,0.00000173,-0.00034273,0.00044
 849,-0.00005639,0.00001820,-0.00023037,0.00000472,-0.00021750,0.000035
 61,-0.00001422,0.00010863,-0.00035656,0.00000359,-0.00026039,0.0003714
 5,-0.00005155,0.00083837,0.00029848,0.00003972,-0.00002622,-0.00005578
 ,0.00000072,0.00019288,-0.00073327,0.00004835,0.00005128,-0.00006529,0
 .00000213,-0.00085194,0.00085618,0.00010133,0.00025566,-0.00025401,0.0
 0002330,0.00003973,0.00008525,0.00000192,-0.00003929,-0.00005530,-0.00
 000150,0.00002407,0.00001053,0.00000074,0.00002276,-0.00000165,0.00000
 177,-0.00000387,-0.00000311,-0.00000014,-0.00001684,0.00000497,-0.0000
 0184,0.00000696,-0.00000289,0.00000291,-0.00000233,0.00000114,-0.00000
 359,-0.00000261,0.00000245,0.00000138,-0.00000144,0.00000032,-0.000000
 32,0.00000101,-0.00000038,0.00000159,0.00000004,-0.00000062,0.00000033
 ,0.00000016,-0.00000020,-0.00000083,0.00000087,-0.00000114,-0.00000092
 ,0.00000034,-0.00000030,-0.00000003,0.00000017,0.00000004,-0.00000013,
 0.00000017,0.00000097,-0.00000021,-0.00000141,0.00000012,0.00000062,0.
 00000009,-0.00000013,-0.00000012,-0.00000149,-0.00000050,-0.00000053,-
 0.00000002,0.00000017,0.00000028,-0.00000113,-0.00000007,-0.00000002,0
 .00000018,-0.00000057,0.00000012,-0.00001857,0.00002582,-0.00003333,0.
 00000327,-0.00000398,-0.00000083,-0.00002315,0.00000710,0.00001808,0.0
 0000461,0.00000015,0.00000187,-0.00002235,0.00002768,0.00003101,0.0000
 0444,0.00000005,-0.00000261,-0.00002179,0.00000598,-0.00001963,0.00000
 328,-0.00000349,0.00000013,-0.00001835,0.00000488,0.00000591,0.0000086
 9,-0.00000959,0.00002008,0.00001165,-0.00001244,-0.00002186,-0.0000253
 4,0.00001322,-0.00000370,0.00009377,0.00071731,-0.00026716,0.00057537,
 -0.00003541,0.00041975,0.00037008,0.00000674,0.00008255,-0.00000104,-0
 .00003717,-0.00002010,0.00029429,0.00089230,0.00024807,0.00038253,-0.0
 0000536,-0.00001383,0.00041133,-0.00007148,-0.00047315,0.00000372,-0.0
 0002254,0.00003338,-0.28674193,-0.08237624,-0.01808133,-0.01428360,-0.
 00492319,-0.00198976,-0.01046063,-0.00340990,0.00003021,0.30966106,-0.
 00006493,-0.00003581,-0.00000173,0.00001560,-0.00001438,0.00000183,-0.
 00001302,0.00004450,-0.00000246,-0.00004837,-0.00002953,-0.00000182,0.
 00002893,-0.00004852,0.00000358,0.00001008,0.00003128,-0.00000047,-0.0
 0014609,0.00023907,-0.00002182,0.00000445,-0.00000071,0.00000040,-0.00
 000055,-0.00000529,0.00000005,-0.00000106,-0.00000436,0.00000009,0.000
 00916,-0.00010881,0.00000219,-0.00221913,0.00027808,-0.00015677,0.0001
 9953,-0.00072468,0.00002181,-0.00003927,0.00010776,-0.00000296,-0.0002
 3114,0.00017868,-0.00002109,0.00122563,-0.00069424,0.00009831,0.001800
 35,-0.00617341,0.00024758,-0.00002362,0.00002574,-0.00000139,0.0000942
 2,0.00050868,-0.00000582,-0.00000451,-0.00006888,0.00000296,-0.0308231
 4,-0.01275085,-0.00230328,0.00023070,-0.00016125,0.00001917,0.00005346
 ,0.00014949,0.00000122,-0.00004048,-0.00012611,0.00000075,0.00002728,0
 .00000581,0.00000068,0.00002634,-0.00000448,0.00000213,-0.00000451,-0.
 00000299,-0.00000015,-0.00001944,0.00000813,-0.00000232,0.00000732,-0.
 00000496,0.00000352,-0.00000310,0.00000075,-0.00000429,-0.00000316,0.0
 0000266,0.00000156,-0.00000203,0.00000087,-0.00000067,0.00000083,-0.00
 000068,0.00000212,0.00000006,-0.00000034,0.00000024,0.00000042,-0.0000
 0002,-0.00000038,0.00000071,-0.00000150,-0.00000101,0.00000040,0.00000
 003,-0.00000010,0.00000023,-0.00000007,-0.00000023,0.00000010,0.000000
 77,-0.00000025,-0.00000143,0.00000016,0.00000047,-0.00000008,0.0000001
 3,-0.00000020,-0.00000138,-0.00000027,-0.00000035,-0.00000017,0.000000
 29,0.00000012,-0.00000082,-0.00000011,0.00000004,0.00000013,-0.0000002
 9,0.00000007,-0.00002209,0.00002650,-0.00002448,0.00000866,0.00000322,
 -0.00000483,-0.00001684,0.00000724,0.00001455,0.00000286,-0.00000009,0
 .00000302,-0.00002192,0.00002770,0.00002124,0.00000276,-0.00000040,-0.
 00000270,-0.00001568,0.00000612,-0.00001488,0.00000849,0.00000387,0.00
 000415,-0.00004604,0.00000388,-0.00000236,-0.00000128,0.00000334,-0.00
 000177,-0.00000373,0.00000258,0.00000070,-0.00000119,0.00001343,-0.000
 00050,-0.00092106,0.00119868,-0.00089477,0.00071227,0.00018850,0.00026
 174,0.00021401,0.00024785,-0.00034425,0.00010087,-0.00001615,0.0001110
 0,-0.00150886,0.00095824,0.00050644,0.00017969,0.00027638,0.00035476,0
 .00072461,0.00013344,-0.00039269,0.00011047,-0.00002200,-0.00007701,-0
 .08053451,-0.07354493,-0.00639505,0.01151780,0.00367879,0.00202444,0.0
 1069374,0.00309172,-0.00018238,0.08877244,0.08309172,-0.00000152,-0.00
 000196,0.00000523,0.00000082,-0.00000168,-0.00000067,-0.00000050,0.000
 00264,-0.00000034,-0.00000292,-0.00000151,0.00000002,0.00000197,-0.000
 00267,-0.00000026,0.00000028,0.00000238,0.00000290,0.00000900,0.000010
 17,-0.00005565,0.00000017,0.00000003,0.00000018,-0.00000002,-0.0000002
 5,0.00000010,-0.00000004,-0.00000019,-0.00000069,0.00000109,-0.0000040
 6,0.00000245,-0.00000682,0.00003596,0.00036164,-0.00000400,-0.00000244
 ,-0.00004128,-0.00000830,-0.00000352,-0.00002728,0.00000726,-0.0000148
 0,0.00011337,-0.00005582,0.00004515,0.00042824,0.00001130,0.00013619,0
 .00036293,0.00000059,-0.00000364,-0.00002071,0.00001874,-0.00006506,-0
 .00037844,0.00000098,-0.00000250,0.00003235,0.00071850,0.00030340,-0.0
 0160675,0.00001460,-0.00001533,0.00000021,0.00000235,0.00000320,-0.000
 00343,-0.00000212,-0.00000056,-0.00000068,0.00000119,0.00000044,-0.000
 00227,0.00000117,-0.00000002,0.00000023,-0.00000020,-0.00000017,0.0000
 0004,-0.00000087,0.00000020,-0.00000027,0.00000038,-0.00000008,0.00000
 025,-0.00000014,0.00000003,-0.00000018,-0.00000013,0.00000011,0.000000
 09,-0.00000007,0.00000001,-0.00000003,0.00000006,-0.00000002,0.0000001
 0,0.,0.,0.00000003,0.,-0.00000003,-0.00000005,0.00000005,-0.00000005,-
 0.00000004,0.00000001,-0.00000002,0.,0.00000002,0.,-0.00000003,0.00000
 001,0.00000005,0.,-0.00000006,0.,0.,0.,0.,-0.00000001,-0.00000009,-0.0
 0000005,-0.00000004,0.,0.00000002,0.00000002,-0.00000007,0.,0.,0.00000
 001,-0.00000002,0.,-0.00000708,0.00000220,-0.00000571,-0.00000015,-0.0
 0000032,0.00000078,-0.00000214,-0.00000009,0.00000269,0.00000028,0.000
 00012,0.00000143,0.00000495,0.00000009,-0.00000147,0.00000020,0.000000
 05,0.00000114,-0.00000033,0.00000083,0.00000057,0.00000025,-0.00000019
 ,0.00000060,-0.00000086,0.00000007,-0.00001680,0.00000626,-0.00000495,
 0.00000751,-0.00000619,0.00000315,0.00000188,-0.00000192,0.00000081,0.
 00000529,0.00048831,0.00037264,0.00006261,-0.00015888,0.00002414,0.000
 09060,0.00004195,-0.00012055,-0.00006625,0.00004665,0.00002755,-0.0000
 0181,-0.00069550,-0.00058179,-0.00012323,0.00002995,0.00010488,-0.0000
 8906,0.00014076,-0.00037405,0.00013773,-0.00003032,-0.00003823,-0.0000
 1582,-0.01800073,-0.00635434,-0.04881607,0.02333243,0.00885217,0.00260
 639,-0.02582629,-0.00948784,-0.00099351,0.01993149,0.00715431,0.048039
 25\\-0.00000090,-0.00000138,-0.00000203,-0.00000161,-0.00000059,-0.000
 00253,-0.00000062,-0.00000103,-0.00000325,-0.00000303,-0.00000051,-0.0
 0000415,-0.00000115,-0.00000020,-0.00000345,-0.00000130,0.00000059,-0.
 00000257,-0.00000086,-0.00000036,-0.00000098,-0.00000216,-0.00000137,-
 0.00000379,-0.00000233,-0.00000090,-0.00000470,-0.00000241,0.00000009,
 -0.00000397,0.00000008,-0.00000162,-0.00000163,0.00000098,-0.00000076,
 0.00000008,0.00000058,-0.00000061,-0.00000018,0.00000011,-0.00000022,0
 .00000081,0.00000057,0.00000035,0.00000156,0.00000192,-0.00000105,0.00
 000169,0.00000060,-0.00000130,0.00000084,0.00000017,0.00000024,0.00000
 067,0.00000149,-0.00000094,0.00000240,0.00000111,-0.00000021,0.0000026
 8,0.00000094,-0.00000170,0.00000078,-0.00000055,-0.00000177,-0.0000006
 8,-0.00000006,-0.00000150,-0.00000138,-0.00000174,0.00000098,-0.000001
 22,0.00000010,0.,-0.00000063,-0.00000197,0.00000075,-0.00000238,-0.000
 00166,0.00000123,-0.00000265,-0.00000036,0.00000064,-0.00000128,-0.000
 00130,0.00000217,-0.00000110,-0.00000081,0.00000019,-0.00000086,-0.000
 00167,0.00000264,-0.00000183,-0.00000053,0.00000141,0.,-0.00000065,0.0
 0000203,-0.00000011,-0.00000109,0.00000082,-0.00000157,-0.00000034,0.0
 0000031,-0.00000035,-0.00000135,0.00000293,-0.00000090,-0.00000170,0.0
 0000182,-0.00000209,-0.00000180,0.00000292,-0.00000120,-0.00000099,0.0
 0000212,-0.00000109,-0.00000041,0.00000078,-0.00000040,-0.00000023,0.0
 0000134,0.00000047,-0.00000177,0.00000370,-0.00000126,-0.00000113,0.00
 000335,-0.00000037,-0.00000104,0.00000265,-0.00000049,-0.00000158,0.00
 000182,-0.00000145,0.00000224,0.00000004,0.00000271,0.00000098,-0.0000
 0054,0.00000182,0.00000136,0.00000031,0.00000311,0.00000164,-0.0000010
 7,0.00000234,0.00000169,0.00000122,0.00000182,0.00000042,0.00000168,0.
 00000291,0.00000089,0.00000198,0.00000304,0.00000057,0.00000159,0.0000
 0185,0.00000176,0.00000036,0.00000385,0.00000187,0.00000052,0.00000321
 ,0.00000210,-0.00000075,0.00000327,0.00000219,0.00000038,0.00000393,0.
 00000087,-0.00000322,0.00000078,0.00000169,-0.00000335,0.00000063,0.00
 000088,-0.00000290,-0.00000016,0.00000157,-0.00000338,0.00000096,0.000
 00114,-0.00000153,0.00000059,0.00000035,-0.00000144,-0.00000033,0.0000
 0067,-0.00000188,0.00000060,0.00000051,-0.00000051,0.00000071,0.000001
 65,-0.00000165,0.00000192,0.00000208,-0.00000218,0.00000244,0.00000166
 ,-0.00000116,0.00000239,0.00000169,-0.00000238,0.00000214\\\@


 MODELS ARE TO BE USED, NOT BELIEVED.

    -- PARAPHRASED BY H. THIEL IN "PRINCIPLES OF ECONOMETRICS"
 Job cpu time:       0 days  7 hours 22 minutes  5.5 seconds.
 Elapsed time:       0 days  0 hours 27 minutes 46.5 seconds.
 File lengths (MBytes):  RWF=   3220 Int=      0 D2E=      0 Chk=     64 Scr=      8
 Normal termination of Gaussian 16 at Fri Dec 21 14:23:20 2018.
