 Entering Gaussian System, Link 0=g16
 Initial command:
 /gpfs/apps/hpc/Apps/Restricted/Gaussian/g16/Rev_B.01-AVX/g16/l1.exe "/gpfs/scratch60/fas/hammes_schiffer/jg2487/c07n12/Gau-4315.inp" -scrdir="/gpfs/scratch60/fas/hammes_schiffer/jg2487/c07n12/"
 Entering Link 1 = /gpfs/apps/hpc/Apps/Restricted/Gaussian/g16/Rev_B.01-AVX/g16/l1.exe PID=      4316.
  
 Copyright (c) 1988-2017, Gaussian, Inc.  All Rights Reserved.
  
 This is part of the Gaussian(R) 16 program.  It is based on
 the Gaussian(R) 09 system (copyright 2009, Gaussian, Inc.),
 the Gaussian(R) 03 system (copyright 2003, Gaussian, Inc.),
 the Gaussian(R) 98 system (copyright 1998, Gaussian, Inc.),
 the Gaussian(R) 94 system (copyright 1995, Gaussian, Inc.),
 the Gaussian 92(TM) system (copyright 1992, Gaussian, Inc.),
 the Gaussian 90(TM) system (copyright 1990, Gaussian, Inc.),
 the Gaussian 88(TM) system (copyright 1988, Gaussian, Inc.),
 the Gaussian 86(TM) system (copyright 1986, Carnegie Mellon
 University), and the Gaussian 82(TM) system (copyright 1983,
 Carnegie Mellon University). Gaussian is a federally registered
 trademark of Gaussian, Inc.
  
 This software contains proprietary and confidential information,
 including trade secrets, belonging to Gaussian, Inc.
  
 This software is provided under written license and may be
 used, copied, transmitted, or stored only in accord with that
 written license.
  
 The following legend is applicable only to US Government
 contracts under FAR:
  
                    RESTRICTED RIGHTS LEGEND
  
 Use, reproduction and disclosure by the US Government is
 subject to restrictions as set forth in subparagraphs (a)
 and (c) of the Commercial Computer Software - Restricted
 Rights clause in FAR 52.227-19.
  
 Gaussian, Inc.
 340 Quinnipiac St., Bldg. 40, Wallingford CT 06492
  
  
 ---------------------------------------------------------------
 Warning -- This program may not be used in any manner that
 competes with the business of Gaussian, Inc. or will provide
 assistance to any competitor of Gaussian, Inc.  The licensee
 of this program is prohibited from giving any competitor of
 Gaussian, Inc. access to this program.  By using this program,
 the user acknowledges that Gaussian, Inc. is engaged in the
 business of creating and licensing software in the field of
 computational chemistry and represents and warrants to the
 licensee that it is not a competitor of Gaussian, Inc. and that
 it will not use this program in any manner prohibited above.
 ---------------------------------------------------------------
  

 Cite this work as:
 Gaussian 16, Revision B.01,
 M. J. Frisch, G. W. Trucks, H. B. Schlegel, G. E. Scuseria, 
 M. A. Robb, J. R. Cheeseman, G. Scalmani, V. Barone, 
 G. A. Petersson, H. Nakatsuji, X. Li, M. Caricato, A. V. Marenich, 
 J. Bloino, B. G. Janesko, R. Gomperts, B. Mennucci, H. P. Hratchian, 
 J. V. Ortiz, A. F. Izmaylov, J. L. Sonnenberg, D. Williams-Young, 
 F. Ding, F. Lipparini, F. Egidi, J. Goings, B. Peng, A. Petrone, 
 T. Henderson, D. Ranasinghe, V. G. Zakrzewski, J. Gao, N. Rega, 
 G. Zheng, W. Liang, M. Hada, M. Ehara, K. Toyota, R. Fukuda, 
 J. Hasegawa, M. Ishida, T. Nakajima, Y. Honda, O. Kitao, H. Nakai, 
 T. Vreven, K. Throssell, J. A. Montgomery, Jr., J. E. Peralta, 
 F. Ogliaro, M. J. Bearpark, J. J. Heyd, E. N. Brothers, K. N. Kudin, 
 V. N. Staroverov, T. A. Keith, R. Kobayashi, J. Normand, 
 K. Raghavachari, A. P. Rendell, J. C. Burant, S. S. Iyengar, 
 J. Tomasi, M. Cossi, J. M. Millam, M. Klene, C. Adamo, R. Cammi, 
 J. W. Ochterski, R. L. Martin, K. Morokuma, O. Farkas, 
 J. B. Foresman, and D. J. Fox, Gaussian, Inc., Wallingford CT, 2016.
 
 ******************************************
 Gaussian 16:  ES64L-G16RevB.01 20-Dec-2017
                 6-Mar-2019 
 ******************************************
 %chk=unsub-monoBIP-E0PT.chk
 %mem=10GB
 %nprocshared=16
 Will use up to   16 processors via shared memory.
 ----------------------------------------------------------------
 #p freq(ReadFC,InternalModes) Geom(AllCheck) NoSymm scale=0.9631
 ----------------------------------------------------------------
 1/18=20,29=7,38=1,114=963100/1,3;
 2/9=110,12=2,15=1,40=1/2;
 7/8=21,25=11,30=1/16;
 99/5=2/99;
 Leave Link    1 at Wed Mar  6 13:38:55 2019, MaxMem=  1342177280 cpu:               6.8 elap:               0.5
 (Enter /gpfs/apps/hpc/Apps/Restricted/Gaussian/g16/Rev_B.01-AVX/g16/l101.exe)
 Structure from the checkpoint file:  "unsub-monoBIP-E0PT.chk"
 --------------------------------------
 Simple unsub-monoBIP E0PT optimization
 --------------------------------------
 Charge =  1 Multiplicity = 2
 Redundant internal coordinates found in file.  (old form).
 C,0,-0.4762796023,2.748976479,0.4536459211
 C,0,-1.8890813469,2.8642938463,0.3035217284
 C,0,-2.491128274,4.128113745,0.1875704304
 C,0,-1.6570854153,5.2318188749,0.2264383762
 C,0,-0.2531064664,5.1016422317,0.3774424632
 C,0,0.3627895716,3.8637980597,0.495842528
 C,0,-1.4191613479,0.7419916196,0.4290692298
 H,0,-3.5630921938,4.2242989516,0.0717252912
 H,0,-2.0812163449,6.2248912719,0.1398388917
 H,0,0.355168079,5.9976672192,0.4011042882
 N,0,-2.434038912,1.6061646201,0.2952945929
 C,0,-2.9927999503,-1.1770999607,0.341193968
 C,0,-1.6225990404,-0.6836111081,0.4451120322
 C,0,-0.5818267046,-1.5927927415,0.5334761537
 C,0,-0.8254319992,-2.9734797497,0.5326161684
 C,0,-2.1692660916,-3.428525083,0.4459477612
 C,0,-3.261320349,-2.5939431739,0.3547054852
 H,0,0.4391252657,-1.2402792807,0.5967880071
 H,0,-2.3377867607,-4.4926506663,0.451893546
 C,0,0.3489786312,-3.9375219534,0.5978825809
 C,0,-4.691386918,-3.1292291455,0.2653108787
 O,0,-3.9812409979,-0.3381491334,0.2274298251
 H,0,-3.6002747534,0.6418591428,0.225931927
 N,0,-0.2241281786,1.3989293529,0.5304665946
 H,0,0.6849950405,0.9751083049,0.6433678073
 C,0,1.2314905227,-3.7022127654,-0.6505748233
 H,0,1.5962077293,-2.673911772,-0.6935645235
 H,0,2.095443521,-4.3703348307,-0.6113449389
 H,0,0.6750504558,-3.9109922013,-1.5671453181
 C,0,1.17988319,-3.6410108817,1.866815427
 H,0,0.5844099591,-3.7967699433,2.7691695742
 H,0,2.0365834309,-4.3186011108,1.8981116144
 H,0,1.5591326861,-2.6169887952,1.87448771
 C,0,-0.0915213531,-5.4069369011,0.6272392443
 H,0,-0.7052988791,-5.6280074,1.504144732
 H,0,-0.6527743019,-5.6797422926,-0.2700590894
 H,0,0.7949586085,-6.042454643,0.6716039127
 C,0,-5.3297571973,-2.7041395025,-1.0763572544
 H,0,-6.336962612,-3.1236568095,-1.1385025013
 H,0,-5.4037434168,-1.6215145145,-1.1699082287
 H,0,-4.7484635531,-3.0889581142,-1.9178174433
 C,0,-5.5284322746,-2.5900901189,1.4477553641
 H,0,-5.6192986867,-1.5053208109,1.4192497787
 H,0,-6.5311718187,-3.0219268083,1.4009227189
 H,0,-5.0764126602,-2.8778624366,2.4001008402
 C,0,-4.7100926055,-4.6648953858,0.3329515683
 H,0,-4.15758667,-5.1145157567,-0.4961463661
 H,0,-4.2869102316,-5.0324861737,1.2712404923
 H,0,-5.7446950022,-5.0076010319,0.2723111018
 H,0,1.4342513987,3.763740297,0.6114350312
 Recover connectivity data from disk.
 ITRead=  0  0  0  0  0  0  0  0  0  0  0  0  0  0  0  0  0  0  0  0
 ITRead=  0  0  0  0  0  0  0  0  0  0  0  0  0  0  0  0  0  0  0  0
 ITRead=  0  0  0  0  0  0  0  0  0  0
 MicOpt= -1 -1 -1 -1 -1 -1 -1 -1 -1 -1 -1 -1 -1 -1 -1 -1 -1 -1 -1 -1
 MicOpt= -1 -1 -1 -1 -1 -1 -1 -1 -1 -1 -1 -1 -1 -1 -1 -1 -1 -1 -1 -1
 MicOpt= -1 -1 -1 -1 -1 -1 -1 -1 -1 -1
 NAtoms=     50 NQM=       50 NQMF=       0 NMMI=      0 NMMIF=      0
                NMic=       0 NMicF=      0.
                    Isotopes and Nuclear Properties:
 (Nuclear quadrupole moments (NQMom) in fm**2, nuclear magnetic moments (NMagM)
  in nuclear magnetons)

  Atom         1           2           3           4           5           6           7           8           9          10
 IAtWgt=          12          12          12          12          12          12          12           1           1           1
 AtmWgt=  12.0000000  12.0000000  12.0000000  12.0000000  12.0000000  12.0000000  12.0000000   1.0078250   1.0078250   1.0078250
 NucSpn=           0           0           0           0           0           0           0           1           1           1
 AtZEff=   3.6000000   3.6000000   3.6000000   3.6000000   3.6000000   3.6000000   3.6000000   1.0000000   1.0000000   1.0000000
 NQMom=    0.0000000   0.0000000   0.0000000   0.0000000   0.0000000   0.0000000   0.0000000   0.0000000   0.0000000   0.0000000
 NMagM=    0.0000000   0.0000000   0.0000000   0.0000000   0.0000000   0.0000000   0.0000000   2.7928460   2.7928460   2.7928460
 AtZNuc=   6.0000000   6.0000000   6.0000000   6.0000000   6.0000000   6.0000000   6.0000000   1.0000000   1.0000000   1.0000000

  Atom        11          12          13          14          15          16          17          18          19          20
 IAtWgt=          14          12          12          12          12          12          12           1           1          12
 AtmWgt=  14.0030740  12.0000000  12.0000000  12.0000000  12.0000000  12.0000000  12.0000000   1.0078250   1.0078250  12.0000000
 NucSpn=           2           0           0           0           0           0           0           1           1           0
 AtZEff=   4.5500000   3.6000000   3.6000000   3.6000000   3.6000000   3.6000000   3.6000000   1.0000000   1.0000000   3.6000000
 NQMom=    2.0440000   0.0000000   0.0000000   0.0000000   0.0000000   0.0000000   0.0000000   0.0000000   0.0000000   0.0000000
 NMagM=    0.4037610   0.0000000   0.0000000   0.0000000   0.0000000   0.0000000   0.0000000   2.7928460   2.7928460   0.0000000
 AtZNuc=   7.0000000   6.0000000   6.0000000   6.0000000   6.0000000   6.0000000   6.0000000   1.0000000   1.0000000   6.0000000

  Atom        21          22          23          24          25          26          27          28          29          30
 IAtWgt=          12          16           1          14           1          12           1           1           1          12
 AtmWgt=  12.0000000  15.9949146   1.0078250  14.0030740   1.0078250  12.0000000   1.0078250   1.0078250   1.0078250  12.0000000
 NucSpn=           0           0           1           2           1           0           1           1           1           0
 AtZEff=   3.6000000   5.6000000   1.0000000   4.5500000   1.0000000   3.6000000   1.0000000   1.0000000   1.0000000   3.6000000
 NQMom=    0.0000000   0.0000000   0.0000000   2.0440000   0.0000000   0.0000000   0.0000000   0.0000000   0.0000000   0.0000000
 NMagM=    0.0000000   0.0000000   2.7928460   0.4037610   2.7928460   0.0000000   2.7928460   2.7928460   2.7928460   0.0000000
 AtZNuc=   6.0000000   8.0000000   1.0000000   7.0000000   1.0000000   6.0000000   1.0000000   1.0000000   1.0000000   6.0000000

  Atom        31          32          33          34          35          36          37          38          39          40
 IAtWgt=           1           1           1          12           1           1           1          12           1           1
 AtmWgt=   1.0078250   1.0078250   1.0078250  12.0000000   1.0078250   1.0078250   1.0078250  12.0000000   1.0078250   1.0078250
 NucSpn=           1           1           1           0           1           1           1           0           1           1
 AtZEff=   1.0000000   1.0000000   1.0000000   3.6000000   1.0000000   1.0000000   1.0000000   3.6000000   1.0000000   1.0000000
 NQMom=    0.0000000   0.0000000   0.0000000   0.0000000   0.0000000   0.0000000   0.0000000   0.0000000   0.0000000   0.0000000
 NMagM=    2.7928460   2.7928460   2.7928460   0.0000000   2.7928460   2.7928460   2.7928460   0.0000000   2.7928460   2.7928460
 AtZNuc=   1.0000000   1.0000000   1.0000000   6.0000000   1.0000000   1.0000000   1.0000000   6.0000000   1.0000000   1.0000000

  Atom        41          42          43          44          45          46          47          48          49          50
 IAtWgt=           1          12           1           1           1          12           1           1           1           1
 AtmWgt=   1.0078250  12.0000000   1.0078250   1.0078250   1.0078250  12.0000000   1.0078250   1.0078250   1.0078250   1.0078250
 NucSpn=           1           0           1           1           1           0           1           1           1           1
 AtZEff=   1.0000000   3.6000000   1.0000000   1.0000000   1.0000000   3.6000000   1.0000000   1.0000000   1.0000000   1.0000000
 NQMom=    0.0000000   0.0000000   0.0000000   0.0000000   0.0000000   0.0000000   0.0000000   0.0000000   0.0000000   0.0000000
 NMagM=    2.7928460   0.0000000   2.7928460   2.7928460   2.7928460   0.0000000   2.7928460   2.7928460   2.7928460   2.7928460
 AtZNuc=   1.0000000   6.0000000   1.0000000   1.0000000   1.0000000   6.0000000   1.0000000   1.0000000   1.0000000   1.0000000
 Leave Link  101 at Wed Mar  6 13:38:55 2019, MaxMem=  1342177280 cpu:               4.6 elap:               0.3
 (Enter /gpfs/apps/hpc/Apps/Restricted/Gaussian/g16/Rev_B.01-AVX/g16/l103.exe)

 GradGradGradGradGradGradGradGradGradGradGradGradGradGradGradGradGradGrad
 Berny optimization.
 Initialization pass.
                           ----------------------------
                           !    Initial Parameters    !
                           ! (Angstroms and Degrees)  !
 --------------------------                            --------------------------
 ! Name  Definition              Value          Derivative Info.                !
 --------------------------------------------------------------------------------
 ! R1    R(1,2)                  1.4254         estimate D2E/DX2                !
 ! R2    R(1,6)                  1.3959         estimate D2E/DX2                !
 ! R3    R(1,24)                 1.3755         estimate D2E/DX2                !
 ! R4    R(2,3)                  1.4047         estimate D2E/DX2                !
 ! R5    R(2,11)                 1.3711         estimate D2E/DX2                !
 ! R6    R(3,4)                  1.3839         estimate D2E/DX2                !
 ! R7    R(3,8)                  1.0825         estimate D2E/DX2                !
 ! R8    R(4,5)                  1.4181         estimate D2E/DX2                !
 ! R9    R(4,9)                  1.0833         estimate D2E/DX2                !
 ! R10   R(5,6)                  1.3877         estimate D2E/DX2                !
 ! R11   R(5,10)                 1.0832         estimate D2E/DX2                !
 ! R12   R(6,50)                 1.0823         estimate D2E/DX2                !
 ! R13   R(7,11)                 1.3397         estimate D2E/DX2                !
 ! R14   R(7,13)                 1.4401         estimate D2E/DX2                !
 ! R15   R(7,24)                 1.3675         estimate D2E/DX2                !
 ! R16   R(12,13)                1.4601         estimate D2E/DX2                !
 ! R17   R(12,17)                1.4421         estimate D2E/DX2                !
 ! R18   R(12,22)                1.3015         estimate D2E/DX2                !
 ! R19   R(13,14)                1.3848         estimate D2E/DX2                !
 ! R20   R(14,15)                1.402          estimate D2E/DX2                !
 ! R21   R(14,18)                1.082          estimate D2E/DX2                !
 ! R22   R(15,16)                1.4214         estimate D2E/DX2                !
 ! R23   R(15,20)                1.5208         estimate D2E/DX2                !
 ! R24   R(16,17)                1.3775         estimate D2E/DX2                !
 ! R25   R(16,19)                1.0774         estimate D2E/DX2                !
 ! R26   R(17,21)                1.5296         estimate D2E/DX2                !
 ! R27   R(20,26)                1.5469         estimate D2E/DX2                !
 ! R28   R(20,30)                1.5455         estimate D2E/DX2                !
 ! R29   R(20,34)                1.5343         estimate D2E/DX2                !
 ! R30   R(21,38)                1.5454         estimate D2E/DX2                !
 ! R31   R(21,42)                1.5458         estimate D2E/DX2                !
 ! R32   R(21,46)                1.5373         estimate D2E/DX2                !
 ! R33   R(22,23)                1.0515         estimate D2E/DX2                !
 ! R34   R(24,25)                1.0094         estimate D2E/DX2                !
 ! R35   R(26,27)                1.0919         estimate D2E/DX2                !
 ! R36   R(26,28)                1.0929         estimate D2E/DX2                !
 ! R37   R(26,29)                1.0924         estimate D2E/DX2                !
 ! R38   R(30,31)                1.0923         estimate D2E/DX2                !
 ! R39   R(30,32)                1.0927         estimate D2E/DX2                !
 ! R40   R(30,33)                1.092          estimate D2E/DX2                !
 ! R41   R(34,35)                1.093          estimate D2E/DX2                !
 ! R42   R(34,36)                1.093          estimate D2E/DX2                !
 ! R43   R(34,37)                1.0916         estimate D2E/DX2                !
 ! R44   R(38,39)                1.0928         estimate D2E/DX2                !
 ! R45   R(38,40)                1.0892         estimate D2E/DX2                !
 ! R46   R(38,41)                1.0927         estimate D2E/DX2                !
 ! R47   R(42,43)                1.0889         estimate D2E/DX2                !
 ! R48   R(42,44)                1.0928         estimate D2E/DX2                !
 ! R49   R(42,45)                1.0927         estimate D2E/DX2                !
 ! R50   R(46,47)                1.0931         estimate D2E/DX2                !
 ! R51   R(46,48)                1.093          estimate D2E/DX2                !
 ! R52   R(46,49)                1.0916         estimate D2E/DX2                !
 ! A1    A(2,1,6)              122.2985         estimate D2E/DX2                !
 ! A2    A(2,1,24)             105.484          estimate D2E/DX2                !
 ! A3    A(6,1,24)             132.2173         estimate D2E/DX2                !
 ! A4    A(1,2,3)              120.4166         estimate D2E/DX2                !
 ! A5    A(1,2,11)             108.6832         estimate D2E/DX2                !
 ! A6    A(3,2,11)             130.8996         estimate D2E/DX2                !
 ! A7    A(2,3,4)              117.1881         estimate D2E/DX2                !
 ! A8    A(2,3,8)              120.8779         estimate D2E/DX2                !
 ! A9    A(4,3,8)              121.9339         estimate D2E/DX2                !
 ! A10   A(3,4,5)              121.766          estimate D2E/DX2                !
 ! A11   A(3,4,9)              119.53           estimate D2E/DX2                !
 ! A12   A(5,4,9)              118.7041         estimate D2E/DX2                !
 ! A13   A(4,5,6)              122.0327         estimate D2E/DX2                !
 ! A14   A(4,5,10)             118.8387         estimate D2E/DX2                !
 ! A15   A(6,5,10)             119.1286         estimate D2E/DX2                !
 ! A16   A(1,6,5)              116.2977         estimate D2E/DX2                !
 ! A17   A(1,6,50)             121.6312         estimate D2E/DX2                !
 ! A18   A(5,6,50)             122.0708         estimate D2E/DX2                !
 ! A19   A(11,7,13)            122.1853         estimate D2E/DX2                !
 ! A20   A(11,7,24)            111.0726         estimate D2E/DX2                !
 ! A21   A(13,7,24)            126.7399         estimate D2E/DX2                !
 ! A22   A(2,11,7)             106.871          estimate D2E/DX2                !
 ! A23   A(13,12,17)           120.4068         estimate D2E/DX2                !
 ! A24   A(13,12,22)           120.072          estimate D2E/DX2                !
 ! A25   A(17,12,22)           119.5199         estimate D2E/DX2                !
 ! A26   A(7,13,12)            117.7981         estimate D2E/DX2                !
 ! A27   A(7,13,14)            122.9883         estimate D2E/DX2                !
 ! A28   A(12,13,14)           119.2062         estimate D2E/DX2                !
 ! A29   A(13,14,15)           121.06           estimate D2E/DX2                !
 ! A30   A(13,14,18)           119.9356         estimate D2E/DX2                !
 ! A31   A(15,14,18)           119.0027         estimate D2E/DX2                !
 ! A32   A(14,15,16)           118.6572         estimate D2E/DX2                !
 ! A33   A(14,15,20)           119.3441         estimate D2E/DX2                !
 ! A34   A(16,15,20)           121.9888         estimate D2E/DX2                !
 ! A35   A(15,16,17)           124.0277         estimate D2E/DX2                !
 ! A36   A(15,16,19)           117.6277         estimate D2E/DX2                !
 ! A37   A(17,16,19)           118.3446         estimate D2E/DX2                !
 ! A38   A(12,17,16)           116.6321         estimate D2E/DX2                !
 ! A39   A(12,17,21)           121.1551         estimate D2E/DX2                !
 ! A40   A(16,17,21)           122.2122         estimate D2E/DX2                !
 ! A41   A(15,20,26)           108.029          estimate D2E/DX2                !
 ! A42   A(15,20,30)           109.1956         estimate D2E/DX2                !
 ! A43   A(15,20,34)           112.7186         estimate D2E/DX2                !
 ! A44   A(26,20,30)           109.0716         estimate D2E/DX2                !
 ! A45   A(26,20,34)           108.9608         estimate D2E/DX2                !
 ! A46   A(30,20,34)           108.8075         estimate D2E/DX2                !
 ! A47   A(17,21,38)           109.9182         estimate D2E/DX2                !
 ! A48   A(17,21,42)           109.8467         estimate D2E/DX2                !
 ! A49   A(17,21,46)           111.0017         estimate D2E/DX2                !
 ! A50   A(38,21,42)           110.1499         estimate D2E/DX2                !
 ! A51   A(38,21,46)           107.9359         estimate D2E/DX2                !
 ! A52   A(42,21,46)           107.9488         estimate D2E/DX2                !
 ! A53   A(12,22,23)           109.012          estimate D2E/DX2                !
 ! A54   A(1,24,7)             107.8885         estimate D2E/DX2                !
 ! A55   A(1,24,25)            125.6931         estimate D2E/DX2                !
 ! A56   A(7,24,25)            126.4183         estimate D2E/DX2                !
 ! A57   A(20,26,27)           111.4441         estimate D2E/DX2                !
 ! A58   A(20,26,28)           109.2108         estimate D2E/DX2                !
 ! A59   A(20,26,29)           110.9469         estimate D2E/DX2                !
 ! A60   A(27,26,28)           108.2459         estimate D2E/DX2                !
 ! A61   A(27,26,29)           108.4873         estimate D2E/DX2                !
 ! A62   A(28,26,29)           108.4189         estimate D2E/DX2                !
 ! A63   A(20,30,31)           110.9672         estimate D2E/DX2                !
 ! A64   A(20,30,32)           109.0295         estimate D2E/DX2                !
 ! A65   A(20,30,33)           111.8634         estimate D2E/DX2                !
 ! A66   A(31,30,32)           108.3804         estimate D2E/DX2                !
 ! A67   A(31,30,33)           108.4964         estimate D2E/DX2                !
 ! A68   A(32,30,33)           107.9991         estimate D2E/DX2                !
 ! A69   A(20,34,35)           111.7337         estimate D2E/DX2                !
 ! A70   A(20,34,36)           111.763          estimate D2E/DX2                !
 ! A71   A(20,34,37)           108.9764         estimate D2E/DX2                !
 ! A72   A(35,34,36)           108.6524         estimate D2E/DX2                !
 ! A73   A(35,34,37)           107.7985         estimate D2E/DX2                !
 ! A74   A(36,34,37)           107.7617         estimate D2E/DX2                !
 ! A75   A(21,38,39)           108.9341         estimate D2E/DX2                !
 ! A76   A(21,38,40)           112.0886         estimate D2E/DX2                !
 ! A77   A(21,38,41)           110.6051         estimate D2E/DX2                !
 ! A78   A(39,38,40)           108.3051         estimate D2E/DX2                !
 ! A79   A(39,38,41)           108.1377         estimate D2E/DX2                !
 ! A80   A(40,38,41)           108.6654         estimate D2E/DX2                !
 ! A81   A(21,42,43)           111.8762         estimate D2E/DX2                !
 ! A82   A(21,42,44)           109.0426         estimate D2E/DX2                !
 ! A83   A(21,42,45)           110.5372         estimate D2E/DX2                !
 ! A84   A(43,42,44)           108.4193         estimate D2E/DX2                !
 ! A85   A(43,42,45)           108.643          estimate D2E/DX2                !
 ! A86   A(44,42,45)           108.2313         estimate D2E/DX2                !
 ! A87   A(21,46,47)           111.8007         estimate D2E/DX2                !
 ! A88   A(21,46,48)           111.656          estimate D2E/DX2                !
 ! A89   A(21,46,49)           108.8274         estimate D2E/DX2                !
 ! A90   A(47,46,48)           108.4879         estimate D2E/DX2                !
 ! A91   A(47,46,49)           107.9267         estimate D2E/DX2                !
 ! A92   A(48,46,49)           108.0037         estimate D2E/DX2                !
 ! D1    D(6,1,2,3)              0.1772         estimate D2E/DX2                !
 ! D2    D(6,1,2,11)           179.9115         estimate D2E/DX2                !
 ! D3    D(24,1,2,3)          -179.7052         estimate D2E/DX2                !
 ! D4    D(24,1,2,11)            0.0291         estimate D2E/DX2                !
 ! D5    D(2,1,6,5)             -0.2666         estimate D2E/DX2                !
 ! D6    D(2,1,6,50)           179.9234         estimate D2E/DX2                !
 ! D7    D(24,1,6,5)           179.5805         estimate D2E/DX2                !
 ! D8    D(24,1,6,50)           -0.2295         estimate D2E/DX2                !
 ! D9    D(2,1,24,7)             0.1227         estimate D2E/DX2                !
 ! D10   D(2,1,24,25)         -179.7817         estimate D2E/DX2                !
 ! D11   D(6,1,24,7)          -179.7431         estimate D2E/DX2                !
 ! D12   D(6,1,24,25)            0.3525         estimate D2E/DX2                !
 ! D13   D(1,2,3,4)             -0.0178         estimate D2E/DX2                !
 ! D14   D(1,2,3,8)            179.904          estimate D2E/DX2                !
 ! D15   D(11,2,3,4)          -179.6848         estimate D2E/DX2                !
 ! D16   D(11,2,3,8)             0.237          estimate D2E/DX2                !
 ! D17   D(1,2,11,7)            -0.1717         estimate D2E/DX2                !
 ! D18   D(3,2,11,7)           179.5251         estimate D2E/DX2                !
 ! D19   D(2,3,4,5)             -0.0364         estimate D2E/DX2                !
 ! D20   D(2,3,4,9)            179.9679         estimate D2E/DX2                !
 ! D21   D(8,3,4,5)           -179.9573         estimate D2E/DX2                !
 ! D22   D(8,3,4,9)              0.047          estimate D2E/DX2                !
 ! D23   D(3,4,5,6)             -0.0645         estimate D2E/DX2                !
 ! D24   D(3,4,5,10)           179.9541         estimate D2E/DX2                !
 ! D25   D(9,4,5,6)            179.9312         estimate D2E/DX2                !
 ! D26   D(9,4,5,10)            -0.0501         estimate D2E/DX2                !
 ! D27   D(4,5,6,1)              0.2108         estimate D2E/DX2                !
 ! D28   D(4,5,6,50)          -179.9801         estimate D2E/DX2                !
 ! D29   D(10,5,6,1)          -179.8079         estimate D2E/DX2                !
 ! D30   D(10,5,6,50)            0.0012         estimate D2E/DX2                !
 ! D31   D(13,7,11,2)         -179.2431         estimate D2E/DX2                !
 ! D32   D(24,7,11,2)            0.2555         estimate D2E/DX2                !
 ! D33   D(11,7,13,12)          -1.4192         estimate D2E/DX2                !
 ! D34   D(11,7,13,14)         177.5758         estimate D2E/DX2                !
 ! D35   D(24,7,13,12)         179.1647         estimate D2E/DX2                !
 ! D36   D(24,7,13,14)          -1.8404         estimate D2E/DX2                !
 ! D37   D(11,7,24,1)           -0.2407         estimate D2E/DX2                !
 ! D38   D(11,7,24,25)         179.6629         estimate D2E/DX2                !
 ! D39   D(13,7,24,1)          179.2298         estimate D2E/DX2                !
 ! D40   D(13,7,24,25)          -0.8667         estimate D2E/DX2                !
 ! D41   D(17,12,13,7)        -179.8553         estimate D2E/DX2                !
 ! D42   D(17,12,13,14)          1.1105         estimate D2E/DX2                !
 ! D43   D(22,12,13,7)           0.557          estimate D2E/DX2                !
 ! D44   D(22,12,13,14)       -178.4772         estimate D2E/DX2                !
 ! D45   D(13,12,17,16)         -1.0703         estimate D2E/DX2                !
 ! D46   D(13,12,17,21)        179.1914         estimate D2E/DX2                !
 ! D47   D(22,12,17,16)        178.5198         estimate D2E/DX2                !
 ! D48   D(22,12,17,21)         -1.2185         estimate D2E/DX2                !
 ! D49   D(13,12,22,23)          0.1736         estimate D2E/DX2                !
 ! D50   D(17,12,22,23)       -179.4178         estimate D2E/DX2                !
 ! D51   D(7,13,14,15)        -179.3676         estimate D2E/DX2                !
 ! D52   D(7,13,14,18)           0.1516         estimate D2E/DX2                !
 ! D53   D(12,13,14,15)         -0.3862         estimate D2E/DX2                !
 ! D54   D(12,13,14,18)        179.1331         estimate D2E/DX2                !
 ! D55   D(13,14,15,16)         -0.3281         estimate D2E/DX2                !
 ! D56   D(13,14,15,20)        178.5485         estimate D2E/DX2                !
 ! D57   D(18,14,15,16)       -179.8517         estimate D2E/DX2                !
 ! D58   D(18,14,15,20)         -0.9751         estimate D2E/DX2                !
 ! D59   D(14,15,16,17)          0.3522         estimate D2E/DX2                !
 ! D60   D(14,15,16,19)       -179.683          estimate D2E/DX2                !
 ! D61   D(20,15,16,17)       -178.4932         estimate D2E/DX2                !
 ! D62   D(20,15,16,19)          1.4716         estimate D2E/DX2                !
 ! D63   D(14,15,20,26)        -61.138          estimate D2E/DX2                !
 ! D64   D(14,15,20,30)         57.3626         estimate D2E/DX2                !
 ! D65   D(14,15,20,34)        178.4168         estimate D2E/DX2                !
 ! D66   D(16,15,20,26)        117.6998         estimate D2E/DX2                !
 ! D67   D(16,15,20,30)       -123.7997         estimate D2E/DX2                !
 ! D68   D(16,15,20,34)         -2.7455         estimate D2E/DX2                !
 ! D69   D(15,16,17,12)          0.351          estimate D2E/DX2                !
 ! D70   D(15,16,17,21)       -179.9138         estimate D2E/DX2                !
 ! D71   D(19,16,17,12)       -179.6136         estimate D2E/DX2                !
 ! D72   D(19,16,17,21)          0.1217         estimate D2E/DX2                !
 ! D73   D(12,17,21,38)         62.0008         estimate D2E/DX2                !
 ! D74   D(12,17,21,42)        -59.3531         estimate D2E/DX2                !
 ! D75   D(12,17,21,46)       -178.6612         estimate D2E/DX2                !
 ! D76   D(16,17,21,38)       -117.7227         estimate D2E/DX2                !
 ! D77   D(16,17,21,42)        120.9234         estimate D2E/DX2                !
 ! D78   D(16,17,21,46)          1.6153         estimate D2E/DX2                !
 ! D79   D(15,20,26,27)         59.1489         estimate D2E/DX2                !
 ! D80   D(15,20,26,28)        178.6922         estimate D2E/DX2                !
 ! D81   D(15,20,26,29)        -61.8582         estimate D2E/DX2                !
 ! D82   D(30,20,26,27)        -59.4307         estimate D2E/DX2                !
 ! D83   D(30,20,26,28)         60.1127         estimate D2E/DX2                !
 ! D84   D(30,20,26,29)        179.5623         estimate D2E/DX2                !
 ! D85   D(34,20,26,27)       -178.0809         estimate D2E/DX2                !
 ! D86   D(34,20,26,28)        -58.5376         estimate D2E/DX2                !
 ! D87   D(34,20,26,29)         60.912          estimate D2E/DX2                !
 ! D88   D(15,20,30,31)         62.0896         estimate D2E/DX2                !
 ! D89   D(15,20,30,32)       -178.6109         estimate D2E/DX2                !
 ! D90   D(15,20,30,33)        -59.2315         estimate D2E/DX2                !
 ! D91   D(26,20,30,31)        179.9369         estimate D2E/DX2                !
 ! D92   D(26,20,30,32)        -60.7636         estimate D2E/DX2                !
 ! D93   D(26,20,30,33)         58.6158         estimate D2E/DX2                !
 ! D94   D(34,20,30,31)        -61.317          estimate D2E/DX2                !
 ! D95   D(34,20,30,32)         57.9824         estimate D2E/DX2                !
 ! D96   D(34,20,30,33)        177.3618         estimate D2E/DX2                !
 ! D97   D(15,20,34,35)        -61.1058         estimate D2E/DX2                !
 ! D98   D(15,20,34,36)         60.8906         estimate D2E/DX2                !
 ! D99   D(15,20,34,37)        179.8785         estimate D2E/DX2                !
 ! D100  D(26,20,34,35)        178.985          estimate D2E/DX2                !
 ! D101  D(26,20,34,36)        -59.0187         estimate D2E/DX2                !
 ! D102  D(26,20,34,37)         59.9693         estimate D2E/DX2                !
 ! D103  D(30,20,34,35)         60.1694         estimate D2E/DX2                !
 ! D104  D(30,20,34,36)       -177.8343         estimate D2E/DX2                !
 ! D105  D(30,20,34,37)        -58.8463         estimate D2E/DX2                !
 ! D106  D(17,21,38,39)        178.0452         estimate D2E/DX2                !
 ! D107  D(17,21,38,40)        -62.1162         estimate D2E/DX2                !
 ! D108  D(17,21,38,41)         59.322          estimate D2E/DX2                !
 ! D109  D(42,21,38,39)        -60.7827         estimate D2E/DX2                !
 ! D110  D(42,21,38,40)         59.056          estimate D2E/DX2                !
 ! D111  D(42,21,38,41)       -179.5059         estimate D2E/DX2                !
 ! D112  D(46,21,38,39)         56.8497         estimate D2E/DX2                !
 ! D113  D(46,21,38,40)        176.6883         estimate D2E/DX2                !
 ! D114  D(46,21,38,41)        -61.8735         estimate D2E/DX2                !
 ! D115  D(17,21,42,43)         63.052          estimate D2E/DX2                !
 ! D116  D(17,21,42,44)       -177.0284         estimate D2E/DX2                !
 ! D117  D(17,21,42,45)        -58.1644         estimate D2E/DX2                !
 ! D118  D(38,21,42,43)        -58.1628         estimate D2E/DX2                !
 ! D119  D(38,21,42,44)         61.7567         estimate D2E/DX2                !
 ! D120  D(38,21,42,45)       -179.3792         estimate D2E/DX2                !
 ! D121  D(46,21,42,43)       -175.7872         estimate D2E/DX2                !
 ! D122  D(46,21,42,44)        -55.8677         estimate D2E/DX2                !
 ! D123  D(46,21,42,45)         62.9964         estimate D2E/DX2                !
 ! D124  D(17,21,46,47)        -61.2142         estimate D2E/DX2                !
 ! D125  D(17,21,46,48)         60.5405         estimate D2E/DX2                !
 ! D126  D(17,21,46,49)        179.6665         estimate D2E/DX2                !
 ! D127  D(38,21,46,47)         59.3047         estimate D2E/DX2                !
 ! D128  D(38,21,46,48)       -178.9406         estimate D2E/DX2                !
 ! D129  D(38,21,46,49)        -59.8146         estimate D2E/DX2                !
 ! D130  D(42,21,46,47)        178.3465         estimate D2E/DX2                !
 ! D131  D(42,21,46,48)        -59.8987         estimate D2E/DX2                !
 ! D132  D(42,21,46,49)         59.2272         estimate D2E/DX2                !
 --------------------------------------------------------------------------------
 Trust Radius=3.00D-01 FncErr=1.00D-07 GrdErr=1.00D-07 EigMax=2.50D+02 EigMin=1.00D-04
 Number of steps in this run=    286 maximum allowed number of steps=    300.
 GradGradGradGradGradGradGradGradGradGradGradGradGradGradGradGradGradGrad

 Leave Link  103 at Wed Mar  6 13:38:55 2019, MaxMem=  1342177280 cpu:               0.6 elap:               0.1
 (Enter /gpfs/apps/hpc/Apps/Restricted/Gaussian/g16/Rev_B.01-AVX/g16/l202.exe)
                          Input orientation:                          
 ---------------------------------------------------------------------
 Center     Atomic      Atomic             Coordinates (Angstroms)
 Number     Number       Type             X           Y           Z
 ---------------------------------------------------------------------
      1          6           0       -0.476280    2.748976    0.453646
      2          6           0       -1.889081    2.864294    0.303522
      3          6           0       -2.491128    4.128114    0.187570
      4          6           0       -1.657085    5.231819    0.226438
      5          6           0       -0.253106    5.101642    0.377442
      6          6           0        0.362790    3.863798    0.495843
      7          6           0       -1.419161    0.741992    0.429069
      8          1           0       -3.563092    4.224299    0.071725
      9          1           0       -2.081216    6.224891    0.139839
     10          1           0        0.355168    5.997667    0.401104
     11          7           0       -2.434039    1.606165    0.295295
     12          6           0       -2.992800   -1.177100    0.341194
     13          6           0       -1.622599   -0.683611    0.445112
     14          6           0       -0.581827   -1.592793    0.533476
     15          6           0       -0.825432   -2.973480    0.532616
     16          6           0       -2.169266   -3.428525    0.445948
     17          6           0       -3.261320   -2.593943    0.354705
     18          1           0        0.439125   -1.240279    0.596788
     19          1           0       -2.337787   -4.492651    0.451894
     20          6           0        0.348979   -3.937522    0.597883
     21          6           0       -4.691387   -3.129229    0.265311
     22          8           0       -3.981241   -0.338149    0.227430
     23          1           0       -3.600275    0.641859    0.225932
     24          7           0       -0.224128    1.398929    0.530467
     25          1           0        0.684995    0.975108    0.643368
     26          6           0        1.231491   -3.702213   -0.650575
     27          1           0        1.596208   -2.673912   -0.693565
     28          1           0        2.095444   -4.370335   -0.611345
     29          1           0        0.675050   -3.910992   -1.567145
     30          6           0        1.179883   -3.641011    1.866815
     31          1           0        0.584410   -3.796770    2.769170
     32          1           0        2.036583   -4.318601    1.898112
     33          1           0        1.559133   -2.616989    1.874488
     34          6           0       -0.091521   -5.406937    0.627239
     35          1           0       -0.705299   -5.628007    1.504145
     36          1           0       -0.652774   -5.679742   -0.270059
     37          1           0        0.794959   -6.042455    0.671604
     38          6           0       -5.329757   -2.704140   -1.076357
     39          1           0       -6.336963   -3.123657   -1.138503
     40          1           0       -5.403743   -1.621515   -1.169908
     41          1           0       -4.748464   -3.088958   -1.917817
     42          6           0       -5.528432   -2.590090    1.447755
     43          1           0       -5.619299   -1.505321    1.419250
     44          1           0       -6.531172   -3.021927    1.400923
     45          1           0       -5.076413   -2.877862    2.400101
     46          6           0       -4.710093   -4.664895    0.332952
     47          1           0       -4.157587   -5.114516   -0.496146
     48          1           0       -4.286910   -5.032486    1.271240
     49          1           0       -5.744695   -5.007601    0.272311
     50          1           0        1.434251    3.763740    0.611435
 ---------------------------------------------------------------------
                    Distance matrix (angstroms):
                    1          2          3          4          5
     1  C    0.000000
     2  C    1.425428   0.000000
     3  C    2.456101   1.404687   0.000000
     4  C    2.758701   2.380113   1.383945   0.000000
     5  C    2.364455   2.772653   2.447969   1.418064   0.000000
     6  C    1.395939   2.471218   2.882662   2.454375   1.387662
     7  C    2.217570   2.177327   3.559952   4.500691   4.513192
     8  H    3.442507   2.169252   1.082487   2.161457   3.437906
     9  H    3.841390   3.370063   2.137003   1.083319   2.158733
    10  H    3.353812   3.855413   3.412071   2.160138   1.083244
    11  N    2.272425   1.371107   2.524894   3.708607   4.120871
    12  C    4.664718   4.189568   5.331094   6.547636   6.850536
    13  C    3.618947   3.560715   4.896260   5.919571   5.945523
    14  C    4.343786   4.650528   6.041014   6.915618   6.704317
    15  C    5.733642   5.938302   7.302481   8.253019   8.096865
    16  C    6.405294   6.300663   7.567902   8.678253   8.743004
    17  C    6.026030   5.628322   6.768100   7.989529   8.262681
    18  H    4.095439   4.728009   6.129722   6.813172   6.383358
    19  H    7.477057   7.372108   8.626179   9.750871   9.818446
    20  C    6.738777   7.166607   8.560902   9.393566   9.061876
    21  C    7.235738   6.616396   7.583944   8.894696   9.351906
    22  O    4.676139   3.826038   4.708453   6.035416   6.596425
    23  H    3.775069   2.805961   3.658640   4.984347   5.578186
    24  N    1.375540   2.229544   3.564452   4.103272   3.705987
    25  H    2.128653   3.210979   4.498550   4.876347   4.240169
    26  C    6.764143   7.332617   8.710591   9.430267   8.987141
    27  H    5.917686   6.619150   7.984376   8.598308   8.063886
    28  H    7.644119   8.309830   9.690126  10.343341   9.808758
    29  H    7.054385   7.481889   8.816515   9.604519   9.266632
    30  C    6.750693   7.360803   8.755312   9.458665   8.983634
    31  H    7.023782   7.521127   8.884108   9.643920   9.252218
    32  H    7.638823   8.339517   9.735148  10.375365   9.813058
    33  H    5.912299   6.663526   8.046534   8.640828   8.068619
    34  C    8.166829   8.470494   9.842185  10.760797  10.512790
    35  H    8.445700   8.658061  10.005221  10.976077  10.798116
    36  H    8.461572   8.652052   9.989145  10.968925  10.808203
    37  H    8.885540   9.309658  10.699211  11.546425  11.197137
    38  C    7.458795   6.689527   7.505665   8.841110   9.424232
    39  H    8.448098   7.597278   8.314871   9.673587  10.342482
    40  H    6.783585   5.886113   6.586676   7.934444   8.609541
    41  H    7.612941   6.967899   7.849481   9.131801   9.620935
    42  C    7.417421   6.656159   7.479809   8.812559   9.388151
    43  H    6.744040   5.852598   6.560341   7.906389   8.575158
    44  H    8.417979   7.576337   8.301642   9.657145  10.317654
    45  H    7.524043   6.893989   7.788626   9.065514   9.540856
    46  C    8.538456   8.040377   9.069837  10.357468  10.735547
    47  H    8.734337   8.333486   9.416515  10.668705  10.971691
    48  H    8.702903   8.309344   9.397647  10.647232  10.943994
    49  H    9.378357   8.765470   9.698153  11.025261  11.505016
    50  H    2.169049   3.456639   3.964976   3.443812   2.166082
                    6          7          8          9         10
     6  C    0.000000
     7  C    3.595203   0.000000
     8  H    3.965146   4.104948   0.000000
     9  H    3.416821   5.530295   2.490575   0.000000
    10  H    2.135985   5.547175   4.313478   2.460866   0.000000
    11  N    3.599914   1.339652   2.859960   4.634791   5.203476
    12  C    6.057603   2.483339   5.438102   7.460630   7.917687
    13  C    4.962184   1.440135   5.290795   6.930435   6.967997
    14  C    5.537879   2.482589   6.552840   7.969900   7.649220
    15  C    6.939855   3.764036   7.714611   9.292002   9.049452
    16  C    7.719571   4.237470   7.787715   9.658670   9.758477
    17  C    7.406518   3.811501   6.830781   8.900037   9.321851
    18  H    5.105646   2.722270   6.793751   7.892382   7.241078
    19  H    8.782100   5.314685   8.810852  10.725153  10.830575
    20  C    7.802000   5.005264   9.066226  10.458982   9.937140
    21  C    8.631354   5.071551   7.442103   9.712276  10.430072
    22  O    6.049711   2.787762   4.584215   6.833101   7.679660
    23  H    5.114648   2.192840   3.585950   5.786640   6.660397
    24  N    2.534018   1.367462   4.397936   5.185680   4.636886
    25  H    2.910345   2.127849   5.378686   5.955308   5.039204
    26  C    7.701522   5.286070   9.291896  10.495055   9.796001
    27  H    6.758525   4.692670   8.648084   9.664714   8.828067
    28  H    8.486984   6.290532  10.312776  11.413482  10.561680
    29  H    8.049894   5.479129   9.318300  10.641754  10.107317
    30  C    7.672637   5.294606   9.358486  10.533435   9.784303
    31  H    7.993837   5.485501   9.424199  10.698254  10.079250
    32  H    8.468743   6.301576  10.376570  11.454826  10.559052
    33  H    6.732941   4.716166   8.734435   9.718024   8.822284
    34  C    9.282790   6.293745  10.252858  11.810837  11.415589
    35  H    9.604783   6.499406  10.357932  12.010233  11.725937
    36  H    9.627935   6.504982  10.328446  11.997031  11.740030
    37  H    9.917233   7.140719  11.169543  12.611222  12.051188
    38  C    8.832593   5.425393   7.241717   9.579131  10.498700
    39  H    9.817448   6.448666   7.946789  10.350888  11.417248
    40  H    8.131192   4.900998   6.253254   8.620946   9.679105
    41  H    8.960551   5.591807   7.671187   9.904340  10.676667
    42  C    8.790069   5.387634   7.224397   9.554990  10.462400
    43  H    8.091075   4.865390   6.234769   8.597156   9.644983
    44  H    9.785657   6.422167   7.942547  10.339056  11.391856
    45  H    8.869110   5.510335   7.625757   9.845817  10.595899
    46  C    9.924680   6.330394   8.966695  11.204273  11.804734
    47  H   10.100889   6.530978   9.374933  11.545473  12.027079
    48  H   10.068010   6.502140   9.362202  11.527086  11.998763
    49  H   10.772792   7.196710   9.488288  11.815562  12.583356
    50  H    1.082314   4.160071   5.047459   4.317196   2.489797
                   11         12         13         14         15
    11  N    0.000000
    12  C    2.839169   0.000000
    13  C    2.433917   1.460062   0.000000
    14  C    3.704153   2.454091   1.384784   0.000000
    15  C    4.859741   2.821543   2.426238   1.402013   0.000000
    16  C    5.043897   2.399603   2.798821   2.428485   1.421432
    17  C    4.281218   1.442127   2.518521   2.865998   2.471690
    18  H    4.055640   3.442010   2.140933   1.081951   2.146441
    19  H    6.101585   3.381445   3.875606   3.391051   2.145137
    20  C    6.210411   4.342039   3.807676   2.523549   1.520815
    21  C    5.245996   2.588777   3.928210   4.395570   3.878314
    22  O    2.485718   1.301459   2.393725   3.636456   4.122771
    23  H    1.514860   1.921178   2.390839   3.768193   4.567766
    24  N    2.232030   3.786462   2.509976   3.013031   4.413562
    25  H    3.201212   4.271942   2.848797   2.865489   4.229066
    26  C    6.519942   5.020401   4.296314   3.023202   2.482322
    27  H    5.961525   4.936614   3.952037   2.723652   2.730860
    28  H    7.553592   6.082294   5.341524   4.024069   3.433856
    29  H    6.601071   4.956718   4.443463   3.371409   2.745792
    30  C    6.562238   5.080321   4.315247   3.012742   2.499395
    31  H    6.665043   5.055113   4.468097   3.349022   2.769049
    32  H    7.593309   6.130882   5.358542   4.018499   3.444570
    33  H    6.022815   5.014415   3.988042   2.725985   2.759321
    34  C    7.401430   5.137194   4.968619   3.846672   2.543480
    35  H    7.535457   5.137674   5.139070   4.152156   2.829278
    36  H    7.521766   5.111080   5.139393   4.165796   2.828066
    37  H    8.310801   6.174784   5.883289   4.659840   3.473268
    38  C    5.370785   3.130922   4.487809   5.135124   4.790646
    39  H    6.297603   4.142706   5.539574   6.185519   5.761264
    40  H    4.624270   2.879858   4.217227   5.114022   5.068267
    41  H    5.683186   3.441030   4.597843   5.060456   4.626893
    42  C    5.339662   3.106517   4.460436   5.128296   4.806525
    43  H    4.592439   2.858046   4.194968   5.115503   5.091441
    44  H    6.279183   4.128739   5.520451   6.179773   5.771635
    45  H    5.614165   3.387201   4.534925   5.033587   4.644080
    46  C    6.671434   3.887657   5.039427   5.149816   4.241620
    47  H    6.983161   4.190598   5.190862   5.123350   4.092144
    48  H    6.961127   4.171775   5.166600   5.109152   4.094741
    49  H    7.396139   4.717034   5.976489   6.195509   5.329593
    50  H    4.440580   6.639557   5.399160   5.723906   7.106512
                   16         17         18         19         20
    16  C    0.000000
    17  C    1.377474   0.000000
    18  H    3.408061   3.947696   0.000000
    19  H    1.077403   2.113634   4.279037   0.000000
    20  C    2.573659   3.859870   2.698749   2.747397   0.000000
    21  C    2.546233   1.529579   5.477241   2.726383   5.115587
    22  O    3.589070   2.371306   4.526577   4.473389   5.643006
    23  H    4.320211   3.256054   4.471771   5.292270   6.058521
    24  N    5.205288   5.019807   2.722081   6.259748   5.367561
    25  H    5.251454   5.328683   2.229476   6.250621   4.924318
    26  C    3.583631   4.735420   2.871389   3.818373   1.546882
    27  H    4.005836   4.969994   2.249256   4.482878   2.195479
    28  H    4.493620   5.725709   3.741687   4.560589   2.167879
    29  H    3.517876   4.574182   3.445428   3.673150   2.189606
    30  C    3.644285   4.806986   2.815174   3.886039   1.545481
    31  H    3.621560   4.697454   3.357975   3.793844   2.188544
    32  H    4.537641   5.781378   3.704238   4.610526   2.164215
    33  H    4.074344   5.054408   2.186838   4.552786   2.199546
    34  C    2.874718   4.246744   4.200422   2.431537   1.534302
    35  H    2.846173   4.130376   4.624409   2.249730   2.188733
    36  H    2.807204   4.088643   4.653225   2.183957   2.189101
    37  H    3.958557   5.333484   4.815922   3.502036   2.152922
    38  C    3.582018   2.517641   6.182419   3.806075   6.047508
    39  H    4.469130   3.459746   7.243874   4.516294   6.955517
    40  H    4.042044   2.803576   6.116018   4.502639   6.448472
    41  H    3.514961   2.760615   6.054084   3.660225   5.747410
    42  C    3.604246   2.516857   6.177206   3.845997   6.089484
    43  H    4.068016   2.806851   6.119738   4.541832   6.496967
    44  H    4.483695   3.459721   7.239195   4.544025   6.987107
    45  H    3.545905   2.749329   6.029492   3.728689   5.814270
    46  C    2.827928   2.527500   6.189673   2.381523   5.117955
    47  H    2.771917   2.807228   6.110153   2.144101   4.784490
    48  H    2.781765   2.799708   6.096813   2.182163   4.810803
    49  H    3.912457   3.464056   7.248285   3.450282   6.195476
    50  H    8.046204   7.907872   5.102029   9.078641   7.777367
                   21         22         23         24         25
    21  C    0.000000
    22  O    2.880255   0.000000
    23  H    3.925963   1.051453   0.000000
    24  N    6.366390   4.150322   3.473365   0.000000
    25  H    6.774511   4.865327   4.318431   1.009394   0.000000
    26  C    6.020601   6.265811   6.556308   5.434642   4.883675
    27  H    6.376567   6.116531   6.232435   4.626004   3.991622
    28  H    6.954850   7.340855   7.633107   6.322069   5.668989
    29  H    5.724308   6.137325   6.497845   5.779599   5.362877
    30  C    6.107254   6.343003   6.624604   5.399822   4.801072
    31  H    5.877836   6.266392   6.609166   5.714964   5.224938
    32  H    7.024687   7.406037   7.692628   6.298526   5.605759
    33  H    6.474630   6.213023   6.321180   4.594998   3.896529
    34  C    5.145649   6.401748   7.004308   6.807846   6.429132
    35  H    4.864925   6.351724   7.023243   7.110374   6.802572
    36  H    4.806468   6.313383   6.992597   7.136678   6.849161
    37  H    6.225106   7.453085   8.012287   7.512167   7.018481
    38  C    1.545410   3.019316   3.985320   6.744220   7.257518
    39  H    2.163017   3.895414   4.850799   7.784985   8.323631
    40  H    2.200116   2.371306   3.213056   6.232397   6.863174
    41  H    2.184246   3.571788   4.453425   6.826774   7.252502
    42  C    1.545798   2.992363   3.956784   6.699951   7.208631
    43  H    2.197652   2.337939   3.179756   6.191322   6.818991
    44  H    2.164702   3.883542   4.836744   7.751159   8.283915
    45  H    2.183749   3.517107   4.392543   6.732841   7.150197
    46  C    1.537269   4.388974   5.422619   7.545387   7.811080
    47  H    2.192287   4.834081   5.828194   7.677955   7.863372
    48  H    2.190407   4.818690   5.810536   7.643170   7.823379
    49  H    2.153552   4.991549   6.042937   8.460906   8.790416
    50  H    9.228016   6.804448   5.936431   2.889483   2.887711
                   26         27         28         29         30
    26  C    0.000000
    27  H    1.091911   0.000000
    28  H    1.092859   1.770268   0.000000
    29  H    1.092390   1.772581   1.772588   0.000000
    30  C    2.518663   2.768421   2.740701   3.481355   0.000000
    31  H    3.481710   3.778237   3.747009   4.338766   1.092288
    32  H    2.742975   3.100922   2.510680   3.745387   1.092723
    33  H    2.767851   2.568951   3.088886   3.781651   1.092021
    34  C    2.507838   3.473093   2.718722   2.764201   2.504299
    35  H    3.478887   4.342066   3.728431   3.779726   2.762896
    36  H    2.757874   3.777869   3.063287   2.563987   3.475815
    37  H    2.723132   3.721930   2.476531   3.093462   2.709913
    38  C    6.650369   6.936601   7.624044   6.144516   7.205235
    39  H    7.606200   7.958356   8.540350   7.069085   8.111878
    40  H    6.973187   7.094629   8.006610   6.507783   7.526234
    41  H    6.143438   6.475022   7.084339   5.496655   7.055034
    42  C    7.164940   7.439944   8.095224   7.022650   6.803054
    43  H    7.486242   7.608753   8.476371   7.370525   7.140754
    44  H    8.057938   8.400136   8.960241   7.844074   7.749883
    45  H    7.055198   7.357732   7.920341   7.062983   6.325190
    46  C    6.098893   6.692322   6.877048   5.760078   6.171944
    47  H    5.573204   6.253133   6.298211   5.094103   6.020248
    48  H    5.992975   6.635843   6.687078   5.825396   5.672455
    49  H    7.157019   7.763239   7.915474   6.767517   7.236007
    50  H    7.574578   6.570587   8.252002   8.013995   7.514720
                   31         32         33         34         35
    31  H    0.000000
    32  H    1.771964   0.000000
    33  H    1.772688   1.767485   0.000000
    34  C    2.763582   2.707106   3.473341   0.000000
    35  H    2.572366   3.063931   3.785636   1.092958   0.000000
    36  H    3.783269   3.712993   4.344200   1.092965   1.775735
    37  H    3.080132   2.453085   3.710082   1.091649   1.765124
    38  C    7.138578   8.106598   7.494791   6.135672   6.049265
    39  H    7.976740   8.986946   8.466590   6.880171   6.706042
    40  H    7.490397   8.487961   7.664265   6.766008   6.728887
    41  H    7.135011   7.881002   7.374965   5.791153   5.873992
    42  C    6.369384   7.773032   7.100451   6.178015   5.700416
    43  H    6.749742   8.170458   7.278250   6.812210   6.414916
    44  H    7.287248   8.679573   8.114263   6.910569   6.383033
    45  H    5.746783   7.274781   6.661440   5.864162   5.241438
    46  C    5.892415   6.934499   6.772993   4.687049   4.282248
    47  H    5.906376   6.688325   6.673712   4.228521   4.022826
    48  H    5.244096   6.394464   6.354113   4.261014   3.638245
    49  H    6.910715   7.979113   7.850344   5.678364   5.224733
    50  H    7.908183   8.206253   6.505736   9.296750   9.673651
                   36         37         38         39         40
    36  H    0.000000
    37  H    1.764715   0.000000
    38  C    5.601651   7.191096   0.000000
    39  H    6.292675   7.915817   1.092849   0.000000
    40  H    6.312737   7.833249   1.089175   1.768705   0.000000
    41  H    5.118783   6.793951   1.092723   1.769708   1.772611
    42  C    6.022365   7.246137   2.534487   2.761729   2.793895
    43  H    6.704172   7.892227   2.783712   3.110651   2.600712
    44  H    6.664212   7.957869   2.771516   2.548872   3.137104
    45  H    5.877828   6.890236   3.490003   3.764454   3.798752
    46  C    4.225561   5.684887   2.492930   2.680914   3.464377
    47  H    3.557289   5.172274   2.742361   3.020897   3.769339
    48  H    4.000186   5.215840   3.466979   3.695024   4.340651
    49  H    5.164649   6.633056   2.701299   2.427019   3.696191
    50  H    9.711440   9.827196   9.509675  10.530446   8.884387
                   41         42         43         44         45
    41  H    0.000000
    42  C    3.490602   0.000000
    43  H    3.795033   1.088942   0.000000
    44  H    3.767835   1.092778   1.769729   0.000000
    45  H    4.335497   1.092747   1.772192   1.770716   0.000000
    46  C    2.747910   2.493448   3.462602   2.675115   2.756952
    47  H    2.544242   3.468529   4.339543   3.689405   3.772944
    48  H    3.763034   2.745511   3.773336   3.015937   2.557351
    49  H    3.077390   2.696813   3.687433   2.415618   3.083809
    50  H    9.569878   9.463063   8.841275  10.493643   9.470953
                   46         47         48         49         50
    46  C    0.000000
    47  H    1.093080   0.000000
    48  H    1.092974   1.774010   0.000000
    49  H    1.091571   1.766599   1.767375   0.000000
    50  H   10.434195  10.550773  10.513831  11.339696   0.000000
 Symmetry turned off by external request.
 Stoichiometry    C21H26N2O(1+,2)
 Framework group  C1[X(C21H26N2O)]
 Deg. of freedom   144
 Full point group                 C1      NOp   1
 Rotational constants (GHZ):           0.3534751           0.1443116           0.1073604
 Leave Link  202 at Wed Mar  6 13:38:56 2019, MaxMem=  1342177280 cpu:               1.3 elap:               0.2
 (Enter /gpfs/apps/hpc/Apps/Restricted/Gaussian/g16/Rev_B.01-AVX/g16/l716.exe)
 Electric field and nuclear coordinate derivatives read from checkpoint file.
 Dipole        =-1.43900217D+00-1.10967001D+00 9.36414048D-01
 Polarizability= 3.93416137D+02 7.31889495D+01 9.88196569D+02
                 1.59264903D+01-1.43097086D+01 1.77301398D+02
 Full mass-weighted force constant matrix:
 Low frequencies ---  -10.3335   -6.9093   -0.0010    0.0010    0.0023   21.7791
 Low frequencies ---   34.6145   48.5478   54.6288
 Diagonal vibrational polarizability:
       29.1372817     365.9927405      66.0941349
 Harmonic frequencies (cm**-1), IR intensities (KM/Mole), Raman scattering
 activities (A**4/AMU), depolarization ratios for plane and unpolarized
 incident light, reduced masses (AMU), force constants (mDyne/A),
 and normal coordinates:
                      1                      2                      3
                      A                      A                      A
 Frequencies --     34.1087                47.8611                53.9648
 Red. masses --      3.6103                 3.0107                 3.2405
 Frc consts  --      0.0025                 0.0041                 0.0056
 IR Inten    --      0.7209                 0.2687                 0.2578
  Atom  AN      X      Y      Z        X      Y      Z        X      Y      Z
     1   6    -0.00   0.00   0.05    -0.00   0.00   0.00    -0.00   0.01  -0.00
     2   6     0.01  -0.00  -0.04    -0.01   0.00   0.04    -0.00  -0.00  -0.04
     3   6     0.01  -0.00  -0.03    -0.01   0.00   0.03    -0.02  -0.01  -0.01
     4   6    -0.01   0.00   0.07    -0.00  -0.00  -0.01    -0.04   0.00   0.06
     5   6    -0.01   0.01   0.15     0.00  -0.00  -0.05    -0.04   0.02   0.10
     6   6    -0.01   0.01   0.15     0.00   0.00  -0.04    -0.02   0.02   0.06
     7   6     0.01  -0.00  -0.06    -0.00   0.00   0.05     0.02  -0.00  -0.08
     8   1     0.01  -0.01  -0.09    -0.01   0.00   0.05    -0.02  -0.02  -0.04
     9   1    -0.01   0.00   0.08    -0.00  -0.00  -0.02    -0.05  -0.00   0.09
    10   1    -0.02   0.01   0.22     0.00  -0.00  -0.08    -0.05   0.03   0.15
    11   7     0.01  -0.00  -0.11    -0.01   0.00   0.06     0.02  -0.01  -0.09
    12   6     0.01   0.00  -0.07    -0.00   0.00   0.05     0.02   0.00  -0.06
    13   6     0.01  -0.00  -0.07    -0.00   0.00   0.05     0.02  -0.00  -0.08
    14   6     0.01   0.00  -0.07    -0.00   0.00   0.04     0.02  -0.01  -0.05
    15   6     0.00   0.00  -0.02     0.00   0.00   0.04     0.01  -0.01  -0.01
    16   6    -0.00   0.00   0.02     0.00   0.00   0.03     0.00  -0.00  -0.02
    17   6    -0.00   0.00   0.00     0.00   0.00   0.02     0.01   0.00  -0.05
    18   1     0.01   0.00  -0.10    -0.00   0.01   0.04     0.02  -0.01  -0.06
    19   1    -0.00   0.00   0.07     0.00   0.00   0.02    -0.00  -0.00   0.00
    20   6     0.00  -0.00  -0.02    -0.00  -0.00   0.01    -0.01  -0.02   0.05
    21   6    -0.00   0.00   0.05     0.01  -0.00  -0.05     0.00   0.02   0.00
    22   8     0.01   0.00  -0.14    -0.00   0.00   0.07     0.02   0.00  -0.05
    23   1     0.02  -0.00  -0.15    -0.00   0.00   0.07     0.02   0.00  -0.07
    24   7    -0.00   0.00   0.03    -0.00   0.00   0.01     0.01   0.01  -0.03
    25   1    -0.01  -0.00   0.11     0.00   0.01  -0.01     0.01   0.02  -0.01
    26   6    -0.04  -0.06  -0.06    -0.14  -0.11  -0.11    -0.02  -0.12   0.01
    27   1    -0.05  -0.06  -0.12    -0.16  -0.11  -0.24    -0.03  -0.13  -0.08
    28   1    -0.04  -0.06  -0.06    -0.13  -0.10  -0.14    -0.02  -0.12   0.06
    29   1    -0.07  -0.11  -0.03    -0.24  -0.20  -0.03    -0.03  -0.20   0.04
    30   6     0.05   0.05  -0.06     0.15   0.09  -0.12     0.02   0.06   0.01
    31   1     0.08   0.10  -0.04     0.26   0.19  -0.03     0.03   0.14   0.03
    32   1     0.04   0.04  -0.06     0.14   0.07  -0.15     0.00   0.04   0.05
    33   1     0.06   0.05  -0.13     0.19   0.08  -0.25     0.04   0.05  -0.07
    34   6    -0.01   0.00   0.06    -0.01   0.00   0.17    -0.03  -0.01   0.16
    35   1     0.02   0.04   0.09     0.06   0.09   0.24    -0.02   0.06   0.18
    36   1    -0.04  -0.04   0.09    -0.08  -0.08   0.24    -0.03  -0.07   0.18
    37   1    -0.01  -0.00   0.05    -0.01  -0.00   0.16    -0.03  -0.02   0.20
    38   6     0.02  -0.15  -0.01     0.08   0.01  -0.08    -0.12   0.13   0.09
    39   1     0.02  -0.15   0.01     0.07   0.03  -0.13    -0.11   0.11   0.14
    40   1     0.02  -0.16  -0.13     0.11   0.02  -0.08    -0.15   0.13   0.20
    41   1     0.04  -0.24   0.04     0.11   0.00  -0.05    -0.18   0.22   0.01
    42   6    -0.03   0.13  -0.03    -0.06  -0.01  -0.09     0.12  -0.08   0.13
    43   1    -0.02   0.13  -0.15    -0.08  -0.01  -0.10     0.15  -0.07   0.24
    44   1    -0.03   0.14  -0.02    -0.05  -0.03  -0.14     0.10  -0.04   0.18
    45   1    -0.07   0.22   0.01    -0.10   0.00  -0.07     0.20  -0.17   0.06
    46   6    -0.01   0.01   0.23     0.00  -0.00  -0.07     0.01   0.01  -0.13
    47   1    -0.02  -0.10   0.28     0.05   0.01  -0.04    -0.02   0.09  -0.19
    48   1    -0.00   0.12   0.27    -0.06  -0.01  -0.04     0.04  -0.08  -0.18
    49   1    -0.01   0.01   0.28     0.01   0.00  -0.14     0.00   0.02  -0.13
    50   1    -0.02   0.01   0.21     0.00   0.00  -0.07    -0.03   0.03   0.09
                      4                      5                      6
                      A                      A                      A
 Frequencies --     62.9952                67.7520               104.9998
 Red. masses --      4.2565                 4.4325                 5.2334
 Frc consts  --      0.0100                 0.0120                 0.0340
 IR Inten    --      2.4902                 1.9899                 0.2161
  Atom  AN      X      Y      Z        X      Y      Z        X      Y      Z
     1   6     0.00  -0.04   0.11     0.03  -0.05  -0.07     0.01  -0.01  -0.07
     2   6     0.02   0.01  -0.06     0.01   0.02   0.06     0.01  -0.01  -0.13
     3   6     0.09   0.03  -0.18     0.06   0.05   0.17     0.01  -0.01  -0.08
     4   6     0.13  -0.01  -0.15     0.12   0.01   0.15    -0.01  -0.00   0.07
     5   6     0.11  -0.05   0.01     0.13  -0.06   0.02    -0.02  -0.00   0.15
     6   6     0.04  -0.07   0.14     0.08  -0.09  -0.09    -0.01  -0.00   0.07
     7   6    -0.07   0.00   0.06    -0.06  -0.00  -0.07     0.01  -0.01  -0.14
     8   1     0.10   0.07  -0.30     0.06   0.11   0.27     0.01  -0.02  -0.13
     9   1     0.17   0.01  -0.26     0.16   0.04   0.24    -0.02  -0.00   0.13
    10   1     0.14  -0.07   0.02     0.17  -0.09   0.02    -0.03   0.01   0.27
    11   7    -0.03   0.03  -0.08    -0.05   0.04   0.05     0.02  -0.01  -0.18
    12   6    -0.06  -0.01   0.02    -0.06  -0.01  -0.04    -0.01  -0.00   0.13
    13   6    -0.07   0.01   0.03    -0.07   0.01  -0.08     0.01  -0.01  -0.07
    14   6    -0.05   0.03   0.00    -0.05   0.03  -0.08     0.01  -0.01  -0.14
    15   6    -0.01   0.03  -0.01    -0.02   0.04  -0.03    -0.00  -0.01  -0.01
    16   6    -0.01   0.01   0.00    -0.01   0.01  -0.02    -0.01  -0.01   0.12
    17   6    -0.03  -0.01   0.01    -0.03  -0.02  -0.03    -0.01  -0.00   0.14
    18   1    -0.05   0.06  -0.04    -0.06   0.06  -0.09     0.02  -0.01  -0.30
    19   1     0.01   0.01  -0.00     0.01   0.00   0.00    -0.01  -0.01   0.16
    20   6     0.02   0.07  -0.03     0.02   0.08   0.04     0.01   0.01  -0.01
    21   6    -0.02  -0.05   0.01    -0.02  -0.06  -0.01    -0.01   0.01   0.03
    22   8    -0.07  -0.02   0.01    -0.08  -0.02  -0.02    -0.02   0.00   0.29
    23   1    -0.09  -0.03  -0.03    -0.11  -0.03   0.02    -0.01  -0.00   0.14
    24   7    -0.06  -0.04   0.19    -0.03  -0.06  -0.15     0.01  -0.01  -0.11
    25   1    -0.09  -0.08   0.34    -0.04  -0.11  -0.25    -0.00  -0.02  -0.02
    26   6    -0.02   0.10  -0.05     0.04   0.06   0.05     0.05   0.01   0.02
    27   1    -0.05   0.11  -0.06    -0.00   0.07   0.01     0.06   0.01   0.03
    28   1    -0.00   0.12  -0.08     0.07   0.10   0.10     0.04   0.01   0.04
    29   1    -0.04   0.08  -0.04     0.07  -0.01   0.05     0.07   0.02  -0.00
    30   6     0.04   0.10  -0.06    -0.03   0.17   0.05    -0.03   0.02   0.01
    31   1     0.07   0.10  -0.04    -0.04   0.20   0.04    -0.05  -0.00  -0.00
    32   1     0.06   0.12  -0.07    -0.00   0.20   0.10    -0.01   0.05   0.03
    33   1     0.02   0.11  -0.08    -0.06   0.19   0.01    -0.08   0.04   0.02
    34   6     0.06   0.06  -0.02     0.07   0.07   0.09     0.03   0.00  -0.03
    35   1     0.09   0.04  -0.00     0.06   0.09   0.10     0.04  -0.02  -0.02
    36   1     0.04   0.04  -0.00     0.09   0.01   0.10     0.01   0.01  -0.02
    37   1     0.08   0.08  -0.04     0.09   0.10   0.13     0.03   0.01  -0.05
    38   6    -0.06  -0.01   0.04    -0.04  -0.10  -0.01     0.15   0.08  -0.02
    39   1    -0.05  -0.04   0.05    -0.03  -0.12   0.00     0.14   0.13  -0.14
    40   1    -0.10  -0.01   0.09    -0.07  -0.10  -0.03     0.21   0.09   0.01
    41   1    -0.07   0.04   0.02    -0.04  -0.10  -0.01     0.22   0.08   0.03
    42   6     0.00  -0.11   0.06    -0.03  -0.07  -0.01    -0.14  -0.04  -0.04
    43   1    -0.01  -0.11   0.10    -0.05  -0.07  -0.03    -0.15  -0.04  -0.02
    44   1     0.01  -0.12   0.06    -0.02  -0.09  -0.00    -0.13  -0.05  -0.17
    45   1     0.03  -0.15   0.03    -0.01  -0.05  -0.01    -0.24  -0.05   0.00
    46   6     0.02  -0.05  -0.05     0.02  -0.06   0.01    -0.03   0.01  -0.05
    47   1     0.03   0.00  -0.08     0.03  -0.06   0.02     0.06   0.04  -0.01
    48   1     0.04  -0.08  -0.08     0.04  -0.03   0.02    -0.14  -0.05  -0.02
    49   1     0.03  -0.07  -0.06     0.03  -0.09   0.02    -0.03   0.02  -0.18
    50   1     0.03  -0.11   0.26     0.09  -0.15  -0.18    -0.02   0.00   0.13
                      7                      8                      9
                      A                      A                      A
 Frequencies --    117.4158               132.2908               173.8131
 Red. masses --      3.7734                 3.7114                 3.7113
 Frc consts  --      0.0307                 0.0383                 0.0661
 IR Inten    --      0.1668                 0.9826                 0.3015
  Atom  AN      X      Y      Z        X      Y      Z        X      Y      Z
     1   6    -0.01   0.02   0.08     0.01   0.05  -0.03    -0.02   0.01   0.09
     2   6    -0.01   0.01   0.07     0.01   0.06  -0.03    -0.02   0.01   0.10
     3   6    -0.01   0.00  -0.01     0.03   0.08  -0.02    -0.01   0.02   0.08
     4   6    -0.01   0.00  -0.09     0.03   0.07   0.02     0.01   0.01  -0.04
     5   6    -0.01   0.01  -0.07     0.03   0.06   0.03     0.02  -0.00  -0.10
     6   6    -0.01   0.02   0.02     0.02   0.05   0.01    -0.00  -0.00  -0.01
     7   6     0.00   0.01   0.06    -0.01   0.06  -0.03    -0.02   0.01   0.00
     8   1    -0.01  -0.00  -0.02     0.03   0.09  -0.02    -0.01   0.03   0.10
     9   1    -0.00  -0.00  -0.16     0.04   0.08   0.04     0.02   0.01  -0.10
    10   1    -0.00   0.01  -0.14     0.04   0.05   0.07     0.03  -0.01  -0.20
    11   7    -0.00   0.01   0.08    -0.00   0.07  -0.04    -0.02   0.01   0.05
    12   6     0.00   0.01   0.03    -0.01   0.04   0.01     0.01  -0.00  -0.06
    13   6     0.01   0.01  -0.04    -0.00   0.05   0.01     0.01   0.00  -0.10
    14   6     0.02   0.00  -0.18     0.01   0.05   0.03     0.02   0.01  -0.19
    15   6     0.02   0.00  -0.18     0.01   0.05   0.03     0.01   0.01  -0.01
    16   6     0.02   0.01  -0.16     0.01   0.06   0.01    -0.00   0.01   0.24
    17   6     0.01   0.01  -0.05     0.00   0.04   0.01     0.00   0.00   0.12
    18   1     0.03   0.01  -0.24     0.01   0.05   0.05     0.03   0.02  -0.34
    19   1     0.02   0.01  -0.21     0.02   0.07   0.01    -0.02   0.02   0.45
    20   6    -0.00  -0.02  -0.04    -0.07  -0.04   0.00    -0.00  -0.01  -0.02
    21   6     0.01   0.00  -0.00     0.05  -0.08  -0.00     0.01  -0.00   0.06
    22   8    -0.01   0.01   0.16    -0.02   0.03   0.03     0.01  -0.01  -0.17
    23   1    -0.00   0.02   0.15    -0.04   0.02   0.01    -0.01  -0.01  -0.13
    24   7    -0.01   0.02   0.09    -0.00   0.05  -0.03    -0.02   0.01   0.06
    25   1    -0.01   0.02   0.12    -0.00   0.05  -0.03    -0.03  -0.01   0.07
    26   6     0.12  -0.16   0.02    -0.07  -0.09  -0.01     0.03  -0.05  -0.00
    27   1     0.08  -0.15  -0.08     0.00  -0.12  -0.00     0.05  -0.06  -0.02
    28   1     0.14  -0.12   0.21    -0.12  -0.16  -0.04     0.02  -0.06   0.03
    29   1     0.22  -0.31  -0.00    -0.11  -0.04   0.00     0.05  -0.06  -0.01
    30   6    -0.12   0.08   0.02    -0.04  -0.14   0.00    -0.03  -0.01  -0.01
    31   1    -0.24   0.22  -0.03    -0.04  -0.15   0.00    -0.05  -0.02  -0.02
    32   1    -0.17   0.03   0.19    -0.07  -0.17  -0.03    -0.02  -0.01   0.01
    33   1    -0.06   0.06  -0.06    -0.00  -0.15   0.04    -0.05  -0.01  -0.01
    34   6    -0.04  -0.01   0.06    -0.19  -0.01  -0.02    -0.04  -0.00  -0.03
    35   1    -0.12   0.09   0.03    -0.23   0.02  -0.05     0.02  -0.02   0.00
    36   1     0.03  -0.08   0.04    -0.17   0.03  -0.05    -0.10   0.03  -0.00
    37   1    -0.06  -0.02   0.20    -0.23  -0.07  -0.00    -0.05  -0.02  -0.11
    38   6     0.01  -0.04  -0.01     0.02  -0.15  -0.00     0.10   0.06   0.03
    39   1    -0.00  -0.02   0.00     0.05  -0.25  -0.00     0.14  -0.02  -0.09
    40   1     0.03  -0.04  -0.06    -0.09  -0.16  -0.01     0.02   0.06   0.12
    41   1    -0.00  -0.08  -0.00     0.05  -0.11   0.00     0.20   0.18   0.05
    42   6     0.01   0.02  -0.01     0.01  -0.16  -0.00    -0.06  -0.06   0.02
    43   1    -0.03   0.01  -0.05    -0.05  -0.16   0.01     0.03  -0.04   0.11
    44   1     0.02  -0.02   0.02     0.03  -0.21  -0.01    -0.10   0.04  -0.13
    45   1     0.03   0.07  -0.01     0.03  -0.14  -0.00    -0.19  -0.18   0.04
    46   6     0.02   0.00   0.06     0.19  -0.09  -0.00     0.02  -0.01  -0.05
    47   1    -0.02  -0.03   0.05     0.18  -0.04  -0.04     0.11   0.06  -0.02
    48   1     0.08   0.05   0.05     0.29  -0.05  -0.03    -0.08  -0.08  -0.03
    49   1     0.02  -0.01   0.13     0.22  -0.18   0.06     0.03  -0.01  -0.18
    50   1    -0.01   0.02   0.02     0.02   0.03   0.02     0.00  -0.01  -0.05
                     10                     11                     12
                      A                      A                      A
 Frequencies --    213.5291               221.4140               237.3555
 Red. masses --      4.0397                 1.6955                 1.5787
 Frc consts  --      0.1085                 0.0490                 0.0524
 IR Inten    --     12.5150                 0.6558                37.4363
  Atom  AN      X      Y      Z        X      Y      Z        X      Y      Z
     1   6     0.11   0.02   0.02    -0.00  -0.01  -0.06     0.00  -0.05   0.01
     2   6     0.11  -0.03   0.02    -0.00  -0.00  -0.05    -0.00  -0.05   0.01
     3   6     0.01  -0.10   0.00     0.00   0.00  -0.03    -0.02  -0.06   0.01
     4   6    -0.08  -0.03  -0.02     0.00   0.00   0.04    -0.02  -0.06  -0.00
     5   6    -0.08   0.06  -0.02     0.00  -0.01   0.04    -0.02  -0.06  -0.01
     6   6     0.02   0.10  -0.00     0.00  -0.01  -0.03    -0.00  -0.05   0.00
     7   6     0.15  -0.02   0.02    -0.01   0.00   0.04    -0.00  -0.03  -0.01
     8   1    -0.00  -0.20   0.01     0.00   0.01  -0.02    -0.02  -0.08   0.01
     9   1    -0.15  -0.06  -0.03     0.00   0.01   0.09    -0.02  -0.06  -0.01
    10   1    -0.14   0.10  -0.03     0.00  -0.01   0.08    -0.03  -0.05  -0.02
    11   7     0.15  -0.04   0.03    -0.01   0.00  -0.00     0.00  -0.03  -0.00
    12   6     0.00   0.03  -0.00    -0.01  -0.00   0.03    -0.01   0.02  -0.00
    13   6     0.04  -0.01  -0.00    -0.01   0.00   0.09    -0.01  -0.00  -0.02
    14   6    -0.01  -0.04  -0.03    -0.01   0.01   0.09     0.01   0.02  -0.02
    15   6    -0.07  -0.03  -0.01     0.00   0.00  -0.03     0.01   0.03  -0.01
    16   6    -0.07   0.00   0.03     0.01   0.00  -0.04     0.01   0.04  -0.05
    17   6    -0.06   0.02   0.01    -0.00   0.00   0.05     0.00   0.04  -0.01
    18   1    -0.00  -0.08  -0.05    -0.01   0.01   0.14     0.00   0.04  -0.02
    19   1    -0.08   0.00   0.05     0.01   0.00  -0.12     0.01   0.04  -0.09
    20   6    -0.04   0.03  -0.01     0.01  -0.00  -0.04    -0.00   0.03   0.02
    21   6    -0.06  -0.04   0.00     0.00   0.01   0.04     0.01   0.03   0.01
    22   8     0.05   0.07  -0.01     0.00  -0.01  -0.08    -0.02   0.02   0.01
    23   1     0.13   0.07  -0.00    -0.01  -0.01  -0.07    -0.01   0.02   0.00
    24   7     0.15   0.01   0.02    -0.01  -0.00  -0.01     0.00  -0.04   0.00
    25   1     0.16   0.03   0.01    -0.01  -0.00   0.00    -0.00  -0.05   0.01
    26   6    -0.07   0.10  -0.02     0.05  -0.05  -0.02    -0.01   0.02   0.01
    27   1    -0.13   0.12  -0.02    -0.13   0.01  -0.16     0.17  -0.04   0.14
    28   1    -0.02   0.16  -0.03     0.17   0.12   0.15    -0.14  -0.14  -0.12
    29   1    -0.07   0.07  -0.01     0.15  -0.30  -0.02    -0.09   0.26   0.00
    30   6    -0.08   0.11   0.00    -0.04   0.03  -0.02     0.02   0.01   0.00
    31   1    -0.12   0.20  -0.01    -0.15   0.32  -0.05     0.10  -0.19   0.02
    32   1    -0.10   0.09   0.09    -0.18  -0.14   0.17     0.13   0.14  -0.13
    33   1    -0.05   0.10  -0.06     0.17  -0.04  -0.16    -0.13   0.06   0.10
    34   6     0.05   0.01   0.00     0.00   0.00  -0.03    -0.05   0.04   0.03
    35   1     0.11  -0.03   0.04     0.03  -0.00  -0.01    -0.18   0.11  -0.05
    36   1     0.01  -0.01   0.03    -0.02  -0.00  -0.01     0.05   0.03  -0.03
    37   1     0.08   0.06  -0.06     0.00   0.00  -0.05    -0.09   0.01   0.17
    38   6    -0.12  -0.10   0.02     0.06   0.04   0.02     0.03   0.04   0.00
    39   1    -0.06  -0.26   0.02     0.14  -0.15  -0.13     0.14  -0.21  -0.15
    40   1    -0.31  -0.10   0.06    -0.14   0.04   0.14    -0.24   0.03   0.13
    41   1    -0.08   0.03  -0.01     0.21   0.25   0.03     0.20   0.29   0.00
    42   6    -0.13  -0.10  -0.03    -0.05  -0.02   0.01    -0.01   0.02  -0.01
    43   1    -0.10  -0.09   0.01     0.09  -0.00   0.13     0.09   0.03   0.08
    44   1    -0.13  -0.08  -0.13    -0.10   0.11  -0.15    -0.05   0.12  -0.11
    45   1    -0.21  -0.15  -0.00    -0.18  -0.18   0.03    -0.10  -0.10   0.00
    46   6     0.03  -0.05  -0.02     0.01   0.01   0.02     0.07   0.04   0.03
    47   1     0.02  -0.01  -0.05    -0.09   0.02  -0.05    -0.08   0.04  -0.08
    48   1     0.09  -0.05  -0.04     0.12  -0.00  -0.04     0.29   0.08  -0.06
    49   1     0.05  -0.10   0.01     0.00   0.00   0.13     0.07  -0.00   0.25
    50   1     0.03   0.20  -0.01     0.00  -0.02  -0.03    -0.00  -0.04   0.00
                     13                     14                     15
                      A                      A                      A
 Frequencies --    244.1523               257.4151               265.2705
 Red. masses --      2.1056                 2.7096                 3.3515
 Frc consts  --      0.0740                 0.1058                 0.1390
 IR Inten    --     17.3961               110.7640                 8.8900
  Atom  AN      X      Y      Z        X      Y      Z        X      Y      Z
     1   6     0.01  -0.06  -0.01    -0.01   0.03   0.01     0.01   0.01  -0.01
     2   6     0.01  -0.06  -0.01    -0.00   0.03   0.02     0.02   0.00  -0.12
     3   6    -0.02  -0.08   0.00     0.01   0.03  -0.00    -0.00   0.01   0.07
     4   6    -0.03  -0.08   0.02     0.02   0.04  -0.03    -0.02   0.02   0.18
     5   6    -0.03  -0.07   0.00     0.01   0.04   0.00     0.00   0.02  -0.09
     6   6     0.00  -0.05  -0.02    -0.00   0.03   0.03     0.02   0.01  -0.17
     7   6     0.01  -0.03   0.01     0.01   0.01  -0.01     0.01   0.01   0.04
     8   1    -0.02  -0.11   0.01     0.02   0.05  -0.02    -0.01   0.00   0.17
     9   1    -0.04  -0.08   0.04     0.02   0.03  -0.07    -0.05   0.03   0.40
    10   1    -0.04  -0.06   0.00     0.02   0.03   0.01     0.01   0.01  -0.16
    11   7     0.01  -0.04  -0.01     0.00   0.01   0.02     0.03  -0.00  -0.19
    12   6    -0.01   0.03   0.00     0.02  -0.03  -0.01    -0.00  -0.01   0.03
    13   6    -0.01   0.00   0.01     0.01  -0.01  -0.02    -0.00   0.00   0.04
    14   6     0.00   0.03   0.01    -0.03  -0.03  -0.01    -0.01  -0.00   0.00
    15   6    -0.00   0.05   0.01    -0.06  -0.05  -0.02    -0.01  -0.01  -0.03
    16   6     0.00   0.05   0.05    -0.02  -0.07  -0.05    -0.00  -0.01  -0.04
    17   6     0.01   0.04   0.00     0.02  -0.05  -0.00    -0.00  -0.01   0.02
    18   1     0.00   0.04  -0.02    -0.03  -0.06   0.01    -0.00   0.00  -0.05
    19   1     0.01   0.05   0.10    -0.02  -0.07  -0.09     0.00  -0.02  -0.09
    20   6    -0.03   0.04  -0.02    -0.06  -0.00   0.01    -0.01   0.00  -0.01
    21   6     0.04   0.02  -0.01     0.04  -0.03   0.01    -0.00  -0.02   0.01
    22   8    -0.01   0.02  -0.01     0.03  -0.02  -0.00     0.01  -0.00  -0.02
    23   1     0.00   0.02  -0.01     0.04  -0.01   0.01     0.02  -0.01  -0.10
[...]
 ! A16   A(1,6,5)               -0.0381                  1.7                    !
 ! A18   A(5,6,50)               0.0343                  1.5                    !
 --------------------------------------------------------------------------------
                           ----------------------------
                           ! Normal Mode   139        !
 --------------------------                            --------------------------
 ! Name  Definition              Value          Relative Weight (%)             !
 --------------------------------------------------------------------------------
 ! R7    R(3,8)                 -0.329                  13.8                    !
 ! R8    R(4,5)                 -0.0535                  2.2                    !
 ! R9    R(4,9)                  0.8812                 36.9                    !
 ! R11   R(5,10)                 0.4211                 17.6                    !
 ! R12   R(6,50)                -0.3325                 13.9                    !
 ! A7    A(2,3,4)               -0.0399                  1.7                    !
 ! A9    A(4,3,8)                0.0354                  1.5                    !
 ! A10   A(3,4,5)                0.0446                  1.9                    !
 ! A11   A(3,4,9)               -0.0338                  1.4                    !
 --------------------------------------------------------------------------------
                           ----------------------------
                           ! Normal Mode   140        !
 --------------------------                            --------------------------
 ! Name  Definition              Value          Relative Weight (%)             !
 --------------------------------------------------------------------------------
 ! R2    R(1,6)                 -0.0435                  1.9                    !
 ! R4    R(2,3)                  0.0178                  0.8                    !
 ! R6    R(3,4)                  0.0171                  0.7                    !
 ! R7    R(3,8)                 -0.3888                 16.8                    !
 ! R8    R(4,5)                 -0.0152                  0.7                    !
 ! R9    R(4,9)                  0.0372                  1.6                    !
 ! R10   R(5,6)                 -0.0595                  2.6                    !
 ! R11   R(5,10)                 0.3606                 15.6                    !
 ! R12   R(6,50)                 0.9401                 40.7                    !
 ! R21   R(14,18)               -0.1043                  4.5                    !
 ! A1    A(2,1,6)               -0.0234                  1.0                    !
 ! A3    A(6,1,24)               0.0262                  1.1                    !
 ! A7    A(2,3,4)               -0.0219                  0.9                    !
 ! A15   A(6,5,10)               0.0179                  0.8                    !
 ! A16   A(1,6,5)                0.0402                  1.7                    !
 ! A17   A(1,6,50)              -0.0233                  1.0                    !
 ! A18   A(5,6,50)              -0.0169                  0.7                    !
 --------------------------------------------------------------------------------
                           ----------------------------
                           ! Normal Mode   141        !
 --------------------------                            --------------------------
 ! Name  Definition              Value          Relative Weight (%)             !
 --------------------------------------------------------------------------------
 ! R7    R(3,8)                 -0.081                   4.5                    !
 ! R11   R(5,10)                 0.0257                  1.4                    !
 ! R12   R(6,50)                 0.0766                  4.2                    !
 ! R19   R(13,14)               -0.0462                  2.5                    !
 ! R20   R(14,15)               -0.0441                  2.4                    !
 ! R21   R(14,18)                1.0755                 59.3                    !
 ! R35   R(26,27)                0.0227                  1.3                    !
 ! R40   R(30,33)                0.0388                  2.1                    !
 ! A27   A(7,13,14)              0.0295                  1.6                    !
 ! A28   A(12,13,14)            -0.0273                  1.5                    !
 ! A29   A(13,14,15)             0.0565                  3.1                    !
 ! A30   A(13,14,18)            -0.0282                  1.6                    !
 ! A31   A(15,14,18)            -0.0282                  1.6                    !
 ! A32   A(14,15,16)            -0.0271                  1.5                    !
 ! A33   A(14,15,20)             0.029                   1.6                    !
 --------------------------------------------------------------------------------
                           ----------------------------
                           ! Normal Mode   142        !
 --------------------------                            --------------------------
 ! Name  Definition              Value          Relative Weight (%)             !
 --------------------------------------------------------------------------------
 ! R4    R(2,3)                  0.0422                  1.8                    !
 ! R6    R(3,4)                  0.0602                  2.6                    !
 ! R7    R(3,8)                 -0.9502                 41.1                    !
 ! R8    R(4,5)                  0.0216                  0.9                    !
 ! R9    R(4,9)                 -0.3706                 16.0                    !
 ! R10   R(5,6)                  0.0222                  1.0                    !
 ! R11   R(5,10)                -0.207                   8.9                    !
 ! R12   R(6,50)                -0.3044                 13.2                    !
 ! R21   R(14,18)               -0.0491                  2.1                    !
 ! A4    A(1,2,3)                0.0246                  1.1                    !
 ! A6    A(3,2,11)              -0.0262                  1.1                    !
 ! A7    A(2,3,4)               -0.0401                  1.7                    !
 ! A8    A(2,3,8)                0.0247                  1.1                    !
 ! A9    A(4,3,8)                0.0154                  0.7                    !
 ! A11   A(3,4,9)               -0.0179                  0.8                    !
 --------------------------------------------------------------------------------
                           ----------------------------
                           ! Normal Mode   143        !
 --------------------------                            --------------------------
 ! Name  Definition              Value          Relative Weight (%)             !
 --------------------------------------------------------------------------------
 ! R22   R(15,16)                0.0411                  2.6                    !
 ! R24   R(16,17)                0.0441                  2.8                    !
 ! R25   R(16,19)               -1.0816                 69.2                    !
 ! R42   R(34,36)               -0.0128                  0.8                    !
 ! R50   R(46,47)               -0.0157                  1.0                    !
 ! R51   R(46,48)               -0.0145                  0.9                    !
 ! A32   A(14,15,16)             0.0281                  1.8                    !
 ! A34   A(16,15,20)            -0.0293                  1.9                    !
 ! A35   A(15,16,17)            -0.0574                  3.7                    !
 ! A36   A(15,16,19)             0.0278                  1.8                    !
 ! A37   A(17,16,19)             0.0296                  1.9                    !
 ! A38   A(12,17,16)             0.0282                  1.8                    !
 ! A40   A(16,17,21)            -0.0299                  1.9                    !
 --------------------------------------------------------------------------------
                           ----------------------------
                           ! Normal Mode   144        !
 --------------------------                            --------------------------
 ! Name  Definition              Value          Relative Weight (%)             !
 --------------------------------------------------------------------------------
 ! R3    R(1,24)                -0.0457                  3.3                    !
 ! R15   R(7,24)                -0.0467                  3.3                    !
 ! R34   R(24,25)                1.0727                 76.7                    !
 ! A2    A(2,1,24)              -0.0231                  1.7                    !
 ! A3    A(6,1,24)               0.0241                  1.7                    !
 ! A20   A(11,7,24)             -0.0229                  1.6                    !
 ! A21   A(13,7,24)              0.0241                  1.7                    !
 ! A54   A(1,24,7)               0.0472                  3.4                    !
 ! A55   A(1,24,25)             -0.0223                  1.6                    !
 ! A56   A(7,24,25)             -0.0249                  1.8                    !
 --------------------------------------------------------------------------------
 Max01P=     51 Av01P=   26.03 Stan. Dev.=    8.32
 Max05P=     12 Av05P=    1.26 Stan. Dev.=    2.13
 Max10P=      6 Av10P=    0.58 Stan. Dev.=    1.30
 MaxNDP=     93 AvNDP=   68.45 Stan. Dev.=   16.52
 -------------------------------------------------------------------
 Center     Atomic                   Forces (Hartrees/Bohr)
 Number     Number              X              Y              Z
 -------------------------------------------------------------------
      1        6           0.000005160   -0.000001776   -0.000001461
      2        6           0.000005222    0.000000302    0.000002435
      3        6           0.000006466    0.000000817    0.000005328
      4        6           0.000008287   -0.000000111    0.000003365
      5        6           0.000007890   -0.000002004   -0.000001080
      6        6           0.000007316   -0.000003059   -0.000003659
      7        6           0.000002853   -0.000000406    0.000000016
      8        1           0.000006187    0.000002431    0.000008776
      9        1           0.000008980    0.000000458    0.000005416
     10        1           0.000009628   -0.000002913   -0.000002426
     11        7           0.000003254    0.000000783    0.000003999
     12        6          -0.000000154    0.000001855    0.000003625
     13        6           0.000001227   -0.000000604   -0.000000379
     14        6          -0.000000049   -0.000001343   -0.000004039
     15        6          -0.000001728   -0.000001668   -0.000004204
     16        6          -0.000002434    0.000000333   -0.000000262
     17        6          -0.000001501    0.000001666    0.000003787
     18        1           0.000000809   -0.000003133   -0.000007039
     19        1          -0.000003988    0.000000703   -0.000000342
     20        6          -0.000002850   -0.000002905   -0.000008165
     21        6          -0.000002788    0.000003789    0.000007950
     22        8           0.000000886    0.000002975    0.000007495
     23        1           0.000002087    0.000002207    0.000006708
     24        7           0.000004157   -0.000002168   -0.000003749
     25        1           0.000003871   -0.000003357   -0.000006530
     26        6          -0.000006257   -0.000003277   -0.000011303
     27        1          -0.000005184   -0.000003766   -0.000011597
     28        1          -0.000007166   -0.000004489   -0.000014224
     29        1          -0.000009547   -0.000002067   -0.000009486
     30        6           0.000001620   -0.000004817   -0.000011053
     31        1           0.000004294   -0.000004578   -0.000009113
     32        1           0.000000830   -0.000005936   -0.000014049
     33        1           0.000002997   -0.000005239   -0.000011468
     34        6          -0.000004586   -0.000002470   -0.000008019
     35        1          -0.000002096   -0.000002142   -0.000006197
     36        1          -0.000007751   -0.000001153   -0.000006406
     37        1          -0.000005248   -0.000003563   -0.000011169
     38        6          -0.000006471    0.000005511    0.000010111
     39        1          -0.000007113    0.000006735    0.000013115
     40        1          -0.000005308    0.000005587    0.000011114
     41        1          -0.000009576    0.000005196    0.000008096
     42        6           0.000001758    0.000004155    0.000010769
     43        1           0.000002965    0.000004321    0.000011821
     44        1           0.000000993    0.000005472    0.000013752
     45        1           0.000004326    0.000003039    0.000009296
     46        6          -0.000004655    0.000003583    0.000007043
     47        1          -0.000007686    0.000003610    0.000005015
     48        1          -0.000002061    0.000002633    0.000005447
     49        1          -0.000005148    0.000005162    0.000010091
     50        1           0.000007287   -0.000004379   -0.000007156
 -------------------------------------------------------------------
 Cartesian Forces:  Max     0.000014224 RMS     0.000005847
 FormGI is forming the generalized inverse of G from B-inverse, IUseBI=4.
 Leave Link  716 at Wed Mar  6 13:38:56 2019, MaxMem=  1342177280 cpu:               4.3 elap:               0.3
 (Enter /gpfs/apps/hpc/Apps/Restricted/Gaussian/g16/Rev_B.01-AVX/g16/l9999.exe)

 ----------------------------------------------------------------------

 Electric dipole moment (input orientation):
 (Debye = 10**-18 statcoulomb cm , SI units = C m)
                  (au)            (Debye)         (10**-30 SI)
   Tot        0.204425D+01      0.519597D+01      0.173319D+02
   x         -0.143900D+01     -0.365758D+01     -0.122004D+02
   y         -0.110967D+01     -0.282050D+01     -0.940817D+01
   z          0.936414D+00      0.238013D+01      0.793925D+01

 Dipole polarizability, Alpha (input orientation).
 (esu units = cm**3 , SI units = C**2 m**2 J**-1)
 Alpha(0;0):
               (au)            (10**-24 esu)      (10**-40 SI)
   iso        0.519638D+03      0.770024D+02      0.856767D+02
   aniso      0.739226D+03      0.109542D+03      0.121882D+03
   xx         0.393416D+03      0.582983D+02      0.648656D+02
   yx         0.731889D+02      0.108455D+02      0.120672D+02
   yy         0.988197D+03      0.146436D+03      0.162932D+03
   zx         0.159265D+02      0.236006D+01      0.262592D+01
   zy        -0.143097D+02     -0.212048D+01     -0.235935D+01
   zz         0.177301D+03      0.262734D+02      0.292331D+02

 ----------------------------------------------------------------------

 Dipole orientation:
     6         -1.35209038          4.84621767         -1.79362173
     6         -3.37139754          5.56576245         -0.16251749
     6         -4.90258587          7.65060485         -0.75844241
     6         -4.35698425          8.94163858         -2.96643307
     6         -2.34015450          8.20496035         -4.56979683
     6         -0.80129564          6.15493850         -4.01682028
     6         -1.56712945          2.26174661          1.49809530
     1         -6.44161708          8.20767166          0.46856856
     1         -5.49309199         10.56023780         -3.49588894
     1         -1.99358178          9.27905538         -6.27759104
     7         -3.43912470          3.93015005          1.84585423
     6         -2.69677953          0.05724250          5.48390924
     6         -1.09358119          0.22937686          3.24496929
     6          0.77260161         -1.56629769          2.86962510
     6          1.15131183         -3.52838844          4.60922550
     6         -0.41508576         -3.63791940          6.78858844
     6         -2.31212844         -1.93228504          7.30618145
     1          1.95590437         -1.47542613          1.20472681
     1         -0.09042324         -5.15289037          8.10947507
     6          3.18065451         -5.49665872          4.09239332
     6         -3.94999175         -2.12289734          9.68020333
     8         -4.49668541          1.69504947          5.83969591
     1         -4.50874363          2.98253866          4.32634524
     7         -0.26675427          2.76449753         -0.67767787
     1          1.22746862          1.79103338         -1.35453659
     6          2.50434199         -6.85955161          1.59637173
     1          2.39290324         -5.53375978          0.01918126
     1          3.96519952         -8.25458320          1.16642901
     1          0.69431805         -7.83899968          1.75731630
     6          5.75835334         -4.15939901          3.78136983
     1          6.29296091         -3.17373671          5.51436561
     1          7.20429820         -5.57325356          3.36391961
     1          5.73455493         -2.79528736          2.23309190
     6          3.39787024         -7.46403265          6.21108106
     1          3.90813447         -6.59388942          8.01339239
     1          1.63918603         -8.51786868          6.46078758
     1          4.87751444         -8.81579109          5.72217200
     6         -6.74161246         -2.54206151          8.93194007
     1         -7.87303198         -2.73957486         10.64829403
     1         -7.49450360         -0.96896442          7.83883257
     1         -6.94519658         -4.27333955          7.82503697
     6         -3.68830051          0.31750444         11.26418038
     1         -4.37678681          1.96891726         10.24763300
     1         -4.78767860          0.11491136         13.00048586
     1         -1.71504735          0.63664377         11.78246429
     6         -3.12284290         -4.35978092         11.33890843
     1         -3.31380393         -6.16183177         10.34747363
     1         -1.16473474         -4.16113275         11.96526161
     1         -4.32447840         -4.42636353         13.01421658
     1          0.73869093          5.59202202         -5.23940962

 Electric dipole moment (dipole orientation):
 (Debye = 10**-18 statcoulomb cm , SI units = C m)
                  (au)            (Debye)         (10**-30 SI)
   Tot        0.204425D+01      0.519597D+01      0.173319D+02
   x          0.000000D+00      0.000000D+00      0.000000D+00
   y          0.000000D+00      0.000000D+00      0.000000D+00
   z          0.204425D+01      0.519597D+01      0.173319D+02

 Dipole polarizability, Alpha (dipole orientation).
 (esu units = cm**3 , SI units = C**2 m**2 J**-1)
 Alpha(0;0):
               (au)            (10**-24 esu)      (10**-40 SI)
   iso        0.519638D+03      0.770024D+02      0.856767D+02
   aniso      0.739226D+03      0.109542D+03      0.121882D+03
   xx         0.321935D+03      0.477058D+02      0.530798D+02
   yx        -0.166604D+03     -0.246882D+02     -0.274693D+02
   yy         0.660876D+03      0.979317D+02      0.108964D+03
   zx         0.630868D+01      0.934850D+00      0.104016D+01
   zy        -0.351060D+03     -0.520218D+02     -0.578820D+02
   zz         0.576103D+03      0.853697D+02      0.949866D+02

 ----------------------------------------------------------------------

 This type of calculation cannot be archived.


 IN THE LONG RUN, DIGGING FOR TRUTH HAS ALWAYS PROVED NOT ONLY 
 MORE INTERESTING BUT MORE PROFITABLE THAN DIGGING FOR GOLD.

                             -- GEORGE R. HARRISON
 Job cpu time:       0 days  0 hours  0 minutes 18.5 seconds.
 Elapsed time:       0 days  0 hours  0 minutes  1.4 seconds.
 File lengths (MBytes):  RWF=     72 Int=      0 D2E=      0 Chk=     48 Scr=      8
 Normal termination of Gaussian 16 at Wed Mar  6 13:38:56 2019.
