 Entering Gaussian System, Link 0=g16
 Initial command:
 /gpfs/apps/hpc/Apps/Restricted/Gaussian/g16/Rev_B.01-AVX/g16/l1.exe "/gpfs/scratch60/fas/hammes_schiffer/jg2487/c26n07/Gau-23756.inp" -scrdir="/gpfs/scratch60/fas/hammes_schiffer/jg2487/c26n07/"
 Entering Link 1 = /gpfs/apps/hpc/Apps/Restricted/Gaussian/g16/Rev_B.01-AVX/g16/l1.exe PID=     23757.
  
 Copyright (c) 1988-2017, Gaussian, Inc.  All Rights Reserved.
  
 This is part of the Gaussian(R) 16 program.  It is based on
 the Gaussian(R) 09 system (copyright 2009, Gaussian, Inc.),
 the Gaussian(R) 03 system (copyright 2003, Gaussian, Inc.),
 the Gaussian(R) 98 system (copyright 1998, Gaussian, Inc.),
 the Gaussian(R) 94 system (copyright 1995, Gaussian, Inc.),
 the Gaussian 92(TM) system (copyright 1992, Gaussian, Inc.),
 the Gaussian 90(TM) system (copyright 1990, Gaussian, Inc.),
 the Gaussian 88(TM) system (copyright 1988, Gaussian, Inc.),
 the Gaussian 86(TM) system (copyright 1986, Carnegie Mellon
 University), and the Gaussian 82(TM) system (copyright 1983,
 Carnegie Mellon University). Gaussian is a federally registered
 trademark of Gaussian, Inc.
  
 This software contains proprietary and confidential information,
 including trade secrets, belonging to Gaussian, Inc.
  
 This software is provided under written license and may be
 used, copied, transmitted, or stored only in accord with that
 written license.
  
 The following legend is applicable only to US Government
 contracts under FAR:
  
                    RESTRICTED RIGHTS LEGEND
  
 Use, reproduction and disclosure by the US Government is
 subject to restrictions as set forth in subparagraphs (a)
 and (c) of the Commercial Computer Software - Restricted
 Rights clause in FAR 52.227-19.
  
 Gaussian, Inc.
 340 Quinnipiac St., Bldg. 40, Wallingford CT 06492
  
  
 ---------------------------------------------------------------
 Warning -- This program may not be used in any manner that
 competes with the business of Gaussian, Inc. or will provide
 assistance to any competitor of Gaussian, Inc.  The licensee
 of this program is prohibited from giving any competitor of
 Gaussian, Inc. access to this program.  By using this program,
 the user acknowledges that Gaussian, Inc. is engaged in the
 business of creating and licensing software in the field of
 computational chemistry and represents and warrants to the
 licensee that it is not a competitor of Gaussian, Inc. and that
 it will not use this program in any manner prohibited above.
 ---------------------------------------------------------------
  

 Cite this work as:
 Gaussian 16, Revision B.01,
 M. J. Frisch, G. W. Trucks, H. B. Schlegel, G. E. Scuseria, 
 M. A. Robb, J. R. Cheeseman, G. Scalmani, V. Barone, 
 G. A. Petersson, H. Nakatsuji, X. Li, M. Caricato, A. V. Marenich, 
 J. Bloino, B. G. Janesko, R. Gomperts, B. Mennucci, H. P. Hratchian, 
 J. V. Ortiz, A. F. Izmaylov, J. L. Sonnenberg, D. Williams-Young, 
 F. Ding, F. Lipparini, F. Egidi, J. Goings, B. Peng, A. Petrone, 
 T. Henderson, D. Ranasinghe, V. G. Zakrzewski, J. Gao, N. Rega, 
 G. Zheng, W. Liang, M. Hada, M. Ehara, K. Toyota, R. Fukuda, 
 J. Hasegawa, M. Ishida, T. Nakajima, Y. Honda, O. Kitao, H. Nakai, 
 T. Vreven, K. Throssell, J. A. Montgomery, Jr., J. E. Peralta, 
 F. Ogliaro, M. J. Bearpark, J. J. Heyd, E. N. Brothers, K. N. Kudin, 
 V. N. Staroverov, T. A. Keith, R. Kobayashi, J. Normand, 
 K. Raghavachari, A. P. Rendell, J. C. Burant, S. S. Iyengar, 
 J. Tomasi, M. Cossi, J. M. Millam, M. Klene, C. Adamo, R. Cammi, 
 J. W. Ochterski, R. L. Martin, K. Morokuma, O. Farkas, 
 J. B. Foresman, and D. J. Fox, Gaussian, Inc., Wallingford CT, 2016.
 
 ******************************************
 Gaussian 16:  ES64L-G16RevB.01 20-Dec-2017
                 6-Mar-2019 
 ******************************************
 %chk=unsub-monoBIP-E0PT.chk
 %mem=10GB
 %nprocshared=16
 Will use up to   16 processors via shared memory.
 ----------------------------------------------------------------------
 #p opt=tight freq=internalmodes b3lyp/6-31g(d,p) scrf=(cpcm,solvent=di
 chloromethane,read) nosymm empiricaldispersion=gd3bj int=grid=ultrafin
 e
 ----------------------------------------------------------------------
 1/7=10,18=20,19=15,26=6,38=1,40=2/1,3;
 2/9=110,12=2,15=1,17=6,18=5,40=1/2;
 3/5=1,6=6,7=101,11=2,25=1,30=1,70=2103,71=1,72=9,74=-5,75=-5,124=41/1,2,3;
 4//1;
 5/5=2,38=5,53=9/2;
 6/7=2,8=2,9=2,10=2,28=1/1;
 7/30=1/1,2,3,16;
 1/7=10,18=20,19=15,26=6/3(2);
 2/9=110,15=1/2;
 99//99;
 2/9=110,15=1/2;
 3/5=1,6=6,7=101,11=2,25=1,30=1,70=2105,71=1,72=9,74=-5,75=-5,124=41/1,2,3;
 4/5=5,16=3,69=1/1;
 5/5=2,38=5,53=9/2;
 7/30=1/1,2,3,16;
 1/7=10,18=20,19=15,26=6/3(-5);
 2/9=110,15=1/2;
 6/7=2,8=2,9=2,10=2,19=2,28=1/1;
 99/9=1/99;
 Leave Link    1 at Wed Mar  6 12:06:00 2019, MaxMem=  1342177280 cpu:               7.8 elap:               0.5
 (Enter /gpfs/apps/hpc/Apps/Restricted/Gaussian/g16/Rev_B.01-AVX/g16/l101.exe)
 --------------------------------------
 Simple unsub-monoBIP E0PT optimization
 --------------------------------------
 Symbolic Z-matrix:
 Charge =  1 Multiplicity = 2
 C                    -0.48305   2.71558   0.41615 
 C                    -1.88105   2.89836   0.3276 
 C                    -2.41289   4.19012   0.24342 
 C                    -1.52046   5.26199   0.25628 
 C                    -0.1336    5.06453   0.35031 
 C                     0.42705   3.78269   0.4298 
 C                    -1.51854   0.75202   0.42465 
 H                    -3.48208   4.34634   0.16902 
 H                    -1.90527   6.27315   0.19413 
 H                     0.52954   5.92276   0.36062 
 N                    -2.49643   1.65628   0.3363 
 C                    -3.06367  -1.18904   0.35231 
 C                    -1.73922  -0.685     0.44727 
 C                    -0.65872  -1.57362   0.5405 
 C                    -0.84876  -2.95029   0.54136 
 C                    -2.16787  -3.41764   0.44645 
 C                    -3.28613  -2.585     0.35333 
 H                     0.34704  -1.17537   0.61268 
 H                    -2.33231  -4.48383   0.44549 
 C                     0.36142  -3.8878    0.61444 
 C                    -4.7052   -3.16741   0.25339 
 O                    -4.11726  -0.34688   0.2575 
 H                    -3.76781   0.59151   0.26864 
 N                    -0.28701   1.3566    0.47644 
 H                     0.63826   0.94763   0.52815 
 C                     1.24578  -3.65452  -0.62729 
 H                     1.57556  -2.61431  -0.68351 
 H                     2.13382  -4.29238  -0.58864 
 H                     0.69738  -3.88708  -1.54418 
 C                     1.18279  -3.57555   1.88073 
 H                     0.58865  -3.74389   2.78286 
 H                     2.06432  -4.22163   1.92639 
 H                     1.5249   -2.53763   1.88737 
 C                    -0.04946  -5.36609   0.6521 
 H                    -0.66468  -5.59167   1.5274 
 H                    -0.60816  -5.65207  -0.24333 
 H                     0.84524  -5.99164   0.70128 
 C                    -5.359    -2.73216  -1.07525 
 H                    -6.37293  -3.13823  -1.13996 
 H                    -5.4137   -1.64727  -1.15536 
 H                    -4.78635  -3.11382  -1.92528 
 C                    -5.55747  -2.68255   1.44569 
 H                    -5.65813  -1.59821   1.44663 
 H                    -6.55655  -3.12577   1.39415 
 H                    -5.09796  -2.98688   2.39028 
 C                    -4.69423  -4.70466   0.28382 
 H                    -4.12605  -5.1234   -0.55106 
 H                    -4.26884  -5.08976   1.21438 
 H                    -5.72146  -5.06914   0.20754 
 H                     1.48364   3.62767   0.49675 
 
 ITRead=  0  0  0  0  0  0  0  0  0  0  0  0  0  0  0  0  0  0  0  0
 ITRead=  0  0  0  0  0  0  0  0  0  0  0  0  0  0  0  0  0  0  0  0
 ITRead=  0  0  0  0  0  0  0  0  0  0
 MicOpt= -1 -1 -1 -1 -1 -1 -1 -1 -1 -1 -1 -1 -1 -1 -1 -1 -1 -1 -1 -1
 MicOpt= -1 -1 -1 -1 -1 -1 -1 -1 -1 -1 -1 -1 -1 -1 -1 -1 -1 -1 -1 -1
 MicOpt= -1 -1 -1 -1 -1 -1 -1 -1 -1 -1
 NAtoms=     50 NQM=       50 NQMF=       0 NMMI=      0 NMMIF=      0
                NMic=       0 NMicF=      0.
                    Isotopes and Nuclear Properties:
 (Nuclear quadrupole moments (NQMom) in fm**2, nuclear magnetic moments (NMagM)
  in nuclear magnetons)

  Atom         1           2           3           4           5           6           7           8           9          10
 IAtWgt=          12          12          12          12          12          12          12           1           1           1
 AtmWgt=  12.0000000  12.0000000  12.0000000  12.0000000  12.0000000  12.0000000  12.0000000   1.0078250   1.0078250   1.0078250
 NucSpn=           0           0           0           0           0           0           0           1           1           1
 AtZEff=  -0.0000000  -0.0000000  -0.0000000  -0.0000000  -0.0000000  -0.0000000  -0.0000000  -0.0000000  -0.0000000  -0.0000000
 NQMom=    0.0000000   0.0000000   0.0000000   0.0000000   0.0000000   0.0000000   0.0000000   0.0000000   0.0000000   0.0000000
 NMagM=    0.0000000   0.0000000   0.0000000   0.0000000   0.0000000   0.0000000   0.0000000   2.7928460   2.7928460   2.7928460
 AtZNuc=   6.0000000   6.0000000   6.0000000   6.0000000   6.0000000   6.0000000   6.0000000   1.0000000   1.0000000   1.0000000

  Atom        11          12          13          14          15          16          17          18          19          20
 IAtWgt=          14          12          12          12          12          12          12           1           1          12
 AtmWgt=  14.0030740  12.0000000  12.0000000  12.0000000  12.0000000  12.0000000  12.0000000   1.0078250   1.0078250  12.0000000
 NucSpn=           2           0           0           0           0           0           0           1           1           0
 AtZEff=  -0.0000000  -0.0000000  -0.0000000  -0.0000000  -0.0000000  -0.0000000  -0.0000000  -0.0000000  -0.0000000  -0.0000000
 NQMom=    2.0440000   0.0000000   0.0000000   0.0000000   0.0000000   0.0000000   0.0000000   0.0000000   0.0000000   0.0000000
 NMagM=    0.4037610   0.0000000   0.0000000   0.0000000   0.0000000   0.0000000   0.0000000   2.7928460   2.7928460   0.0000000
 AtZNuc=   7.0000000   6.0000000   6.0000000   6.0000000   6.0000000   6.0000000   6.0000000   1.0000000   1.0000000   6.0000000

  Atom        21          22          23          24          25          26          27          28          29          30
 IAtWgt=          12          16           1          14           1          12           1           1           1          12
 AtmWgt=  12.0000000  15.9949146   1.0078250  14.0030740   1.0078250  12.0000000   1.0078250   1.0078250   1.0078250  12.0000000
 NucSpn=           0           0           1           2           1           0           1           1           1           0
 AtZEff=  -0.0000000  -0.0000000  -0.0000000  -0.0000000  -0.0000000  -0.0000000  -0.0000000  -0.0000000  -0.0000000  -0.0000000
 NQMom=    0.0000000   0.0000000   0.0000000   2.0440000   0.0000000   0.0000000   0.0000000   0.0000000   0.0000000   0.0000000
 NMagM=    0.0000000   0.0000000   2.7928460   0.4037610   2.7928460   0.0000000   2.7928460   2.7928460   2.7928460   0.0000000
 AtZNuc=   6.0000000   8.0000000   1.0000000   7.0000000   1.0000000   6.0000000   1.0000000   1.0000000   1.0000000   6.0000000

  Atom        31          32          33          34          35          36          37          38          39          40
 IAtWgt=           1           1           1          12           1           1           1          12           1           1
 AtmWgt=   1.0078250   1.0078250   1.0078250  12.0000000   1.0078250   1.0078250   1.0078250  12.0000000   1.0078250   1.0078250
 NucSpn=           1           1           1           0           1           1           1           0           1           1
 AtZEff=  -0.0000000  -0.0000000  -0.0000000  -0.0000000  -0.0000000  -0.0000000  -0.0000000  -0.0000000  -0.0000000  -0.0000000
 NQMom=    0.0000000   0.0000000   0.0000000   0.0000000   0.0000000   0.0000000   0.0000000   0.0000000   0.0000000   0.0000000
 NMagM=    2.7928460   2.7928460   2.7928460   0.0000000   2.7928460   2.7928460   2.7928460   0.0000000   2.7928460   2.7928460
 AtZNuc=   1.0000000   1.0000000   1.0000000   6.0000000   1.0000000   1.0000000   1.0000000   6.0000000   1.0000000   1.0000000

  Atom        41          42          43          44          45          46          47          48          49          50
 IAtWgt=           1          12           1           1           1          12           1           1           1           1
 AtmWgt=   1.0078250  12.0000000   1.0078250   1.0078250   1.0078250  12.0000000   1.0078250   1.0078250   1.0078250   1.0078250
 NucSpn=           1           0           1           1           1           0           1           1           1           1
 AtZEff=  -0.0000000  -0.0000000  -0.0000000  -0.0000000  -0.0000000  -0.0000000  -0.0000000  -0.0000000  -0.0000000  -0.0000000
 NQMom=    0.0000000   0.0000000   0.0000000   0.0000000   0.0000000   0.0000000   0.0000000   0.0000000   0.0000000   0.0000000
 NMagM=    2.7928460   0.0000000   2.7928460   2.7928460   2.7928460   0.0000000   2.7928460   2.7928460   2.7928460   2.7928460
 AtZNuc=   1.0000000   6.0000000   1.0000000   1.0000000   1.0000000   6.0000000   1.0000000   1.0000000   1.0000000   1.0000000
 Leave Link  101 at Wed Mar  6 12:06:00 2019, MaxMem=  1342177280 cpu:               3.9 elap:               0.3
 (Enter /gpfs/apps/hpc/Apps/Restricted/Gaussian/g16/Rev_B.01-AVX/g16/l103.exe)

 GradGradGradGradGradGradGradGradGradGradGradGradGradGradGradGradGradGrad
 Berny optimization.
 Initialization pass.
                           ----------------------------
                           !    Initial Parameters    !
                           ! (Angstroms and Degrees)  !
 --------------------------                            --------------------------
 ! Name  Definition              Value          Derivative Info.                !
 --------------------------------------------------------------------------------
 ! R1    R(1,2)                  1.4127         estimate D2E/DX2                !
 ! R2    R(1,6)                  1.4026         estimate D2E/DX2                !
 ! R3    R(1,24)                 1.3744         estimate D2E/DX2                !
 ! R4    R(2,3)                  1.3995         estimate D2E/DX2                !
 ! R5    R(2,11)                 1.3862         estimate D2E/DX2                !
 ! R6    R(3,4)                  1.3948         estimate D2E/DX2                !
 ! R7    R(3,8)                  1.0831         estimate D2E/DX2                !
 ! R8    R(4,5)                  1.404          estimate D2E/DX2                !
 ! R9    R(4,9)                  1.0837         estimate D2E/DX2                !
 ! R10   R(5,6)                  1.4013         estimate D2E/DX2                !
 ! R11   R(5,10)                 1.0846         estimate D2E/DX2                !
 ! R12   R(6,50)                 1.07           estimate D2E/DX2                !
 ! R13   R(7,11)                 1.3348         estimate D2E/DX2                !
 ! R14   R(7,13)                 1.454          estimate D2E/DX2                !
 ! R15   R(7,24)                 1.3729         estimate D2E/DX2                !
 ! R16   R(12,13)                1.4203         estimate D2E/DX2                !
 ! R17   R(12,17)                1.4136         estimate D2E/DX2                !
 ! R18   R(12,22)                1.3521         estimate D2E/DX2                !
 ! R19   R(13,14)                1.4021         estimate D2E/DX2                !
 ! R20   R(14,15)                1.3897         estimate D2E/DX2                !
 ! R21   R(14,18)                1.0842         estimate D2E/DX2                !
 ! R22   R(15,16)                1.4027         estimate D2E/DX2                !
 ! R23   R(15,20)                1.5326         estimate D2E/DX2                !
 ! R24   R(16,17)                1.3973         estimate D2E/DX2                !
 ! R25   R(16,19)                1.0788         estimate D2E/DX2                !
 ! R26   R(17,21)                1.5372         estimate D2E/DX2                !
 ! R27   R(20,26)                1.5422         estimate D2E/DX2                !
 ! R28   R(20,30)                1.5413         estimate D2E/DX2                !
 ! R29   R(20,34)                1.5348         estimate D2E/DX2                !
 ! R30   R(21,38)                1.5434         estimate D2E/DX2                !
 ! R31   R(21,42)                1.5437         estimate D2E/DX2                !
 ! R32   R(21,46)                1.5376         estimate D2E/DX2                !
 ! R33   R(22,23)                1.0014         estimate D2E/DX2                !
 ! R34   R(24,25)                1.0129         estimate D2E/DX2                !
 ! R35   R(26,27)                1.0927         estimate D2E/DX2                !
 ! R36   R(26,28)                1.0941         estimate D2E/DX2                !
 ! R37   R(26,29)                1.0934         estimate D2E/DX2                !
 ! R38   R(30,31)                1.0932         estimate D2E/DX2                !
 ! R39   R(30,32)                1.0939         estimate D2E/DX2                !
 ! R40   R(30,33)                1.0929         estimate D2E/DX2                !
 ! R41   R(34,35)                1.0934         estimate D2E/DX2                !
 ! R42   R(34,36)                1.0935         estimate D2E/DX2                !
 ! R43   R(34,37)                1.0928         estimate D2E/DX2                !
 ! R44   R(38,39)                1.0941         estimate D2E/DX2                !
 ! R45   R(38,40)                1.0892         estimate D2E/DX2                !
 ! R46   R(38,41)                1.0937         estimate D2E/DX2                !
 ! R47   R(42,43)                1.089          estimate D2E/DX2                !
 ! R48   R(42,44)                1.0942         estimate D2E/DX2                !
 ! R49   R(42,45)                1.0936         estimate D2E/DX2                !
 ! R50   R(46,47)                1.0932         estimate D2E/DX2                !
 ! R51   R(46,48)                1.0933         estimate D2E/DX2                !
 ! R52   R(46,49)                1.0926         estimate D2E/DX2                !
 ! A1    A(2,1,6)              122.9781         estimate D2E/DX2                !
 ! A2    A(2,1,24)             105.7738         estimate D2E/DX2                !
 ! A3    A(6,1,24)             131.2481         estimate D2E/DX2                !
 ! A4    A(1,2,3)              119.9516         estimate D2E/DX2                !
 ! A5    A(1,2,11)             108.8443         estimate D2E/DX2                !
 ! A6    A(3,2,11)             131.2033         estimate D2E/DX2                !
 ! A7    A(2,3,4)              117.7494         estimate D2E/DX2                !
 ! A8    A(2,3,8)              120.8241         estimate D2E/DX2                !
 ! A9    A(4,3,8)              121.4265         estimate D2E/DX2                !
 ! A10   A(3,4,5)              121.6384         estimate D2E/DX2                !
 ! A11   A(3,4,9)              119.2951         estimate D2E/DX2                !
 ! A12   A(5,4,9)              119.0664         estimate D2E/DX2                !
 ! A13   A(4,5,6)              121.8461         estimate D2E/DX2                !
 ! A14   A(4,5,10)             119.5567         estimate D2E/DX2                !
 ! A15   A(6,5,10)             118.5972         estimate D2E/DX2                !
 ! A16   A(1,6,5)              115.8354         estimate D2E/DX2                !
 ! A17   A(1,6,50)             122.0823         estimate D2E/DX2                !
 ! A18   A(5,6,50)             122.0823         estimate D2E/DX2                !
 ! A19   A(11,7,13)            124.0113         estimate D2E/DX2                !
 ! A20   A(11,7,24)            111.1816         estimate D2E/DX2                !
 ! A21   A(13,7,24)            124.8037         estimate D2E/DX2                !
 ! A22   A(2,11,7)             106.3919         estimate D2E/DX2                !
 ! A23   A(13,12,17)           119.8125         estimate D2E/DX2                !
 ! A24   A(13,12,22)           120.6822         estimate D2E/DX2                !
 ! A25   A(17,12,22)           119.5052         estimate D2E/DX2                !
 ! A26   A(7,13,12)            119.4203         estimate D2E/DX2                !
 ! A27   A(7,13,14)            120.6936         estimate D2E/DX2                !
 ! A28   A(12,13,14)           119.8785         estimate D2E/DX2                !
 ! A29   A(13,14,15)           121.5            estimate D2E/DX2                !
 ! A30   A(13,14,18)           119.1133         estimate D2E/DX2                !
 ! A31   A(15,14,18)           119.3867         estimate D2E/DX2                !
 ! A32   A(14,15,16)           117.2975         estimate D2E/DX2                !
 ! A33   A(14,15,20)           119.8696         estimate D2E/DX2                !
 ! A34   A(16,15,20)           122.8203         estimate D2E/DX2                !
 ! A35   A(15,16,17)           123.9582         estimate D2E/DX2                !
 ! A36   A(15,16,19)           118.2098         estimate D2E/DX2                !
 ! A37   A(17,16,19)           117.8321         estimate D2E/DX2                !
 ! A38   A(12,17,16)           117.5531         estimate D2E/DX2                !
 ! A39   A(12,17,21)           121.2915         estimate D2E/DX2                !
 ! A40   A(16,17,21)           121.1554         estimate D2E/DX2                !
 ! A41   A(15,20,26)           108.7766         estimate D2E/DX2                !
 ! A42   A(15,20,30)           109.6365         estimate D2E/DX2                !
 ! A43   A(15,20,34)           112.2704         estimate D2E/DX2                !
 ! A44   A(26,20,30)           108.9818         estimate D2E/DX2                !
 ! A45   A(26,20,34)           108.6003         estimate D2E/DX2                !
 ! A46   A(30,20,34)           108.5199         estimate D2E/DX2                !
 ! A47   A(17,21,38)           109.8876         estimate D2E/DX2                !
 ! A48   A(17,21,42)           109.9045         estimate D2E/DX2                !
 ! A49   A(17,21,46)           111.7726         estimate D2E/DX2                !
 ! A50   A(38,21,42)           110.025          estimate D2E/DX2                !
 ! A51   A(38,21,46)           107.5778         estimate D2E/DX2                !
 ! A52   A(42,21,46)           107.6182         estimate D2E/DX2                !
 ! A53   A(12,22,23)           108.1169         estimate D2E/DX2                !
 ! A54   A(1,24,7)             107.8083         estimate D2E/DX2                !
 ! A55   A(1,24,25)            122.1239         estimate D2E/DX2                !
 ! A56   A(7,24,25)            130.0545         estimate D2E/DX2                !
 ! A57   A(20,26,27)           111.0079         estimate D2E/DX2                !
 ! A58   A(20,26,28)           110.4156         estimate D2E/DX2                !
 ! A59   A(20,26,29)           110.8186         estimate D2E/DX2                !
 ! A60   A(27,26,28)           108.1713         estimate D2E/DX2                !
 ! A61   A(27,26,29)           108.1019         estimate D2E/DX2                !
 ! A62   A(28,26,29)           108.2231         estimate D2E/DX2                !
 ! A63   A(20,30,31)           110.9249         estimate D2E/DX2                !
 ! A64   A(20,30,32)           110.1259         estimate D2E/DX2                !
 ! A65   A(20,30,33)           111.3593         estimate D2E/DX2                !
 ! A66   A(31,30,32)           108.2142         estimate D2E/DX2                !
 ! A67   A(31,30,33)           108.1405         estimate D2E/DX2                !
 ! A68   A(32,30,33)           107.9633         estimate D2E/DX2                !
 ! A69   A(20,34,35)           111.6532         estimate D2E/DX2                !
 ! A70   A(20,34,36)           111.6288         estimate D2E/DX2                !
 ! A71   A(20,34,37)           109.4679         estimate D2E/DX2                !
 ! A72   A(35,34,36)           108.3057         estimate D2E/DX2                !
 ! A73   A(35,34,37)           107.851          estimate D2E/DX2                !
 ! A74   A(36,34,37)           107.7857         estimate D2E/DX2                !
 ! A75   A(21,38,39)           109.8038         estimate D2E/DX2                !
 ! A76   A(21,38,40)           111.436          estimate D2E/DX2                !
 ! A77   A(21,38,41)           110.4168         estimate D2E/DX2                !
 ! A78   A(39,38,40)           108.5887         estimate D2E/DX2                !
 ! A79   A(39,38,41)           108.0436         estimate D2E/DX2                !
 ! A80   A(40,38,41)           108.4643         estimate D2E/DX2                !
 ! A81   A(21,42,43)           111.3732         estimate D2E/DX2                !
 ! A82   A(21,42,44)           109.9071         estimate D2E/DX2                !
 ! A83   A(21,42,45)           110.3481         estimate D2E/DX2                !
 ! A84   A(43,42,44)           108.601          estimate D2E/DX2                !
 ! A85   A(43,42,45)           108.3715         estimate D2E/DX2                !
 ! A86   A(44,42,45)           108.1565         estimate D2E/DX2                !
 ! A87   A(21,46,47)           111.8103         estimate D2E/DX2                !
 ! A88   A(21,46,48)           111.8262         estimate D2E/DX2                !
 ! A89   A(21,46,49)           108.9907         estimate D2E/DX2                !
 ! A90   A(47,46,48)           108.2325         estimate D2E/DX2                !
 ! A91   A(47,46,49)           107.9102         estimate D2E/DX2                !
 ! A92   A(48,46,49)           107.9226         estimate D2E/DX2                !
 ! D1    D(6,1,2,3)              0.2438         estimate D2E/DX2                !
 ! D2    D(6,1,2,11)           179.9405         estimate D2E/DX2                !
 ! D3    D(24,1,2,3)          -179.6885         estimate D2E/DX2                !
 ! D4    D(24,1,2,11)            0.0082         estimate D2E/DX2                !
 ! D5    D(2,1,6,5)              0.0379         estimate D2E/DX2                !
 ! D6    D(2,1,6,50)          -179.9621         estimate D2E/DX2                !
 ! D7    D(24,1,6,5)           179.9512         estimate D2E/DX2                !
 ! D8    D(24,1,6,50)           -0.0488         estimate D2E/DX2                !
 ! D9    D(2,1,24,7)             0.0559         estimate D2E/DX2                !
 ! D10   D(2,1,24,25)          178.8517         estimate D2E/DX2                !
 ! D11   D(6,1,24,7)          -179.8685         estimate D2E/DX2                !
 ! D12   D(6,1,24,25)           -1.0727         estimate D2E/DX2                !
 ! D13   D(1,2,3,4)             -0.2517         estimate D2E/DX2                !
 ! D14   D(1,2,3,8)            179.6311         estimate D2E/DX2                !
 ! D15   D(11,2,3,4)          -179.8701         estimate D2E/DX2                !
 ! D16   D(11,2,3,8)             0.0127         estimate D2E/DX2                !
 ! D17   D(1,2,11,7)            -0.0703         estimate D2E/DX2                !
 ! D18   D(3,2,11,7)           179.5804         estimate D2E/DX2                !
 ! D19   D(2,3,4,5)             -0.0101         estimate D2E/DX2                !
 ! D20   D(2,3,4,9)           -179.8914         estimate D2E/DX2                !
 ! D21   D(8,3,4,5)           -179.8921         estimate D2E/DX2                !
 ! D22   D(8,3,4,9)              0.2265         estimate D2E/DX2                !
 ! D23   D(3,4,5,6)              0.3026         estimate D2E/DX2                !
 ! D24   D(3,4,5,10)          -179.8059         estimate D2E/DX2                !
 ! D25   D(9,4,5,6)           -179.8158         estimate D2E/DX2                !
 ! D26   D(9,4,5,10)             0.0758         estimate D2E/DX2                !
 ! D27   D(4,5,6,1)             -0.306          estimate D2E/DX2                !
 ! D28   D(4,5,6,50)           179.694          estimate D2E/DX2                !
 ! D29   D(10,5,6,1)           179.8014         estimate D2E/DX2                !
 ! D30   D(10,5,6,50)           -0.1986         estimate D2E/DX2                !
 ! D31   D(13,7,11,2)         -179.2549         estimate D2E/DX2                !
 ! D32   D(24,7,11,2)            0.1079         estimate D2E/DX2                !
 ! D33   D(11,7,13,12)           0.9293         estimate D2E/DX2                !
 ! D34   D(11,7,13,14)         179.9279         estimate D2E/DX2                !
 ! D35   D(24,7,13,12)        -178.3471         estimate D2E/DX2                !
 ! D36   D(24,7,13,14)           0.6515         estimate D2E/DX2                !
 ! D37   D(11,7,24,1)           -0.105          estimate D2E/DX2                !
 ! D38   D(11,7,24,25)        -178.7727         estimate D2E/DX2                !
 ! D39   D(13,7,24,1)          179.2517         estimate D2E/DX2                !
 ! D40   D(13,7,24,25)           0.584          estimate D2E/DX2                !
 ! D41   D(17,12,13,7)         179.0558         estimate D2E/DX2                !
 ! D42   D(17,12,13,14)          0.0489         estimate D2E/DX2                !
 ! D43   D(22,12,13,7)          -0.7867         estimate D2E/DX2                !
 ! D44   D(22,12,13,14)       -179.7936         estimate D2E/DX2                !
 ! D45   D(13,12,17,16)         -0.1531         estimate D2E/DX2                !
 ! D46   D(13,12,17,21)        179.9458         estimate D2E/DX2                !
 ! D47   D(22,12,17,16)        179.6912         estimate D2E/DX2                !
 ! D48   D(22,12,17,21)         -0.2098         estimate D2E/DX2                !
 ! D49   D(13,12,22,23)          0.0849         estimate D2E/DX2                !
 ! D50   D(17,12,22,23)       -179.7581         estimate D2E/DX2                !
 ! D51   D(7,13,14,15)        -178.9292         estimate D2E/DX2                !
 ! D52   D(7,13,14,18)           1.0221         estimate D2E/DX2                !
 ! D53   D(12,13,14,15)          0.0648         estimate D2E/DX2                !
 ! D54   D(12,13,14,18)       -179.9839         estimate D2E/DX2                !
 ! D55   D(13,14,15,16)         -0.0661         estimate D2E/DX2                !
 ! D56   D(13,14,15,20)        178.681          estimate D2E/DX2                !
 ! D57   D(18,14,15,16)        179.9828         estimate D2E/DX2                !
 ! D58   D(18,14,15,20)         -1.2702         estimate D2E/DX2                !
 ! D59   D(14,15,16,17)         -0.0479         estimate D2E/DX2                !
 ! D60   D(14,15,16,19)        179.9813         estimate D2E/DX2                !
 ! D61   D(20,15,16,17)       -178.755          estimate D2E/DX2                !
 ! D62   D(20,15,16,19)          1.2742         estimate D2E/DX2                !
 ! D63   D(14,15,20,26)        -61.714          estimate D2E/DX2                !
 ! D64   D(14,15,20,30)         57.3684         estimate D2E/DX2                !
 ! D65   D(14,15,20,34)        178.069          estimate D2E/DX2                !
 ! D66   D(16,15,20,26)        116.9611         estimate D2E/DX2                !
 ! D67   D(16,15,20,30)       -123.9565         estimate D2E/DX2                !
 ! D68   D(16,15,20,34)         -3.2559         estimate D2E/DX2                !
 ! D69   D(15,16,17,12)          0.1569         estimate D2E/DX2                !
 ! D70   D(15,16,17,21)       -179.9419         estimate D2E/DX2                !
 ! D71   D(19,16,17,12)       -179.8722         estimate D2E/DX2                !
 ! D72   D(19,16,17,21)          0.0289         estimate D2E/DX2                !
 ! D73   D(12,17,21,38)         61.037          estimate D2E/DX2                !
 ! D74   D(12,17,21,42)        -60.1791         estimate D2E/DX2                !
 ! D75   D(12,17,21,46)       -179.602          estimate D2E/DX2                !
 ! D76   D(16,17,21,38)       -118.8605         estimate D2E/DX2                !
 ! D77   D(16,17,21,42)        119.9235         estimate D2E/DX2                !
 ! D78   D(16,17,21,46)          0.5005         estimate D2E/DX2                !
 ! D79   D(15,20,26,27)         58.4954         estimate D2E/DX2                !
 ! D80   D(15,20,26,28)        178.4551         estimate D2E/DX2                !
 ! D81   D(15,20,26,29)        -61.6435         estimate D2E/DX2                !
 ! D82   D(30,20,26,27)        -60.996          estimate D2E/DX2                !
 ! D83   D(30,20,26,28)         58.9637         estimate D2E/DX2                !
 ! D84   D(30,20,26,29)        178.8652         estimate D2E/DX2                !
 ! D85   D(34,20,26,27)       -179.0416         estimate D2E/DX2                !
 ! D86   D(34,20,26,28)        -59.0819         estimate D2E/DX2                !
 ! D87   D(34,20,26,29)         60.8196         estimate D2E/DX2                !
 ! D88   D(15,20,30,31)         61.8079         estimate D2E/DX2                !
 ! D89   D(15,20,30,32)       -178.4219         estimate D2E/DX2                !
 ! D90   D(15,20,30,33)        -58.686          estimate D2E/DX2                !
 ! D91   D(26,20,30,31)       -179.2362         estimate D2E/DX2                !
 ! D92   D(26,20,30,32)        -59.466          estimate D2E/DX2                !
 ! D93   D(26,20,30,33)         60.2699         estimate D2E/DX2                !
 ! D94   D(34,20,30,31)        -61.14           estimate D2E/DX2                !
 ! D95   D(34,20,30,32)         58.6302         estimate D2E/DX2                !
 ! D96   D(34,20,30,33)        178.3661         estimate D2E/DX2                !
 ! D97   D(15,20,34,35)        -60.7885         estimate D2E/DX2                !
 ! D98   D(15,20,34,36)         60.6072         estimate D2E/DX2                !
 ! D99   D(15,20,34,37)        179.861          estimate D2E/DX2                !
 ! D100  D(26,20,34,35)        178.8923         estimate D2E/DX2                !
 ! D101  D(26,20,34,36)        -59.712          estimate D2E/DX2                !
 ! D102  D(26,20,34,37)         59.5418         estimate D2E/DX2                !
 ! D103  D(30,20,34,35)         60.5543         estimate D2E/DX2                !
 ! D104  D(30,20,34,36)       -178.0501         estimate D2E/DX2                !
 ! D105  D(30,20,34,37)        -58.7962         estimate D2E/DX2                !
 ! D106  D(17,21,38,39)       -179.376          estimate D2E/DX2                !
 ! D107  D(17,21,38,40)        -59.02           estimate D2E/DX2                !
 ! D108  D(17,21,38,41)         61.5907         estimate D2E/DX2                !
 ! D109  D(42,21,38,39)        -58.2323         estimate D2E/DX2                !
 ! D110  D(42,21,38,40)         62.1237         estimate D2E/DX2                !
 ! D111  D(42,21,38,41)       -177.2656         estimate D2E/DX2                !
 ! D112  D(46,21,38,39)         58.7289         estimate D2E/DX2                !
 ! D113  D(46,21,38,40)        179.0848         estimate D2E/DX2                !
 ! D114  D(46,21,38,41)        -60.3044         estimate D2E/DX2                !
 ! D115  D(17,21,42,43)         61.6293         estimate D2E/DX2                !
 ! D116  D(17,21,42,44)       -177.9712         estimate D2E/DX2                !
 ! D117  D(17,21,42,45)        -58.7765         estimate D2E/DX2                !
 ! D118  D(38,21,42,43)        -59.5042         estimate D2E/DX2                !
 ! D119  D(38,21,42,44)         60.8953         estimate D2E/DX2                !
 ! D120  D(38,21,42,45)       -179.91           estimate D2E/DX2                !
 ! D121  D(46,21,42,43)       -176.4401         estimate D2E/DX2                !
 ! D122  D(46,21,42,44)        -56.0406         estimate D2E/DX2                !
 ! D123  D(46,21,42,45)         63.1541         estimate D2E/DX2                !
 ! D124  D(17,21,46,47)        -60.6327         estimate D2E/DX2                !
 ! D125  D(17,21,46,48)         60.9206         estimate D2E/DX2                !
 ! D126  D(17,21,46,49)       -179.8434         estimate D2E/DX2                !
 ! D127  D(38,21,46,47)         60.0831         estimate D2E/DX2                !
 ! D128  D(38,21,46,48)       -178.3636         estimate D2E/DX2                !
 ! D129  D(38,21,46,49)        -59.1276         estimate D2E/DX2                !
 ! D130  D(42,21,46,47)        178.6042         estimate D2E/DX2                !
 ! D131  D(42,21,46,48)        -59.8425         estimate D2E/DX2                !
 ! D132  D(42,21,46,49)         59.3935         estimate D2E/DX2                !
 --------------------------------------------------------------------------------
 Trust Radius=3.00D-01 FncErr=5.00D-06 GrdErr=5.00D-06 EigMax=2.50D+02 EigMin=1.00D-04
 Number of steps in this run=    286 maximum allowed number of steps=    300.
 GradGradGradGradGradGradGradGradGradGradGradGradGradGradGradGradGradGrad

 Leave Link  103 at Wed Mar  6 12:06:00 2019, MaxMem=  1342177280 cpu:               0.4 elap:               0.1
 (Enter /gpfs/apps/hpc/Apps/Restricted/Gaussian/g16/Rev_B.01-AVX/g16/l202.exe)
                          Input orientation:                          
 ---------------------------------------------------------------------
 Center     Atomic      Atomic             Coordinates (Angstroms)
 Number     Number       Type             X           Y           Z
 ---------------------------------------------------------------------
      1          6           0       -0.483053    2.715584    0.416145
      2          6           0       -1.881052    2.898359    0.327601
      3          6           0       -2.412894    4.190122    0.243421
      4          6           0       -1.520456    5.261988    0.256277
      5          6           0       -0.133595    5.064531    0.350314
      6          6           0        0.427051    3.782688    0.429804
      7          6           0       -1.518543    0.752015    0.424651
      8          1           0       -3.482079    4.346339    0.169021
      9          1           0       -1.905266    6.273153    0.194132
     10          1           0        0.529539    5.922761    0.360617
     11          7           0       -2.496427    1.656282    0.336302
     12          6           0       -3.063668   -1.189037    0.352314
     13          6           0       -1.739219   -0.685003    0.447265
     14          6           0       -0.658724   -1.573623    0.540497
     15          6           0       -0.848757   -2.950289    0.541355
     16          6           0       -2.167874   -3.417641    0.446447
     17          6           0       -3.286126   -2.585001    0.353326
     18          1           0        0.347044   -1.175374    0.612680
     19          1           0       -2.332312   -4.483825    0.445491
     20          6           0        0.361420   -3.887798    0.614442
     21          6           0       -4.705200   -3.167413    0.253385
     22          8           0       -4.117255   -0.346876    0.257497
     23          1           0       -3.767809    0.591511    0.268641
     24          7           0       -0.287014    1.356600    0.476439
     25          1           0        0.638260    0.947632    0.528152
     26          6           0        1.245777   -3.654521   -0.627285
     27          1           0        1.575562   -2.614306   -0.683508
     28          1           0        2.133816   -4.292376   -0.588643
     29          1           0        0.697384   -3.887082   -1.544179
     30          6           0        1.182786   -3.575549    1.880731
     31          1           0        0.588653   -3.743887    2.782861
     32          1           0        2.064321   -4.221634    1.926387
     33          1           0        1.524899   -2.537627    1.887374
     34          6           0       -0.049460   -5.366088    0.652100
     35          1           0       -0.664682   -5.591665    1.527396
     36          1           0       -0.608161   -5.652070   -0.243331
     37          1           0        0.845240   -5.991639    0.701283
     38          6           0       -5.359002   -2.732161   -1.075251
     39          1           0       -6.372934   -3.138229   -1.139958
     40          1           0       -5.413698   -1.647265   -1.155355
     41          1           0       -4.786354   -3.113816   -1.925275
     42          6           0       -5.557474   -2.682549    1.445687
     43          1           0       -5.658132   -1.598206    1.446625
     44          1           0       -6.556546   -3.125767    1.394151
     45          1           0       -5.097957   -2.986879    2.390277
     46          6           0       -4.694231   -4.704659    0.283816
     47          1           0       -4.126052   -5.123400   -0.551056
     48          1           0       -4.268835   -5.089758    1.214382
     49          1           0       -5.721459   -5.069139    0.207540
     50          1           0        1.483643    3.627668    0.496750
 ---------------------------------------------------------------------
                    Distance matrix (angstroms):
                    1          2          3          4          5
     1  C    0.000000
     2  C    1.412674   0.000000
     3  C    2.434827   1.399498   0.000000
     4  C    2.754258   2.392041   1.394815   0.000000
     5  C    2.375712   2.783240   2.443608   1.404000   0.000000
     6  C    1.402564   2.473828   2.875070   2.451780   1.401344
     7  C    2.219891   2.178904   3.557146   4.513115   4.530055
     8  H    3.422658   2.164505   1.083095   2.166562   3.429433
     9  H    3.837744   3.377519   2.144559   1.083695   2.150344
    10  H    3.363690   3.867693   3.416677   2.156383   1.084625
    11  N    2.276438   1.386188   2.536917   3.736314   4.147208
    12  C    4.680781   4.255114   5.419476   6.633736   6.905972
    13  C    3.625316   3.588164   4.925671   5.954077   5.970307
    14  C    4.294604   4.640909   6.032091   6.895574   6.661608
    15  C    5.679043   5.942896   7.315788   8.244631   8.048931
    16  C    6.360502   6.323626   7.614415   8.705818   8.723232
    17  C    5.996446   5.660577   6.832050   8.043771   8.273681
    18  H    3.983371   4.651987   6.045011   6.712243   6.263886
    19  H    7.433176   7.396903   8.676675   9.781400   9.798700
    20  C    6.660113   7.152824   8.549109   9.348172   8.969894
    21  C    7.243112   6.691406   7.706367   9.010960   9.416680
    22  O    4.755129   3.941709   4.846586   6.180835   6.720230
    23  H    3.914469   2.980751   3.845313   5.183059   5.763861
    24  N    1.374374   2.222640   3.550001   4.101452   3.713246
    25  H    2.096555   3.192568   4.461430   4.831939   4.192403
    26  C    6.682502   7.323189   8.699565   9.377466   8.881455
    27  H    5.818493   6.584831   7.941487   8.514959   7.934390
    28  H    7.547788   8.286455   9.660107  10.264184   9.673391
    29  H    6.987954   7.496273   8.838018   9.584672   9.187546
    30  C    6.670711   7.328765   8.712941   9.383412   8.872768
    31  H    6.962375   7.499812   8.854747   9.588418   9.166633
    32  H    7.542873   8.295564   9.676542  10.275163   9.672006
    33  H    5.813141   6.601768   7.966894   8.530455   7.931328
    34  C    8.096734   8.471193   9.852613  10.736690  10.435323
    35  H    8.383213   8.660229  10.019391  10.961290  10.734155
    36  H    8.394534   8.663490  10.018120  10.963510  10.743517
    37  H    8.812570   9.306147  10.700156  11.508200  11.104963
    38  C    7.461707   6.765123   7.637830   8.967375   9.493446
    39  H    8.448626   7.666233   8.443955   9.801003  10.413238
    40  H    6.768702   5.944867   6.710923   8.055297   8.671490
    41  H    7.614627   7.047161   7.980230   9.250911   9.680487
    42  C    7.479943   6.775893   7.652936   8.990433   9.520271
    43  H    6.815579   5.978097   6.744183   8.099355   8.724361
    44  H    8.483230   7.699861   8.486240   9.849436  10.460635
    45  H    7.596882   7.017060   7.957883   9.241011   9.676339
    46  C    8.532968   8.106897   9.182770  10.459812  10.781507
    47  H    8.698080   8.376197   9.503041  10.737653  10.979350
    48  H    8.711641   8.384384   9.513330  10.753148  10.998018
    49  H    9.385432   8.845573   9.832691  11.152712  11.573067
    50  H    2.169398   3.446981   3.945064   3.428329   2.168289
                    6          7          8          9         10
     6  C    0.000000
     7  C    3.601436   0.000000
     8  H    3.958157   4.103655   0.000000
     9  H    3.420184   5.539464   2.489896   0.000000
    10  H    2.143642   5.561956   4.314498   2.465516   0.000000
    11  N    3.616223   1.334826   2.869826   4.656735   5.230670
    12  C    6.075292   2.482001   5.554192   7.553224   7.967991
    13  C    4.965208   1.454039   5.331921   6.964739   6.986939
    14  C    5.466372   2.482197   6.569268   7.952718   7.592108
    15  C    6.853693   3.764211   7.766196   9.290245   8.981280
    16  C    7.653669   4.219969   7.879307   9.697634   9.722475
    17  C    7.371635   3.776918   6.936558   8.966549   9.324235
    18  H    4.962079   2.688977   6.734117   7.792858   7.104953
    19  H    8.714905   5.298743   8.908995  10.768385  10.793258
    20  C    7.672989   5.009805   9.097906  10.419187   9.815282
    21  C    8.641471   5.054308   7.613121   9.847204  10.490246
    22  O    6.142777   2.826448   4.736828   6.980093   7.804593
    23  H    5.273181   2.260376   3.767001   5.979605   6.848203
    24  N    2.529420   1.372905   4.386512   5.183718   4.640043
    25  H    2.844613   2.168128   5.353259   5.911199   4.979136
    26  C    7.556443   5.307127   9.327405  10.448086   9.654702
    27  H    6.593942   4.704638   8.646220   9.585058   8.664056
    28  H    8.316065   6.309705  10.331492  11.338312  10.383825
    29  H    7.924333   5.505256   9.391070  10.631363   9.994470
    30  C    7.537903   5.305201   9.351322  10.458375   9.641337
    31  H    7.887479   5.496778   9.426281  10.642473   9.965683
    32  H    8.305997   6.311047  10.356691  11.353364  10.378629
    33  H    6.578462   4.714217   8.683983   9.605360   8.654472
    34  C    9.163874   6.296120  10.312491  11.795155  11.307445
    35  H    9.501320   6.495183  10.418581  12.003772  11.634842
    36  H    9.515221   6.502869  10.411418  12.003533  11.646280
    37  H    9.787035   7.151284  11.219750  12.579651  11.923449
    38  C    8.842333   5.397992   7.428069   9.728068  10.566187
    39  H    9.828685   6.414601   8.129528  10.503045  11.489012
    40  H    8.130896   4.839958   6.434937   8.767168   9.742973
    41  H    8.960344   5.580806   7.857552  10.045285  10.730505
    42  C    8.868249   5.399232   7.439248   9.752416  10.596248
    43  H    8.186415   4.868693   6.457948   8.809713   9.799573
    44  H    9.870529   6.431065   8.172249  10.555290  11.539352
    45  H    8.955233   5.536715   7.830781  10.038153  10.731725
    46  C    9.913824   6.315071   9.132527  11.326903  11.842117
    47  H   10.050435   6.501662   9.518885  11.634802  12.021786
    48  H   10.069121   6.504928   9.526368  11.650885  12.042794
    49  H   10.780001   7.183138   9.678199  11.967084  12.645959
    50  H    1.070000   4.157848   5.028150   4.309858   2.489237
                   11         12         13         14         15
    11  N    0.000000
    12  C    2.901355   0.000000
    13  C    2.463187   1.420293   0.000000
    14  C    3.721711   2.442760   1.402072   0.000000
    15  C    4.896668   2.836120   2.435836   1.389720   0.000000
    16  C    5.085742   2.403744   2.766054   2.384697   1.402674
    17  C    4.314209   1.413578   2.451885   2.821553   2.471752
    18  H    4.022436   3.420663   2.149493   1.084150   2.141343
    19  H    6.143270   3.376269   3.844842   3.358452   2.135851
    20  C    6.243515   4.368438   3.833866   2.530132   1.532577
    21  C    5.305995   2.572622   3.872595   4.358505   3.873270
    22  O    2.577971   1.352136   2.409439   3.680548   4.188247
    23  H    1.659737   1.916551   2.403450   3.798437   4.597780
    24  N    2.234044   3.769016   2.505572   2.954400   4.343853
    25  H    3.219511   4.277914   2.885212   2.835321   4.171952
    26  C    6.567893   5.060587   4.345445   3.053027   2.499747
    27  H    5.988241   4.962537   3.998579   2.751953   2.736877
    28  H    7.594814   6.126170   5.393204   4.057691   3.460323
    29  H    6.668247   5.002164   4.489565   3.396615   2.759997
    30  C    6.579812   5.105279   4.352952   3.032341   2.512378
    31  H    6.683202   5.076836   4.497863   3.360683   2.778542
    32  H    7.607804   6.162031   5.400229   4.043220   3.467082
    33  H    6.013797   5.022952   4.020024   2.740728   2.759764
    34  C    7.443189   5.159755   4.980944   3.842714   2.547003
    35  H    7.570121   5.149668   5.137767   4.137471   2.825425
    36  H    7.570570   5.128642   5.140814   4.153393   2.823692
    37  H    8.354080   6.202123   5.907989   4.669756   3.484970
    38  C    5.426348   3.112512   4.428514   5.103476   4.796176
    39  H    6.339873   4.120372   5.478039   6.158256   5.777427
    40  H    4.652841   2.829431   4.122637   5.048873   5.041367
    41  H    5.754332   3.443811   4.562139   5.048718   4.649266
    42  C    5.424592   3.105658   4.423359   5.103610   4.802241
    43  H    4.671283   2.845379   4.146148   5.080920   5.077177
    44  H    6.361730   4.127535   5.482751   6.158099   5.773812
    45  H    5.704885   3.394681   4.511657   5.012561   4.634172
    46  C    6.730131   3.875955   4.991638   5.114156   4.234597
    47  H    7.029023   4.174200   5.137410   5.080824   4.081230
    48  H    7.030043   4.172675   5.137051   5.084312   4.089893
    49  H    7.459806   4.705317   5.927592   6.161232   5.323925
    50  H    4.444442   6.625673   5.384090   5.625396   6.979370
                   16         17         18         19         20
    16  C    0.000000
    17  C    1.397300   0.000000
    18  H    3.373456   3.905667   0.000000
    19  H    1.078791   2.126920   4.260604   0.000000
    20  C    2.578100   3.882017   2.712463   2.764052   0.000000
    21  C    2.556934   1.537193   5.442654   2.720375   5.130298
    22  O    3.642168   2.389385   4.554397   4.509513   5.720495
    23  H    4.320267   3.213941   4.491354   5.277401   6.101993
    24  N    5.131463   4.954397   2.613711   6.188276   5.286135
    25  H    5.190055   5.283073   2.144553   6.191273   4.844117
    26  C    3.586367   4.758531   2.914001   3.826397   1.542203
    27  H    3.991924   4.971106   2.293444   4.476742   2.186458
    28  H    4.510112   5.760053   3.788328   4.588288   2.180019
    29  H    3.520322   4.600467   3.482548   3.673411   2.184609
    30  C    3.648154   4.825487   2.840292   3.903946   1.541308
    31  H    3.628182   4.718005   3.371249   3.813508   2.185037
    32  H    4.555008   5.812088   3.735581   4.646739   2.175435
    33  H    4.060452   5.049902   2.206336   4.554645   2.190206
    34  C    2.885553   4.277817   4.209614   2.456112   1.534790
    35  H    2.855594   4.158177   4.622112   2.275702   2.188500
    36  H    2.810902   4.115144   4.656821   2.193620   2.188268
    37  H    3.971053   5.366045   4.842774   3.526439   2.160502
    38  C    3.601214   2.521766   6.150744   3.813376   6.075672
    39  H    4.503030   3.473376   7.216831   4.544326   6.999378
    40  H    4.029314   2.771647   6.044400   4.483717   6.442372
    41  H    3.545957   2.778912   6.045705   3.676925   5.792132
    42  C    3.609464   2.522259   6.150513   3.827095   6.097286
    43  H    4.061108   2.792039   6.077532   4.515545   6.493825
    44  H    4.499308   3.474391   7.216251   4.537448   7.003349
    45  H    3.542516   2.755614   6.007448   3.697544   5.811200
    46  C    2.839955   2.545691   6.162666   2.377723   5.131879
    47  H    2.781921   2.822561   6.078633   2.149341   4.798177
    48  H    2.792801   2.825056   6.082005   2.169901   4.821193
    49  H    3.925874   3.481816   7.221653   3.447540   6.209875
    50  H    7.935521   7.833807   4.937055   8.964400   7.599702
                   21         22         23         24         25
    21  C    0.000000
    22  O    2.881167   0.000000
    23  H    3.874073   1.001402   0.000000
    24  N    6.327465   4.197679   3.569940   0.000000
    25  H    6.749938   4.935983   4.428048   1.012947   0.000000
    26  C    6.035477   6.362819   6.630801   5.355277   4.783714
    27  H    6.374297   6.199588   6.303607   4.536823   3.877378
    28  H    6.981883   7.440350   7.708208   6.237447   5.562518
    29  H    5.739083   6.241782   6.578910   5.705097   5.260467
    30  C    6.122353   6.414799   6.668704   5.334645   4.752383
    31  H    5.895375   6.329512   6.640462   5.665805   5.205432
    32  H    7.052427   7.484038   7.741332   6.224775   5.541662
    33  H    6.471529   6.268157   6.358031   4.520926   3.844560
    34  C    5.164210   6.472647   7.033217   6.729177   6.352274
    35  H    4.881177   6.406303   7.031751   7.037438   6.742296
    36  H    4.817258   6.380412   7.016252   7.052848   6.760534
    37  H    6.243737   7.529054   8.050172   7.438358   6.944516
    38  C    1.543430   3.001289   3.922338   6.697072   7.216573
    39  H    2.173383   3.851314   4.762540   7.736579   8.284545
    40  H    2.190289   2.316879   3.122312   6.161887   6.796608
    41  H    2.180830   3.587220   4.424946   6.782102   7.207017
    42  C    1.543712   2.990216   3.912519   6.710582   7.239282
    43  H    2.189592   2.313905   3.123432   6.206533   6.853425
    44  H    2.174986   3.868379   4.781421   7.761497   8.313108
    45  H    2.180174   3.532725   4.367552   6.758236   7.200838
    46  C    1.537586   4.395892   5.376607   7.496634   7.774545
    47  H    2.192812   4.844483   5.784501   7.601602   7.792354
    48  H    2.193021   4.840820   5.781200   7.612817   7.810286
    49  H    2.156721   4.987558   5.988609   8.419954   8.760728
    50  H    9.194245   6.871994   6.070258   2.879825   2.810383
                   26         27         28         29         30
    26  C    0.000000
    27  H    1.092688   0.000000
    28  H    1.094059   1.771035   0.000000
    29  H    1.093396   1.769720   1.772188   0.000000
    30  C    2.510050   2.766511   2.741552   3.473136   0.000000
    31  H    3.474031   3.776990   3.749054   4.330774   1.093238
    32  H    2.740962   3.103859   2.516984   3.745033   1.093899
    33  H    2.765659   2.572524   3.095252   3.779069   1.092871
    34  C    2.498785   3.463647   2.731116   2.751159   2.496797
    35  H    3.470595   4.332604   3.741305   3.767678   2.757301
    36  H    2.752219   3.767016   3.080007   2.551830   3.468583
    37  H    2.718022   3.722552   2.492355   3.081091   2.709710
    38  C    6.683901   6.946620   7.668988   6.183328   7.228010
    39  H    7.653375   7.978811   8.602372   7.121346   8.148909
    40  H    6.975424   7.071603   8.017652   6.520221   7.513301
    41  H    6.193847   6.501190   7.145932   5.551086   7.094330
    42  C    7.178173   7.444349   8.117018   7.036579   6.813062
    43  H    7.496232   7.608959   8.492074   7.387587   7.134178
    44  H    8.077254   8.408891   8.989707   7.863389   7.767646
    45  H    7.056514   7.356821   7.929491   7.062315   6.328815
    46  C    6.100540   6.679491   6.895896   5.751479   6.193897
    47  H    5.569557   6.230690   6.314900   5.077431   6.040959
    48  H    5.988538   6.624713   6.699303   5.806842   5.697106
    49  H    7.158244   7.750270   7.933638   6.757760   7.259406
    50  H    7.372266   6.353243   8.020468   7.826561   7.341134
                   31         32         33         34         35
    31  H    0.000000
    32  H    1.771831   0.000000
    33  H    1.770174   1.768722   0.000000
    34  C    2.752974   2.720598   3.464780   0.000000
    35  H    2.561508   3.079551   3.775049   1.093401   0.000000
    36  H    3.772448   3.727732   4.334698   1.093494   1.772658
    37  H    3.074279   2.473854   3.714693   1.092804   1.767005
    38  C    7.161230   8.144574   7.496872   6.173536   6.081708
    39  H    8.013677   9.042318   8.479459   6.939824   6.761528
    40  H    7.478876   8.487949   7.628569   6.772857   6.731166
    41  H    7.173161   7.936895   7.395958   5.844121   5.920207
    42  C    6.378820   7.790482   7.097612   6.178137   5.692894
    43  H    6.738828   8.169995   7.257596   6.803338   6.394434
    44  H    7.305098   8.706523   8.117816   6.921838   6.388464
    45  H    5.750193   7.282722   6.657098   5.845444   5.213770
    46  C    5.922598   6.972043   6.778274   4.706062   4.309354
    47  H    5.936876   6.728419   6.675733   4.257356   4.064519
    48  H    5.278890   6.431909   6.366604   4.265635   3.652370
    49  H    6.943060   8.018171   7.857487   5.697138   5.252242
    50  H    7.769629   7.999537   6.320316   9.124812   9.522270
                   36         37         38         39         40
    36  H    0.000000
    37  H    1.766346   0.000000
    38  C    5.638125   7.229999   0.000000
    39  H    6.352633   7.977102   1.094137   0.000000
    40  H    6.321664   7.841874   1.089223   1.772948   0.000000
    41  H    5.170006   6.848031   1.093676   1.770467   1.771189
    42  C    6.013862   7.245617   2.529225   2.749214   2.803195
    43  H    6.692680   7.883631   2.781221   3.094030   2.613896
    44  H    6.666846   7.967416   2.772541   2.540783   3.161020
    45  H    5.847855   6.870435   3.484668   3.756465   3.803389
    46  C    4.227463   5.702310   2.485907   2.701644   3.454925
    47  H    3.570678   5.199609   2.740980   3.055518   3.755892
    48  H    3.980158   5.218278   3.462535   3.711956   4.333258
    49  H    5.166131   6.649536   2.690426   2.443069   3.696136
    50  H    9.541326   9.642638   9.473141  10.496760   8.838987
                   41         42         43         44         45
    41  H    0.000000
    42  C    3.484825   0.000000
    43  H    3.798260   1.089005   0.000000
    44  H    3.761956   1.094186   1.772948   0.000000
    45  H    4.328649   1.093628   1.769940   1.771733   0.000000
    46  C    2.723849   2.486777   3.454169   2.682156   2.747898
    47  H    2.522480   3.463193   4.331858   3.698874   3.763079
    48  H    3.745613   2.740209   3.764973   3.020463   2.547994
    49  H    3.040824   2.693643   3.686017   2.425306   3.080406
    50  H    9.519804   9.502455   8.900392  10.538447   9.521299
                   46         47         48         49         50
    46  C    0.000000
    47  H    1.093244   0.000000
    48  H    1.093259   1.771522   0.000000
    49  H    1.092639   1.767409   1.767561   0.000000
    50  H   10.374929  10.447381  10.468979  11.297415   0.000000
 Symmetry turned off by external request.
 Stoichiometry    C21H26N2O(1+,2)
 Framework group  C1[X(C21H26N2O)]
 Deg. of freedom   144
 Full point group                 C1      NOp   1
 Rotational constants (GHZ):           0.3502352           0.1442925           0.1070206
 Leave Link  202 at Wed Mar  6 12:06:00 2019, MaxMem=  1342177280 cpu:               1.1 elap:               0.1
 (Enter /gpfs/apps/hpc/Apps/Restricted/Gaussian/g16/Rev_B.01-AVX/g16/l301.exe)
 Standard basis: 6-31G(d,p) (6D, 7F)
 Ernie: Thresh=  0.10000D-02 Tol=  0.10000D-05 Strict=F.
   490 basis functions,   854 primitive gaussians,   490 cartesian basis functions
    87 alpha electrons       86 beta electrons
       nuclear repulsion energy      2035.4261075114 Hartrees.
 IExCor=  402 DFT=T Ex+Corr=B3LYP ExCW=0 ScaHFX=  0.200000
 ScaDFX=  0.800000  0.720000  1.000000  0.810000 ScalE2=  1.000000  1.000000
 IRadAn=      5 IRanWt=     -1 IRanGd=            0 ICorTp=0 IEmpDi=141
 NAtoms=   50 NActive=   50 NUniq=   50 SFac= 1.00D+00 NAtFMM=   60 NAOKFM=F Big=F
 Integral buffers will be    131072 words long.
 Raffenetti 2 integral format.
 Two-electron integral symmetry is turned off.
 R6Disp:  Grimme-D3(BJ) Dispersion energy=       -0.1089225132 Hartrees.
 Nuclear repulsion after empirical dispersion term =     2035.3171849982 Hartrees.
 Using the following non-standard input for PCM:
 radii=bondi
 dis
 rep
 cav
 --- end of non-standard input.
 ------------------------------------------------------------------------------
 Polarizable Continuum Model (PCM)
 =================================
 Model                : C-PCM.
 Atomic radii         : Bondi.
 Polarization charges : Total charges.
 Charge compensation  : None.
 Solution method      : On-the-fly selection.
 Cavity type          : Scaled VdW (van der Waals Surface) (Alpha=1.100).
 Cavity algorithm     : GePol (No added spheres)
                        Default sphere list used, NSphG=   50.
                        Lebedev-Laikov grids with approx.  5.0 points / Ang**2.
                        Smoothing algorithm: York/Karplus (Gamma=1.0000).
                        Polarization charges: spherical gaussians, with
                                              point-specific exponents (IZeta= 3).
                        Self-potential: point-specific (ISelfS= 7).
                        Self-field    : sphere-specific E.n sum rule (ISelfD= 2).
 1st derivatives      : Analytical E(r).r(x)/FMM algorithm (CHGder, D1EAlg=3).
                        Cavity 1st derivative terms included.
 Solvent              : Dichloromethane, Eps=   8.930000 Eps(inf)=   2.028346
 ------------------------------------------------------------------------------
 GePol: Number of generator spheres                  =      50
 GePol: Total number of spheres                      =      50
 GePol: Number of exposed spheres                    =      50 (100.00%)
 GePol: Number of points                             =    3241
 GePol: Average weight of points                     =       0.12
 GePol: Minimum weight of points                     =   0.13D-10
 GePol: Maximum weight of points                     =    0.21770
 GePol: Number of points with low weight             =     223
 GePol: Fraction of low-weight points (<1% of avg)   =       6.88%
 GePol: Cavity surface area                          =    385.222 Ang**2
 GePol: Cavity volume                                =    369.784 Ang**3
 PCM non-electrostatic energy =         0.0162970388 Hartrees.
 Nuclear repulsion after PCM non-electrostatic terms =     2035.3334820370 Hartrees.
 Leave Link  301 at Wed Mar  6 12:06:01 2019, MaxMem=  1342177280 cpu:               3.2 elap:               0.3
 (Enter /gpfs/apps/hpc/Apps/Restricted/Gaussian/g16/Rev_B.01-AVX/g16/l302.exe)
 NPDir=0 NMtPBC=     1 NCelOv=     1 NCel=       1 NClECP=     1 NCelD=      1
         NCelK=      1 NCelE2=     1 NClLst=     1 CellRange=     0.0.
 One-electron integrals computed using PRISM.
 NBasis=   490 RedAO= T EigKep=  2.89D-04  NBF=   490
 NBsUse=   490 1.00D-06 EigRej= -1.00D+00 NBFU=   490
 Precomputing XC quadrature grid using
 IXCGrd= 4 IRadAn=           5 IRanWt=          -1 IRanGd=           0 AccXCQ= 0.00D+00.
 Generated NRdTot=       0 NPtTot=           0 NUsed=           0 NTot=          32
 NSgBfM=   484   484   484   484   484 MxSgAt=    50 MxSgA2=    50.
 Leave Link  302 at Wed Mar  6 12:06:02 2019, MaxMem=  1342177280 cpu:              17.4 elap:               1.2
 (Enter /gpfs/apps/hpc/Apps/Restricted/Gaussian/g16/Rev_B.01-AVX/g16/l303.exe)
 DipDrv:  MaxL=1.
 Leave Link  303 at Wed Mar  6 12:06:02 2019, MaxMem=  1342177280 cpu:               1.1 elap:               0.1
 (Enter /gpfs/apps/hpc/Apps/Restricted/Gaussian/g16/Rev_B.01-AVX/g16/l401.exe)
 ExpMin= 1.61D-01 ExpMax= 5.48D+03 ExpMxC= 8.25D+02 IAcc=3 IRadAn=         5 AccDes= 0.00D+00
 Harris functional with IExCor=  402 and IRadAn=       5 diagonalized for initial guess.
 HarFok:  IExCor=  402 AccDes= 0.00D+00 IRadAn=         5 IDoV= 1 UseB2=F ITyADJ=14
 ICtDFT=  3500011 ScaDFX=  1.000000  1.000000  1.000000  1.000000
 FoFCou: FMM=F IPFlag=           0 FMFlag=      100000 FMFlg1=           0
         NFxFlg=           0 DoJE=T BraDBF=F KetDBF=T FulRan=T
         wScrn=  0.000000 ICntrl=       500 IOpCl=  0 I1Cent=   200000004 NGrid=           0
         NMat0=    1 NMatS0=      1 NMatT0=    0 NMatD0=    1 NMtDS0=    0 NMtDT0=    0
 Symmetry not used in FoFCou.
 Harris En= -1000.58079675972    
 JPrj=0 DoOrth=F DoCkMO=F.
 Initial guess <Sx>= 0.0000 <Sy>= 0.0000 <Sz>= 0.5000 <S**2>= 0.7500 S= 0.5000
 Leave Link  401 at Wed Mar  6 12:06:05 2019, MaxMem=  1342177280 cpu:              47.0 elap:               3.0
 (Enter /gpfs/apps/hpc/Apps/Restricted/Gaussian/g16/Rev_B.01-AVX/g16/l502.exe)
 Two-electron integral symmetry not used.
 UHF open shell SCF:
 Using DIIS extrapolation, IDIIS=  1040.
 NGot=  1342177280 LenX=  1341685074 LenY=  1341444484
 Requested convergence on RMS density matrix=1.00D-08 within 128 cycles.
 Requested convergence on MAX density matrix=1.00D-06.
 Requested convergence on             energy=1.00D-06.
 No special actions if energy rises.
 Fock matrices will be formed incrementally for  20 cycles.

 Cycle   1  Pass 1  IDiag  1:
 FoFJK:  IHMeth= 1 ICntrl=       0 DoSepK=F KAlg= 0 I1Cent=           0 FoldK=F
 IRaf= 670000000 NMat=       1 IRICut=       1 DoRegI=T DoRafI=F ISym2E= 0 IDoP0=0 IntGTp=1.
 FoFCou: FMM=F IPFlag=           0 FMFlag=      100000 FMFlg1=           0
         NFxFlg=           0 DoJE=F BraDBF=F KetDBF=F FulRan=T
         wScrn=  0.000000 ICntrl=         0 IOpCl=  1 I1Cent=           0 NGrid=           0
         NMat0=    1 NMatS0=      1 NMatT0=    0 NMatD0=    1 NMtDS0=    0 NMtDT0=    0
 Symmetry not used in FoFCou.
 Inv3:  Mode=1 IEnd=    31512243.
 Iteration    1 A*A^-1 deviation from unit magnitude is 6.66D-15 for   3230.
 Iteration    1 A*A^-1 deviation from orthogonality  is 2.61D-15 for   3236   1367.
 Iteration    1 A^-1*A deviation from unit magnitude is 6.55D-15 for   3239.
 Iteration    1 A^-1*A deviation from orthogonality  is 2.22D-15 for   3224   2140.
 E= -1000.01582737455    
 DIIS: error= 2.81D-02 at cycle   1 NSaved=   1.
 NSaved= 1 IEnMin= 1 EnMin= -1000.01582737455     IErMin= 1 ErrMin= 2.81D-02
 ErrMax= 2.81D-02  0.00D+00 EMaxC= 1.00D-01 BMatC= 2.28D+00 BMatP= 2.28D+00
 IDIUse=3 WtCom= 7.19D-01 WtEn= 2.81D-01
 Coeff-Com:  0.100D+01
 Coeff-En:   0.100D+01
 Coeff:      0.100D+01
 Gap=     0.185 Goal=   None    Shift=    0.000
 Gap=     0.049 Goal=   None    Shift=    0.000
 GapD=    0.049 DampG=0.250 DampE=0.500 DampFc=0.2500 IDamp=-1.
 Damping current iteration by 2.50D-01
 RMSDP=3.57D-03 MaxDP=1.33D-01              OVMax= 3.97D-01

 Cycle   2  Pass 1  IDiag  1:
 RMSU=  8.66D-04    CP:  9.85D-01
 E= -1000.23143998029     Delta-E=       -0.215612605747 Rises=F Damp=T
 DIIS: error= 1.62D-02 at cycle   2 NSaved=   2.
 NSaved= 2 IEnMin= 2 EnMin= -1000.23143998029     IErMin= 2 ErrMin= 1.62D-02
 ErrMax= 1.62D-02  0.00D+00 EMaxC= 1.00D-01 BMatC= 5.96D-01 BMatP= 2.28D+00
 IDIUse=3 WtCom= 8.38D-01 WtEn= 1.62D-01
 Coeff-Com: -0.840D+00 0.184D+01
 Coeff-En:   0.000D+00 0.100D+01
 Coeff:     -0.704D+00 0.170D+01
 Gap=     0.212 Goal=   None    Shift=    0.000
 Gap=     0.042 Goal=   None    Shift=    0.000
 RMSDP=1.37D-03 MaxDP=7.22D-02 DE=-2.16D-01 OVMax= 3.61D-01

 Cycle   3  Pass 1  IDiag  1:
 RMSU=  1.02D-03    CP:  9.53D-01  1.93D+00
 E= -1000.58885790659     Delta-E=       -0.357417926296 Rises=F Damp=F
 DIIS: error= 6.30D-03 at cycle   3 NSaved=   3.
 NSaved= 3 IEnMin= 3 EnMin= -1000.58885790659     IErMin= 3 ErrMin= 6.30D-03
 ErrMax= 6.30D-03  0.00D+00 EMaxC= 1.00D-01 BMatC= 8.83D-02 BMatP= 5.96D-01
 IDIUse=3 WtCom= 9.37D-01 WtEn= 6.30D-02
 Coeff-Com: -0.343D+00 0.756D+00 0.587D+00
 Coeff-En:   0.000D+00 0.000D+00 0.100D+01
 Coeff:     -0.321D+00 0.709D+00 0.613D+00
 Gap=     0.171 Goal=   None    Shift=    0.000
 Gap=     0.043 Goal=   None    Shift=    0.000
 RMSDP=5.29D-04 MaxDP=3.68D-02 DE=-3.57D-01 OVMax= 1.56D-01

 Cycle   4  Pass 1  IDiag  1:
 RMSU=  4.13D-04    CP:  9.56D-01  2.01D+00  6.84D-01
 E= -1000.60493279103     Delta-E=       -0.016074884443 Rises=F Damp=F
 DIIS: error= 3.13D-03 at cycle   4 NSaved=   4.
 NSaved= 4 IEnMin= 4 EnMin= -1000.60493279103     IErMin= 4 ErrMin= 3.13D-03
 ErrMax= 3.13D-03  0.00D+00 EMaxC= 1.00D-01 BMatC= 3.24D-02 BMatP= 8.83D-02
 IDIUse=3 WtCom= 9.69D-01 WtEn= 3.13D-02
 Coeff-Com: -0.428D-01 0.110D+00 0.374D+00 0.559D+00
 Coeff-En:   0.000D+00 0.000D+00 0.268D+00 0.732D+00
 Coeff:     -0.415D-01 0.107D+00 0.370D+00 0.564D+00
 Gap=     0.174 Goal=   None    Shift=    0.000
 Gap=     0.046 Goal=   None    Shift=    0.000
 RMSDP=2.19D-04 MaxDP=1.53D-02 DE=-1.61D-02 OVMax= 6.07D-02

 Cycle   5  Pass 1  IDiag  1:
 RMSU=  1.19D-04    CP:  9.56D-01  1.96D+00  7.81D-01  6.35D-01
 E= -1000.61259197829     Delta-E=       -0.007659187255 Rises=F Damp=F
 DIIS: error= 9.58D-04 at cycle   5 NSaved=   5.
 NSaved= 5 IEnMin= 5 EnMin= -1000.61259197829     IErMin= 5 ErrMin= 9.58D-04
 ErrMax= 9.58D-04  0.00D+00 EMaxC= 1.00D-01 BMatC= 2.06D-03 BMatP= 3.24D-02
 IDIUse=3 WtCom= 9.90D-01 WtEn= 9.58D-03
 Coeff-Com:  0.367D-02 0.708D-03 0.155D+00 0.295D+00 0.546D+00
 Coeff-En:   0.000D+00 0.000D+00 0.000D+00 0.000D+00 0.100D+01
 Coeff:      0.364D-02 0.701D-03 0.154D+00 0.292D+00 0.550D+00
 Gap=     0.171 Goal=   None    Shift=    0.000
 Gap=     0.048 Goal=   None    Shift=    0.000
 RMSDP=7.22D-05 MaxDP=7.46D-03 DE=-7.66D-03 OVMax= 3.17D-02

 Cycle   6  Pass 1  IDiag  1:
 RMSU=  5.08D-05    CP:  9.56D-01  1.96D+00  7.85D-01  6.91D-01  6.18D-01
 E= -1000.61310826549     Delta-E=       -0.000516287203 Rises=F Damp=F
 DIIS: error= 3.05D-04 at cycle   6 NSaved=   6.
 NSaved= 6 IEnMin= 6 EnMin= -1000.61310826549     IErMin= 6 ErrMin= 3.05D-04
 ErrMax= 3.05D-04  0.00D+00 EMaxC= 1.00D-01 BMatC= 2.84D-04 BMatP= 2.06D-03
 IDIUse=3 WtCom= 9.97D-01 WtEn= 3.05D-03
 Coeff-Com:  0.605D-02-0.914D-02 0.543D-01 0.106D+00 0.321D+00 0.522D+00
 Coeff-En:   0.000D+00 0.000D+00 0.000D+00 0.000D+00 0.000D+00 0.100D+01
 Coeff:      0.603D-02-0.911D-02 0.542D-01 0.106D+00 0.320D+00 0.523D+00
 Gap=     0.171 Goal=   None    Shift=    0.000
 Gap=     0.048 Goal=   None    Shift=    0.000
 RMSDP=2.18D-05 MaxDP=1.55D-03 DE=-5.16D-04 OVMax= 4.85D-03

 Cycle   7  Pass 1  IDiag  1:
 RMSU=  1.86D-05    CP:  9.56D-01  1.97D+00  7.86D-01  6.93D-01  7.09D-01
                    CP:  9.68D-01
 E= -1000.61318871530     Delta-E=       -0.000080449807 Rises=F Damp=F
 DIIS: error= 1.99D-04 at cycle   7 NSaved=   7.
 NSaved= 7 IEnMin= 7 EnMin= -1000.61318871530     IErMin= 7 ErrMin= 1.99D-04
 ErrMax= 1.99D-04  0.00D+00 EMaxC= 1.00D-01 BMatC= 3.69D-05 BMatP= 2.84D-04
 IDIUse=3 WtCom= 9.98D-01 WtEn= 1.99D-03
 Coeff-Com:  0.256D-02-0.483D-02-0.274D-02-0.135D-01 0.643D-01 0.186D+00
 Coeff-Com:  0.768D+00
 Coeff-En:   0.000D+00 0.000D+00 0.000D+00 0.000D+00 0.000D+00 0.000D+00
 Coeff-En:   0.100D+01
 Coeff:      0.255D-02-0.482D-02-0.273D-02-0.135D-01 0.642D-01 0.186D+00
 Coeff:      0.769D+00
 Gap=     0.171 Goal=   None    Shift=    0.000
 Gap=     0.049 Goal=   None    Shift=    0.000
 RMSDP=2.03D-05 MaxDP=1.59D-03 DE=-8.04D-05 OVMax= 1.16D-02

 Cycle   8  Pass 1  IDiag  1:
 RMSU=  1.20D-05    CP:  9.56D-01  1.97D+00  7.86D-01  7.06D-01  7.54D-01
                    CP:  1.25D+00  1.11D+00
 E= -1000.61321914324     Delta-E=       -0.000030427941 Rises=F Damp=F
 DIIS: error= 1.17D-04 at cycle   8 NSaved=   8.
 NSaved= 8 IEnMin= 8 EnMin= -1000.61321914324     IErMin= 8 ErrMin= 1.17D-04
 ErrMax= 1.17D-04  0.00D+00 EMaxC= 1.00D-01 BMatC= 2.79D-05 BMatP= 3.69D-05
 IDIUse=3 WtCom= 9.99D-01 WtEn= 1.17D-03
 Coeff-Com: -0.205D-03 0.235D-03-0.153D-01-0.419D-01-0.547D-01-0.166D+00
 Coeff-Com:  0.470D+00 0.807D+00
 Coeff-En:   0.000D+00 0.000D+00 0.000D+00 0.000D+00 0.000D+00 0.000D+00
 Coeff-En:   0.000D+00 0.100D+01
 Coeff:     -0.205D-03 0.235D-03-0.153D-01-0.419D-01-0.547D-01-0.166D+00
 Coeff:      0.470D+00 0.808D+00
 Gap=     0.170 Goal=   None    Shift=    0.000
 Gap=     0.049 Goal=   None    Shift=    0.000
 RMSDP=1.69D-05 MaxDP=1.31D-03 DE=-3.04D-05 OVMax= 7.97D-03

 Cycle   9  Pass 1  IDiag  1:
 RMSU=  5.52D-06    CP:  9.56D-01  1.97D+00  7.86D-01  7.15D-01  7.93D-01
                    CP:  1.46D+00  1.61D+00  1.38D+00
 E= -1000.61323928408     Delta-E=       -0.000020140843 Rises=F Damp=F
 DIIS: error= 7.87D-05 at cycle   9 NSaved=   9.
 NSaved= 9 IEnMin= 9 EnMin= -1000.61323928408     IErMin= 9 ErrMin= 7.87D-05
 ErrMax= 7.87D-05  0.00D+00 EMaxC= 1.00D-01 BMatC= 8.57D-06 BMatP= 2.79D-05
 IDIUse=1 WtCom= 1.00D+00 WtEn= 0.00D+00
 Coeff-Com: -0.544D-03 0.119D-02-0.830D-02-0.250D-01-0.547D-01-0.218D+00
 Coeff-Com:  0.948D-01 0.464D+00 0.747D+00
 Coeff:     -0.544D-03 0.119D-02-0.830D-02-0.250D-01-0.547D-01-0.218D+00
 Coeff:      0.948D-01 0.464D+00 0.747D+00
 Gap=     0.170 Goal=   None    Shift=    0.000
 Gap=     0.049 Goal=   None    Shift=    0.000
 RMSDP=1.27D-05 MaxDP=8.97D-04 DE=-2.01D-05 OVMax= 6.83D-03

 Cycle  10  Pass 1  IDiag  1:
 RMSU=  3.68D-06    CP:  9.56D-01  1.97D+00  7.85D-01  7.21D-01  8.20D-01
                    CP:  1.62D+00  1.91D+00  1.84D+00  1.13D+00
 E= -1000.61324804442     Delta-E=       -0.000008760340 Rises=F Damp=F
 DIIS: error= 4.01D-05 at cycle  10 NSaved=  10.
 NSaved=10 IEnMin=10 EnMin= -1000.61324804442     IErMin=10 ErrMin= 4.01D-05
 ErrMax= 4.01D-05  0.00D+00 EMaxC= 1.00D-01 BMatC= 2.78D-06 BMatP= 8.57D-06
 IDIUse=1 WtCom= 1.00D+00 WtEn= 0.00D+00
 Coeff-Com:  0.236D-03-0.121D-03 0.196D-02 0.935D-03-0.859D-03-0.629D-01
 Coeff-Com: -0.478D-01-0.871D-01 0.382D+00 0.813D+00
 Coeff:      0.236D-03-0.121D-03 0.196D-02 0.935D-03-0.859D-03-0.629D-01
 Coeff:     -0.478D-01-0.871D-01 0.382D+00 0.813D+00
 Gap=     0.170 Goal=   None    Shift=    0.000
 Gap=     0.049 Goal=   None    Shift=    0.000
 RMSDP=7.26D-06 MaxDP=4.57D-04 DE=-8.76D-06 OVMax= 3.79D-03

 Cycle  11  Pass 1  IDiag  1:
 RMSU=  2.01D-06    CP:  9.56D-01  1.97D+00  7.85D-01  7.25D-01  8.29D-01
                    CP:  1.70D+00  2.08D+00  2.10D+00  1.57D+00  1.30D+00
 E= -1000.61325099952     Delta-E=       -0.000002955095 Rises=F Damp=F
 DIIS: error= 3.29D-05 at cycle  11 NSaved=  11.
 NSaved=11 IEnMin=11 EnMin= -1000.61325099952     IErMin=11 ErrMin= 3.29D-05
 ErrMax= 3.29D-05  0.00D+00 EMaxC= 1.00D-01 BMatC= 9.73D-07 BMatP= 2.78D-06
 IDIUse=1 WtCom= 1.00D+00 WtEn= 0.00D+00
 Coeff-Com:  0.470D-03-0.668D-03 0.563D-02 0.119D-01 0.273D-01 0.546D-01
 Coeff-Com: -0.623D-01-0.314D+00-0.825D-01 0.484D+00 0.875D+00
 Coeff:      0.470D-03-0.668D-03 0.563D-02 0.119D-01 0.273D-01 0.546D-01
 Coeff:     -0.623D-01-0.314D+00-0.825D-01 0.484D+00 0.875D+00
 Gap=     0.170 Goal=   None    Shift=    0.000
 Gap=     0.049 Goal=   None    Shift=    0.000
 RMSDP=6.47D-06 MaxDP=5.56D-04 DE=-2.96D-06 OVMax= 3.47D-03

 Cycle  12  Pass 1  IDiag  1:
 RMSU=  1.04D-06    CP:  9.56D-01  1.97D+00  7.85D-01  7.28D-01  8.38D-01
                    CP:  1.77D+00  2.22D+00  2.35D+00  1.94D+00  1.93D+00
                    CP:  1.23D+00
 E= -1000.61325249400     Delta-E=       -0.000001494489 Rises=F Damp=F
 DIIS: error= 1.02D-05 at cycle  12 NSaved=  12.
 NSaved=12 IEnMin=12 EnMin= -1000.61325249400     IErMin=12 ErrMin= 1.02D-05
 ErrMax= 1.02D-05  0.00D+00 EMaxC= 1.00D-01 BMatC= 1.65D-07 BMatP= 9.73D-07
 IDIUse=1 WtCom= 1.00D+00 WtEn= 0.00D+00
 Coeff-Com:  0.966D-04-0.206D-03 0.684D-03 0.149D-02 0.746D-02 0.258D-01
 Coeff-Com:  0.142D-01-0.415D-01-0.997D-01-0.201D+00 0.228D+00 0.106D+01
 Coeff:      0.966D-04-0.206D-03 0.684D-03 0.149D-02 0.746D-02 0.258D-01
 Coeff:      0.142D-01-0.415D-01-0.997D-01-0.201D+00 0.228D+00 0.106D+01
 Gap=     0.170 Goal=   None    Shift=    0.000
 Gap=     0.049 Goal=   None    Shift=    0.000
 RMSDP=3.03D-06 MaxDP=2.90D-04 DE=-1.49D-06 OVMax= 1.67D-03

 Cycle  13  Pass 1  IDiag  1:
 RMSU=  5.91D-07    CP:  9.56D-01  1.97D+00  7.85D-01  7.29D-01  8.41D-01
                    CP:  1.80D+00  2.27D+00  2.46D+00  2.13D+00  2.25D+00
                    CP:  1.67D+00  1.37D+00
 E= -1000.61325279311     Delta-E=       -0.000000299103 Rises=F Damp=F
 DIIS: error= 6.65D-06 at cycle  13 NSaved=  13.
 NSaved=13 IEnMin=13 EnMin= -1000.61325279311     IErMin=13 ErrMin= 6.65D-06
 ErrMax= 6.65D-06  0.00D+00 EMaxC= 1.00D-01 BMatC= 8.12D-08 BMatP= 1.65D-07
 IDIUse=1 WtCom= 1.00D+00 WtEn= 0.00D+00
 Coeff-Com: -0.271D-04-0.446D-05-0.598D-03-0.136D-02-0.402D-03 0.563D-02
 Coeff-Com:  0.190D-01 0.250D-01-0.455D-01-0.234D+00-0.278D-02 0.675D+00
 Coeff-Com:  0.561D+00
 Coeff:     -0.271D-04-0.446D-05-0.598D-03-0.136D-02-0.402D-03 0.563D-02
 Coeff:      0.190D-01 0.250D-01-0.455D-01-0.234D+00-0.278D-02 0.675D+00
 Coeff:      0.561D+00
 Gap=     0.170 Goal=   None    Shift=    0.000
 Gap=     0.049 Goal=   None    Shift=    0.000
 RMSDP=1.22D-06 MaxDP=9.89D-05 DE=-2.99D-07 OVMax= 6.13D-04

 Cycle  14  Pass 1  IDiag  1:
 RMSU=  2.79D-07    CP:  9.55D-01  1.97D+00  7.84D-01  7.30D-01  8.43D-01
                    CP:  1.81D+00  2.30D+00  2.50D+00  2.20D+00  2.36D+00
                    CP:  1.80D+00  1.67D+00  9.70D-01
 E= -1000.61325285688     Delta-E=       -0.000000063772 Rises=F Damp=F
 DIIS: error= 2.78D-06 at cycle  14 NSaved=  14.
 NSaved=14 IEnMin=14 EnMin= -1000.61325285688     IErMin=14 ErrMin= 2.78D-06
 ErrMax= 2.78D-06  0.00D+00 EMaxC= 1.00D-01 BMatC= 9.55D-09 BMatP= 8.12D-08
 IDIUse=1 WtCom= 1.00D+00 WtEn= 0.00D+00
 Coeff-Com: -0.286D-04 0.533D-04-0.440D-03-0.124D-02-0.250D-02-0.757D-02
 Coeff-Com:  0.671D-02 0.246D-01 0.256D-01-0.408D-01-0.615D-01-0.722D-01
 Coeff-Com:  0.141D+00 0.989D+00
 Coeff:     -0.286D-04 0.533D-04-0.440D-03-0.124D-02-0.250D-02-0.757D-02
 Coeff:      0.671D-02 0.246D-01 0.256D-01-0.408D-01-0.615D-01-0.722D-01
 Coeff:      0.141D+00 0.989D+00
 Gap=     0.170 Goal=   None    Shift=    0.000
 Gap=     0.049 Goal=   None    Shift=    0.000
 RMSDP=5.28D-07 MaxDP=5.15D-05 DE=-6.38D-08 OVMax= 2.92D-04

 Cycle  15  Pass 1  IDiag  1:
 RMSU=  1.68D-07    CP:  9.55D-01  1.97D+00  7.84D-01  7.30D-01  8.43D-01
                    CP:  1.82D+00  2.30D+00  2.51D+00  2.22D+00  2.42D+00
                    CP:  1.88D+00  1.86D+00  1.31D+00  1.29D+00
 E= -1000.61325287131     Delta-E=       -0.000000014433 Rises=F Damp=F
 DIIS: error= 1.52D-06 at cycle  15 NSaved=  15.
 NSaved=15 IEnMin=15 EnMin= -1000.61325287131     IErMin=15 ErrMin= 1.52D-06
 ErrMax= 1.52D-06  0.00D+00 EMaxC= 1.00D-01 BMatC= 5.92D-09 BMatP= 9.55D-09
 IDIUse=1 WtCom= 1.00D+00 WtEn= 0.00D+00
 Coeff-Com:  0.194D-05 0.114D-04-0.104D-03-0.403D-03-0.126D-02-0.549D-02
 Coeff-Com: -0.716D-03 0.405D-02 0.254D-01 0.238D-01-0.227D-01-0.177D+00
 Coeff-Com: -0.105D+00 0.513D+00 0.746D+00
 Coeff:      0.194D-05 0.114D-04-0.104D-03-0.403D-03-0.126D-02-0.549D-02
 Coeff:     -0.716D-03 0.405D-02 0.254D-01 0.238D-01-0.227D-01-0.177D+00
 Coeff:     -0.105D+00 0.513D+00 0.746D+00
 Gap=     0.170 Goal=   None    Shift=    0.000
 Gap=     0.049 Goal=   None    Shift=    0.000
 RMSDP=3.70D-07 MaxDP=2.95D-05 DE=-1.44D-08 OVMax= 1.99D-04

 Cycle  16  Pass 1  IDiag  1:
 RMSU=  9.88D-08    CP:  9.55D-01  1.97D+00  7.84D-01  7.30D-01  8.43D-01
                    CP:  1.82D+00  2.31D+00  2.53D+00  2.24D+00  2.44D+00
                    CP:  1.92D+00  1.96D+00  1.47D+00  1.69D+00  1.19D+00
 E= -1000.61325287697     Delta-E=       -0.000000005660 Rises=F Damp=F
 DIIS: error= 1.41D-06 at cycle  16 NSaved=  16.
 NSaved=16 IEnMin=16 EnMin= -1000.61325287697     IErMin=16 ErrMin= 1.41D-06
 ErrMax= 1.41D-06  0.00D+00 EMaxC= 1.00D-01 BMatC= 1.88D-09 BMatP= 5.92D-09
 IDIUse=1 WtCom= 1.00D+00 WtEn= 0.00D+00
 Coeff-Com:  0.221D-04-0.261D-04 0.143D-03 0.243D-03 0.355D-03-0.593D-03
 Coeff-Com: -0.187D-02-0.836D-02 0.844D-02 0.276D-01 0.148D-01-0.810D-01
 Coeff-Com: -0.150D+00-0.371D-01 0.471D+00 0.756D+00
 Coeff:      0.221D-04-0.261D-04 0.143D-03 0.243D-03 0.355D-03-0.593D-03
 Coeff:     -0.187D-02-0.836D-02 0.844D-02 0.276D-01 0.148D-01-0.810D-01
[...]
    30  C    3.644285   4.806986   2.815174   3.886039   1.545481
    31  H    3.621560   4.697454   3.357975   3.793844   2.188544
    32  H    4.537641   5.781378   3.704238   4.610526   2.164215
    33  H    4.074344   5.054408   2.186838   4.552786   2.199546
    34  C    2.874718   4.246744   4.200422   2.431537   1.534302
    35  H    2.846173   4.130376   4.624409   2.249730   2.188733
    36  H    2.807204   4.088643   4.653225   2.183957   2.189101
    37  H    3.958557   5.333484   4.815922   3.502036   2.152922
    38  C    3.582018   2.517641   6.182419   3.806075   6.047508
    39  H    4.469130   3.459746   7.243874   4.516294   6.955517
    40  H    4.042044   2.803576   6.116018   4.502639   6.448472
    41  H    3.514961   2.760615   6.054084   3.660225   5.747410
    42  C    3.604246   2.516857   6.177206   3.845997   6.089484
    43  H    4.068016   2.806851   6.119738   4.541832   6.496967
    44  H    4.483695   3.459721   7.239195   4.544025   6.987107
    45  H    3.545905   2.749329   6.029492   3.728689   5.814270
    46  C    2.827928   2.527500   6.189673   2.381523   5.117955
    47  H    2.771917   2.807228   6.110153   2.144101   4.784490
    48  H    2.781765   2.799708   6.096813   2.182163   4.810803
    49  H    3.912457   3.464056   7.248285   3.450282   6.195476
    50  H    8.046204   7.907872   5.102029   9.078641   7.777367
                   21         22         23         24         25
    21  C    0.000000
    22  O    2.880255   0.000000
    23  H    3.925963   1.051453   0.000000
    24  N    6.366390   4.150322   3.473365   0.000000
    25  H    6.774511   4.865327   4.318431   1.009394   0.000000
    26  C    6.020601   6.265811   6.556308   5.434642   4.883675
    27  H    6.376567   6.116531   6.232435   4.626004   3.991622
    28  H    6.954850   7.340855   7.633107   6.322069   5.668989
    29  H    5.724308   6.137325   6.497845   5.779599   5.362877
    30  C    6.107254   6.343003   6.624604   5.399822   4.801072
    31  H    5.877836   6.266392   6.609166   5.714964   5.224938
    32  H    7.024687   7.406037   7.692628   6.298526   5.605759
    33  H    6.474630   6.213023   6.321180   4.594998   3.896529
    34  C    5.145649   6.401748   7.004308   6.807846   6.429132
    35  H    4.864925   6.351724   7.023243   7.110374   6.802572
    36  H    4.806468   6.313383   6.992597   7.136678   6.849161
    37  H    6.225106   7.453085   8.012287   7.512167   7.018481
    38  C    1.545410   3.019316   3.985320   6.744220   7.257518
    39  H    2.163017   3.895414   4.850799   7.784985   8.323631
    40  H    2.200116   2.371306   3.213056   6.232397   6.863174
    41  H    2.184246   3.571788   4.453425   6.826774   7.252502
    42  C    1.545798   2.992363   3.956784   6.699951   7.208631
    43  H    2.197652   2.337939   3.179756   6.191322   6.818991
    44  H    2.164702   3.883542   4.836744   7.751159   8.283915
    45  H    2.183749   3.517107   4.392543   6.732841   7.150197
    46  C    1.537269   4.388974   5.422619   7.545387   7.811080
    47  H    2.192287   4.834081   5.828194   7.677955   7.863372
    48  H    2.190407   4.818690   5.810536   7.643170   7.823379
    49  H    2.153552   4.991549   6.042937   8.460906   8.790416
    50  H    9.228016   6.804448   5.936431   2.889483   2.887711
                   26         27         28         29         30
    26  C    0.000000
    27  H    1.091911   0.000000
    28  H    1.092859   1.770268   0.000000
    29  H    1.092390   1.772581   1.772588   0.000000
    30  C    2.518663   2.768421   2.740701   3.481355   0.000000
    31  H    3.481710   3.778237   3.747009   4.338766   1.092288
    32  H    2.742975   3.100922   2.510680   3.745387   1.092723
    33  H    2.767851   2.568951   3.088886   3.781651   1.092021
    34  C    2.507838   3.473093   2.718722   2.764201   2.504299
    35  H    3.478887   4.342066   3.728431   3.779726   2.762896
    36  H    2.757874   3.777869   3.063287   2.563987   3.475815
    37  H    2.723132   3.721930   2.476531   3.093462   2.709913
    38  C    6.650369   6.936601   7.624044   6.144516   7.205235
    39  H    7.606200   7.958356   8.540350   7.069085   8.111878
    40  H    6.973187   7.094629   8.006610   6.507783   7.526234
    41  H    6.143438   6.475022   7.084339   5.496655   7.055034
    42  C    7.164940   7.439944   8.095224   7.022650   6.803054
    43  H    7.486242   7.608753   8.476371   7.370525   7.140754
    44  H    8.057938   8.400136   8.960241   7.844074   7.749883
    45  H    7.055198   7.357732   7.920341   7.062983   6.325190
    46  C    6.098893   6.692322   6.877048   5.760078   6.171944
    47  H    5.573204   6.253133   6.298211   5.094103   6.020248
    48  H    5.992975   6.635843   6.687078   5.825396   5.672455
    49  H    7.157019   7.763239   7.915474   6.767517   7.236007
    50  H    7.574578   6.570587   8.252002   8.013995   7.514720
                   31         32         33         34         35
    31  H    0.000000
    32  H    1.771964   0.000000
    33  H    1.772688   1.767485   0.000000
    34  C    2.763582   2.707106   3.473341   0.000000
    35  H    2.572366   3.063931   3.785636   1.092958   0.000000
    36  H    3.783269   3.712993   4.344200   1.092965   1.775735
    37  H    3.080132   2.453085   3.710082   1.091649   1.765124
    38  C    7.138578   8.106598   7.494791   6.135672   6.049265
    39  H    7.976740   8.986946   8.466590   6.880171   6.706042
    40  H    7.490397   8.487961   7.664265   6.766008   6.728887
    41  H    7.135011   7.881002   7.374965   5.791153   5.873992
    42  C    6.369384   7.773032   7.100451   6.178015   5.700416
    43  H    6.749742   8.170458   7.278250   6.812210   6.414916
    44  H    7.287248   8.679573   8.114263   6.910569   6.383033
    45  H    5.746783   7.274781   6.661440   5.864162   5.241438
    46  C    5.892415   6.934499   6.772993   4.687049   4.282248
    47  H    5.906376   6.688325   6.673712   4.228521   4.022826
    48  H    5.244096   6.394464   6.354113   4.261014   3.638245
    49  H    6.910715   7.979113   7.850344   5.678364   5.224733
    50  H    7.908183   8.206253   6.505736   9.296750   9.673651
                   36         37         38         39         40
    36  H    0.000000
    37  H    1.764715   0.000000
    38  C    5.601651   7.191096   0.000000
    39  H    6.292675   7.915817   1.092849   0.000000
    40  H    6.312737   7.833249   1.089175   1.768705   0.000000
    41  H    5.118783   6.793951   1.092723   1.769708   1.772611
    42  C    6.022365   7.246137   2.534487   2.761729   2.793895
    43  H    6.704172   7.892227   2.783712   3.110651   2.600712
    44  H    6.664212   7.957869   2.771516   2.548872   3.137104
    45  H    5.877828   6.890236   3.490003   3.764454   3.798752
    46  C    4.225561   5.684887   2.492930   2.680914   3.464377
    47  H    3.557289   5.172274   2.742361   3.020897   3.769339
    48  H    4.000186   5.215840   3.466979   3.695024   4.340651
    49  H    5.164649   6.633056   2.701299   2.427019   3.696191
    50  H    9.711440   9.827196   9.509675  10.530446   8.884387
                   41         42         43         44         45
    41  H    0.000000
    42  C    3.490602   0.000000
    43  H    3.795033   1.088942   0.000000
    44  H    3.767835   1.092778   1.769729   0.000000
    45  H    4.335497   1.092747   1.772192   1.770716   0.000000
    46  C    2.747910   2.493448   3.462602   2.675115   2.756952
    47  H    2.544242   3.468529   4.339543   3.689405   3.772944
    48  H    3.763034   2.745511   3.773336   3.015937   2.557351
    49  H    3.077390   2.696813   3.687433   2.415618   3.083809
    50  H    9.569878   9.463063   8.841275  10.493643   9.470953
                   46         47         48         49         50
    46  C    0.000000
    47  H    1.093080   0.000000
    48  H    1.092974   1.774010   0.000000
    49  H    1.091571   1.766599   1.767375   0.000000
    50  H   10.434195  10.550773  10.513831  11.339696   0.000000
 Symmetry turned off by external request.
 Stoichiometry    C21H26N2O(1+,2)
 Framework group  C1[X(C21H26N2O)]
 Deg. of freedom   144
 Full point group                 C1      NOp   1
 Rotational constants (GHZ):           0.3534751           0.1443116           0.1073604
 Leave Link  202 at Wed Mar  6 12:56:23 2019, MaxMem=  1342177280 cpu:               0.2 elap:               0.0
 (Enter /gpfs/apps/hpc/Apps/Restricted/Gaussian/g16/Rev_B.01-AVX/g16/l301.exe)
 Standard basis: 6-31G(d,p) (6D, 7F)
 Ernie: Thresh=  0.10000D-02 Tol=  0.10000D-05 Strict=F.
   490 basis functions,   854 primitive gaussians,   490 cartesian basis functions
    87 alpha electrons       86 beta electrons
       nuclear repulsion energy      2038.3213234734 Hartrees.
 IExCor=  402 DFT=T Ex+Corr=B3LYP ExCW=0 ScaHFX=  0.200000
 ScaDFX=  0.800000  0.720000  1.000000  0.810000 ScalE2=  1.000000  1.000000
 IRadAn=      5 IRanWt=     -1 IRanGd=            0 ICorTp=0 IEmpDi=141
 NAtoms=   50 NActive=   50 NUniq=   50 SFac= 1.00D+00 NAtFMM=   60 NAOKFM=F Big=F
 Integral buffers will be    131072 words long.
 Raffenetti 2 integral format.
 Two-electron integral symmetry is turned off.
 R6Disp:  Grimme-D3(BJ) Dispersion energy=       -0.1089116119 Hartrees.
 Nuclear repulsion after empirical dispersion term =     2038.2124118615 Hartrees.
 Force inversion solution in PCM.
 ------------------------------------------------------------------------------
 Polarizable Continuum Model (PCM)
 =================================
 Model                : C-PCM.
 Atomic radii         : Bondi.
 Polarization charges : Total charges.
 Charge compensation  : None.
 Solution method      : Matrix inversion.
 Cavity type          : Scaled VdW (van der Waals Surface) (Alpha=1.100).
 Cavity algorithm     : GePol (No added spheres)
                        Default sphere list used, NSphG=   50.
                        Lebedev-Laikov grids with approx.  5.0 points / Ang**2.
                        Smoothing algorithm: York/Karplus (Gamma=1.0000).
                        Polarization charges: spherical gaussians, with
                                              point-specific exponents (IZeta= 3).
                        Self-potential: point-specific (ISelfS= 7).
                        Self-field    : sphere-specific E.n sum rule (ISelfD= 2).
 1st derivatives      : Analytical E(r).r(x)/FMM algorithm (CHGder, D1EAlg=3).
                        Cavity 1st derivative terms included.
 2nd derivatives      : Analytical E(r).r(xy)/FMM algorithm (CHGder, D2EAlg=3).
                        Cavity 2nd derivative terms included.
 Solvent              : Dichloromethane, Eps=   8.930000 Eps(inf)=   2.028346
 ------------------------------------------------------------------------------
 GePol: Number of generator spheres                  =      50
 GePol: Total number of spheres                      =      50
 GePol: Number of exposed spheres                    =      50 (100.00%)
 GePol: Number of points                             =    3231
 GePol: Average weight of points                     =       0.12
 GePol: Minimum weight of points                     =   0.37D-10
 GePol: Maximum weight of points                     =    0.21770
 GePol: Number of points with low weight             =     216
 GePol: Fraction of low-weight points (<1% of avg)   =       6.69%
 GePol: Cavity surface area                          =    385.259 Ang**2
 GePol: Cavity volume                                =    369.901 Ang**3
 PCM non-electrostatic energy =         0.0162662321 Hartrees.
 Nuclear repulsion after PCM non-electrostatic terms =     2038.2286780936 Hartrees.
 Leave Link  301 at Wed Mar  6 12:56:23 2019, MaxMem=  1342177280 cpu:               1.9 elap:               0.1
 (Enter /gpfs/apps/hpc/Apps/Restricted/Gaussian/g16/Rev_B.01-AVX/g16/l302.exe)
 NPDir=0 NMtPBC=     1 NCelOv=     1 NCel=       1 NClECP=     1 NCelD=      1
         NCelK=      1 NCelE2=     1 NClLst=     1 CellRange=     0.0.
 One-electron integrals computed using PRISM.
 NBasis=   490 RedAO= T EigKep=  3.12D-04  NBF=   490
 NBsUse=   490 1.00D-06 EigRej= -1.00D+00 NBFU=   490
 Precomputing XC quadrature grid using
 IXCGrd= 4 IRadAn=           5 IRanWt=          -1 IRanGd=           0 AccXCQ= 0.00D+00.
 Generated NRdTot=       0 NPtTot=           0 NUsed=           0 NTot=          32
 NSgBfM=   484   484   484   484   484 MxSgAt=    50 MxSgA2=    50.
 Leave Link  302 at Wed Mar  6 12:56:23 2019, MaxMem=  1342177280 cpu:              10.8 elap:               0.7
 (Enter /gpfs/apps/hpc/Apps/Restricted/Gaussian/g16/Rev_B.01-AVX/g16/l303.exe)
 DipDrv:  MaxL=1.
 Leave Link  303 at Wed Mar  6 12:56:24 2019, MaxMem=  1342177280 cpu:               1.7 elap:               0.1
 (Enter /gpfs/apps/hpc/Apps/Restricted/Gaussian/g16/Rev_B.01-AVX/g16/l401.exe)
 Initial guess from the checkpoint file:  "unsub-monoBIP-E0PT.chk"
 B after Tr=     0.000000    0.000000    0.000000
         Rot=    1.000000    0.000000    0.000000    0.000000 Ang=   0.00 deg.
 Guess basis will be translated and rotated to current coordinates.
 JPrj=2 DoOrth=T DoCkMO=T.
 Initial guess <Sx>= 0.0000 <Sy>= 0.0000 <Sz>= 0.5000 <S**2>= 0.7625 S= 0.5063
 Leave Link  401 at Wed Mar  6 12:56:25 2019, MaxMem=  1342177280 cpu:              14.0 elap:               0.9
 (Enter /gpfs/apps/hpc/Apps/Restricted/Gaussian/g16/Rev_B.01-AVX/g16/l502.exe)
 Two-electron integral symmetry not used.
 UHF open shell SCF:
 Using DIIS extrapolation, IDIIS=  1040.
 NGot=  1342177280 LenX=  1341685074 LenY=  1341444484
 Requested convergence on RMS density matrix=1.00D-08 within 128 cycles.
 Requested convergence on MAX density matrix=1.00D-06.
 Requested convergence on             energy=1.00D-06.
 No special actions if energy rises.
 Fock matrices will be formed incrementally for  20 cycles.

 Cycle   1  Pass 1  IDiag  1:
 FoFJK:  IHMeth= 1 ICntrl=       0 DoSepK=F KAlg= 0 I1Cent=           0 FoldK=F
 IRaf= 670000000 NMat=       1 IRICut=       1 DoRegI=T DoRafI=F ISym2E= 0 IDoP0=0 IntGTp=1.
 FoFCou: FMM=F IPFlag=           0 FMFlag=      100000 FMFlg1=           0
         NFxFlg=           0 DoJE=F BraDBF=F KetDBF=F FulRan=T
         wScrn=  0.000000 ICntrl=         0 IOpCl=  1 I1Cent=           0 NGrid=           0
         NMat0=    1 NMatS0=      1 NMatT0=    0 NMatD0=    1 NMtDS0=    0 NMtDT0=    0
 Symmetry not used in FoFCou.
 Inv3:  Mode=1 IEnd=    31318083.
 Iteration    1 A*A^-1 deviation from unit magnitude is 5.44D-15 for   3223.
 Iteration    1 A*A^-1 deviation from orthogonality  is 3.66D-15 for   3230   1397.
 Iteration    1 A^-1*A deviation from unit magnitude is 5.22D-15 for   3223.
 Iteration    1 A^-1*A deviation from orthogonality  is 2.78D-15 for   3226   1377.
 E= -1000.61974402966    
 DIIS: error= 1.67D-08 at cycle   1 NSaved=   1.
 NSaved= 1 IEnMin= 1 EnMin= -1000.61974402966     IErMin= 1 ErrMin= 1.67D-08
 ErrMax= 1.67D-08  0.00D+00 EMaxC= 1.00D-01 BMatC= 1.45D-13 BMatP= 1.45D-13
 IDIUse=1 WtCom= 1.00D+00 WtEn= 0.00D+00
 Coeff-Com:  0.100D+01
 Coeff:      0.100D+01
 Gap=     0.163 Goal=   None    Shift=    0.000
 Gap=     0.059 Goal=   None    Shift=    0.000
 RMSDP=9.73D-10 MaxDP=1.14D-07              OVMax= 1.94D-07

 Error on total polarization charges =  0.03748
 SCF Done:  E(UB3LYP) =  -1000.61974403     A.U. after    1 cycles
            NFock=  1  Conv=0.97D-09     -V/T= 2.0097
 <Sx>= 0.0000 <Sy>= 0.0000 <Sz>= 0.5000 <S**2>= 0.7625 S= 0.5063
 <L.S>=  0.00000000000    
 KE= 9.910327182920D+02 PE=-6.372561488356D+03 EE= 2.342680347941D+03
 Annihilation of the first spin contaminant:
 S**2 before annihilation     0.7625,   after     0.7501
 Leave Link  502 at Wed Mar  6 12:56:41 2019, MaxMem=  1342177280 cpu:             233.8 elap:              16.4
 (Enter /gpfs/apps/hpc/Apps/Restricted/Gaussian/g16/Rev_B.01-AVX/g16/l801.exe)
 DoSCS=F DFT=T ScalE2(SS,OS)=  1.000000  1.000000
 Range of M.O.s used for correlation:     1   490
 NBasis=   490 NAE=    87 NBE=    86 NFC=     0 NFV=     0
 NROrb=    490 NOA=    87 NOB=    86 NVA=   403 NVB=   404

 **** Warning!!: The smallest beta delta epsilon is  0.58584196D-01

 Leave Link  801 at Wed Mar  6 12:56:41 2019, MaxMem=  1342177280 cpu:               0.6 elap:               0.1
 (Enter /gpfs/apps/hpc/Apps/Restricted/Gaussian/g16/Rev_B.01-AVX/g16/l1101.exe)
 Using compressed storage, NAtomX=    50.
 Will process     51 centers per pass.
 R6Disp: Adding Grimme-D3(BJ) dispersion energy 1st derivatives to the gradient.
 Leave Link 1101 at Wed Mar  6 12:56:42 2019, MaxMem=  1342177280 cpu:              13.4 elap:               0.9
 (Enter /gpfs/apps/hpc/Apps/Restricted/Gaussian/g16/Rev_B.01-AVX/g16/l1102.exe)
 Symmetrizing basis deriv contribution to polar:
 IMax=3 JMax=2 DiffMx= 0.00D+00
 Leave Link 1102 at Wed Mar  6 12:56:42 2019, MaxMem=  1342177280 cpu:               1.5 elap:               0.1
 (Enter /gpfs/apps/hpc/Apps/Restricted/Gaussian/g16/Rev_B.01-AVX/g16/l1110.exe)
 Forming Gx(P) for the SCF density, NAtomX=    50.
 Integral derivatives from FoFJK, PRISM(SPDF).
 Do as many integral derivatives as possible in FoFJK.
 G2DrvN: MDV=    1342173144.
 G2DrvN: will do    51 centers at a time, making    1 passes.
 Calling FoFCou, ICntrl=  3107 FMM=F I1Cent=   0 AccDes= 0.00D+00.
 FoFJK:  IHMeth= 1 ICntrl=    3107 DoSepK=F KAlg= 0 I1Cent=           0 FoldK=F
 IRaf=         0 NMat=       1 IRICut=       1 DoRegI=T DoRafI=F ISym2E= 0 IDoP0=0 IntGTp=1.
 FoFCou: FMM=F IPFlag=           0 FMFlag=      100000 FMFlg1=           0
         NFxFlg=           0 DoJE=F BraDBF=F KetDBF=F FulRan=T
         wScrn=  0.000000 ICntrl=      3107 IOpCl=  1 I1Cent=           0 NGrid=           0
         NMat0=    1 NMatS0=      1 NMatT0=    0 NMatD0=    1 NMtDS0=    0 NMtDT0=    0
 Symmetry not used in FoFCou.
 NEqPCM:  Using equilibrium solvation (IEInf=0, Eps=   8.9300, EpsInf=   2.0283)
 G2PCM: DoFxE=T DoFxN=T DoGrad=T DoDP/DQ/DG/TGxP=FFFF NFrqRd=   0 IEInf=0 SqF1=F DoCFld=F IF1Alg=4.
 GePol: Maximum number of non-zero 1st derivatives   =     201
 End of G2Drv F.D. properties file   721 does not exist.
 End of G2Drv F.D. properties file   722 does not exist.
 End of G2Drv F.D. properties file   788 does not exist.
 Leave Link 1110 at Wed Mar  6 13:05:07 2019, MaxMem=  1342177280 cpu:            8069.2 elap:             504.6
 (Enter /gpfs/apps/hpc/Apps/Restricted/Gaussian/g16/Rev_B.01-AVX/g16/l1002.exe)
 Minotr:  UHF open shell wavefunction.
          IDoAtm=11111111111111111111111111111111111111111111111111
 NEqPCM:  Using equilibrium solvation (IEInf=0, Eps=   8.9300, EpsInf=   2.0283)
          Direct CPHF calculation.
          Differentiating once with respect to electric field.
                with respect to dipole field.
          Differentiating once with respect to nuclear coordinates.
          Requested convergence is 1.0D-08 RMS, and 1.0D-07 maximum.
          Secondary convergence is 1.0D-12 RMS, and 1.0D-12 maximum.
          NewPWx=T KeepS1=F KeepF1=F KeepIn=T MapXYZ=F SortEE=F KeepMc=T.
        15132 words used for storage of precomputed grid.
 Two-electron integral symmetry not used.
          MDV=    1342177280 using IRadAn=       1.
          Solving linear equations simultaneously, MaxMat=     384.
 FoF2E skips out because all densities are zero.
 CalDSu exits because no D1Ps are significant.
 FoFJK:  IHMeth= 1 ICntrl=       0 DoSepK=F KAlg= 0 I1Cent=           0 FoldK=F
 IRaf= 630000000 NMat=      80 IRICut=     200 DoRegI=T DoRafI=T ISym2E= 0 IDoP0=0 IntGTp=1.
          There are   153 degrees of freedom in the 1st order CPHF.  IDoFFX=6 NUNeed=     3.
    150 vectors produced by pass  0 Test12= 6.98D-14 1.00D-09 XBig12= 3.82D+03 5.05D+01.
 AX will form    80 AO Fock derivatives at one time.
    150 vectors produced by pass  1 Test12= 6.98D-14 1.00D-09 XBig12= 2.87D+02 4.77D+00.
    150 vectors produced by pass  2 Test12= 6.98D-14 1.00D-09 XBig12= 5.78D+00 3.21D-01.
