 Entering Gaussian System, Link 0=g16
 Initial command:
 /gpfs/apps/hpc/Apps/Restricted/Gaussian/Rev_A.03/g16/l1.exe "/gpfs/scratch60/fas/hammes_schiffer/jg2487/c03n08/Gau-21038.inp" -scrdir="/gpfs/scratch60/fas/hammes_schiffer/jg2487/c03n08/"
 Entering Link 1 = /gpfs/apps/hpc/Apps/Restricted/Gaussian/Rev_A.03/g16/l1.exe PID=     21039.
  
 Copyright (c) 1988,1990,1992,1993,1995,1998,2003,2009,2016,
            Gaussian, Inc.  All Rights Reserved.
  
 This is part of the Gaussian(R) 16 program.  It is based on
 the Gaussian(R) 09 system (copyright 2009, Gaussian, Inc.),
 the Gaussian(R) 03 system (copyright 2003, Gaussian, Inc.),
 the Gaussian(R) 98 system (copyright 1998, Gaussian, Inc.),
 the Gaussian(R) 94 system (copyright 1995, Gaussian, Inc.),
 the Gaussian 92(TM) system (copyright 1992, Gaussian, Inc.),
 the Gaussian 90(TM) system (copyright 1990, Gaussian, Inc.),
 the Gaussian 88(TM) system (copyright 1988, Gaussian, Inc.),
 the Gaussian 86(TM) system (copyright 1986, Carnegie Mellon
 University), and the Gaussian 82(TM) system (copyright 1983,
 Carnegie Mellon University). Gaussian is a federally registered
 trademark of Gaussian, Inc.
  
 This software contains proprietary and confidential information,
 including trade secrets, belonging to Gaussian, Inc.
  
 This software is provided under written license and may be
 used, copied, transmitted, or stored only in accord with that
 written license.
  
 The following legend is applicable only to US Government
 contracts under FAR:
  
                    RESTRICTED RIGHTS LEGEND
  
 Use, reproduction and disclosure by the US Government is
 subject to restrictions as set forth in subparagraphs (a)
 and (c) of the Commercial Computer Software - Restricted
 Rights clause in FAR 52.227-19.
  
 Gaussian, Inc.
 340 Quinnipiac St., Bldg. 40, Wallingford CT 06492
  
  
 ---------------------------------------------------------------
 Warning -- This program may not be used in any manner that
 competes with the business of Gaussian, Inc. or will provide
 assistance to any competitor of Gaussian, Inc.  The licensee
 of this program is prohibited from giving any competitor of
 Gaussian, Inc. access to this program.  By using this program,
 the user acknowledges that Gaussian, Inc. is engaged in the
 business of creating and licensing software in the field of
 computational chemistry and represents and warrants to the
 licensee that it is not a competitor of Gaussian, Inc. and that
 it will not use this program in any manner prohibited above.
 ---------------------------------------------------------------
  

 Cite this work as:
 Gaussian 16, Revision A.03,
 M. J. Frisch, G. W. Trucks, H. B. Schlegel, G. E. Scuseria, 
 M. A. Robb, J. R. Cheeseman, G. Scalmani, V. Barone, 
 G. A. Petersson, H. Nakatsuji, X. Li, M. Caricato, A. V. Marenich, 
 J. Bloino, B. G. Janesko, R. Gomperts, B. Mennucci, H. P. Hratchian, 
 J. V. Ortiz, A. F. Izmaylov, J. L. Sonnenberg, D. Williams-Young, 
 F. Ding, F. Lipparini, F. Egidi, J. Goings, B. Peng, A. Petrone, 
 T. Henderson, D. Ranasinghe, V. G. Zakrzewski, J. Gao, N. Rega, 
 G. Zheng, W. Liang, M. Hada, M. Ehara, K. Toyota, R. Fukuda, 
 J. Hasegawa, M. Ishida, T. Nakajima, Y. Honda, O. Kitao, H. Nakai, 
 T. Vreven, K. Throssell, J. A. Montgomery, Jr., J. E. Peralta, 
 F. Ogliaro, M. J. Bearpark, J. J. Heyd, E. N. Brothers, K. N. Kudin, 
 V. N. Staroverov, T. A. Keith, R. Kobayashi, J. Normand, 
 K. Raghavachari, A. P. Rendell, J. C. Burant, S. S. Iyengar, 
 J. Tomasi, M. Cossi, J. M. Millam, M. Klene, C. Adamo, R. Cammi, 
 J. W. Ochterski, R. L. Martin, K. Morokuma, O. Farkas, 
 J. B. Foresman, and D. J. Fox, Gaussian, Inc., Wallingford CT, 2016.
 
 ******************************************
 Gaussian 16:  ES64L-G16RevA.03 25-Dec-2016
                21-Dec-2018 
 ******************************************
 %chk=cyclohexyl-triBIP-E3PT.chk
 %mem=10GB
 %nprocshared=16
 Will use up to   16 processors via shared memory.
 ----------------------------------------------------------------------
 #p opt=tight freq=internalmodes b3lyp/6-31g(d,p) scrf=(cpcm,solvent=di
 chloromethane,read) nosymm empiricaldispersion=gd3bj int=grid=ultrafin
 e
 ----------------------------------------------------------------------
 1/7=10,18=20,19=15,26=6,38=1,40=2/1,3;
 2/9=110,12=2,15=1,17=6,18=5,40=1/2;
 3/5=1,6=6,7=101,11=2,25=1,30=1,70=2103,71=1,72=9,74=-5,75=-5,124=41/1,2,3;
 4//1;
 5/5=2,38=5,53=9/2;
 6/7=2,8=2,9=2,10=2,28=1/1;
 7/30=1/1,2,3,16;
 1/7=10,18=20,19=15,26=6/3(2);
 2/9=110,15=1/2;
 99//99;
 2/9=110,15=1/2;
 3/5=1,6=6,7=101,11=2,25=1,30=1,70=2105,71=1,72=9,74=-5,75=-5,124=41/1,2,3;
 4/5=5,16=3,69=1/1;
 5/5=2,38=5,53=9/2;
 7/30=1/1,2,3,16;
 1/7=10,18=20,19=15,26=6/3(-5);
 2/9=110,15=1/2;
 6/7=2,8=2,9=2,10=2,19=2,28=1/1;
 99/9=1/99;
 Leave Link    1 at Fri Dec 21 14:16:33 2018, MaxMem=  1342177280 cpu:               7.1 elap:               0.5
 (Enter /gpfs/apps/hpc/Apps/Restricted/Gaussian/Rev_A.03/g16/l101.exe)
 ----------------------------------------------------------------------
 cyclohexylimine triBIP oxidized, first three protons transferred optim
 ization
 ----------------------------------------------------------------------
 Symbolic Z-matrix:
 Charge =  1 Multiplicity = 2
 C                     1.59654   0.40933   1.10791 
 C                     0.51251   1.27058   0.80655 
 C                     0.6696    2.64685   0.6748 
 C                     1.95683   3.1597    0.85429 
 C                     3.0464    2.33349   1.15454 
 C                     2.89133   0.94538   1.28602 
 C                    -0.14498  -0.84633   0.93119 
 H                    -0.16807   3.29184   0.44084 
 H                     2.11913   4.226     0.75765 
 H                     4.02383   2.7817    1.2821 
 C                    -2.4319   -1.78022   0.60238 
 C                    -3.31136  -2.8943    0.56287 
 C                    -2.87732  -4.19868   0.79855 
 C                    -1.5233   -4.36641   1.08283 
 C                    -0.63216  -3.28062   1.12563 
 C                    -1.0608   -1.97154   0.89216 
 C                    -4.38647  -1.00286   0.11765 
 H                    -3.55891  -5.03918   0.76405 
 H                    -1.14142  -5.36219   1.27317 
 H                     0.41412  -3.45179   1.34468 
 N                    -0.57529   0.43282   0.70544 
 C                    -6.82199  -0.63936  -0.47299 
 C                    -5.47472  -0.10944  -0.22512 
 C                    -5.2253    1.25309  -0.32213 
 C                    -6.23611   2.15437  -0.66862 
 C                    -7.53906   1.6454   -0.93231 
 C                    -7.87034   0.31463  -0.85592 
 H                    -4.22202   1.60214  -0.12366 
 H                    -8.30379   2.35701  -1.20982 
 C                    -5.99413   3.65568  -0.77499 
 C                    -9.27794  -0.19198  -1.16525 
 O                    -7.05678  -1.87229  -0.36338 
 N                    -3.11865  -0.6222    0.32514 
 N                    -4.53687  -2.35644   0.25504 
 N                     1.16709  -0.89763   1.17907 
 C                     3.98182   0.0542    1.59162 
 N                     3.84262  -1.28528   1.68992 
 N                     5.27665   0.35408   1.81995 
 C                     7.33715  -0.99843   2.36397 
 C                     7.73182  -2.32555   2.55766 
 C                     6.81785  -3.39155   2.47374 
 C                     5.46954  -3.18898   2.18627 
 C                     5.06601  -1.86836   1.98602 
 C                     5.98065  -0.80812   2.0684 
 H                     8.77135  -2.53173   2.78553 
 H                     7.17493  -4.40085   2.63637 
 H                     4.76868  -4.01101   2.12423 
 C                     8.25891   0.13452   2.47261 
 H                     9.29852  -0.11534   2.69567 
 N                     7.83649   1.33345   2.32378 
 C                     8.7477    2.47019   2.44538 
 C                     10.22156   2.16228   2.7295 
 C                     8.60611   3.3418    1.18659 
 H                     8.35743   3.05995   3.28704 
 C                     11.02844   3.45947   2.86619 
 H                     10.62988   1.56249   1.90611 
 H                     10.31576   1.56421   3.64169 
 C                     9.41626   4.63545   1.31432 
 H                     8.96225   2.76402   0.32511 
 H                     7.54688   3.55815   1.01654 
 C                     10.88888   4.34264   1.62155 
 H                     12.08089   3.22337   3.05008 
 H                     10.67074   4.0126    3.74339 
 H                     9.32687   5.22259   0.39503 
 H                     8.9931    5.24391   2.12337 
 H                     11.44178   5.27757   1.75629 
 H                     11.3382   3.82565   0.76441 
 H                     2.92361  -1.71873   1.55533 
 H                    -1.54938   0.64888   0.49515 
 H                    -5.44131  -2.79778   0.11864 
 H                     5.75607   1.25341   1.8429 
 C                    -9.21599  -1.19146  -2.34322 
 H                    -8.61805  -2.06336  -2.08239 
 H                    -10.2278  -1.52082  -2.59631 
 H                    -8.78111  -0.71554  -3.2264 
 C                    -10.22001   0.95384  -1.56362 
 H                    -10.32839   1.68987  -0.76205 
 H                    -9.87345   1.47342  -2.46092 
 H                    -11.20874   0.5412   -1.77539 
 C                    -9.87123  -0.88416   0.08186 
 H                    -9.26367  -1.73519   0.38583 
 H                    -9.93312  -0.18134   0.91715 
 H                    -10.88256  -1.23451  -0.14275 
 C                    -6.30638   4.10962  -2.21797 
 H                    -7.33722   3.88225  -2.49854 
 H                    -6.16368   5.19023  -2.30126 
 H                    -5.64025   3.61941  -2.93197 
 C                    -6.93774   4.38797   0.20439 
 H                    -6.78907   5.46747   0.11597 
 H                    -7.98737   4.17383  -0.00796 
 H                    -6.72938   4.09469   1.23603 
 C                    -4.54638   4.03826  -0.43736 
 H                    -4.28516   3.75429   0.58536 
 H                    -3.83464   3.56573  -1.11932 
 H                    -4.42891   5.1204   -0.52747 
 
 ITRead=  0  0  0  0  0  0  0  0  0  0  0  0  0  0  0  0  0  0  0  0
 ITRead=  0  0  0  0  0  0  0  0  0  0  0  0  0  0  0  0  0  0  0  0
 ITRead=  0  0  0  0  0  0  0  0  0  0  0  0  0  0  0  0  0  0  0  0
 ITRead=  0  0  0  0  0  0  0  0  0  0  0  0  0  0  0  0  0  0  0  0
 ITRead=  0  0  0  0  0  0  0  0  0  0  0  0  0  0  0
 MicOpt= -1 -1 -1 -1 -1 -1 -1 -1 -1 -1 -1 -1 -1 -1 -1 -1 -1 -1 -1 -1
 MicOpt= -1 -1 -1 -1 -1 -1 -1 -1 -1 -1 -1 -1 -1 -1 -1 -1 -1 -1 -1 -1
 MicOpt= -1 -1 -1 -1 -1 -1 -1 -1 -1 -1 -1 -1 -1 -1 -1 -1 -1 -1 -1 -1
 MicOpt= -1 -1 -1 -1 -1 -1 -1 -1 -1 -1 -1 -1 -1 -1 -1 -1 -1 -1 -1 -1
 MicOpt= -1 -1 -1 -1 -1 -1 -1 -1 -1 -1 -1 -1 -1 -1 -1
 NAtoms=     95 NQM=       95 NQMF=       0 NMMI=      0 NMMIF=      0
                NMic=       0 NMicF=      0.
                    Isotopes and Nuclear Properties:
 (Nuclear quadrupole moments (NQMom) in fm**2, nuclear magnetic moments (NMagM)
  in nuclear magnetons)

  Atom         1           2           3           4           5           6           7           8           9          10
 IAtWgt=          12          12          12          12          12          12          12           1           1           1
 AtmWgt=  12.0000000  12.0000000  12.0000000  12.0000000  12.0000000  12.0000000  12.0000000   1.0078250   1.0078250   1.0078250
 NucSpn=           0           0           0           0           0           0           0           1           1           1
 AtZEff=  -0.0000000  -0.0000000  -0.0000000  -0.0000000  -0.0000000  -0.0000000  -0.0000000  -0.0000000  -0.0000000  -0.0000000
 NQMom=    0.0000000   0.0000000   0.0000000   0.0000000   0.0000000   0.0000000   0.0000000   0.0000000   0.0000000   0.0000000
 NMagM=    0.0000000   0.0000000   0.0000000   0.0000000   0.0000000   0.0000000   0.0000000   2.7928460   2.7928460   2.7928460
 AtZNuc=   6.0000000   6.0000000   6.0000000   6.0000000   6.0000000   6.0000000   6.0000000   1.0000000   1.0000000   1.0000000

  Atom        11          12          13          14          15          16          17          18          19          20
 IAtWgt=          12          12          12          12          12          12          12           1           1           1
 AtmWgt=  12.0000000  12.0000000  12.0000000  12.0000000  12.0000000  12.0000000  12.0000000   1.0078250   1.0078250   1.0078250
 NucSpn=           0           0           0           0           0           0           0           1           1           1
 AtZEff=  -0.0000000  -0.0000000  -0.0000000  -0.0000000  -0.0000000  -0.0000000  -0.0000000  -0.0000000  -0.0000000  -0.0000000
 NQMom=    0.0000000   0.0000000   0.0000000   0.0000000   0.0000000   0.0000000   0.0000000   0.0000000   0.0000000   0.0000000
 NMagM=    0.0000000   0.0000000   0.0000000   0.0000000   0.0000000   0.0000000   0.0000000   2.7928460   2.7928460   2.7928460
 AtZNuc=   6.0000000   6.0000000   6.0000000   6.0000000   6.0000000   6.0000000   6.0000000   1.0000000   1.0000000   1.0000000

  Atom        21          22          23          24          25          26          27          28          29          30
 IAtWgt=          14          12          12          12          12          12          12           1           1          12
 AtmWgt=  14.0030740  12.0000000  12.0000000  12.0000000  12.0000000  12.0000000  12.0000000   1.0078250   1.0078250  12.0000000
 NucSpn=           2           0           0           0           0           0           0           1           1           0
 AtZEff=  -0.0000000  -0.0000000  -0.0000000  -0.0000000  -0.0000000  -0.0000000  -0.0000000  -0.0000000  -0.0000000  -0.0000000
 NQMom=    2.0440000   0.0000000   0.0000000   0.0000000   0.0000000   0.0000000   0.0000000   0.0000000   0.0000000   0.0000000
 NMagM=    0.4037610   0.0000000   0.0000000   0.0000000   0.0000000   0.0000000   0.0000000   2.7928460   2.7928460   0.0000000
 AtZNuc=   7.0000000   6.0000000   6.0000000   6.0000000   6.0000000   6.0000000   6.0000000   1.0000000   1.0000000   6.0000000

  Atom        31          32          33          34          35          36          37          38          39          40
 IAtWgt=          12          16          14          14          14          12          14          14          12          12
 AtmWgt=  12.0000000  15.9949146  14.0030740  14.0030740  14.0030740  12.0000000  14.0030740  14.0030740  12.0000000  12.0000000
 NucSpn=           0           0           2           2           2           0           2           2           0           0
 AtZEff=  -0.0000000  -0.0000000  -0.0000000  -0.0000000  -0.0000000  -0.0000000  -0.0000000  -0.0000000  -0.0000000  -0.0000000
 NQMom=    0.0000000   0.0000000   2.0440000   2.0440000   2.0440000   0.0000000   2.0440000   2.0440000   0.0000000   0.0000000
 NMagM=    0.0000000   0.0000000   0.4037610   0.4037610   0.4037610   0.0000000   0.4037610   0.4037610   0.0000000   0.0000000
 AtZNuc=   6.0000000   8.0000000   7.0000000   7.0000000   7.0000000   6.0000000   7.0000000   7.0000000   6.0000000   6.0000000

  Atom        41          42          43          44          45          46          47          48          49          50
 IAtWgt=          12          12          12          12           1           1           1          12           1          14
 AtmWgt=  12.0000000  12.0000000  12.0000000  12.0000000   1.0078250   1.0078250   1.0078250  12.0000000   1.0078250  14.0030740
 NucSpn=           0           0           0           0           1           1           1           0           1           2
 AtZEff=  -0.0000000  -0.0000000  -0.0000000  -0.0000000  -0.0000000  -0.0000000  -0.0000000  -0.0000000  -0.0000000  -0.0000000
 NQMom=    0.0000000   0.0000000   0.0000000   0.0000000   0.0000000   0.0000000   0.0000000   0.0000000   0.0000000   2.0440000
 NMagM=    0.0000000   0.0000000   0.0000000   0.0000000   2.7928460   2.7928460   2.7928460   0.0000000   2.7928460   0.4037610
 AtZNuc=   6.0000000   6.0000000   6.0000000   6.0000000   1.0000000   1.0000000   1.0000000   6.0000000   1.0000000   7.0000000

  Atom        51          52          53          54          55          56          57          58          59          60
 IAtWgt=          12          12          12           1          12           1           1          12           1           1
 AtmWgt=  12.0000000  12.0000000  12.0000000   1.0078250  12.0000000   1.0078250   1.0078250  12.0000000   1.0078250   1.0078250
 NucSpn=           0           0           0           1           0           1           1           0           1           1
 AtZEff=  -0.0000000  -0.0000000  -0.0000000  -0.0000000  -0.0000000  -0.0000000  -0.0000000  -0.0000000  -0.0000000  -0.0000000
 NQMom=    0.0000000   0.0000000   0.0000000   0.0000000   0.0000000   0.0000000   0.0000000   0.0000000   0.0000000   0.0000000
 NMagM=    0.0000000   0.0000000   0.0000000   2.7928460   0.0000000   2.7928460   2.7928460   0.0000000   2.7928460   2.7928460
 AtZNuc=   6.0000000   6.0000000   6.0000000   1.0000000   6.0000000   1.0000000   1.0000000   6.0000000   1.0000000   1.0000000

  Atom        61          62          63          64          65          66          67          68          69          70
 IAtWgt=          12           1           1           1           1           1           1           1           1           1
 AtmWgt=  12.0000000   1.0078250   1.0078250   1.0078250   1.0078250   1.0078250   1.0078250   1.0078250   1.0078250   1.0078250
 NucSpn=           0           1           1           1           1           1           1           1           1           1
 AtZEff=  -0.0000000  -0.0000000  -0.0000000  -0.0000000  -0.0000000  -0.0000000  -0.0000000  -0.0000000  -0.0000000  -0.0000000
 NQMom=    0.0000000   0.0000000   0.0000000   0.0000000   0.0000000   0.0000000   0.0000000   0.0000000   0.0000000   0.0000000
 NMagM=    0.0000000   2.7928460   2.7928460   2.7928460   2.7928460   2.7928460   2.7928460   2.7928460   2.7928460   2.7928460
 AtZNuc=   6.0000000   1.0000000   1.0000000   1.0000000   1.0000000   1.0000000   1.0000000   1.0000000   1.0000000   1.0000000

  Atom        71          72          73          74          75          76          77          78          79          80
 IAtWgt=           1          12           1           1           1          12           1           1           1          12
 AtmWgt=   1.0078250  12.0000000   1.0078250   1.0078250   1.0078250  12.0000000   1.0078250   1.0078250   1.0078250  12.0000000
 NucSpn=           1           0           1           1           1           0           1           1           1           0
 AtZEff=  -0.0000000  -0.0000000  -0.0000000  -0.0000000  -0.0000000  -0.0000000  -0.0000000  -0.0000000  -0.0000000  -0.0000000
 NQMom=    0.0000000   0.0000000   0.0000000   0.0000000   0.0000000   0.0000000   0.0000000   0.0000000   0.0000000   0.0000000
 NMagM=    2.7928460   0.0000000   2.7928460   2.7928460   2.7928460   0.0000000   2.7928460   2.7928460   2.7928460   0.0000000
 AtZNuc=   1.0000000   6.0000000   1.0000000   1.0000000   1.0000000   6.0000000   1.0000000   1.0000000   1.0000000   6.0000000

  Atom        81          82          83          84          85          86          87          88          89          90
 IAtWgt=           1           1           1          12           1           1           1          12           1           1
 AtmWgt=   1.0078250   1.0078250   1.0078250  12.0000000   1.0078250   1.0078250   1.0078250  12.0000000   1.0078250   1.0078250
 NucSpn=           1           1           1           0           1           1           1           0           1           1
 AtZEff=  -0.0000000  -0.0000000  -0.0000000  -0.0000000  -0.0000000  -0.0000000  -0.0000000  -0.0000000  -0.0000000  -0.0000000
 NQMom=    0.0000000   0.0000000   0.0000000   0.0000000   0.0000000   0.0000000   0.0000000   0.0000000   0.0000000   0.0000000
 NMagM=    2.7928460   2.7928460   2.7928460   0.0000000   2.7928460   2.7928460   2.7928460   0.0000000   2.7928460   2.7928460
 AtZNuc=   1.0000000   1.0000000   1.0000000   6.0000000   1.0000000   1.0000000   1.0000000   6.0000000   1.0000000   1.0000000

  Atom        91          92          93          94          95
 IAtWgt=           1          12           1           1           1
 AtmWgt=   1.0078250  12.0000000   1.0078250   1.0078250   1.0078250
 NucSpn=           1           0           1           1           1
 AtZEff=  -0.0000000  -0.0000000  -0.0000000  -0.0000000  -0.0000000
 NQMom=    0.0000000   0.0000000   0.0000000   0.0000000   0.0000000
 NMagM=    2.7928460   0.0000000   2.7928460   2.7928460   2.7928460
 AtZNuc=   1.0000000   6.0000000   1.0000000   1.0000000   1.0000000
 Leave Link  101 at Fri Dec 21 14:16:33 2018, MaxMem=  1342177280 cpu:               5.1 elap:               0.3
 (Enter /gpfs/apps/hpc/Apps/Restricted/Gaussian/Rev_A.03/g16/l103.exe)

 GradGradGradGradGradGradGradGradGradGradGradGradGradGradGradGradGradGrad
 Berny optimization.
 Initialization pass.
                           ----------------------------
                           !    Initial Parameters    !
                           ! (Angstroms and Degrees)  !
 --------------------------                            --------------------------
 ! Name  Definition              Value          Derivative Info.                !
 --------------------------------------------------------------------------------
 ! R1    R(1,2)                  1.4169         estimate D2E/DX2                !
 ! R2    R(1,6)                  1.4126         estimate D2E/DX2                !
 ! R3    R(1,35)                 1.3775         estimate D2E/DX2                !
 ! R4    R(2,3)                  1.3915         estimate D2E/DX2                !
 ! R5    R(2,21)                 1.3767         estimate D2E/DX2                !
 ! R6    R(3,4)                  1.3972         estimate D2E/DX2                !
 ! R7    R(3,8)                  1.0828         estimate D2E/DX2                !
 ! R8    R(4,5)                  1.4            estimate D2E/DX2                !
 ! R9    R(4,9)                  1.0829         estimate D2E/DX2                !
 ! R10   R(5,6)                  1.4029         estimate D2E/DX2                !
 ! R11   R(5,10)                 1.0828         estimate D2E/DX2                !
 ! R12   R(6,36)                 1.4411         estimate D2E/DX2                !
 ! R13   R(7,16)                 1.4513         estimate D2E/DX2                !
 ! R14   R(7,21)                 1.3683         estimate D2E/DX2                !
 ! R15   R(7,35)                 1.3363         estimate D2E/DX2                !
 ! R16   R(11,12)                1.4199         estimate D2E/DX2                !
 ! R17   R(11,16)                1.4144         estimate D2E/DX2                !
 ! R18   R(11,33)                1.3746         estimate D2E/DX2                !
 ! R19   R(12,13)                1.3948         estimate D2E/DX2                !
 ! R20   R(12,34)                1.3733         estimate D2E/DX2                !
 ! R21   R(13,14)                1.3937         estimate D2E/DX2                !
 ! R22   R(13,18)                1.0827         estimate D2E/DX2                !
 ! R23   R(14,15)                1.4053         estimate D2E/DX2                !
 ! R24   R(14,19)                1.0833         estimate D2E/DX2                !
 ! R25   R(15,16)                1.3971         estimate D2E/DX2                !
 ! R26   R(15,20)                1.0826         estimate D2E/DX2                !
 ! R27   R(17,23)                1.4491         estimate D2E/DX2                !
 ! R28   R(17,33)                1.3399         estimate D2E/DX2                !
 ! R29   R(17,34)                1.3688         estimate D2E/DX2                !
 ! R30   R(21,69)                1.0197         estimate D2E/DX2                !
 ! R31   R(22,23)                1.4688         estimate D2E/DX2                !
 ! R32   R(22,27)                1.4683         estimate D2E/DX2                !
 ! R33   R(22,32)                1.2599         estimate D2E/DX2                !
 ! R34   R(23,24)                1.3886         estimate D2E/DX2                !
 ! R35   R(24,25)                1.3979         estimate D2E/DX2                !
 ! R36   R(24,28)                1.0806         estimate D2E/DX2                !
 ! R37   R(25,26)                1.4235         estimate D2E/DX2                !
 ! R38   R(25,30)                1.5244         estimate D2E/DX2                !
 ! R39   R(26,27)                1.3735         estimate D2E/DX2                !
 ! R40   R(26,29)                1.0808         estimate D2E/DX2                !
 ! R41   R(27,31)                1.5276         estimate D2E/DX2                !
 ! R42   R(30,84)                1.5446         estimate D2E/DX2                !
 ! R43   R(30,88)                1.5446         estimate D2E/DX2                !
 ! R44   R(30,92)                1.535          estimate D2E/DX2                !
 ! R45   R(31,72)                1.5461         estimate D2E/DX2                !
 ! R46   R(31,76)                1.5359         estimate D2E/DX2                !
 ! R47   R(31,80)                1.5448         estimate D2E/DX2                !
 ! R48   R(34,70)                1.0156         estimate D2E/DX2                !
 ! R49   R(36,37)                1.3503         estimate D2E/DX2                !
 ! R50   R(36,38)                1.3486         estimate D2E/DX2                !
 ! R51   R(37,43)                1.3872         estimate D2E/DX2                !
 ! R52   R(37,68)                1.025          estimate D2E/DX2                !
 ! R53   R(38,44)                1.3813         estimate D2E/DX2                !
 ! R54   R(38,71)                1.0194         estimate D2E/DX2                !
 ! R55   R(39,40)                1.398          estimate D2E/DX2                !
 ! R56   R(39,44)                1.4013         estimate D2E/DX2                !
 ! R57   R(39,48)                1.4646         estimate D2E/DX2                !
 ! R58   R(40,41)                1.4067         estimate D2E/DX2                !
 ! R59   R(40,45)                1.084          estimate D2E/DX2                !
 ! R60   R(41,42)                1.3934         estimate D2E/DX2                !
 ! R61   R(41,46)                1.0829         estimate D2E/DX2                !
 ! R62   R(42,43)                1.3953         estimate D2E/DX2                !
 ! R63   R(42,47)                1.082          estimate D2E/DX2                !
 ! R64   R(43,44)                1.4027         estimate D2E/DX2                !
 ! R65   R(48,49)                1.0922         estimate D2E/DX2                !
 ! R66   R(48,50)                1.2798         estimate D2E/DX2                !
 ! R67   R(50,51)                1.462          estimate D2E/DX2                !
 ! R68   R(51,52)                1.5322         estimate D2E/DX2                !
 ! R69   R(51,53)                1.5376         estimate D2E/DX2                !
 ! R70   R(51,54)                1.0993         estimate D2E/DX2                !
 ! R71   R(52,55)                1.5338         estimate D2E/DX2                !
 ! R72   R(52,56)                1.0975         estimate D2E/DX2                !
 ! R73   R(52,57)                1.0948         estimate D2E/DX2                !
 ! R74   R(53,58)                1.5317         estimate D2E/DX2                !
 ! R75   R(53,59)                1.0967         estimate D2E/DX2                !
 ! R76   R(53,60)                1.0944         estimate D2E/DX2                !
 ! R77   R(55,61)                1.5325         estimate D2E/DX2                !
 ! R78   R(55,62)                1.0942         estimate D2E/DX2                !
 ! R79   R(55,63)                1.097          estimate D2E/DX2                !
 ! R80   R(58,61)                1.5326         estimate D2E/DX2                !
 ! R81   R(58,64)                1.0944         estimate D2E/DX2                !
 ! R82   R(58,65)                1.0972         estimate D2E/DX2                !
 ! R83   R(61,66)                1.0945         estimate D2E/DX2                !
 ! R84   R(61,67)                1.0972         estimate D2E/DX2                !
 ! R85   R(72,73)                1.0889         estimate D2E/DX2                !
 ! R86   R(72,74)                1.0938         estimate D2E/DX2                !
 ! R87   R(72,75)                1.0934         estimate D2E/DX2                !
 ! R88   R(76,77)                1.0936         estimate D2E/DX2                !
 ! R89   R(76,78)                1.0933         estimate D2E/DX2                !
 ! R90   R(76,79)                1.0921         estimate D2E/DX2                !
 ! R91   R(80,81)                1.0889         estimate D2E/DX2                !
 ! R92   R(80,82)                1.0934         estimate D2E/DX2                !
 ! R93   R(80,83)                1.0936         estimate D2E/DX2                !
 ! R94   R(84,85)                1.0923         estimate D2E/DX2                !
 ! R95   R(84,86)                1.0932         estimate D2E/DX2                !
 ! R96   R(84,87)                1.0926         estimate D2E/DX2                !
 ! R97   R(88,89)                1.0933         estimate D2E/DX2                !
 ! R98   R(88,90)                1.0921         estimate D2E/DX2                !
 ! R99   R(88,91)                1.0926         estimate D2E/DX2                !
 ! R100  R(92,93)                1.0931         estimate D2E/DX2                !
 ! R101  R(92,94)                1.0931         estimate D2E/DX2                !
 ! R102  R(92,95)                1.0922         estimate D2E/DX2                !
 ! A1    A(2,1,6)              119.8275         estimate D2E/DX2                !
 ! A2    A(2,1,35)             110.4363         estimate D2E/DX2                !
 ! A3    A(6,1,35)             129.7362         estimate D2E/DX2                !
 ! A4    A(1,2,3)              122.3414         estimate D2E/DX2                !
 ! A5    A(1,2,21)             104.4922         estimate D2E/DX2                !
 ! A6    A(3,2,21)             133.1663         estimate D2E/DX2                !
 ! A7    A(2,3,4)              117.0582         estimate D2E/DX2                !
 ! A8    A(2,3,8)              121.4861         estimate D2E/DX2                !
 ! A9    A(4,3,8)              121.4555         estimate D2E/DX2                !
 ! A10   A(3,4,5)              121.8665         estimate D2E/DX2                !
 ! A11   A(3,4,9)              119.2121         estimate D2E/DX2                !
 ! A12   A(5,4,9)              118.9213         estimate D2E/DX2                !
 ! A13   A(4,5,6)              121.1983         estimate D2E/DX2                !
 ! A14   A(4,5,10)             118.9142         estimate D2E/DX2                !
 ! A15   A(6,5,10)             119.887          estimate D2E/DX2                !
 ! A16   A(1,6,5)              117.7079         estimate D2E/DX2                !
 ! A17   A(1,6,36)             119.0551         estimate D2E/DX2                !
 ! A18   A(5,6,36)             123.237          estimate D2E/DX2                !
 ! A19   A(16,7,21)            121.459          estimate D2E/DX2                !
 ! A20   A(16,7,35)            126.4998         estimate D2E/DX2                !
 ! A21   A(21,7,35)            112.0412         estimate D2E/DX2                !
 ! A22   A(12,11,16)           119.9988         estimate D2E/DX2                !
 ! A23   A(12,11,33)           110.2392         estimate D2E/DX2                !
 ! A24   A(16,11,33)           129.7613         estimate D2E/DX2                !
 ! A25   A(11,12,13)           122.4334         estimate D2E/DX2                !
 ! A26   A(11,12,34)           104.5754         estimate D2E/DX2                !
 ! A27   A(13,12,34)           132.9899         estimate D2E/DX2                !
 ! A28   A(12,13,14)           116.7028         estimate D2E/DX2                !
 ! A29   A(12,13,18)           121.6494         estimate D2E/DX2                !
 ! A30   A(14,13,18)           121.6477         estimate D2E/DX2                !
 ! A31   A(13,14,15)           121.9584         estimate D2E/DX2                !
 ! A32   A(13,14,19)           119.27           estimate D2E/DX2                !
 ! A33   A(15,14,19)           118.7711         estimate D2E/DX2                !
 ! A34   A(14,15,16)           121.6217         estimate D2E/DX2                !
 ! A35   A(14,15,20)           119.7916         estimate D2E/DX2                !
 ! A36   A(16,15,20)           118.5867         estimate D2E/DX2                !
 ! A37   A(7,16,11)            120.82           estimate D2E/DX2                !
 ! A38   A(7,16,15)            121.8941         estimate D2E/DX2                !
 ! A39   A(11,16,15)           117.2838         estimate D2E/DX2                !
 ! A40   A(23,17,33)           124.8933         estimate D2E/DX2                !
 ! A41   A(23,17,34)           123.428          estimate D2E/DX2                !
 ! A42   A(33,17,34)           111.6755         estimate D2E/DX2                !
 ! A43   A(2,21,7)             107.9539         estimate D2E/DX2                !
 ! A44   A(2,21,69)            129.8682         estimate D2E/DX2                !
 ! A45   A(7,21,69)            122.1753         estimate D2E/DX2                !
 ! A46   A(23,22,27)           117.6795         estimate D2E/DX2                !
 ! A47   A(23,22,32)           120.6196         estimate D2E/DX2                !
 ! A48   A(27,22,32)           121.7002         estimate D2E/DX2                !
 ! A49   A(17,23,22)           120.4184         estimate D2E/DX2                !
 ! A50   A(17,23,24)           119.117          estimate D2E/DX2                !
 ! A51   A(22,23,24)           120.4639         estimate D2E/DX2                !
 ! A52   A(23,24,25)           121.3381         estimate D2E/DX2                !
 ! A53   A(23,24,28)           118.0918         estimate D2E/DX2                !
 ! A54   A(25,24,28)           120.57           estimate D2E/DX2                !
 ! A55   A(24,25,26)           118.5063         estimate D2E/DX2                !
 ! A56   A(24,25,30)           122.5131         estimate D2E/DX2                !
 ! A57   A(26,25,30)           118.9806         estimate D2E/DX2                !
 ! A58   A(25,26,27)           123.8417         estimate D2E/DX2                !
 ! A59   A(25,26,29)           117.3728         estimate D2E/DX2                !
 ! A60   A(27,26,29)           118.7854         estimate D2E/DX2                !
 ! A61   A(22,27,26)           118.1522         estimate D2E/DX2                !
 ! A62   A(22,27,31)           119.686          estimate D2E/DX2                !
 ! A63   A(26,27,31)           122.1601         estimate D2E/DX2                !
 ! A64   A(25,30,84)           108.8164         estimate D2E/DX2                !
 ! A65   A(25,30,88)           109.0079         estimate D2E/DX2                !
 ! A66   A(25,30,92)           112.3227         estimate D2E/DX2                !
 ! A67   A(84,30,88)           109.2394         estimate D2E/DX2                !
 ! A68   A(84,30,92)           108.8379         estimate D2E/DX2                !
 ! A69   A(88,30,92)           108.5749         estimate D2E/DX2                !
 ! A70   A(27,31,72)           109.3742         estimate D2E/DX2                !
 ! A71   A(27,31,76)           111.7329         estimate D2E/DX2                !
 ! A72   A(27,31,80)           109.8165         estimate D2E/DX2                !
 ! A73   A(72,31,76)           108.0122         estimate D2E/DX2                !
 ! A74   A(72,31,80)           109.9265         estimate D2E/DX2                !
 ! A75   A(76,31,80)           107.9439         estimate D2E/DX2                !
 ! A76   A(11,33,17)           105.3446         estimate D2E/DX2                !
 ! A77   A(12,34,17)           108.1649         estimate D2E/DX2                !
 ! A78   A(12,34,70)           130.892          estimate D2E/DX2                !
 ! A79   A(17,34,70)           120.9369         estimate D2E/DX2                !
 ! A80   A(1,35,7)             105.076          estimate D2E/DX2                !
 ! A81   A(6,36,37)            123.428          estimate D2E/DX2                !
 ! A82   A(6,36,38)            128.678          estimate D2E/DX2                !
 ! A83   A(37,36,38)           107.8934         estimate D2E/DX2                !
 ! A84   A(36,37,43)           109.9737         estimate D2E/DX2                !
 ! A85   A(36,37,68)           120.1577         estimate D2E/DX2                !
 ! A86   A(43,37,68)           129.8673         estimate D2E/DX2                !
 ! A87   A(36,38,44)           109.4328         estimate D2E/DX2                !
 ! A88   A(36,38,71)           130.658          estimate D2E/DX2                !
 ! A89   A(44,38,71)           119.9034         estimate D2E/DX2                !
 ! A90   A(40,39,44)           115.5571         estimate D2E/DX2                !
 ! A91   A(40,39,48)           123.1185         estimate D2E/DX2                !
 ! A92   A(44,39,48)           121.3209         estimate D2E/DX2                !
 ! A93   A(39,40,41)           121.849          estimate D2E/DX2                !
 ! A94   A(39,40,45)           118.7113         estimate D2E/DX2                !
 ! A95   A(41,40,45)           119.4383         estimate D2E/DX2                !
 ! A96   A(40,41,42)           122.0626         estimate D2E/DX2                !
 ! A97   A(40,41,46)           118.8881         estimate D2E/DX2                !
 ! A98   A(42,41,46)           119.0492         estimate D2E/DX2                !
 ! A99   A(41,42,43)           116.5537         estimate D2E/DX2                !
 ! A100  A(41,42,47)           121.8804         estimate D2E/DX2                !
 ! A101  A(43,42,47)           121.5656         estimate D2E/DX2                !
 ! A102  A(37,43,42)           133.1176         estimate D2E/DX2                !
 ! A103  A(37,43,44)           105.6579         estimate D2E/DX2                !
 ! A104  A(42,43,44)           121.2244         estimate D2E/DX2                !
 ! A105  A(38,44,39)           130.2074         estimate D2E/DX2                !
 ! A106  A(38,44,43)           107.0422         estimate D2E/DX2                !
 ! A107  A(39,44,43)           122.7489         estimate D2E/DX2                !
 ! A108  A(39,48,49)           115.9273         estimate D2E/DX2                !
 ! A109  A(39,48,50)           120.5505         estimate D2E/DX2                !
 ! A110  A(49,48,50)           123.518          estimate D2E/DX2                !
 ! A111  A(48,50,51)           120.8637         estimate D2E/DX2                !
 ! A112  A(50,51,52)           117.3035         estimate D2E/DX2                !
 ! A113  A(50,51,53)           108.377          estimate D2E/DX2                !
 ! A114  A(50,51,54)           105.0429         estimate D2E/DX2                !
 ! A115  A(52,51,53)           110.7495         estimate D2E/DX2                !
 ! A116  A(52,51,54)           107.8987         estimate D2E/DX2                !
 ! A117  A(53,51,54)           106.857          estimate D2E/DX2                !
 ! A118  A(51,52,55)           110.6461         estimate D2E/DX2                !
 ! A119  A(51,52,56)           109.1834         estimate D2E/DX2                !
 ! A120  A(51,52,57)           110.3053         estimate D2E/DX2                !
 ! A121  A(55,52,56)           109.4723         estimate D2E/DX2                !
 ! A122  A(55,52,57)           110.0285         estimate D2E/DX2                !
 ! A123  A(56,52,57)           107.1308         estimate D2E/DX2                !
 ! A124  A(51,53,58)           111.2091         estimate D2E/DX2                !
 ! A125  A(51,53,59)           108.3322         estimate D2E/DX2                !
 ! A126  A(51,53,60)           109.171          estimate D2E/DX2                !
 ! A127  A(58,53,59)           109.7971         estimate D2E/DX2                !
 ! A128  A(58,53,60)           110.972          estimate D2E/DX2                !
 ! A129  A(59,53,60)           107.241          estimate D2E/DX2                !
 ! A130  A(52,55,61)           111.5376         estimate D2E/DX2                !
 ! A131  A(52,55,62)           109.7859         estimate D2E/DX2                !
 ! A132  A(52,55,63)           109.0368         estimate D2E/DX2                !
 ! A133  A(61,55,62)           110.3921         estimate D2E/DX2                !
 ! A134  A(61,55,63)           109.2177         estimate D2E/DX2                !
 ! A135  A(62,55,63)           106.741          estimate D2E/DX2                !
 ! A136  A(53,58,61)           111.3201         estimate D2E/DX2                !
 ! A137  A(53,58,64)           109.8677         estimate D2E/DX2                !
 ! A138  A(53,58,65)           109.0185         estimate D2E/DX2                !
 ! A139  A(61,58,64)           110.448          estimate D2E/DX2                !
 ! A140  A(61,58,65)           109.191          estimate D2E/DX2                !
 ! A141  A(64,58,65)           106.8794         estimate D2E/DX2                !
 ! A142  A(55,61,58)           111.1262         estimate D2E/DX2                !
 ! A143  A(55,61,66)           110.2605         estimate D2E/DX2                !
 ! A144  A(55,61,67)           109.0035         estimate D2E/DX2                !
 ! A145  A(58,61,66)           110.2964         estimate D2E/DX2                !
 ! A146  A(58,61,67)           109.0816         estimate D2E/DX2                !
 ! A147  A(66,61,67)           106.9649         estimate D2E/DX2                !
 ! A148  A(31,72,73)           110.9232         estimate D2E/DX2                !
 ! A149  A(31,72,74)           109.5056         estimate D2E/DX2                !
 ! A150  A(31,72,75)           110.485          estimate D2E/DX2                !
 ! A151  A(73,72,74)           108.8008         estimate D2E/DX2                !
 ! A152  A(73,72,75)           108.8795         estimate D2E/DX2                !
 ! A153  A(74,72,75)           108.185          estimate D2E/DX2                !
 ! A154  A(31,76,77)           111.886          estimate D2E/DX2                !
 ! A155  A(31,76,78)           111.9001         estimate D2E/DX2                !
 ! A156  A(31,76,79)           108.8877         estimate D2E/DX2                !
 ! A157  A(77,76,78)           108.248          estimate D2E/DX2                !
 ! A158  A(77,76,79)           107.8605         estimate D2E/DX2                !
 ! A159  A(78,76,79)           107.9033         estimate D2E/DX2                !
 ! A160  A(31,80,81)           111.177          estimate D2E/DX2                !
 ! A161  A(31,80,82)           110.5149         estimate D2E/DX2                !
 ! A162  A(31,80,83)           109.4451         estimate D2E/DX2                !
 ! A163  A(81,80,82)           108.7047         estimate D2E/DX2                !
 ! A164  A(81,80,83)           108.8399         estimate D2E/DX2                !
 ! A165  A(82,80,83)           108.0882         estimate D2E/DX2                !
 ! A166  A(30,84,85)           111.69           estimate D2E/DX2                !
 ! A167  A(30,84,86)           109.5913         estimate D2E/DX2                !
 ! A168  A(30,84,87)           110.817          estimate D2E/DX2                !
 ! A169  A(85,84,86)           108.0229         estimate D2E/DX2                !
 ! A170  A(85,84,87)           108.3073         estimate D2E/DX2                !
 ! A171  A(86,84,87)           108.3081         estimate D2E/DX2                !
 ! A172  A(30,88,89)           109.4977         estimate D2E/DX2                !
 ! A173  A(30,88,90)           111.7712         estimate D2E/DX2                !
 ! A174  A(30,88,91)           110.7892         estimate D2E/DX2                !
 ! A175  A(89,88,90)           107.9743         estimate D2E/DX2                !
 ! A176  A(89,88,91)           108.3904         estimate D2E/DX2                !
 ! A177  A(90,88,91)           108.3153         estimate D2E/DX2                !
 ! A178  A(30,92,93)           111.4953         estimate D2E/DX2                !
 ! A179  A(30,92,94)           111.6617         estimate D2E/DX2                !
 ! A180  A(30,92,95)           109.2821         estimate D2E/DX2                !
 ! A181  A(93,92,94)           108.4094         estimate D2E/DX2                !
 ! A182  A(93,92,95)           107.9917         estimate D2E/DX2                !
 ! A183  A(94,92,95)           107.8661         estimate D2E/DX2                !
 ! D1    D(6,1,2,3)              0.0458         estimate D2E/DX2                !
 ! D2    D(6,1,2,21)          -179.8528         estimate D2E/DX2                !
 ! D3    D(35,1,2,3)          -179.9108         estimate D2E/DX2                !
 ! D4    D(35,1,2,21)            0.1906         estimate D2E/DX2                !
 ! D5    D(2,1,6,5)              0.0475         estimate D2E/DX2                !
 ! D6    D(2,1,6,36)          -179.9799         estimate D2E/DX2                !
 ! D7    D(35,1,6,5)           179.9946         estimate D2E/DX2                !
 ! D8    D(35,1,6,36)           -0.0327         estimate D2E/DX2                !
 ! D9    D(2,1,35,7)            -0.0995         estimate D2E/DX2                !
 ! D10   D(6,1,35,7)           179.9494         estimate D2E/DX2                !
 ! D11   D(1,2,3,4)             -0.0485         estimate D2E/DX2                !
 ! D12   D(1,2,3,8)            179.7894         estimate D2E/DX2                !
 ! D13   D(21,2,3,4)           179.817          estimate D2E/DX2                !
 ! D14   D(21,2,3,8)            -0.3451         estimate D2E/DX2                !
 ! D15   D(1,2,21,7)            -0.204          estimate D2E/DX2                !
 ! D16   D(1,2,21,69)         -179.6087         estimate D2E/DX2                !
 ! D17   D(3,2,21,7)           179.9134         estimate D2E/DX2                !
 ! D18   D(3,2,21,69)            0.5087         estimate D2E/DX2                !
 ! D19   D(2,3,4,5)             -0.0429         estimate D2E/DX2                !
 ! D20   D(2,3,4,9)            179.8748         estimate D2E/DX2                !
 ! D21   D(8,3,4,5)           -179.8808         estimate D2E/DX2                !
 ! D22   D(8,3,4,9)              0.0369         estimate D2E/DX2                !
 ! D23   D(3,4,5,6)              0.1392         estimate D2E/DX2                !
 ! D24   D(3,4,5,10)           179.8929         estimate D2E/DX2                !
 ! D25   D(9,4,5,6)           -179.7787         estimate D2E/DX2                !
 ! D26   D(9,4,5,10)            -0.025          estimate D2E/DX2                !
 ! D27   D(4,5,6,1)             -0.1375         estimate D2E/DX2                !
 ! D28   D(4,5,6,36)           179.8911         estimate D2E/DX2                !
 ! D29   D(10,5,6,1)          -179.8889         estimate D2E/DX2                !
 ! D30   D(10,5,6,36)            0.1397         estimate D2E/DX2                !
 ! D31   D(1,6,36,37)            1.5446         estimate D2E/DX2                !
 ! D32   D(1,6,36,38)         -178.785          estimate D2E/DX2                !
 ! D33   D(5,6,36,37)         -178.4844         estimate D2E/DX2                !
 ! D34   D(5,6,36,38)            1.1861         estimate D2E/DX2                !
 ! D35   D(21,7,16,11)           0.7438         estimate D2E/DX2                !
 ! D36   D(21,7,16,15)        -179.7834         estimate D2E/DX2                !
 ! D37   D(35,7,16,11)        -179.3155         estimate D2E/DX2                !
 ! D38   D(35,7,16,15)           0.1573         estimate D2E/DX2                !
 ! D39   D(16,7,21,2)         -179.8943         estimate D2E/DX2                !
 ! D40   D(16,7,21,69)          -0.434          estimate D2E/DX2                !
 ! D41   D(35,7,21,2)            0.1572         estimate D2E/DX2                !
 ! D42   D(35,7,21,69)         179.6174         estimate D2E/DX2                !
 ! D43   D(16,7,35,1)         -179.9796         estimate D2E/DX2                !
 ! D44   D(21,7,35,1)           -0.0343         estimate D2E/DX2                !
 ! D45   D(16,11,12,13)         -0.1546         estimate D2E/DX2                !
 ! D46   D(16,11,12,34)       -179.7728         estimate D2E/DX2                !
 ! D47   D(33,11,12,13)        179.5683         estimate D2E/DX2                !
 ! D48   D(33,11,12,34)         -0.05           estimate D2E/DX2                !
 ! D49   D(12,11,16,7)         179.7199         estimate D2E/DX2                !
 ! D50   D(12,11,16,15)          0.2236         estimate D2E/DX2                !
 ! D51   D(33,11,16,7)           0.0582         estimate D2E/DX2                !
 ! D52   D(33,11,16,15)       -179.4382         estimate D2E/DX2                !
 ! D53   D(12,11,33,17)         -0.0716         estimate D2E/DX2                !
 ! D54   D(16,11,33,17)        179.6162         estimate D2E/DX2                !
 ! D55   D(11,12,13,14)          0.1762         estimate D2E/DX2                !
 ! D56   D(11,12,13,18)       -179.9269         estimate D2E/DX2                !
 ! D57   D(34,12,13,14)        179.6711         estimate D2E/DX2                !
 ! D58   D(34,12,13,18)         -0.4319         estimate D2E/DX2                !
 ! D59   D(11,12,34,17)          0.1506         estimate D2E/DX2                !
 ! D60   D(11,12,34,70)        179.2298         estimate D2E/DX2                !
 ! D61   D(13,12,34,17)       -179.4089         estimate D2E/DX2                !
 ! D62   D(13,12,34,70)         -0.3297         estimate D2E/DX2                !
 ! D63   D(12,13,14,15)         -0.2831         estimate D2E/DX2                !
 ! D64   D(12,13,14,19)        179.9679         estimate D2E/DX2                !
 ! D65   D(18,13,14,15)        179.82           estimate D2E/DX2                !
 ! D66   D(18,13,14,19)          0.071          estimate D2E/DX2                !
 ! D67   D(13,14,15,16)          0.3773         estimate D2E/DX2                !
 ! D68   D(13,14,15,20)       -179.6655         estimate D2E/DX2                !
 ! D69   D(19,14,15,16)       -179.8724         estimate D2E/DX2                !
 ! D70   D(19,14,15,20)          0.0847         estimate D2E/DX2                !
 ! D71   D(14,15,16,7)        -179.8242         estimate D2E/DX2                !
 ! D72   D(14,15,16,11)         -0.3336         estimate D2E/DX2                !
 ! D73   D(20,15,16,7)           0.2182         estimate D2E/DX2                !
 ! D74   D(20,15,16,11)        179.7088         estimate D2E/DX2                !
 ! D75   D(33,17,23,22)        178.053          estimate D2E/DX2                !
 ! D76   D(33,17,23,24)         -1.6484         estimate D2E/DX2                !
 ! D77   D(34,17,23,22)         -1.238          estimate D2E/DX2                !
 ! D78   D(34,17,23,24)        179.0606         estimate D2E/DX2                !
 ! D79   D(23,17,33,11)       -179.1919         estimate D2E/DX2                !
 ! D80   D(34,17,33,11)          0.1713         estimate D2E/DX2                !
 ! D81   D(23,17,34,12)        179.1648         estimate D2E/DX2                !
 ! D82   D(23,17,34,70)         -0.0238         estimate D2E/DX2                !
 ! D83   D(33,17,34,12)         -0.2094         estimate D2E/DX2                !
 ! D84   D(33,17,34,70)       -179.3979         estimate D2E/DX2                !
 ! D85   D(27,22,23,17)       -178.1762         estimate D2E/DX2                !
 ! D86   D(27,22,23,24)          1.5211         estimate D2E/DX2                !
 ! D87   D(32,22,23,17)          1.5269         estimate D2E/DX2                !
 ! D88   D(32,22,23,24)       -178.7758         estimate D2E/DX2                !
 ! D89   D(23,22,27,26)         -1.3515         estimate D2E/DX2                !
 ! D90   D(23,22,27,31)        178.1767         estimate D2E/DX2                !
 ! D91   D(32,22,27,26)        178.9488         estimate D2E/DX2                !
 ! D92   D(32,22,27,31)         -1.523          estimate D2E/DX2                !
 ! D93   D(17,23,24,25)        179.0634         estimate D2E/DX2                !
 ! D94   D(17,23,24,28)         -0.8074         estimate D2E/DX2                !
 ! D95   D(22,23,24,25)         -0.6378         estimate D2E/DX2                !
 ! D96   D(22,23,24,28)        179.4914         estimate D2E/DX2                !
 ! D97   D(23,24,25,26)         -0.4183         estimate D2E/DX2                !
 ! D98   D(23,24,25,30)        179.6374         estimate D2E/DX2                !
 ! D99   D(28,24,25,26)        179.4493         estimate D2E/DX2                !
 ! D100  D(28,24,25,30)         -0.495          estimate D2E/DX2                !
 ! D101  D(24,25,26,27)          0.5764         estimate D2E/DX2                !
 ! D102  D(24,25,26,29)       -179.301          estimate D2E/DX2                !
 ! D103  D(30,25,26,27)       -179.4773         estimate D2E/DX2                !
 ! D104  D(30,25,26,29)          0.6453         estimate D2E/DX2                !
 ! D105  D(24,25,30,84)        119.5668         estimate D2E/DX2                !
 ! D106  D(24,25,30,88)       -121.3828         estimate D2E/DX2                !
 ! D107  D(24,25,30,92)         -1.0082         estimate D2E/DX2                !
 ! D108  D(26,25,30,84)        -60.3772         estimate D2E/DX2                !
 ! D109  D(26,25,30,88)         58.6732         estimate D2E/DX2                !
 ! D110  D(26,25,30,92)        179.0478         estimate D2E/DX2                !
 ! D111  D(25,26,27,22)          0.3402         estimate D2E/DX2                !
 ! D112  D(25,26,27,31)       -179.1756         estimate D2E/DX2                !
 ! D113  D(29,26,27,22)       -179.784          estimate D2E/DX2                !
 ! D114  D(29,26,27,31)          0.7002         estimate D2E/DX2                !
 ! D115  D(22,27,31,72)        -59.6407         estimate D2E/DX2                !
 ! D116  D(22,27,31,76)       -179.181          estimate D2E/DX2                !
 ! D117  D(22,27,31,80)         61.0717         estimate D2E/DX2                !
 ! D118  D(26,27,31,72)        119.8679         estimate D2E/DX2                !
 ! D119  D(26,27,31,76)          0.3276         estimate D2E/DX2                !
 ! D120  D(26,27,31,80)       -119.4197         estimate D2E/DX2                !
 ! D121  D(25,30,84,85)         58.7633         estimate D2E/DX2                !
 ! D122  D(25,30,84,86)        178.4329         estimate D2E/DX2                !
 ! D123  D(25,30,84,87)        -62.0926         estimate D2E/DX2                !
 ! D124  D(88,30,84,85)        -60.1421         estimate D2E/DX2                !
 ! D125  D(88,30,84,86)         59.5274         estimate D2E/DX2                !
 ! D126  D(88,30,84,87)        179.0019         estimate D2E/DX2                !
 ! D127  D(92,30,84,85)       -178.5375         estimate D2E/DX2                !
 ! D128  D(92,30,84,86)        -58.8679         estimate D2E/DX2                !
 ! D129  D(92,30,84,87)         60.6066         estimate D2E/DX2                !
 ! D130  D(25,30,88,89)       -178.5455         estimate D2E/DX2                !
 ! D131  D(25,30,88,90)        -58.947          estimate D2E/DX2                !
 ! D132  D(25,30,88,91)         61.9552         estimate D2E/DX2                !
 ! D133  D(84,30,88,89)        -59.7591         estimate D2E/DX2                !
 ! D134  D(84,30,88,90)         59.8393         estimate D2E/DX2                !
 ! D135  D(84,30,88,91)       -179.2584         estimate D2E/DX2                !
 ! D136  D(92,30,88,89)         58.8004         estimate D2E/DX2                !
 ! D137  D(92,30,88,90)        178.3988         estimate D2E/DX2                !
 ! D138  D(92,30,88,91)        -60.6989         estimate D2E/DX2                !
 ! D139  D(25,30,92,93)        -60.6115         estimate D2E/DX2                !
 ! D140  D(25,30,92,94)         60.8292         estimate D2E/DX2                !
 ! D141  D(25,30,92,95)       -179.9174         estimate D2E/DX2                !
 ! D142  D(84,30,92,93)        178.8259         estimate D2E/DX2                !
 ! D143  D(84,30,92,94)        -59.7334         estimate D2E/DX2                !
 ! D144  D(84,30,92,95)         59.5201         estimate D2E/DX2                !
 ! D145  D(88,30,92,93)         60.0132         estimate D2E/DX2                !
 ! D146  D(88,30,92,94)       -178.5461         estimate D2E/DX2                !
 ! D147  D(88,30,92,95)        -59.2926         estimate D2E/DX2                !
 ! D148  D(27,31,72,73)         62.4622         estimate D2E/DX2                !
 ! D149  D(27,31,72,74)       -177.4407         estimate D2E/DX2                !
 ! D150  D(27,31,72,75)        -58.3776         estimate D2E/DX2                !
 ! D151  D(76,31,72,73)       -175.7297         estimate D2E/DX2                !
 ! D152  D(76,31,72,74)        -55.6325         estimate D2E/DX2                !
 ! D153  D(76,31,72,75)         63.4306         estimate D2E/DX2                !
 ! D154  D(80,31,72,73)        -58.1832         estimate D2E/DX2                !
 ! D155  D(80,31,72,74)         61.9139         estimate D2E/DX2                !
 ! D156  D(80,31,72,75)       -179.023          estimate D2E/DX2                !
 ! D157  D(27,31,76,77)        -60.9676         estimate D2E/DX2                !
 ! D158  D(27,31,76,78)         60.7133         estimate D2E/DX2                !
 ! D159  D(27,31,76,79)        179.9038         estimate D2E/DX2                !
 ! D160  D(72,31,76,77)        178.692          estimate D2E/DX2                !
 ! D161  D(72,31,76,78)        -59.6272         estimate D2E/DX2                !
 ! D162  D(72,31,76,79)         59.5634         estimate D2E/DX2                !
 ! D163  D(80,31,76,77)         59.876          estimate D2E/DX2                !
 ! D164  D(80,31,76,78)       -178.4432         estimate D2E/DX2                !
 ! D165  D(80,31,76,79)        -59.2526         estimate D2E/DX2                !
 ! D166  D(27,31,80,81)        -60.3548         estimate D2E/DX2                !
 ! D167  D(27,31,80,82)         60.4534         estimate D2E/DX2                !
 ! D168  D(27,31,80,83)        179.378          estimate D2E/DX2                !
 ! D169  D(72,31,80,81)         60.0234         estimate D2E/DX2                !
 ! D170  D(72,31,80,82)       -179.1684         estimate D2E/DX2                !
 ! D171  D(72,31,80,83)        -60.2438         estimate D2E/DX2                !
 ! D172  D(76,31,80,81)        177.6123         estimate D2E/DX2                !
 ! D173  D(76,31,80,82)        -61.5795         estimate D2E/DX2                !
 ! D174  D(76,31,80,83)         57.3452         estimate D2E/DX2                !
 ! D175  D(6,36,37,43)         179.6842         estimate D2E/DX2                !
 ! D176  D(6,36,37,68)          -0.696          estimate D2E/DX2                !
 ! D177  D(38,36,37,43)         -0.0455         estimate D2E/DX2                !
 ! D178  D(38,36,37,68)        179.5744         estimate D2E/DX2                !
 ! D179  D(6,36,38,44)        -179.7007         estimate D2E/DX2                !
 ! D180  D(6,36,38,71)           1.1926         estimate D2E/DX2                !
 ! D181  D(37,36,38,44)          0.0103         estimate D2E/DX2                !
 ! D182  D(37,36,38,71)       -179.0964         estimate D2E/DX2                !
 ! D183  D(36,37,43,42)       -179.8157         estimate D2E/DX2                !
 ! D184  D(36,37,43,44)          0.0614         estimate D2E/DX2                !
 ! D185  D(68,37,43,42)          0.6126         estimate D2E/DX2                !
 ! D186  D(68,37,43,44)       -179.5103         estimate D2E/DX2                !
 ! D187  D(36,38,44,39)       -179.527          estimate D2E/DX2                !
 ! D188  D(36,38,44,43)          0.0278         estimate D2E/DX2                !
 ! D189  D(71,38,44,39)         -0.3087         estimate D2E/DX2                !
 ! D190  D(71,38,44,43)        179.2461         estimate D2E/DX2                !
 ! D191  D(44,39,40,41)         -0.6598         estimate D2E/DX2                !
 ! D192  D(44,39,40,45)        179.78           estimate D2E/DX2                !
 ! D193  D(48,39,40,41)        178.6708         estimate D2E/DX2                !
 ! D194  D(48,39,40,45)         -0.8895         estimate D2E/DX2                !
 ! D195  D(40,39,44,38)       -179.735          estimate D2E/DX2                !
 ! D196  D(40,39,44,43)          0.7711         estimate D2E/DX2                !
 ! D197  D(48,39,44,38)          0.9213         estimate D2E/DX2                !
 ! D198  D(48,39,44,43)       -178.5725         estimate D2E/DX2                !
 ! D199  D(40,39,48,49)          1.3371         estimate D2E/DX2                !
 ! D200  D(40,39,48,50)       -177.949          estimate D2E/DX2                !
 ! D201  D(44,39,48,49)       -179.3699         estimate D2E/DX2                !
 ! D202  D(44,39,48,50)          1.344          estimate D2E/DX2                !
 ! D203  D(39,40,41,42)          0.346          estimate D2E/DX2                !
 ! D204  D(39,40,41,46)       -179.7485         estimate D2E/DX2                !
 ! D205  D(45,40,41,42)        179.9032         estimate D2E/DX2                !
 ! D206  D(45,40,41,46)         -0.1913         estimate D2E/DX2                !
 ! D207  D(40,41,42,43)         -0.0873         estimate D2E/DX2                !
 ! D208  D(40,41,42,47)       -179.885          estimate D2E/DX2                !
 ! D209  D(46,41,42,43)       -179.9927         estimate D2E/DX2                !
 ! D210  D(46,41,42,47)          0.2097         estimate D2E/DX2                !
 ! D211  D(41,42,43,37)       -179.9489         estimate D2E/DX2                !
 ! D212  D(41,42,43,44)          0.1894         estimate D2E/DX2                !
 ! D213  D(47,42,43,37)         -0.1505         estimate D2E/DX2                !
 ! D214  D(47,42,43,44)        179.9878         estimate D2E/DX2                !
 ! D215  D(37,43,44,38)         -0.0534         estimate D2E/DX2                !
 ! D216  D(37,43,44,39)        179.5423         estimate D2E/DX2                !
 ! D217  D(42,43,44,38)        179.8418         estimate D2E/DX2                !
 ! D218  D(42,43,44,39)         -0.5625         estimate D2E/DX2                !
 ! D219  D(39,48,50,51)        179.3204         estimate D2E/DX2                !
 ! D220  D(49,48,50,51)          0.0904         estimate D2E/DX2                !
 ! D221  D(48,50,51,52)          1.1356         estimate D2E/DX2                !
 ! D222  D(48,50,51,53)        127.4077         estimate D2E/DX2                !
 ! D223  D(48,50,51,54)       -118.6578         estimate D2E/DX2                !
 ! D224  D(50,51,52,55)       -178.3974         estimate D2E/DX2                !
 ! D225  D(50,51,52,56)         61.0543         estimate D2E/DX2                !
 ! D226  D(50,51,52,57)        -56.4147         estimate D2E/DX2                !
 ! D227  D(53,51,52,55)         56.5046         estimate D2E/DX2                !
 ! D228  D(53,51,52,56)        -64.0437         estimate D2E/DX2                !
 ! D229  D(53,51,52,57)        178.4873         estimate D2E/DX2                !
 ! D230  D(54,51,52,55)        -60.1254         estimate D2E/DX2                !
 ! D231  D(54,51,52,56)        179.3264         estimate D2E/DX2                !
 ! D232  D(54,51,52,57)         61.8573         estimate D2E/DX2                !
 ! D233  D(50,51,53,58)        173.6207         estimate D2E/DX2                !
 ! D234  D(50,51,53,59)        -65.6287         estimate D2E/DX2                !
 ! D235  D(50,51,53,60)         50.8437         estimate D2E/DX2                !
 ! D236  D(52,51,53,58)        -56.3829         estimate D2E/DX2                !
 ! D237  D(52,51,53,59)         64.3677         estimate D2E/DX2                !
 ! D238  D(52,51,53,60)       -179.1599         estimate D2E/DX2                !
 ! D239  D(54,51,53,58)         60.8883         estimate D2E/DX2                !
 ! D240  D(54,51,53,59)       -178.3612         estimate D2E/DX2                !
 ! D241  D(54,51,53,60)        -61.8888         estimate D2E/DX2                !
 ! D242  D(51,52,55,61)        -56.2619         estimate D2E/DX2                !
 ! D243  D(51,52,55,62)       -178.9509         estimate D2E/DX2                !
 ! D244  D(51,52,55,63)         64.4364         estimate D2E/DX2                !
 ! D245  D(56,52,55,61)         64.1141         estimate D2E/DX2                !
 ! D246  D(56,52,55,62)        -58.5749         estimate D2E/DX2                !
 ! D247  D(56,52,55,63)       -175.1876         estimate D2E/DX2                !
 ! D248  D(57,52,55,61)       -178.4069         estimate D2E/DX2                !
 ! D249  D(57,52,55,62)         58.9041         estimate D2E/DX2                !
 ! D250  D(57,52,55,63)        -57.7086         estimate D2E/DX2                !
 ! D251  D(51,53,58,61)         55.4578         estimate D2E/DX2                !
 ! D252  D(51,53,58,64)        178.1272         estimate D2E/DX2                !
 ! D253  D(51,53,58,65)        -65.0575         estimate D2E/DX2                !
 ! D254  D(59,53,58,61)        -64.4269         estimate D2E/DX2                !
 ! D255  D(59,53,58,64)         58.2425         estimate D2E/DX2                !
 ! D256  D(59,53,58,65)        175.0578         estimate D2E/DX2                !
 ! D257  D(60,53,58,61)        177.1921         estimate D2E/DX2                !
 ! D258  D(60,53,58,64)        -60.1385         estimate D2E/DX2                !
 ! D259  D(60,53,58,65)         56.6767         estimate D2E/DX2                !
 ! D260  D(52,55,61,58)         55.2875         estimate D2E/DX2                !
 ! D261  D(52,55,61,66)        177.9047         estimate D2E/DX2                !
 ! D262  D(52,55,61,67)        -64.9605         estimate D2E/DX2                !
 ! D263  D(62,55,61,58)        177.6287         estimate D2E/DX2                !
 ! D264  D(62,55,61,66)        -59.7541         estimate D2E/DX2                !
 ! D265  D(62,55,61,67)         57.3807         estimate D2E/DX2                !
 ! D266  D(63,55,61,58)        -65.3049         estimate D2E/DX2                !
 ! D267  D(63,55,61,66)         57.3123         estimate D2E/DX2                !
 ! D268  D(63,55,61,67)        174.4471         estimate D2E/DX2                !
 ! D269  D(53,58,61,55)        -54.7213         estimate D2E/DX2                !
 ! D270  D(53,58,61,66)       -177.3178         estimate D2E/DX2                !
 ! D271  D(53,58,61,67)         65.4805         estimate D2E/DX2                !
 ! D272  D(64,58,61,55)       -177.0563         estimate D2E/DX2                !
 ! D273  D(64,58,61,66)         60.3472         estimate D2E/DX2                !
 ! D274  D(64,58,61,67)        -56.8546         estimate D2E/DX2                !
 ! D275  D(65,58,61,55)         65.6925         estimate D2E/DX2                !
 ! D276  D(65,58,61,66)        -56.904          estimate D2E/DX2                !
 ! D277  D(65,58,61,67)       -174.1057         estimate D2E/DX2                !
 --------------------------------------------------------------------------------
 Trust Radius=3.00D-01 FncErr=5.00D-06 GrdErr=5.00D-06 EigMax=2.50D+02 EigMin=1.00D-04
 Number of steps in this run=    570 maximum allowed number of steps=    570.
 GradGradGradGradGradGradGradGradGradGradGradGradGradGradGradGradGradGrad

 Leave Link  103 at Fri Dec 21 14:16:33 2018, MaxMem=  1342177280 cpu:               0.3 elap:               0.0
 (Enter /gpfs/apps/hpc/Apps/Restricted/Gaussian/Rev_A.03/g16/l202.exe)
 Symmetry turned off by external request.
 Stoichiometry    C42H45N7O(1+,2)
 Framework group  C1[X(C42H45N7O)]
 Deg. of freedom   279
 Full point group                 C1      NOp   1
                          Input orientation:                          
 ---------------------------------------------------------------------
 Center     Atomic      Atomic             Coordinates (Angstroms)
 Number     Number       Type             X           Y           Z
 ---------------------------------------------------------------------
      1          6           0        1.596536    0.409325    1.107915
      2          6           0        0.512513    1.270575    0.806546
      3          6           0        0.669602    2.646846    0.674798
      4          6           0        1.956833    3.159702    0.854289
      5          6           0        3.046402    2.333488    1.154540
      6          6           0        2.891325    0.945378    1.286021
      7          6           0       -0.144983   -0.846332    0.931189
      8          1           0       -0.168067    3.291836    0.440843
      9          1           0        2.119135    4.226003    0.757651
     10          1           0        4.023834    2.781700    1.282101
     11          6           0       -2.431903   -1.780219    0.602381
     12          6           0       -3.311364   -2.894303    0.562873
     13          6           0       -2.877321   -4.198679    0.798545
     14          6           0       -1.523295   -4.366410    1.082825
     15          6           0       -0.632158   -3.280615    1.125626
     16          6           0       -1.060799   -1.971543    0.892163
     17          6           0       -4.386471   -1.002861    0.117645
     18          1           0       -3.558906   -5.039178    0.764048
     19          1           0       -1.141423   -5.362195    1.273167
     20          1           0        0.414116   -3.451793    1.344681
     21          7           0       -0.575294    0.432823    0.705440
     22          6           0       -6.821986   -0.639363   -0.472993
     23          6           0       -5.474724   -0.109438   -0.225118
     24          6           0       -5.225301    1.253087   -0.322134
     25          6           0       -6.236108    2.154369   -0.668622
     26          6           0       -7.539063    1.645395   -0.932307
     27          6           0       -7.870342    0.314625   -0.855918
     28          1           0       -4.222023    1.602144   -0.123663
     29          1           0       -8.303788    2.357006   -1.209823
     30          6           0       -5.994130    3.655679   -0.774989
     31          6           0       -9.277937   -0.191981   -1.165245
     32          8           0       -7.056781   -1.872289   -0.363379
     33          7           0       -3.118646   -0.622202    0.325139
     34          7           0       -4.536867   -2.356437    0.255044
     35          7           0        1.167087   -0.897630    1.179074
     36          6           0        3.981818    0.054196    1.591617
     37          7           0        3.842619   -1.285280    1.689921
     38          7           0        5.276655    0.354080    1.819952
     39          6           0        7.337154   -0.998425    2.363971
     40          6           0        7.731822   -2.325548    2.557660
     41          6           0        6.817846   -3.391551    2.473737
     42          6           0        5.469542   -3.188983    2.186274
     43          6           0        5.066008   -1.868357    1.986021
     44          6           0        5.980648   -0.808118    2.068399
     45          1           0        8.771348   -2.531728    2.785534
     46          1           0        7.174932   -4.400847    2.636374
     47          1           0        4.768680   -4.011011    2.124231
     48          6           0        8.258910    0.134520    2.472607
     49          1           0        9.298519   -0.115339    2.695666
     50          7           0        7.836485    1.333446    2.323783
     51          6           0        8.747704    2.470194    2.445384
     52          6           0       10.221561    2.162277    2.729495
     53          6           0        8.606114    3.341797    1.186590
     54          1           0        8.357426    3.059954    3.287040
     55          6           0       11.028445    3.459469    2.866185
     56          1           0       10.629885    1.562489    1.906105
     57          1           0       10.315756    1.564212    3.641694
     58          6           0        9.416257    4.635447    1.314321
     59          1           0        8.962252    2.764016    0.325111
     60          1           0        7.546875    3.558148    1.016542
     61          6           0       10.888883    4.342637    1.621552
     62          1           0       12.080895    3.223375    3.050081
     63          1           0       10.670743    4.012603    3.743387
     64          1           0        9.326874    5.222590    0.395031
     65          1           0        8.993102    5.243913    2.123369
     66          1           0       11.441785    5.277572    1.756286
     67          1           0       11.338204    3.825646    0.764406
     68          1           0        2.923611   -1.718731    1.555333
     69          1           0       -1.549383    0.648876    0.495146
     70          1           0       -5.441314   -2.797775    0.118639
     71          1           0        5.756071    1.253414    1.842896
     72          6           0       -9.215986   -1.191455   -2.343220
     73          1           0       -8.618047   -2.063361   -2.082391
     74          1           0      -10.227799   -1.520817   -2.596310
     75          1           0       -8.781105   -0.715536   -3.226401
     76          6           0      -10.220014    0.953842   -1.563618
     77          1           0      -10.328394    1.689872   -0.762048
     78          1           0       -9.873452    1.473421   -2.460916
     79          1           0      -11.208743    0.541198   -1.775387
     80          6           0       -9.871232   -0.884159    0.081859
     81          1           0       -9.263672   -1.735191    0.385830
     82          1           0       -9.933123   -0.181336    0.917147
     83          1           0      -10.882559   -1.234505   -0.142751
     84          6           0       -6.306379    4.109621   -2.217967
     85          1           0       -7.337216    3.882245   -2.498543
     86          1           0       -6.163684    5.190228   -2.301258
     87          1           0       -5.640253    3.619413   -2.931969
     88          6           0       -6.937740    4.387973    0.204387
     89          1           0       -6.789072    5.467474    0.115965
     90          1           0       -7.987368    4.173826   -0.007955
     91          1           0       -6.729379    4.094687    1.236027
     92          6           0       -4.546379    4.038264   -0.437361
     93          1           0       -4.285162    3.754294    0.585361
     94          1           0       -3.834639    3.565731   -1.119318
     95          1           0       -4.428915    5.120398   -0.527469
 ---------------------------------------------------------------------
 Rotational constants (GHZ):           0.1232138           0.0181244           0.0159521
 Leave Link  202 at Fri Dec 21 14:16:33 2018, MaxMem=  1342177280 cpu:               0.2 elap:               0.0
 (Enter /gpfs/apps/hpc/Apps/Restricted/Gaussian/Rev_A.03/g16/l301.exe)
 Standard basis: 6-31G(d,p) (6D, 7F)
 Ernie: Thresh=  0.10000D-02 Tol=  0.10000D-05 Strict=F.
   975 basis functions,  1715 primitive gaussians,   975 cartesian basis functions
   177 alpha electrons      176 beta electrons
       nuclear repulsion energy      5780.4555267764 Hartrees.
 IExCor=  402 DFT=T Ex+Corr=B3LYP ExCW=0 ScaHFX=  0.200000
 ScaDFX=  0.800000  0.720000  1.000000  0.810000 ScalE2=  1.000000  1.000000
 IRadAn=      5 IRanWt=     -1 IRanGd=            0 ICorTp=0 IEmpDi=141
 NAtoms=   95 NActive=   95 NUniq=   95 SFac= 1.00D+00 NAtFMM=   60 NAOKFM=T Big=T
 Integral buffers will be    131072 words long.
 Raffenetti 2 integral format.
 Two-electron integral symmetry is turned off.
 R6Disp:  Grimme-D3(BJ) Dispersion energy=       -0.2214068299 Hartrees.
 Nuclear repulsion after empirical dispersion term =     5780.2341199465 Hartrees.
 Using the following non-standard input for PCM:
 radii=bondi
 dis
 rep
 cav
 --- end of non-standard input.
 ------------------------------------------------------------------------------
 Polarizable Continuum Model (PCM)
 =================================
 Model                : C-PCM.
 Atomic radii         : Bondi.
 Polarization charges : Total charges.
 Charge compensation  : None.
 Solution method      : On-the-fly selection.
 Cavity type          : Scaled VdW (van der Waals Surface) (Alpha=1.100).
 Cavity algorithm     : GePol (No added spheres)
                        Default sphere list used, NSphG=   95.
                        Lebedev-Laikov grids with approx.  5.0 points / Ang**2.
                        Smoothing algorithm: York/Karplus (Gamma=1.0000).
                        Polarization charges: spherical gaussians, with
                                              point-specific exponents (IZeta= 3).
                        Self-potential: point-specific (ISelfS= 7).
                        Self-field    : sphere-specific E.n sum rule (ISelfD= 2).
 1st derivatives      : Analytical E(r).r(x)/FMM algorithm (CHGder, D1EAlg=3).
                        Cavity 1st derivative terms included.
 Solvent              : Dichloromethane, Eps=   8.930000 Eps(inf)=   2.028346
 ------------------------------------------------------------------------------
 GePol: Number of generator spheres                  =      95
 GePol: Total number of spheres                      =      95
 GePol: Number of exposed spheres                    =      95 (100.00%)
 GePol: Number of points                             =    6223
 GePol: Average weight of points                     =       0.12
 GePol: Minimum weight of points                     =   0.11D-11
 GePol: Maximum weight of points                     =    0.21770
 GePol: Number of points with low weight             =     424
 GePol: Fraction of low-weight points (<1% of avg)   =       6.81%
 GePol: Cavity surface area                          =    732.222 Ang**2
 GePol: Cavity volume                                =    720.563 Ang**3
 PCM non-electrostatic energy =         0.0317426556 Hartrees.
 Nuclear repulsion after PCM non-electrostatic terms =     5780.2658626021 Hartrees.
 Leave Link  301 at Fri Dec 21 14:16:34 2018, MaxMem=  1342177280 cpu:               8.6 elap:               0.6
 (Enter /gpfs/apps/hpc/Apps/Restricted/Gaussian/Rev_A.03/g16/l302.exe)
 NPDir=0 NMtPBC=     1 NCelOv=     1 NCel=       1 NClECP=     1 NCelD=      1
         NCelK=      1 NCelE2=     1 NClLst=     1 CellRange=     0.0.
 One-electron integrals computed using PRISM.
 NBasis=   975 RedAO= T EigKep=  2.84D-04  NBF=   975
 NBsUse=   975 1.00D-06 EigRej= -1.00D+00 NBFU=   975
 Precomputing XC quadrature grid using
 IXCGrd= 4 IRadAn=           5 IRanWt=          -1 IRanGd=           0 AccXCQ= 0.00D+00.
 Generated NRdTot=       0 NPtTot=           0 NUsed=           0 NTot=          32
 NSgBfM=   845   836   836   839   845 MxSgAt=    95 MxSgA2=    95.
 Leave Link  302 at Fri Dec 21 14:16:37 2018, MaxMem=  1342177280 cpu:              50.8 elap:               3.2
 (Enter /gpfs/apps/hpc/Apps/Restricted/Gaussian/Rev_A.03/g16/l303.exe)
 DipDrv:  MaxL=1.
[...]
 000133,0.00000007,-0.00000069,-0.00000034,-0.00001683,0.00005834,-0.00
 000350,-0.00005451,0.00001386,-0.00001850,0.00001536,-0.00003148,0.000
 00601,-0.00005294,-0.00001137,-0.00000951,0.00000777,0.00006222,-0.000
 00377,0.00004416,-0.00002617,0.00000657,-0.00011529,0.00004116,0.00001
 573,0.00000142,0.00000319,-0.00000027,-0.00000183,0.00000166,0.,-0.000
 00201,0.00000231,-0.00000126,-0.00002782,0.00001076,-0.00003044,0.0000
 1055,-0.00006331,-0.00004944,0.00001739,-0.00020749,0.00000216,-0.0001
 4594,-0.00039218,0.00036829,0.00025920,0.00014437,0.00044555,0.0000087
 3,0.00012033,-0.00012750,0.00004399,0.00005656,0.00000207,-0.00059261,
 -0.00257657,0.00098284,0.00001257,0.00000421,0.00002341,-0.00571854,0.
 00305083,0.00636657,-0.00001828,0.00001689,0.00000559,0.00001948,0.000
 07816,-0.00000296,0.00003674,0.00001777,-0.00001060,0.00001085,-0.0000
 2761,0.00001011,-0.00001646,-0.00000825,-0.00000144,0.00000147,0.00000
 226,-0.00000031,-0.00000200,-0.00000104,0.00000005,-0.00000135,-0.0000
 0111,0.00000019,-0.00000043,-0.00000026,-0.00000005,-0.00000014,-0.000
 00005,0.00000003,0.00000013,0.00000005,0.00000008,-0.00000014,0.000000
 45,0.,0.00000045,-0.00000110,0.00000008,-0.00000041,0.00000024,-0.0000
 0019,0.,0.00000003,-0.00000005,0.00000008,-0.00000010,-0.00000002,0.00
 000008,-0.00000007,-0.00000007,0.00000025,0.00000117,-0.00000014,0.000
 00004,-0.00000008,-0.00000009,0.00000038,-0.00000093,0.00000063,0.0000
 0004,0.00000021,-0.00000025,-0.00000010,-0.00000019,0.00000005,-0.0000
 0061,0.00000003,-0.00000033,-0.00000017,-0.00000007,-0.00000004,0.0000
 0003,0.00000007,-0.00000010,0.,0.00000003,-0.00000004,0.00000007,-0.00
 000012,0.00000015,0.00000006,0.00000006,0.,-0.00000005,0.00000005,0.00
 000005,0.00000038,0.,-0.00000003,-0.00000011,0.00000010,-0.00000006,0.
 00000014,-0.00000009,0.00000007,-0.00000006,0.00000003,0.00000004,-0.0
 0000010,-0.00000020,0.00000018,-0.00000003,0.00000002,-0.00000005,0.00
 000004,-0.00000002,0.00000002,0.00000002,-0.00000003,0.,0.00000446,-0.
 00000009,0.00000041,0.00005874,-0.00004680,0.00003375,0.00000811,-0.00
 001249,0.00000398,0.00000002,0.00000068,-0.00000051,0.00001270,0.00000
 166,-0.00000547,-0.00000226,-0.00000319,-0.00000205,0.00000358,0.00000
 341,0.00000587,-0.00000068,-0.00000112,0.00000148,0.00000357,0.0000066
 7,0.00000027,-0.00000027,0.00000015,0.00000217,-0.00000036,-0.00000147
 ,-0.00000202,0.00000466,0.00000063,0.00000107,0.00000370,0.00000019,0.
 00000828,-0.00000318,-0.00000140,0.00000160,0.00000015,-0.00000115,-0.
 00000115,0.00000484,0.00000150,-0.00000296,0.00031593,0.00006971,0.000
 16768,-0.00000862,-0.00006010,0.00018163,-0.00000784,-0.00001012,-0.00
 007229,0.00030332,-0.00028218,0.00008269,-0.00109950,-0.00009141,-0.00
 014816,-0.00015790,0.00038834,0.00007399,-0.00030646,0.00059137,0.0000
 4327,0.00001008,-0.00012521,-0.00020529,0.07567322,-0.09870425,-0.0743
 5563,-0.00681057,0.00350268,0.00583485,-0.08226307,0.10664048,-0.00000
 308,-0.00000880,-0.00000019,-0.00000095,-0.00000551,-0.00000112,0.0000
 1306,0.00003396,0.00004043,0.00001257,-0.00001640,0.00000673,0.0000014
 8,0.00001307,-0.00000102,0.00001070,-0.00001213,0.00000368,-0.00002257
 ,0.00002502,-0.00000767,-0.00006428,0.00005028,0.00003046,-0.00000080,
 0.00000042,-0.00000021,0.00000307,-0.00000115,0.00000044,-0.00000893,-
 0.00000507,-0.00000344,0.00001907,-0.00003427,0.00000695,-0.00001373,0
 .00002038,-0.00000581,0.00002834,0.00000411,0.00000550,-0.00000198,-0.
 00002678,0.00000254,-0.00001455,0.00000621,-0.00000216,-0.00000689,0.0
 0006917,0.00002015,-0.00000087,-0.00000307,0.00000006,0.00000159,-0.00
 000208,0.00000049,0.00000152,-0.00000102,0.00000048,0.00001723,-0.0000
 2806,0.00002539,0.00013907,-0.00006365,-0.00000068,-0.00044306,0.00004
 677,-0.00012822,0.00082616,-0.00027992,0.00044660,0.00029478,-0.000170
 01,0.00018918,0.00002758,0.00020578,-0.00010523,-0.00000006,-0.0000083
 8,0.00000023,-0.00052664,0.00075532,-0.00044763,-0.00004000,0.00001042
 ,0.00000081,-0.00502363,0.00440040,0.00378726,0.00000666,0.00001021,0.
 00000754,-0.00009007,-0.00007137,-0.00000730,0.00003161,-0.00002528,0.
 00001246,-0.00000077,-0.00002145,0.00000592,0.00002879,-0.00000465,0.0
 0000661,-0.00002136,0.00001362,-0.00000606,0.00000349,-0.00000468,0.00
 000153,0.00001020,0.00000239,0.00000212,-0.00000312,0.00000233,-0.0000
 0083,-0.00000013,-0.00000637,0.00000056,0.00000628,0.00000128,0.000001
 21,-0.00000224,0.00000457,-0.00000080,0.00000066,-0.00000165,0.0000002
 2,0.00000327,-0.00000079,0.00000067,0.00000042,-0.00000017,0.00000009,
 0.00000028,-0.00000034,0.00000004,-0.00000035,0.00000002,-0.00000016,-
 0.00000268,-0.00000217,-0.00000041,0.00000072,-0.00000003,0.00000007,0
 .00000215,0.00000188,0.00000045,-0.00000104,-0.00000104,-0.00000040,0.
 00000010,0.00000062,0.00000004,-0.00000022,0.00000019,0.00000032,0.000
 00026,0.00000033,0.00000013,0.00000009,-0.00000042,-0.00000015,0.,0.,0
 .00000005,0.00000004,-0.00000011,0.,-0.00000010,-0.00000032,-0.0000002
 8,-0.00000007,0.00000003,0.,0.00000052,-0.00000023,0.00000005,-0.00000
 015,0.00000022,0.00000007,0.00000039,0.00000007,0.00000009,-0.00000011
 ,0.00000012,0.00000008,0.00000002,0.00000013,-0.00000002,-0.00000002,0
 .00000009,0.00000009,0.00000029,0.00000022,0.00000001,-0.00000001,-0.0
 0000010,-0.00000001,-0.00000724,0.00000282,-0.00000210,0.00000034,-0.0
 0004043,-0.00000407,0.00000387,0.00000920,-0.00000153,-0.00000412,-0.0
 0000216,-0.00000101,-0.00000880,0.00000166,0.00000321,0.00000205,0.000
 00311,0.00000236,-0.00000234,-0.00000258,-0.00000350,0.00000047,0.0000
 0037,-0.00000004,-0.00000632,-0.00000993,-0.00000127,0.00000084,0.0000
 0144,0.00000053,0.00000056,0.00000068,0.00000007,-0.00000322,0.0000014
 7,-0.00000115,-0.00000787,-0.00000196,-0.00000888,0.00000244,0.0000027
 9,-0.00000239,-0.00000013,0.00000147,0.00000170,-0.00000469,-0.0000019
 1,0.00000333,-0.00059733,0.00037603,0.00082764,0.00012752,0.00005429,0
 .00019744,0.00005111,0.00005634,-0.00005017,0.00030215,-0.00015385,-0.
 00033235,-0.00101280,0.00006247,0.00039649,-0.00007926,-0.00009186,-0.
 00012252,-0.00023772,-0.00008080,0.00050047,-0.00016635,-0.00001312,0.
 00027564,0.10780879,-0.07364859,-0.15486976,0.01923771,-0.01389004,-0.
 01709353,-0.11726223,0.08093965,0.16425626,0.00000349,0.00000475,0.000
 00013,0.00001545,0.00001528,0.00000128,-0.00000841,-0.00000963,-0.0000
 0044,0.00001263,0.00000276,0.00000201,-0.00000527,0.00001258,-0.000002
 38,-0.00000156,-0.00000797,0.00000065,-0.00001622,-0.00002941,0.000000
 33,0.00006412,-0.00003795,0.00000540,-0.00000299,0.00000163,-0.0000008
 4,0.00000033,0.00000045,0.,0.00005734,-0.00008220,0.00002169,0.0000670
 2,-0.00000689,0.00001464,-0.00001491,0.00003582,-0.00000713,0.00006473
 ,0.00001524,0.00001071,-0.00001292,-0.00008062,0.00000685,-0.00005785,
 0.00003446,-0.00001466,0.00002503,-0.00005617,0.00000481,-0.00000211,-
 0.00000318,-0.00000009,0.00000214,-0.00000199,0.00000058,0.00000239,-0
 .00000208,0.00000080,-0.00000066,0.00000857,-0.00000186,-0.00009791,0.
 00026287,-0.00005035,0.00032182,0.00004580,0.00005429,-0.00069582,0.00
 060243,-0.00029498,-0.00614468,0.00024965,-0.00172244,0.00020552,-0.00
 210294,0.00021388,-0.00046075,0.00002857,-0.00010837,0.00050996,0.0000
 7765,0.00020131,0.00004623,0.00006305,-0.00000863,-0.00474172,-0.03124
 744,0.00266892,0.00007991,-0.00013979,0.00005372,0.00005419,-0.0001890
 4,0.00003733,-0.00006708,0.00003829,-0.00002078,0.00000568,0.00001903,
 -0.00000024,0.00000566,0.00000264,0.00000067,-0.00000779,0.00000510,-0
 .00000209,0.00000070,-0.00000226,0.00000035,0.00000302,0.00000096,0.00
 000053,-0.00000112,0.00000070,-0.00000030,-0.00000012,-0.00000215,0.00
 000017,0.00000215,0.00000048,0.00000040,-0.00000086,0.00000152,-0.0000
 0031,0.00000077,-0.00000076,0.00000023,0.00000109,-0.00000053,0.000000
 26,0.00000013,-0.00000004,0.00000003,0.00000009,-0.00000013,0.00000002
 ,-0.00000012,-0.00000004,-0.00000002,-0.00000073,-0.00000037,-0.000000
 12,0.00000023,-0.00000002,0.00000003,0.00000069,0.00000033,0.00000015,
 -0.00000030,-0.00000014,-0.00000010,-0.00000002,0.00000017,0.00000002,
 -0.00000023,0.00000013,0.00000007,0.00000003,0.00000006,-0.00000003,0.
 ,-0.00000008,-0.00000005,0.00000002,-0.00000003,-0.00000002,0.00000003
 ,-0.00000007,0.00000005,-0.00000006,-0.00000003,-0.00000004,0.00000002
 ,-0.00000004,-0.00000004,0.00000021,0.,0.00000003,-0.00000014,0.000000
 05,0.00000003,0.00000016,0.,0.00000005,-0.00000004,0.00000002,-0.00000
 001,-0.00000004,0.,0.00000007,-0.00000001,-0.00000001,-0.00000008,0.00
 000008,0.00000007,0.00000002,0.00000004,-0.00000005,-0.00000003,-0.000
 00272,0.00000111,-0.00000058,-0.00000125,-0.00002122,0.00000426,-0.000
 02761,0.00002352,-0.00000954,-0.00000124,-0.00000038,-0.00000027,-0.00
 005462,0.00000603,0.00002837,0.00000504,0.00000218,0.00000201,-0.00000
 887,-0.00001774,-0.00002309,0.00000340,0.00000358,-0.00000481,-0.00000
 497,-0.00002888,0.00000153,0.00000508,0.00000288,-0.00000562,0.0000021
 1,0.00000494,0.00000619,-0.00001750,-0.00000298,-0.00000440,-0.0000396
 4,-0.00000633,-0.00005393,0.00000648,0.00000163,-0.00000055,0.00000013
 ,0.00000484,0.00000547,-0.00002184,-0.00001358,0.00002100,0.00107134,-
 0.00075584,0.00093276,0.00011023,0.00020617,0.00033595,0.00040944,0.00
 075305,-0.00006590,-0.00003282,0.00007559,-0.00011627,0.00114495,-0.00
 111660,-0.00015350,-0.00054458,0.00051508,0.00006339,0.00032945,0.0001
 6055,-0.00022542,-0.00007229,0.00009586,0.00008202,-0.04969201,-0.0237
 9991,0.00206622,0.00008155,0.00743920,0.00044059,0.00239599,0.02053821
 ,-0.00333542,0.05574613,0.00001377,-0.00000841,0.00000354,-0.00001539,
 0.00001348,-0.00000449,-0.00000862,-0.00001959,0.00000067,0.00002684,0
 .,0.00000509,-0.00000535,0.00002877,-0.00000433,-0.00000626,-0.0000157
 7,0.00000066,-0.00005111,-0.00003157,-0.00000593,-0.00000320,0.0000060
 1,-0.00000460,0.00000210,0.00000301,0.00000012,0.00000164,0.00000036,0
 .00000028,0.00004914,-0.00009442,0.00002224,0.00009711,-0.00005121,0.0
 0002475,-0.00003420,0.00007072,-0.00001552,0.00011348,0.00002242,0.000
 01925,-0.00001458,-0.00012917,0.00001236,-0.00008551,0.00005322,-0.000
 02230,0.00005794,0.00001767,0.00001508,-0.00000336,-0.00000673,0.00000
 006,0.00000433,-0.00000403,0.00000135,0.00000464,-0.00000468,0.0000016
 1,0.00002310,0.00000980,0.00000400,0.00012189,0.00012710,0.00000165,-0
 .00027600,0.00030216,-0.00009502,0.00023963,-0.00030538,0.00012167,-0.
 00163275,0.00112500,-0.00050029,0.00032156,-0.00052384,0.00016319,-0.0
 0020684,0.00003042,-0.00005678,-0.00042879,0.00018075,-0.00015499,-0.0
 0005051,0.00008695,-0.00002033,-0.00036471,-0.00892555,0.00070573,0.00
 007182,-0.00006144,0.00002148,-0.00008004,-0.00024757,0.00001454,-0.00
 002922,0.00000688,-0.00000784,0.00000564,0.00001615,0.00000116,0.00004
 072,0.00001293,0.00000585,-0.00001640,0.00000481,-0.00000375,0.0000050
 5,-0.00000109,0.00000106,0.00000861,0.00000360,0.00000132,-0.00000130,
 0.00000194,-0.00000045,0.00000012,-0.00000403,0.00000036,0.00000378,0.
 00000085,0.00000068,-0.00000125,0.00000219,-0.00000046,-0.00000029,0.0
 0000065,-0.00000010,0.00000268,-0.00000081,0.00000065,0.00000029,-0.00
 000016,0.00000009,0.00000004,-0.00000009,0.00000002,-0.00000033,0.0000
 0017,-0.00000007,-0.00000235,-0.00000340,-0.00000014,0.00000041,0.0000
 0009,0.00000010,0.00000078,0.00000293,-0.00000038,-0.00000080,-0.00000
 126,-0.00000015,0.00000025,0.00000075,-0.00000009,0.00000088,0.0000000
 3,0.00000067,0.00000044,0.00000042,0.00000031,0.00000003,-0.00000049,-
 0.00000010,-0.00000004,0.00000001,0.00000015,-0.00000007,0.00000007,-0
 .00000022,-0.00000011,-0.00000049,-0.00000040,-0.00000009,0.00000006,0
 .,-0.00000025,-0.00000021,-0.00000002,0.00000006,-0.00000002,0.0000001
 2,0.00000008,0.00000019,-0.00000004,0.,0.00000011,0.00000012,0.0000001
 6,0.00000038,-0.00000033,-0.00000002,0.00000016,0.00000033,0.00000019,
 0.00000022,-0.00000003,-0.00000011,0.00000003,0.00000004,-0.00001143,0
 .00000170,-0.00000219,-0.00004350,-0.00001575,-0.00000768,-0.00002272,
 0.00003564,-0.00001004,-0.00000271,-0.00000264,-0.00000029,-0.00004864
 ,0.00000347,0.00002235,0.00000667,0.00000659,0.00000547,-0.00001017,-0
 .00001533,-0.00002019,0.00000315,0.00000377,-0.00000302,-0.00001202,-0
 .00002830,0.00000060,0.00000505,0.00000216,-0.00000443,0.00000271,0.00
 000368,0.00000525,-0.00001650,-0.00000134,-0.00000440,-0.00002806,-0.0
 0000405,-0.00004245,0.00000897,0.00000527,-0.00000361,0.00000064,0.000
 00461,0.00000402,-0.00001949,-0.00001076,0.00001503,0.00088184,0.00022
 992,0.00056840,-0.00004571,0.00035465,-0.00003350,0.00019630,0.0003714
 8,-0.00003234,-0.00004928,-0.00000100,-0.00001946,0.00105167,0.0001690
 5,-0.00010568,-0.00021362,0.00008527,0.00016224,-0.00005338,0.00035782
 ,-0.00008935,-0.00005472,0.00000341,-0.00001382,-0.02611887,-0.3134914
 3,0.02257618,-0.00036626,-0.00663194,0.00029292,-0.00134122,-0.0122035
 8,0.00155131,0.02840196,0.33907559,-0.00000048,0.00000175,-0.00000025,
 0.00000471,0.00000203,0.00000022,-0.00000145,-0.00000002,0.00000052,0.
 00000053,0.00000033,0.00000003,-0.00000054,0.00000020,-0.00000028,0.00
 000027,-0.00000034,0.00000012,0.00000089,-0.00000338,0.00000073,0.0000
 1829,-0.00001402,-0.00000371,-0.00000087,0.00000018,0.00000079,-0.0000
 0008,0.00000007,0.00000015,0.00000754,-0.00000850,0.00000609,0.0000056
 3,0.00000258,-0.00000217,0.00000019,0.00000127,-0.00000141,0.00000402,
 0.00000125,0.00000058,-0.00000150,-0.00000608,0.00000076,-0.00000463,0
 .00000264,-0.00000226,-0.00001318,-0.00000857,0.00002676,-0.00000017,-
 0.00000011,0.00000002,0.00000005,-0.00000006,0.00000031,0.00000012,-0.
 00000005,0.00000006,-0.00000306,0.00000099,0.00000279,-0.00002138,0.00
 004258,-0.00005940,0.00007274,-0.00002855,0.00010418,-0.00026861,0.000
 21703,0.00021430,-0.00150199,-0.00001669,0.00000108,-0.00007140,-0.000
 47440,0.00034103,-0.00009203,0.00001363,-0.00005166,0.00024662,-0.0000
 1182,-0.00028050,0.00000874,0.00001106,0.00003254,-0.00075637,-0.00737
 829,-0.00095132,0.00002843,-0.00003735,-0.00004449,0.00002049,-0.00002
 442,0.00000826,-0.00001048,0.00000813,0.00000197,0.00000212,0.00000023
 ,0.00000302,-0.00000216,-0.00000066,-0.00000052,-0.00000026,0.00000073
 ,0.,-0.00000030,-0.00000042,-0.00000011,-0.00000009,-0.00000013,-0.000
 00016,-0.00000014,-0.00000003,0.,-0.00000002,-0.00000011,-0.00000004,0
 .00000013,0.00000002,-0.00000001,-0.00000007,0.00000013,-0.00000006,0.
 00000021,-0.00000022,0.00000011,0.,-0.00000005,0.00000003,0.,0.,0.0000
 0004,0.00000001,-0.00000002,0.00000004,0.,-0.00000002,0.00000004,0.000
 00006,0.00000026,0.,0.,0.,0.00000005,0.00000012,-0.00000021,-0.0000001
 5,-0.00000006,0.00000012,0.00000017,-0.00000003,-0.00000003,0.00000004
 ,-0.00000013,0.00000004,0.,-0.00000002,-0.00000007,-0.00000010,-0.0000
 0005,0.00000006,0.00000008,0.00000004,-0.00000005,-0.00000005,-0.00000
 001,0.00000003,-0.00000002,-0.00000004,0.00000005,0.00000019,0.0000000
 7,-0.00000008,-0.00000007,0.00000003,0.00000003,0.00000007,-0.00000001
 ,0.00000004,0.00000002,0.00000002,0.,0.,0.00000001,-0.00000004,-0.0000
 0008,0.,0.00000004,-0.00000003,0.00000002,-0.00000007,-0.00000011,-0.0
 0000003,-0.00000002,0.00000002,0.00000006,-0.00000005,-0.00000006,0.00
 000041,0.00000011,0.00000015,0.00000515,-0.00000344,-0.00000740,-0.000
 00515,0.00000259,-0.00000123,-0.00000006,0.00000018,0.00000022,-0.0000
 2393,-0.00000190,0.00000374,0.00000162,-0.00000047,0.00000088,-0.00000
 163,-0.00000619,-0.00000756,0.00000059,0.00000088,-0.00000057,-0.00000
 104,-0.00000450,0.00000352,0.00000091,0.00000062,-0.00000152,0.0000006
 0,0.00000067,0.00000072,-0.00000288,-0.00000073,-0.00000110,0.00000578
 ,0.00000281,-0.00000505,-0.00000050,0.00000022,0.00000052,-0.00000022,
 0.00000063,0.00000142,-0.00000146,-0.00000048,0.00000060,-0.00031795,-
 0.00110797,0.00022956,0.00017596,0.00003402,0.00005348,0.00001014,0.00
 051326,-0.00047845,-0.00001121,-0.00002600,-0.00004016,0.00059176,0.00
 036086,-0.00007184,0.00010483,-0.00009598,-0.00009082,-0.00001579,-0.0
 0003221,-0.00014952,-0.00003221,0.00003163,-0.00001205,0.00241341,0.02
 341750,-0.04929398,0.00352150,0.03032320,-0.00081240,-0.00303261,-0.02
 063736,0.00214110,-0.00105655,-0.02506450,0.04918951\\0.00000035,-0.00
 000116,-0.00000216,-0.00000109,0.00000013,0.00000288,-0.00000210,0.000
 00095,0.00001115,-0.00000383,0.00000155,0.00001417,-0.00000131,0.00000
 160,0.00000950,-0.00000012,0.00000014,0.00000122,0.00000232,-0.0000024
 6,-0.00000963,-0.00000329,0.00000089,0.00001498,-0.00000453,0.00000183
 ,0.00002066,-0.00000325,0.00000122,0.00001206,0.00000314,-0.00000240,-
 0.00001543,0.00000519,-0.00000339,-0.00002216,0.00000688,-0.00000545,-
 0.00002967,0.00000689,-0.00000472,-0.00003078,0.00000585,-0.00000429,-
 0.00002409,0.00000385,-0.00000227,-0.00001641,0.00000348,-0.00000227,-
 0.00001076,0.00000768,-0.00000537,-0.00003484,0.00000800,-0.00000507,-
 0.00003667,0.00000528,-0.00000355,-0.00002523,0.00000121,-0.00000095,-
 0.00000201,0.00000139,-0.00000221,-0.00000890,0.00000118,-0.00000168,-
 0.00000565,0.00000002,-0.00000192,0.00000268,-0.00000167,-0.00000024,0
 .00000774,-0.00000140,-0.00000121,0.00000492,0.00000135,-0.00000148,-0
 .00000322,-0.00000137,-0.00000106,0.00000464,-0.00000219,0.00000021,0.
 00000881,-0.00000352,0.00000097,0.00001668,0.00000112,-0.00000131,-0.0
 0000631,0.00000367,-0.00000340,-0.00001615,0.00000135,-0.00000290,-0.0
 0000853,0.00000324,-0.00000415,-0.00001900,0.00000177,-0.00000172,-0.0
 0001002,0.00000162,-0.00000065,-0.00000391,0.00000164,-0.00000068,-0.0
 0001233,0.00000083,-0.00000041,-0.00000202,0.00000230,-0.00000003,-0.0
 0001027,0.00000459,-0.00000124,-0.00001787,0.00000555,-0.00000223,-0.0
 0002443,0.00000507,-0.00000163,-0.00002334,0.00000421,-0.00000182,-0.0
 0001530,0.00000132,0.00000018,-0.00000942,0.00000391,-0.00000109,-0.00
 001935,0.00000673,-0.00000216,-0.00003051,0.00000632,-0.00000241,-0.00
 002829,0.00000095,0.00000018,-0.00000342,0.00000064,0.00000022,-0.0000
 0489,-0.00000058,-0.00000013,0.00000380,-0.00000269,0.00000111,0.00001
 011,-0.00000149,0.00000185,0.00000862,-0.00000388,0.00000843,0.0000157
 8,-0.00000317,-0.00000449,0.00001422,-0.00000418,0.00000132,0.00001666
 ,-0.00000111,0.00000647,0.00000512,-0.00000111,-0.00000438,0.00000560,
 -0.00000532,0.00000832,0.00002374,-0.00000254,0.00001382,0.00001224,-0
 .00000327,0.00000775,0.00001707,-0.00000522,0.00000842,0.00002159,-0.0
 0000318,0.00000165,0.00001520,-0.00000448,-0.00000432,0.00001985,-0.00
 000584,0.00001396,0.00002696,-0.00000597,0.00000308,0.00002687,-0.0000
 0573,0.00000899,0.00002749,-0.00000392,0.00001432,0.00001857,0.0000035
 0,-0.00000154,-0.00001474,-0.00000035,-0.00000110,-0.00000096,0.000005
 07,-0.00000398,-0.00002157,-0.00000082,0.00000038,0.00000302,0.0000033
 1,0.00000578,-0.00001202,0.00000379,0.00000468,-0.00001742,0.00000289,
 0.00000546,-0.00001433,0.00000218,0.00001142,-0.00000940,0.00000037,-0
 .00000030,0.00000018,-0.00000114,-0.00000543,0.00000490,-0.00000089,0.
 00000513,0.00000388,0.00000034,-0.00000054,-0.00000203,0.00000185,-0.0
 0001036,-0.00001059,0.00000320,-0.00001057,-0.00001550,0.00000133,-0.0
 0001477,-0.00000624,0.00000317,-0.00000967,-0.00001246,-0.00000462,0.0
 0000848,0.00001967,-0.00000387,0.00000891,0.00001809,-0.00000562,0.000
 00946,0.00002597,-0.00000347,0.00001372,0.00001646,-0.00000419,-0.0000
 0639,0.00002151,-0.00000622,-0.00000611,0.00002752,-0.00000489,-0.0000
 0685,0.00001972,-0.00000459,-0.00001241,0.00001913,-0.00000467,0.00000
 009,0.00001890,-0.00000385,-0.00000535,0.00001754,-0.00000363,0.000005
 45,0.00001650,-0.00000570,0.00000114,0.00002566\\\@


 ERWIN WITH HIS PSI CAN DO
 CALCULATIONS QUITE A FEW.
 BUT ONE THING HAS NOT BEEN SEEN
 JUST WHAT DOES PSI REALLY MEAN.
 -- WALTER HUCKEL, TRANS. BY FELIX BLOCH
 Job cpu time:       2 days  0 hours 50 minutes 12.8 seconds.
 Elapsed time:       0 days  3 hours  3 minutes 34.9 seconds.
 File lengths (MBytes):  RWF=  17304 Int=      0 D2E=      0 Chk=    140 Scr=      8
 Normal termination of Gaussian 16 at Fri Dec 21 17:32:16 2018.
