 Entering Gaussian System, Link 0=g16
 Initial command:
 /gpfs/apps/hpc/Apps/Restricted/Gaussian/Rev_A.03/g16/l1.exe "/gpfs/scratch60/fas/hammes_schiffer/jg2487/c17n12/Gau-21459.inp" -scrdir="/gpfs/scratch60/fas/hammes_schiffer/jg2487/c17n12/"
 Entering Link 1 = /gpfs/apps/hpc/Apps/Restricted/Gaussian/Rev_A.03/g16/l1.exe PID=     21460.
  
 Copyright (c) 1988,1990,1992,1993,1995,1998,2003,2009,2016,
            Gaussian, Inc.  All Rights Reserved.
  
 This is part of the Gaussian(R) 16 program.  It is based on
 the Gaussian(R) 09 system (copyright 2009, Gaussian, Inc.),
 the Gaussian(R) 03 system (copyright 2003, Gaussian, Inc.),
 the Gaussian(R) 98 system (copyright 1998, Gaussian, Inc.),
 the Gaussian(R) 94 system (copyright 1995, Gaussian, Inc.),
 the Gaussian 92(TM) system (copyright 1992, Gaussian, Inc.),
 the Gaussian 90(TM) system (copyright 1990, Gaussian, Inc.),
 the Gaussian 88(TM) system (copyright 1988, Gaussian, Inc.),
 the Gaussian 86(TM) system (copyright 1986, Carnegie Mellon
 University), and the Gaussian 82(TM) system (copyright 1983,
 Carnegie Mellon University). Gaussian is a federally registered
 trademark of Gaussian, Inc.
  
 This software contains proprietary and confidential information,
 including trade secrets, belonging to Gaussian, Inc.
  
 This software is provided under written license and may be
 used, copied, transmitted, or stored only in accord with that
 written license.
  
 The following legend is applicable only to US Government
 contracts under FAR:
  
                    RESTRICTED RIGHTS LEGEND
  
 Use, reproduction and disclosure by the US Government is
 subject to restrictions as set forth in subparagraphs (a)
 and (c) of the Commercial Computer Software - Restricted
 Rights clause in FAR 52.227-19.
  
 Gaussian, Inc.
 340 Quinnipiac St., Bldg. 40, Wallingford CT 06492
  
  
 ---------------------------------------------------------------
 Warning -- This program may not be used in any manner that
 competes with the business of Gaussian, Inc. or will provide
 assistance to any competitor of Gaussian, Inc.  The licensee
 of this program is prohibited from giving any competitor of
 Gaussian, Inc. access to this program.  By using this program,
 the user acknowledges that Gaussian, Inc. is engaged in the
 business of creating and licensing software in the field of
 computational chemistry and represents and warrants to the
 licensee that it is not a competitor of Gaussian, Inc. and that
 it will not use this program in any manner prohibited above.
 ---------------------------------------------------------------
  

 Cite this work as:
 Gaussian 16, Revision A.03,
 M. J. Frisch, G. W. Trucks, H. B. Schlegel, G. E. Scuseria, 
 M. A. Robb, J. R. Cheeseman, G. Scalmani, V. Barone, 
 G. A. Petersson, H. Nakatsuji, X. Li, M. Caricato, A. V. Marenich, 
 J. Bloino, B. G. Janesko, R. Gomperts, B. Mennucci, H. P. Hratchian, 
 J. V. Ortiz, A. F. Izmaylov, J. L. Sonnenberg, D. Williams-Young, 
 F. Ding, F. Lipparini, F. Egidi, J. Goings, B. Peng, A. Petrone, 
 T. Henderson, D. Ranasinghe, V. G. Zakrzewski, J. Gao, N. Rega, 
 G. Zheng, W. Liang, M. Hada, M. Ehara, K. Toyota, R. Fukuda, 
 J. Hasegawa, M. Ishida, T. Nakajima, Y. Honda, O. Kitao, H. Nakai, 
 T. Vreven, K. Throssell, J. A. Montgomery, Jr., J. E. Peralta, 
 F. Ogliaro, M. J. Bearpark, J. J. Heyd, E. N. Brothers, K. N. Kudin, 
 V. N. Staroverov, T. A. Keith, R. Kobayashi, J. Normand, 
 K. Raghavachari, A. P. Rendell, J. C. Burant, S. S. Iyengar, 
 J. Tomasi, M. Cossi, J. M. Millam, M. Klene, C. Adamo, R. Cammi, 
 J. W. Ochterski, R. L. Martin, K. Morokuma, O. Farkas, 
 J. B. Foresman, and D. J. Fox, Gaussian, Inc., Wallingford CT, 2016.
 
 ******************************************
 Gaussian 16:  ES64L-G16RevA.03 25-Dec-2016
                16-Dec-2018 
 ******************************************
 %chk=cyclohexyl-triBIP-E3PT.chk
 %mem=10GB
 %nprocshared=16
 Will use up to   16 processors via shared memory.
 ----------------------------------------------------------------------
 #p opt=tight freq=internalmodes b3lyp/6-31g(d,p) scrf=(cpcm,solvent=di
 chloromethane,read) nosymm empiricaldispersion=gd3bj int=grid=ultrafin
 e
 ----------------------------------------------------------------------
 1/7=10,18=20,19=15,26=6,38=1,40=2/1,3;
 2/9=110,12=2,15=1,17=6,18=5,40=1/2;
 3/5=1,6=6,7=101,11=2,25=1,30=1,70=2103,71=1,72=9,74=-5,75=-5,124=41/1,2,3;
 4//1;
 5/5=2,38=5,53=9/2;
 6/7=2,8=2,9=2,10=2,28=1/1;
 7/30=1/1,2,3,16;
 1/7=10,18=20,19=15,26=6/3(2);
 2/9=110,15=1/2;
 99//99;
 2/9=110,15=1/2;
 3/5=1,6=6,7=101,11=2,25=1,30=1,70=2105,71=1,72=9,74=-5,75=-5,124=41/1,2,3;
 4/5=5,16=3,69=1/1;
 5/5=2,38=5,53=9/2;
 7/30=1/1,2,3,16;
 1/7=10,18=20,19=15,26=6/3(-5);
 2/9=110,15=1/2;
 6/7=2,8=2,9=2,10=2,19=2,28=1/1;
 99/9=1/99;
 Leave Link    1 at Sun Dec 16 10:39:58 2018, MaxMem=  1342177280 cpu:               7.5 elap:               0.5
 (Enter /gpfs/apps/hpc/Apps/Restricted/Gaussian/Rev_A.03/g16/l101.exe)
 ----------------------------------------------------------------------
 cyclohexylimine triBIP oxidized, first three protons transferred optim
 ization
 ----------------------------------------------------------------------
 Symbolic Z-matrix:
 Charge =  1 Multiplicity = 2
 C                     1.62402   0.47855   0.98163 
 C                     0.54499   1.34966   0.69124 
 C                     0.7148    2.72509   0.5663 
 C                     2.00776   3.22514   0.74148 
 C                     3.09159   2.38848   1.03323 
 C                     2.92443   1.00138   1.15846 
 C                    -0.12889  -0.76264   0.81355 
 H                    -0.11645   3.38111   0.34218 
 H                     2.17872   4.29049   0.64873 
 H                     4.07377   2.82699   1.157 
 C                    -2.42669  -1.69271   0.53277 
 C                    -3.30615  -2.80773   0.53281 
 C                    -2.86859  -4.10941   0.77616 
 C                    -1.50822  -4.27599   1.0268 
 C                    -0.61683  -3.19018   1.03483 
 C                    -1.05004  -1.88338   0.794 
 C                    -4.39305  -0.92458   0.08768 
 H                    -3.55314  -4.94828   0.77243 
 H                    -1.12238  -5.26932   1.22186 
 H                     0.43373  -3.35845   1.23527 
 N                    -0.55092   0.52032   0.59431 
 C                    -6.85252  -0.61111  -0.40881 
 C                    -5.50495  -0.05409  -0.23803 
 C                    -5.30141   1.3092   -0.3919 
 C                    -6.3547    2.1763   -0.72103 
 C                    -7.66131   1.64928  -0.88899 
 C                    -7.93385   0.31114  -0.74807 
 H                    -4.30271   1.70712  -0.25666 
 H                    -8.46744   2.33288  -1.13579 
 C                    -6.10649   3.63941  -0.92375 
 H                    -5.1943    3.96042  -0.419 
 H                    -5.9917    3.85616  -1.99251 
 H                    -6.94824   4.23485  -0.56359 
 C                    -9.30541  -0.26019  -0.91975 
 H                    -9.32356  -0.98854  -1.73632 
 H                    -9.61559  -0.79733  -0.01892 
 H                    -10.02914   0.52676  -1.1311 
 O                    -7.09605  -1.83895  -0.27188 
 N                    -3.1216   -0.53777   0.25462 
 N                    -4.53916  -2.27567   0.25014 
 N                     1.1846   -0.82482   1.04878 
 C                     4.00642   0.09656   1.45541 
 N                     3.85475  -1.24343   1.52204 
 N                     5.30256   0.37956   1.69926 
 C                     7.3454   -1.00527   2.22932 
 C                     7.7259   -2.34003   2.3973 
 C                     6.80337  -3.39531   2.2809 
 C                     5.45957  -3.1729    1.98742 
 C                     5.07061  -1.84443   1.81154 
 C                     5.9942   -0.79496   1.92444 
 H                     8.76027  -2.56104   2.63496 
 H                     7.14887  -4.41143   2.42439 
 H                     4.75085  -3.98615   1.90289 
 C                     8.27229   0.11516   2.39891 
 H                     9.30559  -0.1548    2.62682 
 N                     7.86272   1.3246    2.30752 
 C                     8.78767   2.43831   2.52145 
 C                     10.23598   2.083     2.87264 
 C                     8.73311   3.36465   1.29526 
 H                     8.36536   3.0023    3.3657 
 C                     11.06878   3.34909   3.10382 
 H                     10.67382   1.50394   2.05036 
 H                     10.26357   1.44674   3.76259 
 C                     9.57068   4.62804   1.51921 
 H                     9.11516   2.81214   0.42802 
 H                     7.6906    3.62042   1.08281 
 C                     11.01731   4.28594   1.89236 
 H                     12.10329   3.07396   3.33058 
 H                     10.68343   3.87808   3.98448 
 H                     9.54624   5.25566   0.62358 
 H                     9.12125   5.21499   2.32978 
 H                     11.57917   5.20177   2.10034 
 H                     11.50487   3.79722   1.0397 
 H                     2.93     -1.66347   1.38214 
 H                    -1.52469   0.74649   0.39678 
 H                    -5.44836  -2.71887   0.14837 
 H                     5.7859    1.27481   1.75884 
 
 ITRead=  0  0  0  0  0  0  0  0  0  0  0  0  0  0  0  0  0  0  0  0
 ITRead=  0  0  0  0  0  0  0  0  0  0  0  0  0  0  0  0  0  0  0  0
 ITRead=  0  0  0  0  0  0  0  0  0  0  0  0  0  0  0  0  0  0  0  0
 ITRead=  0  0  0  0  0  0  0  0  0  0  0  0  0  0  0  0  0
 MicOpt= -1 -1 -1 -1 -1 -1 -1 -1 -1 -1 -1 -1 -1 -1 -1 -1 -1 -1 -1 -1
 MicOpt= -1 -1 -1 -1 -1 -1 -1 -1 -1 -1 -1 -1 -1 -1 -1 -1 -1 -1 -1 -1
 MicOpt= -1 -1 -1 -1 -1 -1 -1 -1 -1 -1 -1 -1 -1 -1 -1 -1 -1 -1 -1 -1
 MicOpt= -1 -1 -1 -1 -1 -1 -1 -1 -1 -1 -1 -1 -1 -1 -1 -1 -1
 NAtoms=     77 NQM=       77 NQMF=       0 NMMI=      0 NMMIF=      0
                NMic=       0 NMicF=      0.
                    Isotopes and Nuclear Properties:
 (Nuclear quadrupole moments (NQMom) in fm**2, nuclear magnetic moments (NMagM)
  in nuclear magnetons)

  Atom         1           2           3           4           5           6           7           8           9          10
 IAtWgt=          12          12          12          12          12          12          12           1           1           1
 AtmWgt=  12.0000000  12.0000000  12.0000000  12.0000000  12.0000000  12.0000000  12.0000000   1.0078250   1.0078250   1.0078250
 NucSpn=           0           0           0           0           0           0           0           1           1           1
 AtZEff=  -0.0000000  -0.0000000  -0.0000000  -0.0000000  -0.0000000  -0.0000000  -0.0000000  -0.0000000  -0.0000000  -0.0000000
 NQMom=    0.0000000   0.0000000   0.0000000   0.0000000   0.0000000   0.0000000   0.0000000   0.0000000   0.0000000   0.0000000
 NMagM=    0.0000000   0.0000000   0.0000000   0.0000000   0.0000000   0.0000000   0.0000000   2.7928460   2.7928460   2.7928460
 AtZNuc=   6.0000000   6.0000000   6.0000000   6.0000000   6.0000000   6.0000000   6.0000000   1.0000000   1.0000000   1.0000000

  Atom        11          12          13          14          15          16          17          18          19          20
 IAtWgt=          12          12          12          12          12          12          12           1           1           1
 AtmWgt=  12.0000000  12.0000000  12.0000000  12.0000000  12.0000000  12.0000000  12.0000000   1.0078250   1.0078250   1.0078250
 NucSpn=           0           0           0           0           0           0           0           1           1           1
 AtZEff=  -0.0000000  -0.0000000  -0.0000000  -0.0000000  -0.0000000  -0.0000000  -0.0000000  -0.0000000  -0.0000000  -0.0000000
 NQMom=    0.0000000   0.0000000   0.0000000   0.0000000   0.0000000   0.0000000   0.0000000   0.0000000   0.0000000   0.0000000
 NMagM=    0.0000000   0.0000000   0.0000000   0.0000000   0.0000000   0.0000000   0.0000000   2.7928460   2.7928460   2.7928460
 AtZNuc=   6.0000000   6.0000000   6.0000000   6.0000000   6.0000000   6.0000000   6.0000000   1.0000000   1.0000000   1.0000000

  Atom        21          22          23          24          25          26          27          28          29          30
 IAtWgt=          14          12          12          12          12          12          12           1           1          12
 AtmWgt=  14.0030740  12.0000000  12.0000000  12.0000000  12.0000000  12.0000000  12.0000000   1.0078250   1.0078250  12.0000000
 NucSpn=           2           0           0           0           0           0           0           1           1           0
 AtZEff=  -0.0000000  -0.0000000  -0.0000000  -0.0000000  -0.0000000  -0.0000000  -0.0000000  -0.0000000  -0.0000000  -0.0000000
 NQMom=    2.0440000   0.0000000   0.0000000   0.0000000   0.0000000   0.0000000   0.0000000   0.0000000   0.0000000   0.0000000
 NMagM=    0.4037610   0.0000000   0.0000000   0.0000000   0.0000000   0.0000000   0.0000000   2.7928460   2.7928460   0.0000000
 AtZNuc=   7.0000000   6.0000000   6.0000000   6.0000000   6.0000000   6.0000000   6.0000000   1.0000000   1.0000000   6.0000000

  Atom        31          32          33          34          35          36          37          38          39          40
 IAtWgt=           1           1           1          12           1           1           1          16          14          14
 AtmWgt=   1.0078250   1.0078250   1.0078250  12.0000000   1.0078250   1.0078250   1.0078250  15.9949146  14.0030740  14.0030740
 NucSpn=           1           1           1           0           1           1           1           0           2           2
 AtZEff=  -0.0000000  -0.0000000  -0.0000000  -0.0000000  -0.0000000  -0.0000000  -0.0000000  -0.0000000  -0.0000000  -0.0000000
 NQMom=    0.0000000   0.0000000   0.0000000   0.0000000   0.0000000   0.0000000   0.0000000   0.0000000   2.0440000   2.0440000
 NMagM=    2.7928460   2.7928460   2.7928460   0.0000000   2.7928460   2.7928460   2.7928460   0.0000000   0.4037610   0.4037610
 AtZNuc=   1.0000000   1.0000000   1.0000000   6.0000000   1.0000000   1.0000000   1.0000000   8.0000000   7.0000000   7.0000000

  Atom        41          42          43          44          45          46          47          48          49          50
 IAtWgt=          14          12          14          14          12          12          12          12          12          12
 AtmWgt=  14.0030740  12.0000000  14.0030740  14.0030740  12.0000000  12.0000000  12.0000000  12.0000000  12.0000000  12.0000000
 NucSpn=           2           0           2           2           0           0           0           0           0           0
 AtZEff=  -0.0000000  -0.0000000  -0.0000000  -0.0000000  -0.0000000  -0.0000000  -0.0000000  -0.0000000  -0.0000000  -0.0000000
 NQMom=    2.0440000   0.0000000   2.0440000   2.0440000   0.0000000   0.0000000   0.0000000   0.0000000   0.0000000   0.0000000
 NMagM=    0.4037610   0.0000000   0.4037610   0.4037610   0.0000000   0.0000000   0.0000000   0.0000000   0.0000000   0.0000000
 AtZNuc=   7.0000000   6.0000000   7.0000000   7.0000000   6.0000000   6.0000000   6.0000000   6.0000000   6.0000000   6.0000000

  Atom        51          52          53          54          55          56          57          58          59          60
 IAtWgt=           1           1           1          12           1          14          12          12          12           1
 AtmWgt=   1.0078250   1.0078250   1.0078250  12.0000000   1.0078250  14.0030740  12.0000000  12.0000000  12.0000000   1.0078250
 NucSpn=           1           1           1           0           1           2           0           0           0           1
 AtZEff=  -0.0000000  -0.0000000  -0.0000000  -0.0000000  -0.0000000  -0.0000000  -0.0000000  -0.0000000  -0.0000000  -0.0000000
 NQMom=    0.0000000   0.0000000   0.0000000   0.0000000   0.0000000   2.0440000   0.0000000   0.0000000   0.0000000   0.0000000
 NMagM=    2.7928460   2.7928460   2.7928460   0.0000000   2.7928460   0.4037610   0.0000000   0.0000000   0.0000000   2.7928460
 AtZNuc=   1.0000000   1.0000000   1.0000000   6.0000000   1.0000000   7.0000000   6.0000000   6.0000000   6.0000000   1.0000000

  Atom        61          62          63          64          65          66          67          68          69          70
 IAtWgt=          12           1           1          12           1           1          12           1           1           1
 AtmWgt=  12.0000000   1.0078250   1.0078250  12.0000000   1.0078250   1.0078250  12.0000000   1.0078250   1.0078250   1.0078250
 NucSpn=           0           1           1           0           1           1           0           1           1           1
 AtZEff=  -0.0000000  -0.0000000  -0.0000000  -0.0000000  -0.0000000  -0.0000000  -0.0000000  -0.0000000  -0.0000000  -0.0000000
 NQMom=    0.0000000   0.0000000   0.0000000   0.0000000   0.0000000   0.0000000   0.0000000   0.0000000   0.0000000   0.0000000
 NMagM=    0.0000000   2.7928460   2.7928460   0.0000000   2.7928460   2.7928460   0.0000000   2.7928460   2.7928460   2.7928460
 AtZNuc=   6.0000000   1.0000000   1.0000000   6.0000000   1.0000000   1.0000000   6.0000000   1.0000000   1.0000000   1.0000000

  Atom        71          72          73          74          75          76          77
 IAtWgt=           1           1           1           1           1           1           1
 AtmWgt=   1.0078250   1.0078250   1.0078250   1.0078250   1.0078250   1.0078250   1.0078250
 NucSpn=           1           1           1           1           1           1           1
 AtZEff=  -0.0000000  -0.0000000  -0.0000000  -0.0000000  -0.0000000  -0.0000000  -0.0000000
 NQMom=    0.0000000   0.0000000   0.0000000   0.0000000   0.0000000   0.0000000   0.0000000
 NMagM=    2.7928460   2.7928460   2.7928460   2.7928460   2.7928460   2.7928460   2.7928460
 AtZNuc=   1.0000000   1.0000000   1.0000000   1.0000000   1.0000000   1.0000000   1.0000000
 Leave Link  101 at Sun Dec 16 10:39:58 2018, MaxMem=  1342177280 cpu:               4.8 elap:               0.3
 (Enter /gpfs/apps/hpc/Apps/Restricted/Gaussian/Rev_A.03/g16/l103.exe)

 GradGradGradGradGradGradGradGradGradGradGradGradGradGradGradGradGradGrad
 Berny optimization.
 Initialization pass.
                           ----------------------------
                           !    Initial Parameters    !
                           ! (Angstroms and Degrees)  !
 --------------------------                            --------------------------
 ! Name  Definition              Value          Derivative Info.                !
 --------------------------------------------------------------------------------
 ! R1    R(1,2)                  1.4168         estimate D2E/DX2                !
 ! R2    R(1,6)                  1.4127         estimate D2E/DX2                !
 ! R3    R(1,41)                 1.3771         estimate D2E/DX2                !
 ! R4    R(2,3)                  1.3915         estimate D2E/DX2                !
 ! R5    R(2,21)                 1.3778         estimate D2E/DX2                !
 ! R6    R(3,4)                  1.3973         estimate D2E/DX2                !
 ! R7    R(3,8)                  1.0824         estimate D2E/DX2                !
 ! R8    R(4,5)                  1.3999         estimate D2E/DX2                !
 ! R9    R(4,9)                  1.083          estimate D2E/DX2                !
 ! R10   R(5,6)                  1.4027         estimate D2E/DX2                !
 ! R11   R(5,10)                 1.0827         estimate D2E/DX2                !
 ! R12   R(6,42)                 1.4414         estimate D2E/DX2                !
 ! R13   R(7,16)                 1.4508         estimate D2E/DX2                !
 ! R14   R(7,21)                 1.3683         estimate D2E/DX2                !
 ! R15   R(7,41)                 1.3358         estimate D2E/DX2                !
 ! R16   R(11,12)                1.4201         estimate D2E/DX2                !
 ! R17   R(11,16)                1.4141         estimate D2E/DX2                !
 ! R18   R(11,39)                1.3763         estimate D2E/DX2                !
 ! R19   R(12,13)                1.3947         estimate D2E/DX2                !
 ! R20   R(12,40)                1.3723         estimate D2E/DX2                !
 ! R21   R(13,14)                1.3933         estimate D2E/DX2                !
 ! R22   R(13,18)                1.0827         estimate D2E/DX2                !
 ! R23   R(14,15)                1.4049         estimate D2E/DX2                !
 ! R24   R(14,19)                1.0833         estimate D2E/DX2                !
 ! R25   R(15,16)                1.3976         estimate D2E/DX2                !
 ! R26   R(15,20)                1.0827         estimate D2E/DX2                !
 ! R27   R(17,23)                1.4492         estimate D2E/DX2                !
 ! R28   R(17,39)                1.3394         estimate D2E/DX2                !
 ! R29   R(17,40)                1.3686         estimate D2E/DX2                !
 ! R30   R(21,75)                1.019          estimate D2E/DX2                !
 ! R31   R(22,23)                1.4681         estimate D2E/DX2                !
 ! R32   R(22,27)                1.4611         estimate D2E/DX2                !
 ! R33   R(22,38)                1.2592         estimate D2E/DX2                !
 ! R34   R(23,24)                1.387          estimate D2E/DX2                !
 ! R35   R(24,25)                1.4034         estimate D2E/DX2                !
 ! R36   R(24,28)                1.0835         estimate D2E/DX2                !
 ! R37   R(25,26)                1.4189         estimate D2E/DX2                !
 ! R38   R(25,30)                1.4978         estimate D2E/DX2                !
 ! R39   R(26,27)                1.3729         estimate D2E/DX2                !
 ! R40   R(26,29)                1.0854         estimate D2E/DX2                !
 ! R41   R(27,34)                1.4957         estimate D2E/DX2                !
 ! R42   R(30,31)                1.0908         estimate D2E/DX2                !
 ! R43   R(30,32)                1.0965         estimate D2E/DX2                !
 ! R44   R(30,33)                1.0922         estimate D2E/DX2                !
 ! R45   R(34,35)                1.0944         estimate D2E/DX2                !
 ! R46   R(34,36)                1.0937         estimate D2E/DX2                !
 ! R47   R(34,37)                1.0898         estimate D2E/DX2                !
 ! R48   R(40,76)                1.0166         estimate D2E/DX2                !
 ! R49   R(42,43)                1.3502         estimate D2E/DX2                !
 ! R50   R(42,44)                1.3489         estimate D2E/DX2                !
 ! R51   R(43,49)                1.3868         estimate D2E/DX2                !
 ! R52   R(43,74)                1.0253         estimate D2E/DX2                !
 ! R53   R(44,50)                1.3815         estimate D2E/DX2                !
 ! R54   R(44,77)                1.0191         estimate D2E/DX2                !
 ! R55   R(45,46)                1.3981         estimate D2E/DX2                !
 ! R56   R(45,50)                1.401          estimate D2E/DX2                !
 ! R57   R(45,54)                1.464          estimate D2E/DX2                !
 ! R58   R(46,47)                1.4065         estimate D2E/DX2                !
 ! R59   R(46,51)                1.0841         estimate D2E/DX2                !
 ! R60   R(47,48)                1.3933         estimate D2E/DX2                !
 ! R61   R(47,52)                1.0828         estimate D2E/DX2                !
 ! R62   R(48,49)                1.3954         estimate D2E/DX2                !
 ! R63   R(48,53)                1.082          estimate D2E/DX2                !
 ! R64   R(49,50)                1.4026         estimate D2E/DX2                !
 ! R65   R(54,55)                1.092          estimate D2E/DX2                !
 ! R66   R(54,56)                1.2802         estimate D2E/DX2                !
 ! R67   R(56,57)                1.4634         estimate D2E/DX2                !
 ! R68   R(57,58)                1.5321         estimate D2E/DX2                !
 ! R69   R(57,59)                1.5377         estimate D2E/DX2                !
 ! R70   R(57,60)                1.0996         estimate D2E/DX2                !
 ! R71   R(58,61)                1.533          estimate D2E/DX2                !
 ! R72   R(58,62)                1.0969         estimate D2E/DX2                !
 ! R73   R(58,63)                1.0943         estimate D2E/DX2                !
 ! R74   R(59,64)                1.5323         estimate D2E/DX2                !
 ! R75   R(59,65)                1.097          estimate D2E/DX2                !
 ! R76   R(59,66)                1.0943         estimate D2E/DX2                !
 ! R77   R(61,67)                1.5323         estimate D2E/DX2                !
 ! R78   R(61,68)                1.0942         estimate D2E/DX2                !
 ! R79   R(61,69)                1.0972         estimate D2E/DX2                !
 ! R80   R(64,67)                1.5326         estimate D2E/DX2                !
 ! R81   R(64,70)                1.0939         estimate D2E/DX2                !
 ! R82   R(64,71)                1.097          estimate D2E/DX2                !
 ! R83   R(67,72)                1.0944         estimate D2E/DX2                !
 ! R84   R(67,73)                1.0971         estimate D2E/DX2                !
 ! A1    A(2,1,6)              119.9437         estimate D2E/DX2                !
 ! A2    A(2,1,41)             110.4198         estimate D2E/DX2                !
 ! A3    A(6,1,41)             129.6363         estimate D2E/DX2                !
 ! A4    A(1,2,3)              122.2216         estimate D2E/DX2                !
 ! A5    A(1,2,21)             104.4837         estimate D2E/DX2                !
 ! A6    A(3,2,21)             133.2943         estimate D2E/DX2                !
 ! A7    A(2,3,4)              117.0902         estimate D2E/DX2                !
 ! A8    A(2,3,8)              121.5985         estimate D2E/DX2                !
 ! A9    A(4,3,8)              121.3112         estimate D2E/DX2                !
 ! A10   A(3,4,5)              121.9137         estimate D2E/DX2                !
 ! A11   A(3,4,9)              119.1688         estimate D2E/DX2                !
 ! A12   A(5,4,9)              118.9175         estimate D2E/DX2                !
 ! A13   A(4,5,6)              121.1527         estimate D2E/DX2                !
 ! A14   A(4,5,10)             118.9527         estimate D2E/DX2                !
 ! A15   A(6,5,10)             119.8935         estimate D2E/DX2                !
 ! A16   A(1,6,5)              117.6776         estimate D2E/DX2                !
 ! A17   A(1,6,42)             118.9772         estimate D2E/DX2                !
 ! A18   A(5,6,42)             123.3452         estimate D2E/DX2                !
 ! A19   A(16,7,21)            121.7571         estimate D2E/DX2                !
 ! A20   A(16,7,41)            126.2066         estimate D2E/DX2                !
 ! A21   A(21,7,41)            112.0333         estimate D2E/DX2                !
 ! A22   A(12,11,16)           119.8019         estimate D2E/DX2                !
 ! A23   A(12,11,39)           110.2554         estimate D2E/DX2                !
 ! A24   A(16,11,39)           129.9425         estimate D2E/DX2                !
 ! A25   A(11,12,13)           122.5834         estimate D2E/DX2                !
 ! A26   A(11,12,40)           104.5957         estimate D2E/DX2                !
 ! A27   A(13,12,40)           132.8198         estimate D2E/DX2                !
 ! A28   A(12,13,14)           116.7            estimate D2E/DX2                !
 ! A29   A(12,13,18)           121.611          estimate D2E/DX2                !
 ! A30   A(14,13,18)           121.6889         estimate D2E/DX2                !
 ! A31   A(13,14,15)           121.8805         estimate D2E/DX2                !
 ! A32   A(13,14,19)           119.3253         estimate D2E/DX2                !
 ! A33   A(15,14,19)           118.7943         estimate D2E/DX2                !
 ! A34   A(14,15,16)           121.6685         estimate D2E/DX2                !
 ! A35   A(14,15,20)           119.7771         estimate D2E/DX2                !
 ! A36   A(16,15,20)           118.554          estimate D2E/DX2                !
 ! A37   A(7,16,11)            121.0918         estimate D2E/DX2                !
 ! A38   A(7,16,15)            121.5436         estimate D2E/DX2                !
 ! A39   A(11,16,15)           117.3644         estimate D2E/DX2                !
 ! A40   A(23,17,39)           125.652          estimate D2E/DX2                !
 ! A41   A(23,17,40)           122.53           estimate D2E/DX2                !
 ! A42   A(39,17,40)           111.8156         estimate D2E/DX2                !
 ! A43   A(2,21,7)             107.9265         estimate D2E/DX2                !
 ! A44   A(2,21,75)            129.803          estimate D2E/DX2                !
 ! A45   A(7,21,75)            122.2704         estimate D2E/DX2                !
 ! A46   A(23,22,27)           117.8283         estimate D2E/DX2                !
 ! A47   A(23,22,38)           122.3322         estimate D2E/DX2                !
 ! A48   A(27,22,38)           119.8394         estimate D2E/DX2                !
 ! A49   A(17,23,22)           120.1652         estimate D2E/DX2                !
 ! A50   A(17,23,24)           120.1825         estimate D2E/DX2                !
 ! A51   A(22,23,24)           119.6522         estimate D2E/DX2                !
 ! A52   A(23,24,25)           121.5454         estimate D2E/DX2                !
 ! A53   A(23,24,28)           118.8423         estimate D2E/DX2                !
 ! A54   A(25,24,28)           119.612          estimate D2E/DX2                !
 ! A55   A(24,25,26)           119.3016         estimate D2E/DX2                !
 ! A56   A(24,25,30)           120.724          estimate D2E/DX2                !
 ! A57   A(26,25,30)           119.9615         estimate D2E/DX2                !
 ! A58   A(25,26,27)           122.1884         estimate D2E/DX2                !
 ! A59   A(25,26,29)           118.4852         estimate D2E/DX2                !
 ! A60   A(27,26,29)           119.3263         estimate D2E/DX2                !
 ! A61   A(22,27,26)           119.4811         estimate D2E/DX2                !
 ! A62   A(22,27,34)           117.658          estimate D2E/DX2                !
 ! A63   A(26,27,34)           122.8601         estimate D2E/DX2                !
 ! A64   A(25,30,31)           111.3102         estimate D2E/DX2                !
 ! A65   A(25,30,32)           110.0203         estimate D2E/DX2                !
 ! A66   A(25,30,33)           111.1133         estimate D2E/DX2                !
 ! A67   A(31,30,32)           107.7752         estimate D2E/DX2                !
 ! A68   A(31,30,33)           109.3582         estimate D2E/DX2                !
 ! A69   A(32,30,33)           107.1178         estimate D2E/DX2                !
 ! A70   A(27,34,35)           110.7988         estimate D2E/DX2                !
 ! A71   A(27,34,36)           110.6783         estimate D2E/DX2                !
 ! A72   A(27,34,37)           110.8179         estimate D2E/DX2                !
 ! A73   A(35,34,36)           106.4402         estimate D2E/DX2                !
 ! A74   A(35,34,37)           108.9572         estimate D2E/DX2                !
 ! A75   A(36,34,37)           109.0272         estimate D2E/DX2                !
 ! A76   A(11,39,17)           105.197          estimate D2E/DX2                !
 ! A77   A(12,40,17)           108.1358         estimate D2E/DX2                !
 ! A78   A(12,40,76)           130.9322         estimate D2E/DX2                !
 ! A79   A(17,40,76)           120.9288         estimate D2E/DX2                !
 ! A80   A(1,41,7)             105.1359         estimate D2E/DX2                !
 ! A81   A(6,42,43)            123.2877         estimate D2E/DX2                !
 ! A82   A(6,42,44)            128.8175         estimate D2E/DX2                !
 ! A83   A(43,42,44)           107.8928         estimate D2E/DX2                !
 ! A84   A(42,43,49)           109.9929         estimate D2E/DX2                !
 ! A85   A(42,43,74)           120.0782         estimate D2E/DX2                !
 ! A86   A(49,43,74)           129.9187         estimate D2E/DX2                !
 ! A87   A(42,44,50)           109.3996         estimate D2E/DX2                !
 ! A88   A(42,44,77)           130.5858         estimate D2E/DX2                !
 ! A89   A(50,44,77)           119.9904         estimate D2E/DX2                !
 ! A90   A(46,45,50)           115.5906         estimate D2E/DX2                !
 ! A91   A(46,45,54)           122.9867         estimate D2E/DX2                !
 ! A92   A(50,45,54)           121.3945         estimate D2E/DX2                !
 ! A93   A(45,46,47)           121.8608         estimate D2E/DX2                !
 ! A94   A(45,46,51)           118.7282         estimate D2E/DX2                !
 ! A95   A(47,46,51)           119.4072         estimate D2E/DX2                !
 ! A96   A(46,47,48)           122.0228         estimate D2E/DX2                !
 ! A97   A(46,47,52)           118.9357         estimate D2E/DX2                !
 ! A98   A(48,47,52)           119.0416         estimate D2E/DX2                !
 ! A99   A(47,48,49)           116.5746         estimate D2E/DX2                !
 ! A100  A(47,48,53)           121.8821         estimate D2E/DX2                !
 ! A101  A(49,48,53)           121.543          estimate D2E/DX2                !
 ! A102  A(43,49,48)           133.1005         estimate D2E/DX2                !
 ! A103  A(43,49,50)           105.6558         estimate D2E/DX2                !
 ! A104  A(48,49,50)           121.2435         estimate D2E/DX2                !
 ! A105  A(44,50,45)           130.2344         estimate D2E/DX2                !
 ! A106  A(44,50,49)           107.0588         estimate D2E/DX2                !
 ! A107  A(45,50,49)           122.7024         estimate D2E/DX2                !
 ! A108  A(45,54,55)           115.7254         estimate D2E/DX2                !
 ! A109  A(45,54,56)           120.8118         estimate D2E/DX2                !
 ! A110  A(55,54,56)           123.4473         estimate D2E/DX2                !
 ! A111  A(54,56,57)           120.4197         estimate D2E/DX2                !
 ! A112  A(56,57,58)           117.0333         estimate D2E/DX2                !
 ! A113  A(56,57,59)           108.6297         estimate D2E/DX2                !
 ! A114  A(56,57,60)           105.0594         estimate D2E/DX2                !
 ! A115  A(58,57,59)           110.8571         estimate D2E/DX2                !
 ! A116  A(58,57,60)           107.8192         estimate D2E/DX2                !
 ! A117  A(59,57,60)           106.835          estimate D2E/DX2                !
 ! A118  A(57,58,61)           110.8908         estimate D2E/DX2                !
 ! A119  A(57,58,62)           109.1437         estimate D2E/DX2                !
 ! A120  A(57,58,63)           110.1869         estimate D2E/DX2                !
 ! A121  A(61,58,62)           109.4031         estimate D2E/DX2                !
 ! A122  A(61,58,63)           110.1119         estimate D2E/DX2                !
 ! A123  A(62,58,63)           107.016          estimate D2E/DX2                !
 ! A124  A(57,59,64)           111.1469         estimate D2E/DX2                !
 ! A125  A(57,59,65)           108.3393         estimate D2E/DX2                !
 ! A126  A(57,59,66)           109.2342         estimate D2E/DX2                !
 ! A127  A(64,59,65)           109.9049         estimate D2E/DX2                !
 ! A128  A(64,59,66)           110.8805         estimate D2E/DX2                !
 ! A129  A(65,59,66)           107.2203         estimate D2E/DX2                !
 ! A130  A(58,61,67)           111.5606         estimate D2E/DX2                !
 ! A131  A(58,61,68)           109.7061         estimate D2E/DX2                !
 ! A132  A(58,61,69)           109.1737         estimate D2E/DX2                !
 ! A133  A(67,61,68)           110.4464         estimate D2E/DX2                !
 ! A134  A(67,61,69)           109.1474         estimate D2E/DX2                !
 ! A135  A(68,61,69)           106.6744         estimate D2E/DX2                !
 ! A136  A(59,64,67)           111.5606         estimate D2E/DX2                !
 ! A137  A(59,64,70)           109.949          estimate D2E/DX2                !
 ! A138  A(59,64,71)           108.9776         estimate D2E/DX2                !
 ! A139  A(67,64,70)           110.3945         estimate D2E/DX2                !
 ! A140  A(67,64,71)           109.0391         estimate D2E/DX2                !
 ! A141  A(70,64,71)           106.7874         estimate D2E/DX2                !
 ! A142  A(61,67,64)           111.1409         estimate D2E/DX2                !
 ! A143  A(61,67,72)           110.13           estimate D2E/DX2                !
 ! A144  A(61,67,73)           109.0974         estimate D2E/DX2                !
 ! A145  A(64,67,72)           110.125          estimate D2E/DX2                !
 ! A146  A(64,67,73)           109.2496         estimate D2E/DX2                !
 ! A147  A(72,67,73)           106.997          estimate D2E/DX2                !
 ! D1    D(6,1,2,3)              0.1968         estimate D2E/DX2                !
 ! D2    D(6,1,2,21)          -179.6092         estimate D2E/DX2                !
 ! D3    D(41,1,2,3)          -179.9277         estimate D2E/DX2                !
 ! D4    D(41,1,2,21)            0.2663         estimate D2E/DX2                !
 ! D5    D(2,1,6,5)             -0.12           estimate D2E/DX2                !
 ! D6    D(2,1,6,42)           179.8973         estimate D2E/DX2                !
 ! D7    D(41,1,6,5)          -179.9685         estimate D2E/DX2                !
 ! D8    D(41,1,6,42)            0.0488         estimate D2E/DX2                !
 ! D9    D(2,1,41,7)            -0.2884         estimate D2E/DX2                !
 ! D10   D(6,1,41,7)           179.5714         estimate D2E/DX2                !
 ! D11   D(1,2,3,4)             -0.0631         estimate D2E/DX2                !
 ! D12   D(1,2,3,8)            179.8715         estimate D2E/DX2                !
 ! D13   D(21,2,3,4)           179.6788         estimate D2E/DX2                !
 ! D14   D(21,2,3,8)            -0.3867         estimate D2E/DX2                !
 ! D15   D(1,2,21,7)            -0.1372         estimate D2E/DX2                !
 ! D16   D(1,2,21,75)         -179.9888         estimate D2E/DX2                !
 ! D17   D(3,2,21,7)          -179.9117         estimate D2E/DX2                !
 ! D18   D(3,2,21,75)            0.2367         estimate D2E/DX2                !
 ! D19   D(2,3,4,5)             -0.1436         estimate D2E/DX2                !
 ! D20   D(2,3,4,9)            179.8203         estimate D2E/DX2                !
 ! D21   D(8,3,4,5)            179.9216         estimate D2E/DX2                !
 ! D22   D(8,3,4,9)             -0.1144         estimate D2E/DX2                !
 ! D23   D(3,4,5,6)              0.2198         estimate D2E/DX2                !
 ! D24   D(3,4,5,10)           179.8499         estimate D2E/DX2                !
 ! D25   D(9,4,5,6)           -179.7442         estimate D2E/DX2                !
 ! D26   D(9,4,5,10)            -0.1142         estimate D2E/DX2                !
 ! D27   D(4,5,6,1)             -0.0807         estimate D2E/DX2                !
 ! D28   D(4,5,6,42)           179.9011         estimate D2E/DX2                !
 ! D29   D(10,5,6,1)          -179.7074         estimate D2E/DX2                !
 ! D30   D(10,5,6,42)            0.2745         estimate D2E/DX2                !
 ! D31   D(1,6,42,43)            2.7693         estimate D2E/DX2                !
 ! D32   D(1,6,42,44)         -177.8147         estimate D2E/DX2                !
 ! D33   D(5,6,42,43)         -177.2123         estimate D2E/DX2                !
 ! D34   D(5,6,42,44)            2.2036         estimate D2E/DX2                !
 ! D35   D(21,7,16,11)           0.6333         estimate D2E/DX2                !
 ! D36   D(21,7,16,15)        -179.1995         estimate D2E/DX2                !
 ! D37   D(41,7,16,11)         179.9546         estimate D2E/DX2                !
 ! D38   D(41,7,16,15)           0.1218         estimate D2E/DX2                !
 ! D39   D(16,7,21,2)          179.371          estimate D2E/DX2                !
 ! D40   D(16,7,21,75)          -0.7639         estimate D2E/DX2                !
 ! D41   D(41,7,21,2)           -0.0382         estimate D2E/DX2                !
 ! D42   D(41,7,21,75)         179.8269         estimate D2E/DX2                !
 ! D43   D(16,7,41,1)         -179.1763         estimate D2E/DX2                !
 ! D44   D(21,7,41,1)            0.2012         estimate D2E/DX2                !
 ! D45   D(16,11,12,13)         -0.3423         estimate D2E/DX2                !
 ! D46   D(16,11,12,40)        179.9967         estimate D2E/DX2                !
 ! D47   D(39,11,12,13)        179.5111         estimate D2E/DX2                !
 ! D48   D(39,11,12,40)         -0.1499         estimate D2E/DX2                !
 ! D49   D(12,11,16,7)        -179.404          estimate D2E/DX2                !
 ! D50   D(12,11,16,15)          0.4355         estimate D2E/DX2                !
 ! D51   D(39,11,16,7)           0.7754         estimate D2E/DX2                !
 ! D52   D(39,11,16,15)       -179.385          estimate D2E/DX2                !
 ! D53   D(12,11,39,17)          0.0168         estimate D2E/DX2                !
 ! D54   D(16,11,39,17)        179.8508         estimate D2E/DX2                !
 ! D55   D(11,12,13,14)          0.1243         estimate D2E/DX2                !
 ! D56   D(11,12,13,18)        179.9977         estimate D2E/DX2                !
 ! D57   D(40,12,13,14)        179.677          estimate D2E/DX2                !
 ! D58   D(40,12,13,18)         -0.4496         estimate D2E/DX2                !
 ! D59   D(11,12,40,17)          0.2217         estimate D2E/DX2                !
 ! D60   D(11,12,40,76)        179.5568         estimate D2E/DX2                !
 ! D61   D(13,12,40,17)       -179.3889         estimate D2E/DX2                !
 ! D62   D(13,12,40,76)         -0.0537         estimate D2E/DX2                !
 ! D63   D(12,13,14,15)         -0.0187         estimate D2E/DX2                !
 ! D64   D(12,13,14,19)        179.9636         estimate D2E/DX2                !
 ! D65   D(18,13,14,15)       -179.892          estimate D2E/DX2                !
 ! D66   D(18,13,14,19)          0.0902         estimate D2E/DX2                !
 ! D67   D(13,14,15,16)          0.1355         estimate D2E/DX2                !
 ! D68   D(13,14,15,20)        179.8991         estimate D2E/DX2                !
 ! D69   D(19,14,15,16)       -179.8468         estimate D2E/DX2                !
 ! D70   D(19,14,15,20)         -0.0833         estimate D2E/DX2                !
 ! D71   D(14,15,16,7)         179.4978         estimate D2E/DX2                !
 ! D72   D(14,15,16,11)         -0.341          estimate D2E/DX2                !
 ! D73   D(20,15,16,7)          -0.2685         estimate D2E/DX2                !
 ! D74   D(20,15,16,11)        179.8927         estimate D2E/DX2                !
 ! D75   D(39,17,23,22)        179.3097         estimate D2E/DX2                !
 ! D76   D(39,17,23,24)         -0.6004         estimate D2E/DX2                !
 ! D77   D(40,17,23,22)         -0.08           estimate D2E/DX2                !
 ! D78   D(40,17,23,24)       -179.9901         estimate D2E/DX2                !
 ! D79   D(23,17,39,11)       -179.3171         estimate D2E/DX2                !
 ! D80   D(40,17,39,11)          0.1287         estimate D2E/DX2                !
 ! D81   D(23,17,40,12)        179.2363         estimate D2E/DX2                !
 ! D82   D(23,17,40,76)         -0.1781         estimate D2E/DX2                !
 ! D83   D(39,17,40,12)         -0.2295         estimate D2E/DX2                !
 ! D84   D(39,17,40,76)       -179.644          estimate D2E/DX2                !
 ! D85   D(27,22,23,17)       -179.482          estimate D2E/DX2                !
 ! D86   D(27,22,23,24)          0.4286         estimate D2E/DX2                !
 ! D87   D(38,22,23,17)          0.5864         estimate D2E/DX2                !
 ! D88   D(38,22,23,24)       -179.503          estimate D2E/DX2                !
 ! D89   D(23,22,27,26)         -0.2585         estimate D2E/DX2                !
 ! D90   D(23,22,27,34)       -179.9377         estimate D2E/DX2                !
 ! D91   D(38,22,27,26)        179.6749         estimate D2E/DX2                !
 ! D92   D(38,22,27,34)         -0.0043         estimate D2E/DX2                !
 ! D93   D(17,23,24,25)        179.317          estimate D2E/DX2                !
 ! D94   D(17,23,24,28)         -0.4765         estimate D2E/DX2                !
 ! D95   D(22,23,24,25)         -0.5936         estimate D2E/DX2                !
 ! D96   D(22,23,24,28)        179.6129         estimate D2E/DX2                !
 ! D97   D(23,24,25,26)          0.5701         estimate D2E/DX2                !
 ! D98   D(23,24,25,30)       -178.1219         estimate D2E/DX2                !
 ! D99   D(28,24,25,26)       -179.638          estimate D2E/DX2                !
 ! D100  D(28,24,25,30)          1.67           estimate D2E/DX2                !
 ! D101  D(24,25,26,27)         -0.3945         estimate D2E/DX2                !
 ! D102  D(24,25,26,29)        179.5278         estimate D2E/DX2                !
 ! D103  D(30,25,26,27)        178.3077         estimate D2E/DX2                !
 ! D104  D(30,25,26,29)         -1.77           estimate D2E/DX2                !
 ! D105  D(24,25,30,31)        -22.4861         estimate D2E/DX2                !
 ! D106  D(24,25,30,32)         96.9137         estimate D2E/DX2                !
 ! D107  D(24,25,30,33)       -144.6288         estimate D2E/DX2                !
 ! D108  D(26,25,30,31)        158.8305         estimate D2E/DX2                !
 ! D109  D(26,25,30,32)        -81.7697         estimate D2E/DX2                !
 ! D110  D(26,25,30,33)         36.6877         estimate D2E/DX2                !
 ! D111  D(25,26,27,22)          0.2482         estimate D2E/DX2                !
 ! D112  D(25,26,27,34)        179.9099         estimate D2E/DX2                !
 ! D113  D(29,26,27,22)       -179.6735         estimate D2E/DX2                !
 ! D114  D(29,26,27,34)         -0.0117         estimate D2E/DX2                !
 ! D115  D(22,27,34,35)        -61.1614         estimate D2E/DX2                !
 ! D116  D(22,27,34,36)         56.6754         estimate D2E/DX2                !
 ! D117  D(22,27,34,37)        177.7607         estimate D2E/DX2                !
 ! D118  D(26,27,34,35)        119.171          estimate D2E/DX2                !
 ! D119  D(26,27,34,36)       -122.9921         estimate D2E/DX2                !
 ! D120  D(26,27,34,37)         -1.9069         estimate D2E/DX2                !
 ! D121  D(6,42,43,49)         179.4212         estimate D2E/DX2                !
 ! D122  D(6,42,43,74)          -1.6262         estimate D2E/DX2                !
 ! D123  D(44,42,43,49)         -0.1007         estimate D2E/DX2                !
 ! D124  D(44,42,43,74)        178.852          estimate D2E/DX2                !
 ! D125  D(6,42,44,50)        -179.4238         estimate D2E/DX2                !
 ! D126  D(6,42,44,77)           2.4061         estimate D2E/DX2                !
 ! D127  D(43,42,44,50)          0.0632         estimate D2E/DX2                !
 ! D128  D(43,42,44,77)       -178.1069         estimate D2E/DX2                !
 ! D129  D(42,43,49,48)        179.9585         estimate D2E/DX2                !
 ! D130  D(42,43,49,50)          0.0971         estimate D2E/DX2                !
 ! D131  D(74,43,49,48)          1.1402         estimate D2E/DX2                !
 ! D132  D(74,43,49,50)       -178.7212         estimate D2E/DX2                !
 ! D133  D(42,44,50,45)       -179.244          estimate D2E/DX2                !
 ! D134  D(42,44,50,49)         -0.0029         estimate D2E/DX2                !
 ! D135  D(77,44,50,45)         -0.8485         estimate D2E/DX2                !
 ! D136  D(77,44,50,49)        178.3927         estimate D2E/DX2                !
 ! D137  D(50,45,46,47)         -0.6817         estimate D2E/DX2                !
 ! D138  D(50,45,46,51)       -179.9766         estimate D2E/DX2                !
 ! D139  D(54,45,46,47)        177.4119         estimate D2E/DX2                !
 ! D140  D(54,45,46,51)         -1.883          estimate D2E/DX2                !
 ! D141  D(46,45,50,44)       -179.9774         estimate D2E/DX2                !
 ! D142  D(46,45,50,49)          0.8847         estimate D2E/DX2                !
 ! D143  D(54,45,50,44)          1.8959         estimate D2E/DX2                !
 ! D144  D(54,45,50,49)       -177.2419         estimate D2E/DX2                !
 ! D145  D(46,45,54,55)          2.5063         estimate D2E/DX2                !
 ! D146  D(46,45,54,56)       -176.1105         estimate D2E/DX2                !
 ! D147  D(50,45,54,55)       -179.508          estimate D2E/DX2                !
 ! D148  D(50,45,54,56)          1.8752         estimate D2E/DX2                !
 ! D149  D(45,46,47,48)          0.221          estimate D2E/DX2                !
 ! D150  D(45,46,47,52)       -179.7497         estimate D2E/DX2                !
 ! D151  D(51,46,47,48)        179.5113         estimate D2E/DX2                !
 ! D152  D(51,46,47,52)         -0.4594         estimate D2E/DX2                !
 ! D153  D(46,47,48,49)          0.0851         estimate D2E/DX2                !
 ! D154  D(46,47,48,53)       -179.7126         estimate D2E/DX2                !
 ! D155  D(52,47,48,49)       -179.9442         estimate D2E/DX2                !
 ! D156  D(52,47,48,53)          0.2582         estimate D2E/DX2                !
 ! D157  D(47,48,49,43)       -179.735          estimate D2E/DX2                !
 ! D158  D(47,48,49,50)          0.1089         estimate D2E/DX2                !
 ! D159  D(53,48,49,43)          0.0635         estimate D2E/DX2                !
 ! D160  D(53,48,49,50)        179.9073         estimate D2E/DX2                !
 ! D161  D(43,49,50,44)         -0.0563         estimate D2E/DX2                !
 ! D162  D(43,49,50,45)        179.2552         estimate D2E/DX2                !
 ! D163  D(48,49,50,44)       -179.9379         estimate D2E/DX2                !
 ! D164  D(48,49,50,45)         -0.6264         estimate D2E/DX2                !
 ! D165  D(45,54,56,57)        178.0096         estimate D2E/DX2                !
 ! D166  D(55,54,56,57)         -0.497          estimate D2E/DX2                !
 ! D167  D(54,56,57,58)         -0.832          estimate D2E/DX2                !
 ! D168  D(54,56,57,59)        125.5969         estimate D2E/DX2                !
 ! D169  D(54,56,57,60)       -120.3738         estimate D2E/DX2                !
 ! D170  D(56,57,58,61)       -178.4208         estimate D2E/DX2                !
 ! D171  D(56,57,58,62)         60.9888         estimate D2E/DX2                !
 ! D172  D(56,57,58,63)        -56.2484         estimate D2E/DX2                !
 ! D173  D(59,57,58,61)         56.2556         estimate D2E/DX2                !
 ! D174  D(59,57,58,62)        -64.3348         estimate D2E/DX2                !
 ! D175  D(59,57,58,63)        178.4281         estimate D2E/DX2                !
 ! D176  D(60,57,58,61)        -60.3604         estimate D2E/DX2                !
 ! D177  D(60,57,58,62)        179.0492         estimate D2E/DX2                !
 ! D178  D(60,57,58,63)         61.812          estimate D2E/DX2                !
 ! D179  D(56,57,59,64)        174.0883         estimate D2E/DX2                !
 ! D180  D(56,57,59,65)        -65.0616         estimate D2E/DX2                !
 ! D181  D(56,57,59,66)         51.4246         estimate D2E/DX2                !
 ! D182  D(58,57,59,64)        -55.9918         estimate D2E/DX2                !
 ! D183  D(58,57,59,65)         64.8583         estimate D2E/DX2                !
 ! D184  D(58,57,59,66)       -178.6556         estimate D2E/DX2                !
 ! D185  D(60,57,59,64)         61.229          estimate D2E/DX2                !
 ! D186  D(60,57,59,65)       -177.9209         estimate D2E/DX2                !
 ! D187  D(60,57,59,66)        -61.4348         estimate D2E/DX2                !
 ! D188  D(57,58,61,67)        -56.0044         estimate D2E/DX2                !
 ! D189  D(57,58,61,68)       -178.7223         estimate D2E/DX2                !
 ! D190  D(57,58,61,69)         64.7117         estimate D2E/DX2                !
 ! D191  D(62,58,61,67)         64.4321         estimate D2E/DX2                !
 ! D192  D(62,58,61,68)        -58.2858         estimate D2E/DX2                !
 ! D193  D(62,58,61,69)       -174.8518         estimate D2E/DX2                !
 ! D194  D(63,58,61,67)       -178.2206         estimate D2E/DX2                !
 ! D195  D(63,58,61,68)         59.0615         estimate D2E/DX2                !
 ! D196  D(63,58,61,69)        -57.5045         estimate D2E/DX2                !
 ! D197  D(57,59,64,67)         55.2299         estimate D2E/DX2                !
 ! D198  D(57,59,64,70)        178.0522         estimate D2E/DX2                !
 ! D199  D(57,59,64,71)        -65.221          estimate D2E/DX2                !
 ! D200  D(65,59,64,67)        -64.6945         estimate D2E/DX2                !
 ! D201  D(65,59,64,70)         58.1278         estimate D2E/DX2                !
 ! D202  D(65,59,64,71)        174.8547         estimate D2E/DX2                !
 ! D203  D(66,59,64,67)        176.9386         estimate D2E/DX2                !
 ! D204  D(66,59,64,70)        -60.2391         estimate D2E/DX2                !
 ! D205  D(66,59,64,71)         56.4877         estimate D2E/DX2                !
 ! D206  D(58,61,67,64)         54.9892         estimate D2E/DX2                !
 ! D207  D(58,61,67,72)        177.3084         estimate D2E/DX2                !
 ! D208  D(58,61,67,73)        -65.5378         estimate D2E/DX2                !
 ! D209  D(68,61,67,64)        177.2825         estimate D2E/DX2                !
 ! D210  D(68,61,67,72)        -60.3982         estimate D2E/DX2                !
 ! D211  D(68,61,67,73)         56.7555         estimate D2E/DX2                !
 ! D212  D(69,61,67,64)        -65.7423         estimate D2E/DX2                !
 ! D213  D(69,61,67,72)         56.5769         estimate D2E/DX2                !
 ! D214  D(69,61,67,73)        173.7307         estimate D2E/DX2                !
 ! D215  D(59,64,67,61)        -54.5797         estimate D2E/DX2                !
 ! D216  D(59,64,67,72)       -176.9017         estimate D2E/DX2                !
 ! D217  D(59,64,67,73)         65.8574         estimate D2E/DX2                !
 ! D218  D(70,64,67,61)       -177.147          estimate D2E/DX2                !
 ! D219  D(70,64,67,72)         60.5309         estimate D2E/DX2                !
 ! D220  D(70,64,67,73)        -56.7099         estimate D2E/DX2                !
 ! D221  D(71,64,67,61)         65.8351         estimate D2E/DX2                !
 ! D222  D(71,64,67,72)        -56.487          estimate D2E/DX2                !
 ! D223  D(71,64,67,73)       -173.7278         estimate D2E/DX2                !
 --------------------------------------------------------------------------------
 Trust Radius=3.00D-01 FncErr=5.00D-06 GrdErr=5.00D-06 EigMax=2.50D+02 EigMin=1.00D-04
 Number of steps in this run=    462 maximum allowed number of steps=    462.
 GradGradGradGradGradGradGradGradGradGradGradGradGradGradGradGradGradGrad

 Leave Link  103 at Sun Dec 16 10:39:58 2018, MaxMem=  1342177280 cpu:               0.4 elap:               0.0
 (Enter /gpfs/apps/hpc/Apps/Restricted/Gaussian/Rev_A.03/g16/l202.exe)
 Symmetry turned off by external request.
 Stoichiometry    C36H33N7O(1+,2)
 Framework group  C1[X(C36H33N7O)]
 Deg. of freedom   225
 Full point group                 C1      NOp   1
                          Input orientation:                          
 ---------------------------------------------------------------------
 Center     Atomic      Atomic             Coordinates (Angstroms)
 Number     Number       Type             X           Y           Z
 ---------------------------------------------------------------------
      1          6           0        1.624017    0.478545    0.981630
      2          6           0        0.544991    1.349658    0.691242
      3          6           0        0.714797    2.725090    0.566296
      4          6           0        2.007759    3.225137    0.741477
      5          6           0        3.091594    2.388480    1.033229
      6          6           0        2.924428    1.001378    1.158463
      7          6           0       -0.128890   -0.762641    0.813547
      8          1           0       -0.116453    3.381111    0.342175
      9          1           0        2.178723    4.290495    0.648734
     10          1           0        4.073768    2.826985    1.156996
     11          6           0       -2.426689   -1.692709    0.532765
     12          6           0       -3.306152   -2.807732    0.532808
     13          6           0       -2.868586   -4.109411    0.776163
     14          6           0       -1.508222   -4.275988    1.026803
     15          6           0       -0.616830   -3.190179    1.034833
     16          6           0       -1.050043   -1.883382    0.794003
     17          6           0       -4.393053   -0.924578    0.087676
     18          1           0       -3.553139   -4.948279    0.772427
     19          1           0       -1.122382   -5.269318    1.221863
     20          1           0        0.433731   -3.358446    1.235266
     21          7           0       -0.550924    0.520323    0.594311
     22          6           0       -6.852517   -0.611112   -0.408805
     23          6           0       -5.504948   -0.054092   -0.238033
     24          6           0       -5.301407    1.309199   -0.391896
     25          6           0       -6.354702    2.176298   -0.721029
     26          6           0       -7.661307    1.649282   -0.888986
     27          6           0       -7.933851    0.311140   -0.748068
     28          1           0       -4.302713    1.707123   -0.256662
     29          1           0       -8.467441    2.332879   -1.135793
     30          6           0       -6.106491    3.639414   -0.923750
     31          1           0       -5.194305    3.960423   -0.419004
     32          1           0       -5.991696    3.856162   -1.992506
     33          1           0       -6.948241    4.234851   -0.563587
     34          6           0       -9.305409   -0.260191   -0.919750
     35          1           0       -9.323558   -0.988535   -1.736323
     36          1           0       -9.615587   -0.797326   -0.018923
     37          1           0      -10.029142    0.526759   -1.131101
     38          8           0       -7.096055   -1.838950   -0.271883
     39          7           0       -3.121597   -0.537768    0.254624
     40          7           0       -4.539160   -2.275668    0.250143
     41          7           0        1.184600   -0.824824    1.048781
     42          6           0        4.006420    0.096558    1.455407
     43          7           0        3.854748   -1.243430    1.522042
     44          7           0        5.302561    0.379562    1.699256
     45          6           0        7.345401   -1.005270    2.229319
     46          6           0        7.725901   -2.340030    2.397302
     47          6           0        6.803366   -3.395308    2.280900
     48          6           0        5.459568   -3.172896    1.987418
     49          6           0        5.070607   -1.844432    1.811543
     50          6           0        5.994200   -0.794961    1.924435
     51          1           0        8.760265   -2.561037    2.634957
     52          1           0        7.148869   -4.411430    2.424390
     53          1           0        4.750851   -3.986154    1.902893
     54          6           0        8.272286    0.115158    2.398905
     55          1           0        9.305591   -0.154800    2.626818
     56          7           0        7.862721    1.324603    2.307518
     57          6           0        8.787674    2.438311    2.521449
     58          6           0       10.235984    2.082999    2.872637
     59          6           0        8.733113    3.364648    1.295262
     60          1           0        8.365363    3.002302    3.365700
     61          6           0       11.068780    3.349090    3.103816
     62          1           0       10.673818    1.503941    2.050361
     63          1           0       10.263572    1.446740    3.762587
     64          6           0        9.570677    4.628042    1.519213
     65          1           0        9.115163    2.812144    0.428019
     66          1           0        7.690599    3.620424    1.082810
     67          6           0       11.017305    4.285945    1.892361
     68          1           0       12.103291    3.073957    3.330575
     69          1           0       10.683430    3.878081    3.984477
     70          1           0        9.546240    5.255661    0.623577
     71          1           0        9.121247    5.214989    2.329778
     72          1           0       11.579166    5.201769    2.100338
     73          1           0       11.504872    3.797224    1.039695
     74          1           0        2.930001   -1.663471    1.382138
     75          1           0       -1.524685    0.746490    0.396780
     76          1           0       -5.448362   -2.718867    0.148370
     77          1           0        5.785903    1.274805    1.758842
 ---------------------------------------------------------------------
 Rotational constants (GHZ):           0.1708400           0.0235166           0.0207370
 Leave Link  202 at Sun Dec 16 10:39:58 2018, MaxMem=  1342177280 cpu:               0.9 elap:               0.1
 (Enter /gpfs/apps/hpc/Apps/Restricted/Gaussian/Rev_A.03/g16/l301.exe)
 Standard basis: 6-31G(d,p) (6D, 7F)
 Ernie: Thresh=  0.10000D-02 Tol=  0.10000D-05 Strict=F.
   825 basis functions,  1463 primitive gaussians,   825 cartesian basis functions
   153 alpha electrons      152 beta electrons
       nuclear repulsion energy      4602.2406686316 Hartrees.
 IExCor=  402 DFT=T Ex+Corr=B3LYP ExCW=0 ScaHFX=  0.200000
 ScaDFX=  0.800000  0.720000  1.000000  0.810000 ScalE2=  1.000000  1.000000
 IRadAn=      5 IRanWt=     -1 IRanGd=            0 ICorTp=0 IEmpDi=141
 NAtoms=   77 NActive=   77 NUniq=   77 SFac= 1.00D+00 NAtFMM=   60 NAOKFM=T Big=T
 Integral buffers will be    131072 words long.
 Raffenetti 2 integral format.
 Two-electron integral symmetry is turned off.
 R6Disp:  Grimme-D3(BJ) Dispersion energy=       -0.1792137144 Hartrees.
 Nuclear repulsion after empirical dispersion term =     4602.0614549172 Hartrees.
 Using the following non-standard input for PCM:
 radii=bondi
 dis
 rep
 cav
 --- end of non-standard input.
 ------------------------------------------------------------------------------
 Polarizable Continuum Model (PCM)
 =================================
 Model                : C-PCM.
 Atomic radii         : Bondi.
 Polarization charges : Total charges.
 Charge compensation  : None.
 Solution method      : On-the-fly selection.
 Cavity type          : Scaled VdW (van der Waals Surface) (Alpha=1.100).
 Cavity algorithm     : GePol (No added spheres)
                        Default sphere list used, NSphG=   77.
                        Lebedev-Laikov grids with approx.  5.0 points / Ang**2.
                        Smoothing algorithm: York/Karplus (Gamma=1.0000).
                        Polarization charges: spherical gaussians, with
                                              point-specific exponents (IZeta= 3).
                        Self-potential: point-specific (ISelfS= 7).
                        Self-field    : sphere-specific E.n sum rule (ISelfD= 2).
 1st derivatives      : Analytical E(r).r(x)/FMM algorithm (CHGder, D1EAlg=3).
                        Cavity 1st derivative terms included.
 Solvent              : Dichloromethane, Eps=   8.930000 Eps(inf)=   2.028346
 ------------------------------------------------------------------------------
 GePol: Number of generator spheres                  =      77
 GePol: Total number of spheres                      =      77
 GePol: Number of exposed spheres                    =      77 (100.00%)
 GePol: Number of points                             =    5379
 GePol: Average weight of points                     =       0.12
 GePol: Minimum weight of points                     =   0.17D-11
 GePol: Maximum weight of points                     =    0.21770
 GePol: Number of points with low weight             =     384
 GePol: Fraction of low-weight points (<1% of avg)   =       7.14%
 GePol: Cavity surface area                          =    625.284 Ang**2
 GePol: Cavity volume                                =    608.758 Ang**3
 PCM non-electrostatic energy =         0.0213389974 Hartrees.
 Nuclear repulsion after PCM non-electrostatic terms =     4602.0827939146 Hartrees.
 Leave Link  301 at Sun Dec 16 10:39:59 2018, MaxMem=  1342177280 cpu:               4.7 elap:               0.3
 (Enter /gpfs/apps/hpc/Apps/Restricted/Gaussian/Rev_A.03/g16/l302.exe)
 NPDir=0 NMtPBC=     1 NCelOv=     1 NCel=       1 NClECP=     1 NCelD=      1
         NCelK=      1 NCelE2=     1 NClLst=     1 CellRange=     0.0.
 One-electron integrals computed using PRISM.
 NBasis=   825 RedAO= T EigKep=  2.85D-04  NBF=   825
 NBsUse=   825 1.00D-06 EigRej= -1.00D+00 NBFU=   825
 Precomputing XC quadrature grid using
 IXCGrd= 4 IRadAn=           5 IRanWt=          -1 IRanGd=           0 AccXCQ= 0.00D+00.
 Generated NRdTot=       0 NPtTot=           0 NUsed=           0 NTot=          32
 NSgBfM=   717   716   716   717   717 MxSgAt=    77 MxSgA2=    77.
 Leave Link  302 at Sun Dec 16 10:40:00 2018, MaxMem=  1342177280 cpu:              29.2 elap:               1.9
 (Enter /gpfs/apps/hpc/Apps/Restricted/Gaussian/Rev_A.03/g16/l303.exe)
 DipDrv:  MaxL=1.
 Leave Link  303 at Sun Dec 16 10:40:01 2018, MaxMem=  1342177280 cpu:               1.5 elap:               0.3
 (Enter /gpfs/apps/hpc/Apps/Restricted/Gaussian/Rev_A.03/g16/l401.exe)
 ExpMin= 1.61D-01 ExpMax= 5.48D+03 ExpMxC= 8.25D+02 IAcc=3 IRadAn=         5 AccDes= 0.00D+00
 Harris functional with IExCor=  402 and IRadAn=       5 diagonalized for initial guess.
 HarFok:  IExCor=  402 AccDes= 0.00D+00 IRadAn=         5 IDoV= 1 UseB2=F ITyADJ=14
 ICtDFT=  3500011 ScaDFX=  1.000000  1.000000  1.000000  1.000000
 FoFCou: FMM=F IPFlag=           0 FMFlag=      100000 FMFlg1=        2001
         NFxFlg=           0 DoJE=T BraDBF=F KetDBF=T FulRan=T
         wScrn=  0.000000 ICntrl=       500 IOpCl=  0 I1Cent=   200000004 NGrid=           0
         NMat0=    1 NMatS0=      1 NMatT0=    0 NMatD0=    1 NMtDS0=    0 NMtDT0=    0
 Symmetry not used in FoFCou.
 Harris En= -1850.19414198429    
 JPrj=0 DoOrth=F DoCkMO=F.
 Initial guess <Sx>= 0.0000 <Sy>= 0.0000 <Sz>= 0.5000 <S**2>= 0.7500 S= 0.5000
 Leave Link  401 at Sun Dec 16 10:40:06 2018, MaxMem=  1342177280 cpu:              90.5 elap:               5.7
 (Enter /gpfs/apps/hpc/Apps/Restricted/Gaussian/Rev_A.03/g16/l502.exe)
 Two-electron integral symmetry not used.
 UHF open shell SCF:
 Using DIIS extrapolation, IDIIS=  1040.
 NGot=  1342177280 LenX=  1340796146 LenY=  1340114696
 Requested convergence on RMS density matrix=1.00D-08 within 128 cycles.
 Requested convergence on MAX density matrix=1.00D-06.
 Requested convergence on             energy=1.00D-06.
 No special actions if energy rises.
 Fock matrices will be formed incrementally for  20 cycles.

 Cycle   1  Pass 1  IDiag  1:
 FoFJK:  IHMeth= 1 ICntrl=       0 DoSepK=F KAlg= 0 I1Cent=           0 FoldK=F
 IRaf= 590000000 NMat=       1 IRICut=       1 DoRegI=T DoRafI=F ISym2E= 0 IDoP0=0 IntGTp=1.
 FoFCou: FMM=T IPFlag=           0 FMFlag=      100000 FMFlg1=        2001
         NFxFlg=           0 DoJE=F BraDBF=F KetDBF=F FulRan=T
         wScrn=  0.000000 ICntrl=         0 IOpCl=  1 I1Cent=           0 NGrid=           0
         NMat0=    1 NMatS0=      1 NMatT0=    0 NMatD0=    1 NMtDS0=    0 NMtDT0=    0
 Symmetry not used in FoFCou.
 FMM levels:  10  Number of levels for PrismC:   9
 Inv3:  Mode=1 IEnd=    86800923.
 Iteration    1 A*A^-1 deviation from unit magnitude is 2.31D-14 for   1670.
 Iteration    1 A*A^-1 deviation from orthogonality  is 6.40D-15 for   5365   2039.
 Iteration    1 A^-1*A deviation from unit magnitude is 2.31D-14 for   1670.
 Iteration    1 A^-1*A deviation from orthogonality  is 5.06D-15 for   5366   2040.
 E= -1849.52282740425    
 DIIS: error= 2.54D-02 at cycle   1 NSaved=   1.
 NSaved= 1 IEnMin= 1 EnMin= -1849.52282740425     IErMin= 1 ErrMin= 2.54D-02
 ErrMax= 2.54D-02  0.00D+00 EMaxC= 1.00D-01 BMatC= 3.34D+00 BMatP= 3.34D+00
 IDIUse=3 WtCom= 7.46D-01 WtEn= 2.54D-01
 Coeff-Com:  0.100D+01
 Coeff-En:   0.100D+01
 Coeff:      0.100D+01
 Gap=     0.108 Goal=   None    Shift=    0.000
 Gap=     0.076 Goal=   None    Shift=    0.000
 GapD=    0.076 DampG=0.500 DampE=0.500 DampFc=0.2500 IDamp=-1.
 Damping current iteration by 2.50D-01
 RMSDP=2.78D-03 MaxDP=1.89D-01              OVMax= 2.77D-01

 Cycle   2  Pass 1  IDiag  1:
 RMSU=  6.72D-04    CP:  9.84D-01
 E= -1849.82809843406     Delta-E=       -0.305271029805 Rises=F Damp=T
 DIIS: error= 1.42D-02 at cycle   2 NSaved=   2.
 NSaved= 2 IEnMin= 2 EnMin= -1849.82809843406     IErMin= 2 ErrMin= 1.42D-02
 ErrMax= 1.42D-02  0.00D+00 EMaxC= 1.00D-01 BMatC= 9.33D-01 BMatP= 3.34D+00
 IDIUse=3 WtCom= 8.58D-01 WtEn= 1.42D-01
 Coeff-Com: -0.853D+00 0.185D+01
 Coeff-En:   0.000D+00 0.100D+01
 Coeff:     -0.732D+00 0.173D+01
 Gap=     0.146 Goal=   None    Shift=    0.000
 Gap=     0.129 Goal=   None    Shift=    0.000
 RMSDP=1.17D-03 MaxDP=8.18D-02 DE=-3.05D-01 OVMax= 1.78D-01

 Cycle   3  Pass 1  IDiag  1:
 RMSU=  8.17D-04    CP:  9.48D-01  2.09D+00
 E= -1850.33895779879     Delta-E=       -0.510859364731 Rises=F Damp=F
 DIIS: error= 8.60D-03 at cycle   3 NSaved=   3.
 NSaved= 3 IEnMin= 3 EnMin= -1850.33895779879     IErMin= 3 ErrMin= 8.60D-03
 ErrMax= 8.60D-03  0.00D+00 EMaxC= 1.00D-01 BMatC= 1.82D-01 BMatP= 9.33D-01
 IDIUse=3 WtCom= 9.14D-01 WtEn= 8.60D-02
 Coeff-Com: -0.413D+00 0.837D+00 0.575D+00
 Coeff-En:   0.000D+00 0.000D+00 0.100D+01
 Coeff:     -0.377D+00 0.765D+00 0.612D+00
 Gap=     0.120 Goal=   None    Shift=    0.000
 Gap=     0.073 Goal=   None    Shift=    0.000
 RMSDP=4.30D-04 MaxDP=7.02D-02 DE=-5.11D-01 OVMax= 8.34D-02

 Cycle   4  Pass 1  IDiag  1:
 RMSU=  3.29D-04    CP:  9.52D-01  2.16D+00  6.72D-01
 E= -1850.36943978582     Delta-E=       -0.030481987028 Rises=F Damp=F
 DIIS: error= 7.07D-03 at cycle   4 NSaved=   4.
 NSaved= 4 IEnMin= 4 EnMin= -1850.36943978582     IErMin= 4 ErrMin= 7.07D-03
 ErrMax= 7.07D-03  0.00D+00 EMaxC= 1.00D-01 BMatC= 6.60D-02 BMatP= 1.82D-01
 IDIUse=3 WtCom= 9.29D-01 WtEn= 7.07D-02
 Coeff-Com: -0.899D-01 0.185D+00 0.379D+00 0.526D+00
 Coeff-En:   0.000D+00 0.000D+00 0.256D+00 0.744D+00
 Coeff:     -0.836D-01 0.172D+00 0.370D+00 0.542D+00
 Gap=     0.122 Goal=   None    Shift=    0.000
 Gap=     0.072 Goal=   None    Shift=    0.000
 RMSDP=2.00D-04 MaxDP=3.43D-02 DE=-3.05D-02 OVMax= 3.35D-02

 Cycle   5  Pass 1  IDiag  1:
 RMSU=  1.14D-04    CP:  9.51D-01  2.11D+00  7.75D-01  5.82D-01
 E= -1850.38214401934     Delta-E=       -0.012704233523 Rises=F Damp=F
 DIIS: error= 1.71D-03 at cycle   5 NSaved=   5.
 NSaved= 5 IEnMin= 5 EnMin= -1850.38214401934     IErMin= 5 ErrMin= 1.71D-03
 ErrMax= 1.71D-03  0.00D+00 EMaxC= 1.00D-01 BMatC= 6.39D-03 BMatP= 6.60D-02
 IDIUse=3 WtCom= 9.83D-01 WtEn= 1.71D-02
 Coeff-Com: -0.821D-02 0.180D-01 0.163D+00 0.321D+00 0.506D+00
 Coeff-En:   0.000D+00 0.000D+00 0.000D+00 0.185D-02 0.998D+00
 Coeff:     -0.807D-02 0.177D-01 0.160D+00 0.316D+00 0.515D+00
 Gap=     0.121 Goal=   None    Shift=    0.000
 Gap=     0.074 Goal=   None    Shift=    0.000
 RMSDP=6.41D-05 MaxDP=1.31D-02 DE=-1.27D-02 OVMax= 1.66D-02

 Cycle   6  Pass 1  IDiag  1:
 RMSU=  3.87D-05    CP:  9.51D-01  2.12D+00  7.83D-01  6.44D-01  5.95D-01
 E= -1850.38355288956     Delta-E=       -0.001408870226 Rises=F Damp=F
 DIIS: error= 5.51D-04 at cycle   6 NSaved=   6.
 NSaved= 6 IEnMin= 6 EnMin= -1850.38355288956     IErMin= 6 ErrMin= 5.51D-04
 ErrMax= 5.51D-04  0.00D+00 EMaxC= 1.00D-01 BMatC= 5.54D-04 BMatP= 6.39D-03
 IDIUse=3 WtCom= 9.94D-01 WtEn= 5.51D-03
 Coeff-Com:  0.327D-02-0.589D-02 0.506D-01 0.111D+00 0.281D+00 0.560D+00
 Coeff-En:   0.000D+00 0.000D+00 0.000D+00 0.000D+00 0.000D+00 0.100D+01
 Coeff:      0.326D-02-0.586D-02 0.503D-01 0.111D+00 0.279D+00 0.562D+00
 Gap=     0.122 Goal=   None    Shift=    0.000
 Gap=     0.075 Goal=   None    Shift=    0.000
 RMSDP=1.93D-05 MaxDP=3.12D-03 DE=-1.41D-03 OVMax= 6.19D-03

 Cycle   7  Pass 1  IDiag  1:
 RMSU=  1.56D-05    CP:  9.51D-01  2.12D+00  7.85D-01  6.45D-01  6.89D-01
                    CP:  9.20D-01
 E= -1850.38371646702     Delta-E=       -0.000163577451 Rises=F Damp=F
 DIIS: error= 2.06D-04 at cycle   7 NSaved=   7.
 NSaved= 7 IEnMin= 7 EnMin= -1850.38371646702     IErMin= 7 ErrMin= 2.06D-04
 ErrMax= 2.06D-04  0.00D+00 EMaxC= 1.00D-01 BMatC= 7.07D-05 BMatP= 5.54D-04
 IDIUse=3 WtCom= 9.98D-01 WtEn= 2.06D-03
 Coeff-Com:  0.308D-02-0.600D-02-0.113D-01-0.242D-01 0.190D-01 0.220D+00
 Coeff-Com:  0.800D+00
 Coeff-En:   0.000D+00 0.000D+00 0.000D+00 0.000D+00 0.000D+00 0.000D+00
 Coeff-En:   0.100D+01
 Coeff:      0.307D-02-0.599D-02-0.113D-01-0.242D-01 0.190D-01 0.219D+00
 Coeff:      0.800D+00
 Gap=     0.122 Goal=   None    Shift=    0.000
 Gap=     0.075 Goal=   None    Shift=    0.000
 RMSDP=1.19D-05 MaxDP=2.41D-03 DE=-1.64D-04 OVMax= 6.01D-03

 Cycle   8  Pass 1  IDiag  1:
 RMSU=  7.99D-06    CP:  9.51D-01  2.12D+00  7.87D-01  6.50D-01  7.25D-01
                    CP:  1.11D+00  1.11D+00
 E= -1850.38377044982     Delta-E=       -0.000053982805 Rises=F Damp=F
 DIIS: error= 1.36D-04 at cycle   8 NSaved=   8.
 NSaved= 8 IEnMin= 8 EnMin= -1850.38377044982     IErMin= 8 ErrMin= 1.36D-04
 ErrMax= 1.36D-04  0.00D+00 EMaxC= 1.00D-01 BMatC= 2.36D-05 BMatP= 7.07D-05
 IDIUse=3 WtCom= 9.99D-01 WtEn= 1.36D-03
 Coeff-Com:  0.291D-03-0.315D-03-0.199D-01-0.495D-01-0.848D-01-0.149D+00
 Coeff-Com:  0.285D+00 0.102D+01
 Coeff-En:   0.000D+00 0.000D+00 0.000D+00 0.000D+00 0.000D+00 0.000D+00
 Coeff-En:   0.000D+00 0.100D+01
 Coeff:      0.290D-03-0.315D-03-0.198D-01-0.494D-01-0.847D-01-0.149D+00
 Coeff:      0.284D+00 0.102D+01
 Gap=     0.123 Goal=   None    Shift=    0.000
 Gap=     0.076 Goal=   None    Shift=    0.000
 RMSDP=1.08D-05 MaxDP=1.67D-03 DE=-5.40D-05 OVMax= 5.44D-03

 Cycle   9  Pass 1  IDiag  1:
 RMSU=  4.22D-06    CP:  9.51D-01  2.12D+00  7.88D-01  6.50D-01  7.60D-01
                    CP:  1.25D+00  1.53D+00  1.35D+00
 E= -1850.38379312109     Delta-E=       -0.000022671268 Rises=F Damp=F
 DIIS: error= 4.83D-05 at cycle   9 NSaved=   9.
 NSaved= 9 IEnMin= 9 EnMin= -1850.38379312109     IErMin= 9 ErrMin= 4.83D-05
 ErrMax= 4.83D-05  0.00D+00 EMaxC= 1.00D-01 BMatC= 8.26D-06 BMatP= 2.36D-05
 IDIUse=1 WtCom= 1.00D+00 WtEn= 0.00D+00
 Coeff-Com: -0.195D-03 0.652D-03-0.938D-02-0.251D-01-0.525D-01-0.138D+00
 Coeff-Com:  0.150D-01 0.603D+00 0.606D+00
 Coeff:     -0.195D-03 0.652D-03-0.938D-02-0.251D-01-0.525D-01-0.138D+00
 Coeff:      0.150D-01 0.603D+00 0.606D+00
 Gap=     0.123 Goal=   None    Shift=    0.000
 Gap=     0.076 Goal=   None    Shift=    0.000
 RMSDP=3.87D-06 MaxDP=7.04D-04 DE=-2.27D-05 OVMax= 1.66D-03

 Cycle  10  Pass 1  IDiag  1:
 RMSU=  2.12D-06    CP:  9.51D-01  2.12D+00  7.89D-01  6.50D-01  7.72D-01
                    CP:  1.29D+00  1.63D+00  1.57D+00  8.20D-01
 E= -1850.38379710594     Delta-E=       -0.000003984852 Rises=F Damp=F
 DIIS: error= 2.39D-05 at cycle  10 NSaved=  10.
 NSaved=10 IEnMin=10 EnMin= -1850.38379710594     IErMin=10 ErrMin= 2.39D-05
 ErrMax= 2.39D-05  0.00D+00 EMaxC= 1.00D-01 BMatC= 1.32D-06 BMatP= 8.26D-06
 IDIUse=1 WtCom= 1.00D+00 WtEn= 0.00D+00
 Coeff-Com: -0.572D-04 0.214D-03 0.854D-03 0.110D-02-0.136D-02-0.274D-01
 Coeff-Com: -0.612D-01 0.135D-01 0.292D+00 0.782D+00
 Coeff:     -0.572D-04 0.214D-03 0.854D-03 0.110D-02-0.136D-02-0.274D-01
 Coeff:     -0.612D-01 0.135D-01 0.292D+00 0.782D+00
 Gap=     0.123 Goal=   None    Shift=    0.000
 Gap=     0.076 Goal=   None    Shift=    0.000
 RMSDP=1.78D-06 MaxDP=3.88D-04 DE=-3.98D-06 OVMax= 5.89D-04

 Cycle  11  Pass 1  IDiag  1:
 RMSU=  9.98D-07    CP:  9.51D-01  2.12D+00  7.89D-01  6.50D-01  7.74D-01
                    CP:  1.30D+00  1.68D+00  1.65D+00  1.04D+00  1.02D+00
 E= -1850.38379782156     Delta-E=       -0.000000715615 Rises=F Damp=F
 DIIS: error= 1.21D-05 at cycle  11 NSaved=  11.
 NSaved=11 IEnMin=11 EnMin= -1850.38379782156     IErMin=11 ErrMin= 1.21D-05
 ErrMax= 1.21D-05  0.00D+00 EMaxC= 1.00D-01 BMatC= 3.71D-07 BMatP= 1.32D-06
 IDIUse=1 WtCom= 1.00D+00 WtEn= 0.00D+00
 Coeff-Com: -0.220D-04 0.460D-04 0.234D-02 0.558D-02 0.974D-02 0.118D-01
 Coeff-Com: -0.358D-01-0.111D+00 0.489D-01 0.445D+00 0.623D+00
 Coeff:     -0.220D-04 0.460D-04 0.234D-02 0.558D-02 0.974D-02 0.118D-01
 Coeff:     -0.358D-01-0.111D+00 0.489D-01 0.445D+00 0.623D+00
 Gap=     0.123 Goal=   None    Shift=    0.000
 Gap=     0.076 Goal=   None    Shift=    0.000
 RMSDP=7.01D-07 MaxDP=1.39D-04 DE=-7.16D-07 OVMax= 2.23D-04

 Cycle  12  Pass 1  IDiag  1:
 RMSU=  4.04D-07    CP:  9.51D-01  2.12D+00  7.89D-01  6.50D-01  7.75D-01
                    CP:  1.30D+00  1.69D+00  1.68D+00  1.09D+00  1.21D+00
                    CP:  8.95D-01
 E= -1850.38379798974     Delta-E=       -0.000000168183 Rises=F Damp=F
 DIIS: error= 4.69D-06 at cycle  12 NSaved=  12.
 NSaved=12 IEnMin=12 EnMin= -1850.38379798974     IErMin=12 ErrMin= 4.69D-06
 ErrMax= 4.69D-06  0.00D+00 EMaxC= 1.00D-01 BMatC= 5.35D-08 BMatP= 3.71D-07
 IDIUse=1 WtCom= 1.00D+00 WtEn= 0.00D+00
 Coeff-Com: -0.250D-05-0.331D-04 0.779D-03 0.222D-02 0.463D-02 0.129D-01
 Coeff-Com: -0.669D-04-0.509D-01-0.538D-01-0.157D-01 0.250D+00 0.850D+00
 Coeff:     -0.250D-05-0.331D-04 0.779D-03 0.222D-02 0.463D-02 0.129D-01
 Coeff:     -0.669D-04-0.509D-01-0.538D-01-0.157D-01 0.250D+00 0.850D+00
 Gap=     0.123 Goal=   None    Shift=    0.000
 Gap=     0.076 Goal=   None    Shift=    0.000
 RMSDP=3.79D-07 MaxDP=8.23D-05 DE=-1.68D-07 OVMax= 1.60D-04

 Cycle  13  Pass 1  IDiag  1:
 RMSU=  2.11D-07    CP:  9.51D-01  2.12D+00  7.89D-01  6.50D-01  7.75D-01
                    CP:  1.30D+00  1.69D+00  1.69D+00  1.13D+00  1.30D+00
                    CP:  1.09D+00  1.03D+00
 E= -1850.38379802648     Delta-E=       -0.000000036744 Rises=F Damp=F
 DIIS: error= 2.43D-06 at cycle  13 NSaved=  13.
 NSaved=13 IEnMin=13 EnMin= -1850.38379802648     IErMin=13 ErrMin= 2.43D-06
 ErrMax= 2.43D-06  0.00D+00 EMaxC= 1.00D-01 BMatC= 2.42D-08 BMatP= 5.35D-08
 IDIUse=1 WtCom= 1.00D+00 WtEn= 0.00D+00
 Coeff-Com: -0.441D-05-0.206D-04-0.599D-05 0.241D-03 0.775D-03 0.579D-02
 Coeff-Com:  0.662D-02-0.871D-02-0.428D-01-0.102D+00 0.262D-01 0.519D+00
 Coeff-Com:  0.595D+00
 Coeff:     -0.441D-05-0.206D-04-0.599D-05 0.241D-03 0.775D-03 0.579D-02
 Coeff:      0.662D-02-0.871D-02-0.428D-01-0.102D+00 0.262D-01 0.519D+00
[...]
 0.00000091,0.00000325,0.00000134,0.00000062,-0.00000024,0.00000019,-0.
 00000118,0.00000043,0.00000041,-0.00000053,-0.00000023,-0.00000019,0.0
 0000002,-0.00000039,-0.00000073,-0.00000008,-0.00000079,0.00000075,-0.
 00000070,-0.00000104,0.00000006,-0.00000035,0.00000067,-0.00000056,0.0
 0000031,0.00000080,0.00000086,0.00000050,0.00000013,-0.00000002,-0.000
 00005,-0.00000045,0.00000044,0.00000112,-0.00000030,0.00000011,-0.0000
 0044,-0.00000037,0.00000056,0.00000063,-0.00000002,0.00000038,-0.00000
 042,-0.00000054,-0.00003385,0.00003107,0.00029192,0.07484218,-0.025490
 90,0.03292750,0.00007576,-0.00013861,0.00003710,-0.00004843,0.00007643
 ,-0.00001706,-0.00006068,-0.00015510,0.00000692,0.00018247,0.00001688,
 0.00003176,-0.00003659,0.00017259,-0.00002534,0.00001396,-0.00010861,0
 .00001410,-0.00045709,-0.00036207,-0.00008165,-0.00000676,0.00000467,-
 0.00000218,0.00000803,0.00000868,0.00000025,0.00000979,0.00000425,0.00
 000073,-0.00192789,0.00538798,-0.00160432,-0.01282923,-0.00467797,-0.0
 0051905,0.00229905,-0.00114095,0.00073316,-0.00157644,-0.00098774,-0.0
 0014050,0.00065174,0.00132916,-0.00000873,0.00112311,-0.00077073,0.000
 09026,0.00378805,-0.00812876,0.00267405,-0.00057768,0.00007074,-0.0001
 8676,0.00011404,-0.00005235,0.00000687,0.00004548,-0.00000925,0.000000
 85,0.00030481,0.00018397,0.00005582,0.00479268,0.01016433,-0.00060507,
 0.00050635,-0.00094253,0.00057282,-0.00099611,0.00045466,-0.00020500,0
 .00113372,0.00029603,0.00004941,-0.00018368,-0.00116149,0.00013806,-0.
 00044663,-0.00175231,-0.00000462,-0.00011462,-0.00027632,0.00002068,-0
 .00002890,-0.00029803,0.00005664,-0.00006713,-0.00016948,0.00021976,-0
 .00000405,-0.00007700,-0.00003766,-0.00003960,-0.00008745,-0.00004285,
 -0.00004725,-0.00003137,-0.00004107,-0.00016775,-0.00014876,-0.0000195
 8,-0.00001521,-0.00000018,-0.00006453,-0.00006937,0.00001900,0.0000621
 5,0.00009573,-0.00004264,0.00003084,-0.00530193,-0.01252595,0.00120061
 ,0.00874170,0.00421887,-0.00011499,-0.34532952,-0.15378369,-0.03924368
 ,0.00041327,0.00015932,0.00005875,-0.00013425,0.00007202,-0.00003465,0
 .00002832,-0.00002699,0.00000823,0.00006660,0.00001977,0.00001182,-0.0
 0001426,0.00001389,-0.00000422,-0.00000059,-0.00003411,0.00000208,0.00
 003298,0.00000654,0.00000663,-0.00001176,0.00002194,-0.00000407,0.0000
 0186,-0.00000298,0.00000081,0.00002000,-0.00000439,0.00000470,0.000002
 27,-0.00000085,0.00000060,0.00000116,-0.00000155,0.00000023,-0.0000023
 5,0.00000056,-0.00000050,-0.00001522,-0.00001546,-0.00000233,0.0000035
 3,0.00000014,0.00000083,0.00000950,0.00001313,0.00000081,-0.00000536,-
 0.00000544,-0.00000190,0.00000095,0.00000399,0.00000022,0.00000155,0.0
 0000084,0.00000314,0.00000191,0.00000177,0.00000089,0.00000015,-0.0000
 0214,-0.00000050,-0.00000002,-0.00000024,0.00000026,-0.00000006,-0.000
 00026,-0.00000046,-0.00000091,-0.00000125,-0.00000178,-0.00000018,-0.0
 0000011,-0.00000032,0.00000098,-0.00000091,0.00000030,-0.00000064,0.00
 000058,0.00000067,0.00000157,0.00000056,0.00000035,-0.00000025,0.00000
 045,0.00000014,0.00000051,0.00000119,-0.00000032,0.00000005,0.00000026
 ,0.00000037,0.00000109,0.00000103,0.00000010,0.,-0.00000038,-0.0000002
 0,-0.00007440,0.00001983,-0.00001400,-0.00049111,-0.00038403,-0.000080
 56,0.34662931,0.00002901,-0.00001138,0.00000040,0.00002864,0.00022834,
 -0.00002064,-0.00004412,-0.00009465,0.00000227,0.00011351,-0.00000040,
 0.00002028,-0.00002634,0.00010262,-0.00001551,-0.00002140,-0.00003785,
 0.00000107,0.00018791,-0.00053649,0.00013938,-0.00000368,0.00000107,-0
 .00000023,0.00000124,0.00000249,-0.00000024,0.00000374,0.00000340,0.00
 000057,0.00478016,-0.00303653,0.00160499,0.01220113,0.01572393,-0.0008
 4316,-0.00017928,0.00013722,-0.00019811,-0.00024767,-0.00014621,-0.000
 02399,0.00017410,0.00000724,-0.00001300,0.00002289,0.00127917,-0.00001
 090,-0.02919524,-0.00409863,-0.00533803,-0.00040769,-0.00051520,-0.000
 09475,0.00005338,-0.00004130,0.00002858,0.00001479,-0.00002915,0.00001
 385,-0.00033281,-0.00012929,-0.00006580,0.00139492,-0.00675042,0.00122
 414,0.00051064,0.00020606,-0.00015269,-0.00017866,0.00028010,-0.000103
 77,-0.00000073,-0.00026095,0.00013336,0.00004328,0.00032293,-0.0000457
 7,0.00013777,0.00045699,0.00011016,0.00005587,0.00017912,-0.00001720,-
 0.00003535,0.00012157,-0.00004163,-0.00003838,0.00010487,-0.00017091,0
 .00000575,0.00004653,0.00002579,0.00002197,0.00008605,0.00001836,0.000
 02193,0.00006473,0.00002687,0.00000355,0.00005184,-0.00000482,-0.00003
 068,0.00000073,0.00002391,0.00000228,-0.00000784,-0.00003452,-0.000076
 60,0.00002533,-0.00002175,-0.00521614,0.00228994,-0.00195247,-0.003077
 34,-0.00607599,0.00110884,-0.14674005,-0.14527936,-0.00786737,0.000126
 21,0.00016785,-0.00000849,-0.00006189,0.00003238,-0.00001443,0.0000115
 4,-0.00001546,0.00000291,0.00002419,0.00000844,0.00000384,-0.00000790,
 0.00000539,-0.00000217,-0.00000034,-0.00001524,0.00000092,0.00001498,0
 .00000277,0.00000295,-0.00000518,0.00001109,-0.00000193,0.00000288,-0.
 00000209,0.00000098,0.00000895,-0.00000384,0.00000213,0.00000081,-0.00
 000032,0.00000025,0.00000098,-0.00000076,0.00000023,-0.00000083,0.0000
 0006,-0.00000005,-0.00000445,-0.00000360,-0.00000076,0.00000136,0.0000
 0010,0.00000035,0.00000353,0.00000309,0.00000045,-0.00000142,-0.000001
 27,-0.00000040,0.00000012,0.00000136,0.00000008,0.00000006,0.00000052,
 0.00000087,0.00000046,0.00000037,0.00000003,-0.00000007,-0.00000046,-0
 .00000013,0.00000009,-0.00000018,-0.00000005,0.00000004,-0.00000022,0.
 00000006,-0.00000032,-0.00000036,-0.00000034,0.00000004,-0.00000013,-0
 .00000019,0.00000051,-0.00000023,0.00000018,-0.00000037,0.00000013,0.0
 0000015,0.00000062,0.00000013,0.00000016,-0.00000005,0.00000005,-0.000
 00007,0.00000009,0.00000023,0.00000007,0.00000007,-0.00000003,-0.00000
 014,0.00000026,0.00000024,0.00000008,0.00000012,-0.00000011,-0.0000001
 2,-0.00003342,0.00001146,-0.00000545,0.00039140,0.00026077,0.00007627,
 0.16557848,0.14487150,0.00001919,-0.00002637,-0.00003843,-0.00001477,-
 0.00002472,0.00000812,-0.00000281,-0.00001220,-0.00000303,0.00001421,0
 .00000265,-0.00000068,-0.00000231,0.00001413,0.00000013,0.00000499,-0.
 00001260,0.00000551,-0.00014695,0.00006368,0.00027104,-0.00000134,0.00
 000114,0.00000380,0.00000127,0.00000110,-0.00000016,0.00000062,0.00000
 055,0.00000276,-0.00142739,0.00167429,0.00246077,-0.00259802,-0.003769
 93,-0.00666031,0.00078660,-0.00051049,-0.00107215,-0.00022237,-0.00014
 066,0.00000716,0.00013195,0.00017722,-0.00031384,-0.00001530,-0.000127
 67,0.00119270,0.00556925,-0.00140952,-0.00368573,-0.00023883,0.0001467
 1,-0.00056246,-0.00000388,0.00001005,0.00009697,-0.00000305,0.00000870
 ,0.00004910,0.00013403,0.00004122,-0.00009659,0.00069618,0.00286424,-0
 .00016093,0.00037851,-0.00054102,-0.00177847,-0.00011921,0.00002379,-0
 .00021059,0.00017267,0.00011258,0.00018310,-0.00003744,-0.00025406,0.0
 0001433,-0.00030112,-0.00021192,0.00106296,-0.00001956,-0.00008168,-0.
 00004297,0.00002619,-0.00008942,-0.00012516,0.00000047,-0.00004421,0.0
 0007701,-0.00000564,-0.00002071,-0.00000974,-0.00001508,-0.00002809,-0
 .00000982,-0.00001363,-0.00001244,-0.00001210,-0.00002004,-0.00004365,
 -0.00004880,-0.00001134,0.00000312,-0.00000634,-0.00000577,0.00000412,
 0.00002946,0.00002991,-0.00001081,0.00000788,0.00002016,-0.00326866,-0
 .00418313,0.00091053,0.00239148,0.00548917,-0.04054139,-0.00931790,-0.
 01774047,0.00006375,-0.00000350,-0.00005220,-0.00001435,0.00000839,0.0
 0000191,0.00000378,-0.00000287,-0.00000259,0.00000795,0.00000160,-0.00
 000037,-0.00000127,0.00000144,-0.00000063,0.,-0.00000352,-0.00000003,0
 .00000346,0.00000063,0.00000013,-0.00000105,0.00000214,-0.00000100,-0.
 00000033,-0.00000013,0.00000109,0.00000216,-0.00000012,0.00000007,0.00
 000019,-0.00000007,0.00000044,0.,-0.00000014,0.00000040,-0.00000045,0.
 00000015,0.00000090,-0.00000188,-0.00000175,-0.00000018,0.00000033,0.,
 0.00000035,0.00000134,0.00000155,-0.00000080,-0.00000090,-0.00000060,0
 .00000028,0.00000007,0.00000044,0.00000032,0.00000008,0.00000013,0.000
 00067,0.00000031,0.00000003,-0.00000007,-0.00000012,-0.00000019,0.0000
 0009,0.00000012,-0.00000014,-0.00000012,-0.00000009,0.00000019,-0.0000
 0026,-0.00000018,-0.00000015,0.00000006,0.00000018,-0.00000016,-0.0000
 0025,0.00000004,-0.00000007,0.00000017,-0.00000004,0.00000019,0.000000
 26,0.00000020,0.00000010,0.00000005,0.00000004,-0.00000008,-0.00000016
 ,0.00000008,0.00000040,-0.00000026,0.00000006,-0.00000014,-0.00000011,
 0.00000006,0.00000010,0.00000001,0.00000011,-0.00000015,-0.00000020,-0
 .00000855,0.00000233,0.00000343,-0.00019123,-0.00008397,0.00020364,0.0
 3700919,0.01249746,0.02564370,-0.00028995,-0.00095359,0.00011753,-0.00
 018600,0.00014514,-0.00005385,0.00005771,-0.00050581,0.00006927,0.0008
 7796,0.00046996,0.00016064,-0.00132932,0.00024065,0.00044210,0.0007858
 1,-0.00032101,0.00059884,-0.00038567,0.00005234,-0.00006261,0.00009208
 ,0.00001770,-0.00000069,0.00003378,-0.00009052,0.00001270,-0.00046014,
 0.00131806,-0.00163230,-0.00005579,0.00010131,-0.00002273,-0.00000418,
 0.00000126,-0.00000029,-0.00000377,0.00007191,-0.00000997,0.00008382,0
 .00000225,0.00001424,0.00004575,-0.00007885,0.00001866,0.00001423,0.00
 008633,-0.00000768,-0.00002041,-0.00006543,0.00000528,0.00000396,0.000
 00215,0.00000019,0.00000066,0.00001354,-0.00000181,-0.00000071,-0.0000
 1322,0.00000124,0.00029825,0.00000447,0.00004502,0.00000262,-0.0000357
 8,0.00000582,-0.00002138,0.00005211,-0.00001126,0.00003889,-0.00008226
 ,0.00001877,-0.00006176,0.00003456,-0.00002015,0.00001729,0.00002623,0
 .00000012,-0.00002186,-0.00001460,-0.00000171,-0.00000152,0.00000273,-
 0.00000079,0.00000373,-0.00000209,0.00000096,0.00000043,-0.00000442,0.
 00000700,0.00000013,-0.00000046,0.00000002,-0.00000112,-0.00000393,-0.
 00000033,0.00000069,-0.00000358,-0.00000205,0.00000049,0.00000596,-0.0
 0000060,0.00000326,0.00000114,0.00000091,0.00000324,0.00000083,-0.0000
 0012,0.00000324,-0.00000110,0.00000060,0.00002004,0.00003107,-0.000000
 62,0.00011580,-0.00001605,0.00002535,0.00003719,0.00006362,-0.00000253
 ,0.00064995,0.00048694,0.00005753,-0.00814880,-0.02185811,0.00128088,-
 0.00361022,0.00340596,-0.00184705,-0.13288725,-0.14401134,-0.01799601,
 -0.00162092,-0.00133964,0.00015017,-0.00061228,0.00005929,-0.00012306,
 -0.00039897,0.00021304,-0.00003806,0.00121686,-0.00001520,0.00007593,-
 0.00032473,0.00544013,-0.00103634,0.01936214,0.01182807,0.00392010,-0.
 00004331,0.00009474,-0.00003880,-0.00008411,-0.00004577,-0.00001752,-0
 .00015046,0.00042782,-0.00011709,0.00179508,0.00726289,0.00011004,0.00
 060748,-0.00168484,-0.00016426,0.00226287,-0.00224924,0.00256230,0.001
 56310,-0.00442121,0.00017039,0.00052655,0.00170826,0.00007008,-0.00014
 422,0.00011559,0.00038646,0.00016267,0.00012103,0.00008729,0.00042641,
 -0.00047177,0.00001131,0.00001640,-0.00005275,-0.00001395,-0.00004292,
 -0.00008179,-0.00000936,0.00000398,-0.00011434,-0.00019918,0.00000698,
 0.00000503,-0.00002835,0.00009751,-0.00004959,0.00007053,-0.00003690,0
 .00004047,0.00011585,0.00021868,0.00022864,0.00006008,-0.00002016,0.00
 005555,0.00003890,0.00005424,0.00012200,-0.00003270,-0.00000187,0.0000
 1614,0.00003356,0.00005445,0.00005899,-0.00002898,0.00000491,-0.000012
 91,-0.00002572,0.00029559,-0.00057147,-0.00040748,-0.00011469,0.000022
 69,-0.00002805,-0.00002007,-0.00000788,-0.00000256,0.11923857,-0.00059
 779,-0.00097990,-0.00002147,0.00003107,0.00003960,0.00000650,-0.000170
 27,-0.00028802,0.00000813,0.00031356,-0.00033209,0.00007599,0.00099193
 ,0.00119832,-0.00015341,0.00128874,-0.00113331,0.00028517,-0.00067291,
 0.00010670,-0.00012190,-0.00002758,-0.00002967,-0.00000041,0.00003226,
 -0.00004763,0.00000912,0.00025892,0.00029529,0.00061954,-0.00005354,0.
 00006501,-0.00001834,-0.00000049,0.00000586,-0.00000038,-0.00000612,0.
 00004338,-0.00000672,0.00006130,0.00000275,0.00001049,0.00002316,-0.00
 006408,0.00001190,0.00003893,0.00008596,-0.00000520,-0.00001310,-0.000
 04117,0.00000335,0.00000276,0.00000121,0.00000024,-0.00000020,0.000007
 32,-0.00000090,-0.00000096,-0.00001244,0.00000131,0.00017929,-0.000313
 93,0.00006465,0.00000282,-0.00002185,0.00000405,-0.00001542,0.00003619
 ,-0.00000791,0.00002863,-0.00005650,0.00001308,-0.00004133,0.00002608,
 -0.00001431,0.00001064,0.00001567,0.00000021,-0.00001365,-0.00000861,-
 0.00000114,-0.00000113,0.00000221,-0.00000043,0.00000260,-0.00000126,0
 .00000069,0.00000103,-0.00000350,0.00000616,-0.00000013,-0.00000051,-0
 .00000050,-0.00000048,-0.00000292,-0.00000037,0.00000017,-0.00000262,-
 0.00000143,0.00000041,0.00000372,-0.00000034,0.00000200,0.00000062,0.0
 0000037,0.00000194,0.00000058,0.00000009,0.00000213,-0.00000068,0.0000
 0042,0.00001297,0.00001718,-0.00000040,0.00007964,-0.00001785,0.000017
 68,0.00002567,0.00003811,-0.00000114,0.00086380,0.00044241,0.00008069,
 -0.00569678,0.00862930,-0.00196569,0.00469592,0.00553334,0.00074592,-0
 .13915848,-0.35543913,-0.01269758,-0.00091589,0.00102691,-0.00028103,-
 0.00065693,-0.00046951,-0.00010040,0.00003577,0.00034416,-0.00003386,-
 0.00120550,-0.00045836,-0.00015952,0.00448455,-0.00263340,0.00118853,-
 0.01102439,-0.02002238,-0.00135939,-0.00006730,0.00011969,-0.00002262,
 -0.00001599,0.00001440,-0.00000273,0.00013686,-0.00012349,0.00004500,0
 .00341071,0.00189472,0.00068545,-0.00000663,-0.00063244,-0.00000626,-0
 .00014152,-0.00660898,0.00027492,-0.00022669,-0.00049265,-0.00007364,-
 0.00006851,0.00011854,-0.00000133,-0.00029555,0.00013471,-0.00002765,-
 0.00005145,0.00008000,0.00005960,0.00003244,-0.00004684,0.00000393,0.0
 0001310,-0.00000629,-0.00000366,0.00002052,-0.00001214,0.00000924,0.00
 005474,-0.00007128,-0.00000445,0.00002923,-0.00001668,-0.00000873,0.00
 022102,0.00002511,0.00007301,-0.00002001,0.00004433,0.00000773,0.00002
 436,0.00001814,0.00001214,-0.00000444,0.00000781,0.00000440,0.00000216
 ,0.00001197,-0.00000953,-0.00000495,-0.00000181,0.00000194,0.00002327,
 0.00000680,0.00000322,0.00000314,-0.00000567,-0.00000595,-0.00090288,0
 .00077563,-0.00013984,-0.00007301,-0.00000176,-0.00001072,-0.00001413,
 -0.00000431,-0.00000156,0.14472200,0.36918595,0.00009765,-0.00013752,-
 0.00013492,-0.00004580,0.00006821,0.00000012,0.00002811,-0.00010873,0.
 00000162,0.00024309,0.00013204,-0.00016615,-0.00009758,-0.00039876,0.0
 0012992,0.00028122,0.00000425,-0.00166038,-0.00001094,-0.00000240,-0.0
 0001077,0.00001782,0.00001459,0.00005818,0.00000221,-0.00001505,0.0000
 1832,-0.00112631,0.00073346,-0.00058932,-0.00000655,0.00001773,-0.0000
 0573,-0.00000117,-0.00000054,0.00000050,-0.00000009,0.00001285,-0.0000
 0191,0.00001332,0.00000028,0.00000312,0.00000860,-0.00001143,0.0000011
 5,0.00000060,0.00000823,-0.00001287,-0.00000317,-0.00001124,0.00000113
 ,0.00000063,0.00000043,0.00000029,0.00000004,0.00000264,0.00000054,-0.
 00000019,-0.00000197,0.00000068,0.00005548,0.00003188,0.00001345,0.000
 00024,-0.00000631,0.00000149,-0.00000338,0.00000861,-0.00000208,0.0000
 0642,-0.00001373,0.00000244,-0.00001047,0.00000529,-0.00000307,0.00000
 309,0.00000454,-0.00000034,-0.00000380,-0.00000251,-0.00000015,-0.0000
 0040,0.00000050,0.00000077,0.00000055,-0.00000033,0.00000042,0.0000002
 4,-0.00000053,0.00000107,-0.00000025,-0.00000007,0.00000048,-0.0000004
 7,-0.00000048,-0.00000039,0.00000043,-0.00000064,-0.00000023,0.0000000
 5,0.00000101,-0.00000004,0.00000048,0.00000004,0.00000012,0.00000067,0
 .00000028,-0.00000009,0.00000053,-0.00000017,0.00000019,0.00000353,0.0
 0000563,-0.00000103,0.00001935,-0.00000211,0.00000266,0.00000631,0.000
 01105,-0.00000128,0.00005957,0.00004642,0.00001073,0.00075664,-0.00486
 275,-0.00748905,-0.00160580,0.00067385,0.00379508,-0.01890966,-0.01475
 058,-0.01622398,0.00009580,-0.00052415,-0.00135737,-0.00007336,0.00012
 111,-0.00015235,-0.00010967,-0.00001385,-0.00029361,0.00025626,0.00003
 048,0.00075982,-0.00097470,0.00168156,0.00212935,0.00526345,0.00396107
 ,-0.00070802,-0.00003481,0.00002949,0.00012535,-0.00002538,-0.00001216
 ,0.00002090,-0.00008240,0.00012295,0.00015267,0.00039305,0.00167790,0.
 00006989,-0.00000443,-0.00045026,0.00083992,0.00187747,-0.00042517,-0.
 00504377,0.00027036,-0.00116514,-0.00007945,0.00014805,0.00045346,0.00
 014037,0.00021319,-0.00010068,0.00014906,-0.00000624,0.00017539,0.0001
 9810,0.00010438,-0.00011244,0.00003226,-0.00003417,-0.00002381,-0.0000
 2373,0.00001331,-0.00000734,-0.00001119,-0.00003304,0.00002324,-0.0000
 7930,0.00003769,-0.00001552,-0.00014110,-0.00007389,0.00003992,0.00020
 696,0.00000039,-0.00002702,0.00003856,0.00005499,0.00005853,0.00001196
 ,-0.00000098,0.00001130,0.00000360,0.00001875,0.00003692,-0.00000865,-
 0.00000359,-0.00001214,-0.00000082,0.00000085,0.00001702,-0.00001113,0
 .00000515,-0.00000253,-0.00000961,-0.00029057,0.00005031,0.00219449,-0
 .00002328,0.00000893,0.00001712,-0.00000350,-0.00000123,0.00000118,0.0
 1323998,0.01293792,0.02308783\\0.00000015,-0.00000007,-0.00000012,-0.0
 0000024,0.00000080,0.00000270,-0.00000088,0.00000105,0.00000693,-0.000
 00109,0.00000101,0.00000830,-0.00000055,0.00000031,0.00000568,-0.00000
 007,-0.00000037,0.00000135,0.00000058,-0.00000013,-0.00000374,-0.00000
 101,0.00000141,0.00000909,-0.00000129,0.00000130,0.00001162,-0.0000007
 4,0.00000035,0.00000684,0.00000125,-0.00000045,-0.00000613,0.00000087,
 -0.00000067,-0.00000966,0.00000160,-0.00000085,-0.00001376,0.00000144,
 -0.00000110,-0.00001452,0.00000129,-0.00000077,-0.00001121,0.00000119,
 -0.00000022,-0.00000701,-0.00000046,0.00000061,-0.00000386,0.00000188,
 -0.00000094,-0.00001630,0.00000200,-0.00000165,-0.00001753,0.00000130,
 -0.00000111,-0.00001186,-0.00000005,0.00000051,0.00000031,0.00000058,0
 .00000150,-0.00000254,0.00000011,0.00000146,-0.00000094,-0.00000041,0.
 00000137,0.00000337,-0.00000069,0.00000260,0.00000606,-0.00000074,0.00
 000265,0.00000466,-0.00000001,0.00000196,0.00000054,-0.00000055,0.0000
 0198,0.00000439,-0.00000087,0.00000322,0.00000680,-0.00000124,0.000003
 45,0.00001057,-0.00000134,0.00000206,0.00001146,-0.00000150,0.00000668
 ,0.00001123,-0.00000147,0.00000197,0.00001257,0.,0.00000230,-0.0000010
 2,0.00000018,0.00000476,-0.00000333,0.00000031,-0.00000065,-0.00000270
 ,-0.00000028,0.00000266,0.00000140,0.00000058,0.00000131,-0.00000625,-
 0.00000014,0.00000132,-0.00000281,0.00000091,0.00000066,-0.00000802,0.
 00000052,-0.00000030,-0.00000400,0.00000027,-0.00000048,-0.00000154,0.
 00000035,-0.00000047,-0.00000582,-0.00000022,-0.00000081,-0.00000108,0
 .00000078,-0.00000166,-0.00000534,0.00000113,-0.00000240,-0.00000963,0
 .00000129,-0.00000219,-0.00001277,0.00000144,-0.00000181,-0.00001183,0
 .00000098,-0.00000191,-0.00000762,0.00000074,-0.00000128,-0.00000449,0
 .00000124,-0.00000263,-0.00001034,0.00000182,-0.00000251,-0.00001590,0
 .00000167,-0.00000169,-0.00001431,0.00000031,-0.00000224,-0.00000222,0
 .00000037,-0.00000244,-0.00000290,-0.00000029,-0.00000197,0.00000197,-
 0.00000043,-0.00000224,0.00000497,-0.00000034,-0.00000289,0.00000398,-
 0.00000096,0.00000132,0.00000804,-0.00000051,-0.00000495,0.00000685,-0
 .00000069,-0.00000342,0.00000764,-0.00000023,-0.00000015,0.00000196,0.
 00000005,-0.00000569,0.00000176,-0.00000139,0.00000108,0.00001175,-0.0
 0000078,0.00000431,0.00000622,-0.00000103,0.00000177,0.00000884,-0.000
 00110,0.00000034,0.00001063,-0.00000061,-0.00000363,0.00000671,-0.0000
 0078,-0.00000617,0.00000928,-0.00000164,0.00000384,0.00001371,-0.00000
 142,-0.00000157,0.00001365,-0.00000143,-0.00000005,0.00001328,-0.00000
 111,0.00000323,0.00000898,0.00000081,-0.00000078,-0.00000687,-0.000000
 27,0.00000084,0.00000105,0.00000109,0.00000029,-0.00000908,-0.00000019
 ,-0.00000095,0.00000194\\\@


 EVANS BOLDLY PUT 50 ATM. OF ETHYLENE IN A CELL WITH 25 ATM. OF OXYGEN.
 THE APPARATUS SUBSEQUENTLY BLEW UP, BUT LUCKILY NOT BEFORE HE
 OBTAINED THE SPECTRA SHOWN IN FIGURE 8.
 A.J.MERER AND R.S.MULLIKEN, CHEM.REV. 69, 645 (1969)
 Job cpu time:       1 days  0 hours 44 minutes 38.6 seconds.
 Elapsed time:       0 days  1 hours 33 minutes  6.4 seconds.
 File lengths (MBytes):  RWF=  10460 Int=      0 D2E=      0 Chk=    104 Scr=      8
 Normal termination of Gaussian 16 at Sun Dec 16 12:30:18 2018.
