 Entering Gaussian System, Link 0=g16
 Initial command:
 /gpfs/apps/hpc/Apps/Restricted/Gaussian/Rev_A.03/g16/l1.exe "/gpfs/scratch60/fas/hammes_schiffer/jg2487/c45n01/Gau-152162.inp" -scrdir="/gpfs/scratch60/fas/hammes_schiffer/jg2487/c45n01/"
 Entering Link 1 = /gpfs/apps/hpc/Apps/Restricted/Gaussian/Rev_A.03/g16/l1.exe PID=    152163.
  
 Copyright (c) 1988,1990,1992,1993,1995,1998,2003,2009,2016,
            Gaussian, Inc.  All Rights Reserved.
  
 This is part of the Gaussian(R) 16 program.  It is based on
 the Gaussian(R) 09 system (copyright 2009, Gaussian, Inc.),
 the Gaussian(R) 03 system (copyright 2003, Gaussian, Inc.),
 the Gaussian(R) 98 system (copyright 1998, Gaussian, Inc.),
 the Gaussian(R) 94 system (copyright 1995, Gaussian, Inc.),
 the Gaussian 92(TM) system (copyright 1992, Gaussian, Inc.),
 the Gaussian 90(TM) system (copyright 1990, Gaussian, Inc.),
 the Gaussian 88(TM) system (copyright 1988, Gaussian, Inc.),
 the Gaussian 86(TM) system (copyright 1986, Carnegie Mellon
 University), and the Gaussian 82(TM) system (copyright 1983,
 Carnegie Mellon University). Gaussian is a federally registered
 trademark of Gaussian, Inc.
  
 This software contains proprietary and confidential information,
 including trade secrets, belonging to Gaussian, Inc.
  
 This software is provided under written license and may be
 used, copied, transmitted, or stored only in accord with that
 written license.
  
 The following legend is applicable only to US Government
 contracts under FAR:
  
                    RESTRICTED RIGHTS LEGEND
  
 Use, reproduction and disclosure by the US Government is
 subject to restrictions as set forth in subparagraphs (a)
 and (c) of the Commercial Computer Software - Restricted
 Rights clause in FAR 52.227-19.
  
 Gaussian, Inc.
 340 Quinnipiac St., Bldg. 40, Wallingford CT 06492
  
  
 ---------------------------------------------------------------
 Warning -- This program may not be used in any manner that
 competes with the business of Gaussian, Inc. or will provide
 assistance to any competitor of Gaussian, Inc.  The licensee
 of this program is prohibited from giving any competitor of
 Gaussian, Inc. access to this program.  By using this program,
 the user acknowledges that Gaussian, Inc. is engaged in the
 business of creating and licensing software in the field of
 computational chemistry and represents and warrants to the
 licensee that it is not a competitor of Gaussian, Inc. and that
 it will not use this program in any manner prohibited above.
 ---------------------------------------------------------------
  

 Cite this work as:
 Gaussian 16, Revision A.03,
 M. J. Frisch, G. W. Trucks, H. B. Schlegel, G. E. Scuseria, 
 M. A. Robb, J. R. Cheeseman, G. Scalmani, V. Barone, 
 G. A. Petersson, H. Nakatsuji, X. Li, M. Caricato, A. V. Marenich, 
 J. Bloino, B. G. Janesko, R. Gomperts, B. Mennucci, H. P. Hratchian, 
 J. V. Ortiz, A. F. Izmaylov, J. L. Sonnenberg, D. Williams-Young, 
 F. Ding, F. Lipparini, F. Egidi, J. Goings, B. Peng, A. Petrone, 
 T. Henderson, D. Ranasinghe, V. G. Zakrzewski, J. Gao, N. Rega, 
 G. Zheng, W. Liang, M. Hada, M. Ehara, K. Toyota, R. Fukuda, 
 J. Hasegawa, M. Ishida, T. Nakajima, Y. Honda, O. Kitao, H. Nakai, 
 T. Vreven, K. Throssell, J. A. Montgomery, Jr., J. E. Peralta, 
 F. Ogliaro, M. J. Bearpark, J. J. Heyd, E. N. Brothers, K. N. Kudin, 
 V. N. Staroverov, T. A. Keith, R. Kobayashi, J. Normand, 
 K. Raghavachari, A. P. Rendell, J. C. Burant, S. S. Iyengar, 
 J. Tomasi, M. Cossi, J. M. Millam, M. Klene, C. Adamo, R. Cammi, 
 J. W. Ochterski, R. L. Martin, K. Morokuma, O. Farkas, 
 J. B. Foresman, and D. J. Fox, Gaussian, Inc., Wallingford CT, 2016.
 
 ******************************************
 Gaussian 16:  ES64L-G16RevA.03 25-Dec-2016
                20-Dec-2018 
 ******************************************
 %chk=cyclohexyl-triBIP-E3PT.chk
 %mem=10GB
 %nprocshared=16
 Will use up to   16 processors via shared memory.
 ----------------------------------------------------------------------
 #p opt=tight freq=internalmodes b3lyp/6-31g(d,p) scrf=(cpcm,solvent=di
 chloromethane,read) nosymm empiricaldispersion=gd3bj int=grid=ultrafin
 e
 ----------------------------------------------------------------------
 1/7=10,18=20,19=15,26=6,38=1,40=2/1,3;
 2/9=110,12=2,15=1,17=6,18=5,40=1/2;
 3/5=1,6=6,7=101,11=2,25=1,30=1,70=2103,71=1,72=9,74=-5,75=-5,124=41/1,2,3;
 4//1;
 5/5=2,38=5,53=9/2;
 6/7=2,8=2,9=2,10=2,28=1/1;
 7/30=1/1,2,3,16;
 1/7=10,18=20,19=15,26=6/3(2);
 2/9=110,15=1/2;
 99//99;
 2/9=110,15=1/2;
 3/5=1,6=6,7=101,11=2,25=1,30=1,70=2105,71=1,72=9,74=-5,75=-5,124=41/1,2,3;
 4/5=5,16=3,69=1/1;
 5/5=2,38=5,53=9/2;
 7/30=1/1,2,3,16;
 1/7=10,18=20,19=15,26=6/3(-5);
 2/9=110,15=1/2;
 6/7=2,8=2,9=2,10=2,19=2,28=1/1;
 99/9=1/99;
 Leave Link    1 at Thu Dec 20 18:33:58 2018, MaxMem=  1342177280 cpu:               8.0 elap:               0.5
 (Enter /gpfs/apps/hpc/Apps/Restricted/Gaussian/Rev_A.03/g16/l101.exe)
 ----------------------------------------------------------------------
 cyclohexylimine triBIP oxidized, first three protons transferred optim
 ization
 ----------------------------------------------------------------------
 Symbolic Z-matrix:
 Charge =  1 Multiplicity = 2
 C                     1.62402   0.47855   0.98163 
 C                     0.54499   1.34966   0.69124 
 C                     0.7148    2.72509   0.5663 
 C                     2.00776   3.22514   0.74148 
 C                     3.09159   2.38848   1.03323 
 C                     2.92443   1.00138   1.15846 
 C                    -0.12889  -0.76264   0.81355 
 H                    -0.11645   3.38111   0.34218 
 H                     2.17872   4.29049   0.64873 
 H                     4.07377   2.82699   1.157 
 C                    -2.42669  -1.69271   0.53277 
 C                    -3.30615  -2.80773   0.53281 
 C                    -2.86859  -4.10941   0.77616 
 C                    -1.50822  -4.27599   1.0268 
 C                    -0.61683  -3.19018   1.03483 
 C                    -1.05004  -1.88338   0.794 
 C                    -4.39305  -0.92458   0.08768 
 H                    -3.55314  -4.94828   0.77243 
 H                    -1.12238  -5.26932   1.22186 
 H                     0.43373  -3.35845   1.23527 
 N                    -0.55092   0.52032   0.59431 
 C                    -6.85252  -0.61111  -0.40881 
 C                    -5.50495  -0.05409  -0.23803 
 C                    -5.30141   1.3092   -0.3919 
 C                    -6.3547    2.1763   -0.72103 
 C                    -7.66131   1.64928  -0.88899 
 C                    -7.93385   0.31114  -0.74807 
 H                    -4.30271   1.70712  -0.25666 
 H                    -8.46744   2.33288  -1.13579 
 C                    -6.10649   3.63941  -0.92375 
 C                    -9.30541  -0.26019  -0.91975 
 O                    -7.09605  -1.83895  -0.27188 
 N                    -3.1216   -0.53777   0.25462 
 N                    -4.53916  -2.27567   0.25014 
 N                     1.1846   -0.82482   1.04878 
 C                     4.00642   0.09656   1.45541 
 N                     3.85475  -1.24343   1.52204 
 N                     5.30256   0.37956   1.69926 
 C                     7.3454   -1.00527   2.22932 
 C                     7.7259   -2.34003   2.3973 
 C                     6.80337  -3.39531   2.2809 
 C                     5.45957  -3.1729    1.98742 
 C                     5.07061  -1.84443   1.81154 
 C                     5.9942   -0.79496   1.92444 
 H                     8.76027  -2.56104   2.63496 
 H                     7.14887  -4.41143   2.42439 
 H                     4.75085  -3.98615   1.90289 
 C                     8.27229   0.11516   2.39891 
 H                     9.30559  -0.1548    2.62682 
 N                     7.86272   1.3246    2.30752 
 C                     8.78767   2.43831   2.52145 
 C                     10.23598   2.083     2.87264 
 C                     8.73311   3.36465   1.29526 
 H                     8.36536   3.0023    3.3657 
 C                     11.06878   3.34909   3.10382 
 H                     10.67382   1.50394   2.05036 
 H                     10.26357   1.44674   3.76259 
 C                     9.57068   4.62804   1.51921 
 H                     9.11516   2.81214   0.42802 
 H                     7.6906    3.62042   1.08281 
 C                     11.01731   4.28594   1.89236 
 H                     12.10329   3.07396   3.33058 
 H                     10.68343   3.87808   3.98448 
 H                     9.54624   5.25566   0.62358 
 H                     9.12125   5.21499   2.32978 
 H                     11.57917   5.20177   2.10034 
 H                     11.50487   3.79722   1.0397 
 H                     2.93     -1.66347   1.38214 
 H                    -1.52469   0.74649   0.39678 
 H                    -5.44836  -2.71887   0.14837 
 H                     5.7859    1.27481   1.75884 
 C                    -9.33095  -1.28514  -2.06885 
 H                    -9.22701  -2.27209  -1.66884 
 H                    -10.26013  -1.20915  -2.59398 
 H                    -8.52346  -1.0863   -2.74214 
 C                    -10.32808   0.85181  -1.2184 
 H                    -10.32571   1.56271  -0.4187 
 H                    -10.06507   1.34219  -2.13232 
 H                    -11.30402   0.42316  -1.31168 
 C                    -9.74215  -1.0165    0.34865 
 H                    -9.44007  -2.04034   0.27522 
 H                    -9.28339  -0.56989   1.20596 
 H                    -10.80645  -0.96476   0.44608 
 C                    -5.94527   3.94382  -2.42473 
 H                    -6.91051   4.07172  -2.86841 
 H                    -5.37463   4.84059  -2.54751 
 H                    -5.43865   3.13065  -2.90117 
 C                    -7.2934    4.47901  -0.4159 
 H                    -6.99952   5.50537  -0.34431 
 H                    -8.112     4.38923  -1.09908 
 H                    -7.59337   4.1258    0.54855 
 C                    -4.81869   4.09261  -0.21116 
 H                    -4.82251   3.73165   0.79611 
 H                    -3.96804   3.69953  -0.72767 
 H                    -4.77074   5.16152  -0.20681 
 
 ITRead=  0  0  0  0  0  0  0  0  0  0  0  0  0  0  0  0  0  0  0  0
 ITRead=  0  0  0  0  0  0  0  0  0  0  0  0  0  0  0  0  0  0  0  0
 ITRead=  0  0  0  0  0  0  0  0  0  0  0  0  0  0  0  0  0  0  0  0
 ITRead=  0  0  0  0  0  0  0  0  0  0  0  0  0  0  0  0  0  0  0  0
 ITRead=  0  0  0  0  0  0  0  0  0  0  0  0  0  0  0
 MicOpt= -1 -1 -1 -1 -1 -1 -1 -1 -1 -1 -1 -1 -1 -1 -1 -1 -1 -1 -1 -1
 MicOpt= -1 -1 -1 -1 -1 -1 -1 -1 -1 -1 -1 -1 -1 -1 -1 -1 -1 -1 -1 -1
 MicOpt= -1 -1 -1 -1 -1 -1 -1 -1 -1 -1 -1 -1 -1 -1 -1 -1 -1 -1 -1 -1
 MicOpt= -1 -1 -1 -1 -1 -1 -1 -1 -1 -1 -1 -1 -1 -1 -1 -1 -1 -1 -1 -1
 MicOpt= -1 -1 -1 -1 -1 -1 -1 -1 -1 -1 -1 -1 -1 -1 -1
 NAtoms=     95 NQM=       95 NQMF=       0 NMMI=      0 NMMIF=      0
                NMic=       0 NMicF=      0.
                    Isotopes and Nuclear Properties:
 (Nuclear quadrupole moments (NQMom) in fm**2, nuclear magnetic moments (NMagM)
  in nuclear magnetons)

  Atom         1           2           3           4           5           6           7           8           9          10
 IAtWgt=          12          12          12          12          12          12          12           1           1           1
 AtmWgt=  12.0000000  12.0000000  12.0000000  12.0000000  12.0000000  12.0000000  12.0000000   1.0078250   1.0078250   1.0078250
 NucSpn=           0           0           0           0           0           0           0           1           1           1
 AtZEff=  -0.0000000  -0.0000000  -0.0000000  -0.0000000  -0.0000000  -0.0000000  -0.0000000  -0.0000000  -0.0000000  -0.0000000
 NQMom=    0.0000000   0.0000000   0.0000000   0.0000000   0.0000000   0.0000000   0.0000000   0.0000000   0.0000000   0.0000000
 NMagM=    0.0000000   0.0000000   0.0000000   0.0000000   0.0000000   0.0000000   0.0000000   2.7928460   2.7928460   2.7928460
 AtZNuc=   6.0000000   6.0000000   6.0000000   6.0000000   6.0000000   6.0000000   6.0000000   1.0000000   1.0000000   1.0000000

  Atom        11          12          13          14          15          16          17          18          19          20
 IAtWgt=          12          12          12          12          12          12          12           1           1           1
 AtmWgt=  12.0000000  12.0000000  12.0000000  12.0000000  12.0000000  12.0000000  12.0000000   1.0078250   1.0078250   1.0078250
 NucSpn=           0           0           0           0           0           0           0           1           1           1
 AtZEff=  -0.0000000  -0.0000000  -0.0000000  -0.0000000  -0.0000000  -0.0000000  -0.0000000  -0.0000000  -0.0000000  -0.0000000
 NQMom=    0.0000000   0.0000000   0.0000000   0.0000000   0.0000000   0.0000000   0.0000000   0.0000000   0.0000000   0.0000000
 NMagM=    0.0000000   0.0000000   0.0000000   0.0000000   0.0000000   0.0000000   0.0000000   2.7928460   2.7928460   2.7928460
 AtZNuc=   6.0000000   6.0000000   6.0000000   6.0000000   6.0000000   6.0000000   6.0000000   1.0000000   1.0000000   1.0000000

  Atom        21          22          23          24          25          26          27          28          29          30
 IAtWgt=          14          12          12          12          12          12          12           1           1          12
 AtmWgt=  14.0030740  12.0000000  12.0000000  12.0000000  12.0000000  12.0000000  12.0000000   1.0078250   1.0078250  12.0000000
 NucSpn=           2           0           0           0           0           0           0           1           1           0
 AtZEff=  -0.0000000  -0.0000000  -0.0000000  -0.0000000  -0.0000000  -0.0000000  -0.0000000  -0.0000000  -0.0000000  -0.0000000
 NQMom=    2.0440000   0.0000000   0.0000000   0.0000000   0.0000000   0.0000000   0.0000000   0.0000000   0.0000000   0.0000000
 NMagM=    0.4037610   0.0000000   0.0000000   0.0000000   0.0000000   0.0000000   0.0000000   2.7928460   2.7928460   0.0000000
 AtZNuc=   7.0000000   6.0000000   6.0000000   6.0000000   6.0000000   6.0000000   6.0000000   1.0000000   1.0000000   6.0000000

  Atom        31          32          33          34          35          36          37          38          39          40
 IAtWgt=          12          16          14          14          14          12          14          14          12          12
 AtmWgt=  12.0000000  15.9949146  14.0030740  14.0030740  14.0030740  12.0000000  14.0030740  14.0030740  12.0000000  12.0000000
 NucSpn=           0           0           2           2           2           0           2           2           0           0
 AtZEff=  -0.0000000  -0.0000000  -0.0000000  -0.0000000  -0.0000000  -0.0000000  -0.0000000  -0.0000000  -0.0000000  -0.0000000
 NQMom=    0.0000000   0.0000000   2.0440000   2.0440000   2.0440000   0.0000000   2.0440000   2.0440000   0.0000000   0.0000000
 NMagM=    0.0000000   0.0000000   0.4037610   0.4037610   0.4037610   0.0000000   0.4037610   0.4037610   0.0000000   0.0000000
 AtZNuc=   6.0000000   8.0000000   7.0000000   7.0000000   7.0000000   6.0000000   7.0000000   7.0000000   6.0000000   6.0000000

  Atom        41          42          43          44          45          46          47          48          49          50
 IAtWgt=          12          12          12          12           1           1           1          12           1          14
 AtmWgt=  12.0000000  12.0000000  12.0000000  12.0000000   1.0078250   1.0078250   1.0078250  12.0000000   1.0078250  14.0030740
 NucSpn=           0           0           0           0           1           1           1           0           1           2
 AtZEff=  -0.0000000  -0.0000000  -0.0000000  -0.0000000  -0.0000000  -0.0000000  -0.0000000  -0.0000000  -0.0000000  -0.0000000
 NQMom=    0.0000000   0.0000000   0.0000000   0.0000000   0.0000000   0.0000000   0.0000000   0.0000000   0.0000000   2.0440000
 NMagM=    0.0000000   0.0000000   0.0000000   0.0000000   2.7928460   2.7928460   2.7928460   0.0000000   2.7928460   0.4037610
 AtZNuc=   6.0000000   6.0000000   6.0000000   6.0000000   1.0000000   1.0000000   1.0000000   6.0000000   1.0000000   7.0000000

  Atom        51          52          53          54          55          56          57          58          59          60
 IAtWgt=          12          12          12           1          12           1           1          12           1           1
 AtmWgt=  12.0000000  12.0000000  12.0000000   1.0078250  12.0000000   1.0078250   1.0078250  12.0000000   1.0078250   1.0078250
 NucSpn=           0           0           0           1           0           1           1           0           1           1
 AtZEff=  -0.0000000  -0.0000000  -0.0000000  -0.0000000  -0.0000000  -0.0000000  -0.0000000  -0.0000000  -0.0000000  -0.0000000
 NQMom=    0.0000000   0.0000000   0.0000000   0.0000000   0.0000000   0.0000000   0.0000000   0.0000000   0.0000000   0.0000000
 NMagM=    0.0000000   0.0000000   0.0000000   2.7928460   0.0000000   2.7928460   2.7928460   0.0000000   2.7928460   2.7928460
 AtZNuc=   6.0000000   6.0000000   6.0000000   1.0000000   6.0000000   1.0000000   1.0000000   6.0000000   1.0000000   1.0000000

  Atom        61          62          63          64          65          66          67          68          69          70
 IAtWgt=          12           1           1           1           1           1           1           1           1           1
 AtmWgt=  12.0000000   1.0078250   1.0078250   1.0078250   1.0078250   1.0078250   1.0078250   1.0078250   1.0078250   1.0078250
 NucSpn=           0           1           1           1           1           1           1           1           1           1
 AtZEff=  -0.0000000  -0.0000000  -0.0000000  -0.0000000  -0.0000000  -0.0000000  -0.0000000  -0.0000000  -0.0000000  -0.0000000
 NQMom=    0.0000000   0.0000000   0.0000000   0.0000000   0.0000000   0.0000000   0.0000000   0.0000000   0.0000000   0.0000000
 NMagM=    0.0000000   2.7928460   2.7928460   2.7928460   2.7928460   2.7928460   2.7928460   2.7928460   2.7928460   2.7928460
 AtZNuc=   6.0000000   1.0000000   1.0000000   1.0000000   1.0000000   1.0000000   1.0000000   1.0000000   1.0000000   1.0000000

  Atom        71          72          73          74          75          76          77          78          79          80
 IAtWgt=           1          12           1           1           1          12           1           1           1          12
 AtmWgt=   1.0078250  12.0000000   1.0078250   1.0078250   1.0078250  12.0000000   1.0078250   1.0078250   1.0078250  12.0000000
 NucSpn=           1           0           1           1           1           0           1           1           1           0
 AtZEff=  -0.0000000  -0.0000000  -0.0000000  -0.0000000  -0.0000000  -0.0000000  -0.0000000  -0.0000000  -0.0000000  -0.0000000
 NQMom=    0.0000000   0.0000000   0.0000000   0.0000000   0.0000000   0.0000000   0.0000000   0.0000000   0.0000000   0.0000000
 NMagM=    2.7928460   0.0000000   2.7928460   2.7928460   2.7928460   0.0000000   2.7928460   2.7928460   2.7928460   0.0000000
 AtZNuc=   1.0000000   6.0000000   1.0000000   1.0000000   1.0000000   6.0000000   1.0000000   1.0000000   1.0000000   6.0000000

  Atom        81          82          83          84          85          86          87          88          89          90
 IAtWgt=           1           1           1          12           1           1           1          12           1           1
 AtmWgt=   1.0078250   1.0078250   1.0078250  12.0000000   1.0078250   1.0078250   1.0078250  12.0000000   1.0078250   1.0078250
 NucSpn=           1           1           1           0           1           1           1           0           1           1
 AtZEff=  -0.0000000  -0.0000000  -0.0000000  -0.0000000  -0.0000000  -0.0000000  -0.0000000  -0.0000000  -0.0000000  -0.0000000
 NQMom=    0.0000000   0.0000000   0.0000000   0.0000000   0.0000000   0.0000000   0.0000000   0.0000000   0.0000000   0.0000000
 NMagM=    2.7928460   2.7928460   2.7928460   0.0000000   2.7928460   2.7928460   2.7928460   0.0000000   2.7928460   2.7928460
 AtZNuc=   1.0000000   1.0000000   1.0000000   6.0000000   1.0000000   1.0000000   1.0000000   6.0000000   1.0000000   1.0000000

  Atom        91          92          93          94          95
 IAtWgt=           1          12           1           1           1
 AtmWgt=   1.0078250  12.0000000   1.0078250   1.0078250   1.0078250
 NucSpn=           1           0           1           1           1
 AtZEff=  -0.0000000  -0.0000000  -0.0000000  -0.0000000  -0.0000000
 NQMom=    0.0000000   0.0000000   0.0000000   0.0000000   0.0000000
 NMagM=    2.7928460   0.0000000   2.7928460   2.7928460   2.7928460
 AtZNuc=   1.0000000   6.0000000   1.0000000   1.0000000   1.0000000
 Leave Link  101 at Thu Dec 20 18:33:58 2018, MaxMem=  1342177280 cpu:               4.3 elap:               0.3
 (Enter /gpfs/apps/hpc/Apps/Restricted/Gaussian/Rev_A.03/g16/l103.exe)

 GradGradGradGradGradGradGradGradGradGradGradGradGradGradGradGradGradGrad
 Berny optimization.
 Initialization pass.
                           ----------------------------
                           !    Initial Parameters    !
                           ! (Angstroms and Degrees)  !
 --------------------------                            --------------------------
 ! Name  Definition              Value          Derivative Info.                !
 --------------------------------------------------------------------------------
 ! R1    R(1,2)                  1.4168         estimate D2E/DX2                !
 ! R2    R(1,6)                  1.4127         estimate D2E/DX2                !
 ! R3    R(1,35)                 1.3771         estimate D2E/DX2                !
 ! R4    R(2,3)                  1.3915         estimate D2E/DX2                !
 ! R5    R(2,21)                 1.3778         estimate D2E/DX2                !
 ! R6    R(3,4)                  1.3973         estimate D2E/DX2                !
 ! R7    R(3,8)                  1.0824         estimate D2E/DX2                !
 ! R8    R(4,5)                  1.3999         estimate D2E/DX2                !
 ! R9    R(4,9)                  1.083          estimate D2E/DX2                !
 ! R10   R(5,6)                  1.4027         estimate D2E/DX2                !
 ! R11   R(5,10)                 1.0827         estimate D2E/DX2                !
 ! R12   R(6,36)                 1.4414         estimate D2E/DX2                !
 ! R13   R(7,16)                 1.4508         estimate D2E/DX2                !
 ! R14   R(7,21)                 1.3683         estimate D2E/DX2                !
 ! R15   R(7,35)                 1.3358         estimate D2E/DX2                !
 ! R16   R(11,12)                1.4201         estimate D2E/DX2                !
 ! R17   R(11,16)                1.4141         estimate D2E/DX2                !
 ! R18   R(11,33)                1.3763         estimate D2E/DX2                !
 ! R19   R(12,13)                1.3947         estimate D2E/DX2                !
 ! R20   R(12,34)                1.3723         estimate D2E/DX2                !
 ! R21   R(13,14)                1.3933         estimate D2E/DX2                !
 ! R22   R(13,18)                1.0827         estimate D2E/DX2                !
 ! R23   R(14,15)                1.4049         estimate D2E/DX2                !
 ! R24   R(14,19)                1.0833         estimate D2E/DX2                !
 ! R25   R(15,16)                1.3976         estimate D2E/DX2                !
 ! R26   R(15,20)                1.0827         estimate D2E/DX2                !
 ! R27   R(17,23)                1.4492         estimate D2E/DX2                !
 ! R28   R(17,33)                1.3394         estimate D2E/DX2                !
 ! R29   R(17,34)                1.3686         estimate D2E/DX2                !
 ! R30   R(21,69)                1.019          estimate D2E/DX2                !
 ! R31   R(22,23)                1.4681         estimate D2E/DX2                !
 ! R32   R(22,27)                1.4611         estimate D2E/DX2                !
 ! R33   R(22,32)                1.2592         estimate D2E/DX2                !
 ! R34   R(23,24)                1.387          estimate D2E/DX2                !
 ! R35   R(24,25)                1.4034         estimate D2E/DX2                !
 ! R36   R(24,28)                1.0835         estimate D2E/DX2                !
 ! R37   R(25,26)                1.4189         estimate D2E/DX2                !
 ! R38   R(25,30)                1.4978         estimate D2E/DX2                !
 ! R39   R(26,27)                1.3729         estimate D2E/DX2                !
 ! R40   R(26,29)                1.0854         estimate D2E/DX2                !
 ! R41   R(27,31)                1.4957         estimate D2E/DX2                !
 ! R42   R(30,84)                1.54           estimate D2E/DX2                !
 ! R43   R(30,88)                1.54           estimate D2E/DX2                !
 ! R44   R(30,92)                1.54           estimate D2E/DX2                !
 ! R45   R(31,72)                1.54           estimate D2E/DX2                !
 ! R46   R(31,76)                1.54           estimate D2E/DX2                !
 ! R47   R(31,80)                1.54           estimate D2E/DX2                !
 ! R48   R(34,70)                1.0166         estimate D2E/DX2                !
 ! R49   R(36,37)                1.3502         estimate D2E/DX2                !
 ! R50   R(36,38)                1.3489         estimate D2E/DX2                !
 ! R51   R(37,43)                1.3868         estimate D2E/DX2                !
 ! R52   R(37,68)                1.0253         estimate D2E/DX2                !
 ! R53   R(38,44)                1.3815         estimate D2E/DX2                !
 ! R54   R(38,71)                1.0191         estimate D2E/DX2                !
 ! R55   R(39,40)                1.3981         estimate D2E/DX2                !
 ! R56   R(39,44)                1.401          estimate D2E/DX2                !
 ! R57   R(39,48)                1.464          estimate D2E/DX2                !
 ! R58   R(40,41)                1.4065         estimate D2E/DX2                !
 ! R59   R(40,45)                1.0841         estimate D2E/DX2                !
 ! R60   R(41,42)                1.3933         estimate D2E/DX2                !
 ! R61   R(41,46)                1.0828         estimate D2E/DX2                !
 ! R62   R(42,43)                1.3954         estimate D2E/DX2                !
 ! R63   R(42,47)                1.082          estimate D2E/DX2                !
 ! R64   R(43,44)                1.4026         estimate D2E/DX2                !
 ! R65   R(48,49)                1.092          estimate D2E/DX2                !
 ! R66   R(48,50)                1.2802         estimate D2E/DX2                !
 ! R67   R(50,51)                1.4634         estimate D2E/DX2                !
 ! R68   R(51,52)                1.5321         estimate D2E/DX2                !
 ! R69   R(51,53)                1.5377         estimate D2E/DX2                !
 ! R70   R(51,54)                1.0996         estimate D2E/DX2                !
 ! R71   R(52,55)                1.533          estimate D2E/DX2                !
 ! R72   R(52,56)                1.0969         estimate D2E/DX2                !
 ! R73   R(52,57)                1.0943         estimate D2E/DX2                !
 ! R74   R(53,58)                1.5323         estimate D2E/DX2                !
 ! R75   R(53,59)                1.097          estimate D2E/DX2                !
 ! R76   R(53,60)                1.0943         estimate D2E/DX2                !
 ! R77   R(55,61)                1.5323         estimate D2E/DX2                !
 ! R78   R(55,62)                1.0942         estimate D2E/DX2                !
 ! R79   R(55,63)                1.0972         estimate D2E/DX2                !
 ! R80   R(58,61)                1.5326         estimate D2E/DX2                !
 ! R81   R(58,64)                1.0939         estimate D2E/DX2                !
 ! R82   R(58,65)                1.097          estimate D2E/DX2                !
 ! R83   R(61,66)                1.0944         estimate D2E/DX2                !
 ! R84   R(61,67)                1.0971         estimate D2E/DX2                !
 ! R85   R(72,73)                1.07           estimate D2E/DX2                !
 ! R86   R(72,74)                1.07           estimate D2E/DX2                !
 ! R87   R(72,75)                1.07           estimate D2E/DX2                !
 ! R88   R(76,77)                1.07           estimate D2E/DX2                !
 ! R89   R(76,78)                1.07           estimate D2E/DX2                !
 ! R90   R(76,79)                1.07           estimate D2E/DX2                !
 ! R91   R(80,81)                1.07           estimate D2E/DX2                !
 ! R92   R(80,82)                1.07           estimate D2E/DX2                !
 ! R93   R(80,83)                1.07           estimate D2E/DX2                !
 ! R94   R(84,85)                1.07           estimate D2E/DX2                !
 ! R95   R(84,86)                1.07           estimate D2E/DX2                !
 ! R96   R(84,87)                1.07           estimate D2E/DX2                !
 ! R97   R(88,89)                1.07           estimate D2E/DX2                !
 ! R98   R(88,90)                1.07           estimate D2E/DX2                !
 ! R99   R(88,91)                1.07           estimate D2E/DX2                !
 ! R100  R(92,93)                1.07           estimate D2E/DX2                !
 ! R101  R(92,94)                1.07           estimate D2E/DX2                !
 ! R102  R(92,95)                1.07           estimate D2E/DX2                !
 ! A1    A(2,1,6)              119.9437         estimate D2E/DX2                !
 ! A2    A(2,1,35)             110.4198         estimate D2E/DX2                !
 ! A3    A(6,1,35)             129.6363         estimate D2E/DX2                !
 ! A4    A(1,2,3)              122.2216         estimate D2E/DX2                !
 ! A5    A(1,2,21)             104.4837         estimate D2E/DX2                !
 ! A6    A(3,2,21)             133.2943         estimate D2E/DX2                !
 ! A7    A(2,3,4)              117.0902         estimate D2E/DX2                !
 ! A8    A(2,3,8)              121.5985         estimate D2E/DX2                !
 ! A9    A(4,3,8)              121.3112         estimate D2E/DX2                !
 ! A10   A(3,4,5)              121.9137         estimate D2E/DX2                !
 ! A11   A(3,4,9)              119.1688         estimate D2E/DX2                !
 ! A12   A(5,4,9)              118.9175         estimate D2E/DX2                !
 ! A13   A(4,5,6)              121.1527         estimate D2E/DX2                !
 ! A14   A(4,5,10)             118.9527         estimate D2E/DX2                !
 ! A15   A(6,5,10)             119.8935         estimate D2E/DX2                !
 ! A16   A(1,6,5)              117.6776         estimate D2E/DX2                !
 ! A17   A(1,6,36)             118.9772         estimate D2E/DX2                !
 ! A18   A(5,6,36)             123.3452         estimate D2E/DX2                !
 ! A19   A(16,7,21)            121.7571         estimate D2E/DX2                !
 ! A20   A(16,7,35)            126.2066         estimate D2E/DX2                !
 ! A21   A(21,7,35)            112.0333         estimate D2E/DX2                !
 ! A22   A(12,11,16)           119.8019         estimate D2E/DX2                !
 ! A23   A(12,11,33)           110.2554         estimate D2E/DX2                !
 ! A24   A(16,11,33)           129.9425         estimate D2E/DX2                !
 ! A25   A(11,12,13)           122.5834         estimate D2E/DX2                !
 ! A26   A(11,12,34)           104.5957         estimate D2E/DX2                !
 ! A27   A(13,12,34)           132.8198         estimate D2E/DX2                !
 ! A28   A(12,13,14)           116.7            estimate D2E/DX2                !
 ! A29   A(12,13,18)           121.611          estimate D2E/DX2                !
 ! A30   A(14,13,18)           121.6889         estimate D2E/DX2                !
 ! A31   A(13,14,15)           121.8805         estimate D2E/DX2                !
 ! A32   A(13,14,19)           119.3253         estimate D2E/DX2                !
 ! A33   A(15,14,19)           118.7943         estimate D2E/DX2                !
 ! A34   A(14,15,16)           121.6685         estimate D2E/DX2                !
 ! A35   A(14,15,20)           119.7771         estimate D2E/DX2                !
 ! A36   A(16,15,20)           118.554          estimate D2E/DX2                !
 ! A37   A(7,16,11)            121.0918         estimate D2E/DX2                !
 ! A38   A(7,16,15)            121.5436         estimate D2E/DX2                !
 ! A39   A(11,16,15)           117.3644         estimate D2E/DX2                !
 ! A40   A(23,17,33)           125.652          estimate D2E/DX2                !
 ! A41   A(23,17,34)           122.53           estimate D2E/DX2                !
 ! A42   A(33,17,34)           111.8156         estimate D2E/DX2                !
 ! A43   A(2,21,7)             107.9265         estimate D2E/DX2                !
 ! A44   A(2,21,69)            129.803          estimate D2E/DX2                !
 ! A45   A(7,21,69)            122.2704         estimate D2E/DX2                !
 ! A46   A(23,22,27)           117.8283         estimate D2E/DX2                !
 ! A47   A(23,22,32)           122.3322         estimate D2E/DX2                !
 ! A48   A(27,22,32)           119.8394         estimate D2E/DX2                !
 ! A49   A(17,23,22)           120.1652         estimate D2E/DX2                !
 ! A50   A(17,23,24)           120.1825         estimate D2E/DX2                !
 ! A51   A(22,23,24)           119.6522         estimate D2E/DX2                !
 ! A52   A(23,24,25)           121.5454         estimate D2E/DX2                !
 ! A53   A(23,24,28)           118.8423         estimate D2E/DX2                !
 ! A54   A(25,24,28)           119.612          estimate D2E/DX2                !
 ! A55   A(24,25,26)           119.3016         estimate D2E/DX2                !
 ! A56   A(24,25,30)           120.724          estimate D2E/DX2                !
 ! A57   A(26,25,30)           119.9615         estimate D2E/DX2                !
 ! A58   A(25,26,27)           122.1884         estimate D2E/DX2                !
 ! A59   A(25,26,29)           118.4852         estimate D2E/DX2                !
 ! A60   A(27,26,29)           119.3263         estimate D2E/DX2                !
 ! A61   A(22,27,26)           119.4811         estimate D2E/DX2                !
 ! A62   A(22,27,31)           117.658          estimate D2E/DX2                !
 ! A63   A(26,27,31)           122.8601         estimate D2E/DX2                !
 ! A64   A(25,30,84)           110.0203         estimate D2E/DX2                !
 ! A65   A(25,30,88)           111.1133         estimate D2E/DX2                !
 ! A66   A(25,30,92)           111.3102         estimate D2E/DX2                !
 ! A67   A(84,30,88)           107.1178         estimate D2E/DX2                !
 ! A68   A(84,30,92)           107.7752         estimate D2E/DX2                !
 ! A69   A(88,30,92)           109.3582         estimate D2E/DX2                !
 ! A70   A(27,31,72)           110.7988         estimate D2E/DX2                !
 ! A71   A(27,31,76)           110.8179         estimate D2E/DX2                !
 ! A72   A(27,31,80)           110.6783         estimate D2E/DX2                !
 ! A73   A(72,31,76)           108.9572         estimate D2E/DX2                !
 ! A74   A(72,31,80)           106.4402         estimate D2E/DX2                !
 ! A75   A(76,31,80)           109.0272         estimate D2E/DX2                !
 ! A76   A(11,33,17)           105.197          estimate D2E/DX2                !
 ! A77   A(12,34,17)           108.1358         estimate D2E/DX2                !
 ! A78   A(12,34,70)           130.9322         estimate D2E/DX2                !
 ! A79   A(17,34,70)           120.9288         estimate D2E/DX2                !
 ! A80   A(1,35,7)             105.1359         estimate D2E/DX2                !
 ! A81   A(6,36,37)            123.2877         estimate D2E/DX2                !
 ! A82   A(6,36,38)            128.8175         estimate D2E/DX2                !
 ! A83   A(37,36,38)           107.8928         estimate D2E/DX2                !
 ! A84   A(36,37,43)           109.9929         estimate D2E/DX2                !
 ! A85   A(36,37,68)           120.0782         estimate D2E/DX2                !
 ! A86   A(43,37,68)           129.9187         estimate D2E/DX2                !
 ! A87   A(36,38,44)           109.3996         estimate D2E/DX2                !
 ! A88   A(36,38,71)           130.5858         estimate D2E/DX2                !
 ! A89   A(44,38,71)           119.9904         estimate D2E/DX2                !
 ! A90   A(40,39,44)           115.5906         estimate D2E/DX2                !
 ! A91   A(40,39,48)           122.9867         estimate D2E/DX2                !
 ! A92   A(44,39,48)           121.3945         estimate D2E/DX2                !
 ! A93   A(39,40,41)           121.8608         estimate D2E/DX2                !
 ! A94   A(39,40,45)           118.7282         estimate D2E/DX2                !
 ! A95   A(41,40,45)           119.4072         estimate D2E/DX2                !
 ! A96   A(40,41,42)           122.0228         estimate D2E/DX2                !
 ! A97   A(40,41,46)           118.9357         estimate D2E/DX2                !
 ! A98   A(42,41,46)           119.0416         estimate D2E/DX2                !
 ! A99   A(41,42,43)           116.5746         estimate D2E/DX2                !
 ! A100  A(41,42,47)           121.8821         estimate D2E/DX2                !
 ! A101  A(43,42,47)           121.543          estimate D2E/DX2                !
 ! A102  A(37,43,42)           133.1005         estimate D2E/DX2                !
 ! A103  A(37,43,44)           105.6558         estimate D2E/DX2                !
 ! A104  A(42,43,44)           121.2435         estimate D2E/DX2                !
 ! A105  A(38,44,39)           130.2344         estimate D2E/DX2                !
 ! A106  A(38,44,43)           107.0588         estimate D2E/DX2                !
 ! A107  A(39,44,43)           122.7024         estimate D2E/DX2                !
 ! A108  A(39,48,49)           115.7254         estimate D2E/DX2                !
 ! A109  A(39,48,50)           120.8118         estimate D2E/DX2                !
 ! A110  A(49,48,50)           123.4473         estimate D2E/DX2                !
 ! A111  A(48,50,51)           120.4197         estimate D2E/DX2                !
 ! A112  A(50,51,52)           117.0333         estimate D2E/DX2                !
 ! A113  A(50,51,53)           108.6297         estimate D2E/DX2                !
 ! A114  A(50,51,54)           105.0594         estimate D2E/DX2                !
 ! A115  A(52,51,53)           110.8571         estimate D2E/DX2                !
 ! A116  A(52,51,54)           107.8192         estimate D2E/DX2                !
 ! A117  A(53,51,54)           106.835          estimate D2E/DX2                !
 ! A118  A(51,52,55)           110.8908         estimate D2E/DX2                !
 ! A119  A(51,52,56)           109.1437         estimate D2E/DX2                !
 ! A120  A(51,52,57)           110.1869         estimate D2E/DX2                !
 ! A121  A(55,52,56)           109.4031         estimate D2E/DX2                !
 ! A122  A(55,52,57)           110.1119         estimate D2E/DX2                !
 ! A123  A(56,52,57)           107.016          estimate D2E/DX2                !
 ! A124  A(51,53,58)           111.1469         estimate D2E/DX2                !
 ! A125  A(51,53,59)           108.3393         estimate D2E/DX2                !
 ! A126  A(51,53,60)           109.2342         estimate D2E/DX2                !
 ! A127  A(58,53,59)           109.9049         estimate D2E/DX2                !
 ! A128  A(58,53,60)           110.8805         estimate D2E/DX2                !
 ! A129  A(59,53,60)           107.2203         estimate D2E/DX2                !
 ! A130  A(52,55,61)           111.5606         estimate D2E/DX2                !
 ! A131  A(52,55,62)           109.7061         estimate D2E/DX2                !
 ! A132  A(52,55,63)           109.1737         estimate D2E/DX2                !
 ! A133  A(61,55,62)           110.4464         estimate D2E/DX2                !
 ! A134  A(61,55,63)           109.1474         estimate D2E/DX2                !
 ! A135  A(62,55,63)           106.6744         estimate D2E/DX2                !
 ! A136  A(53,58,61)           111.5606         estimate D2E/DX2                !
 ! A137  A(53,58,64)           109.949          estimate D2E/DX2                !
 ! A138  A(53,58,65)           108.9776         estimate D2E/DX2                !
 ! A139  A(61,58,64)           110.3945         estimate D2E/DX2                !
 ! A140  A(61,58,65)           109.0391         estimate D2E/DX2                !
 ! A141  A(64,58,65)           106.7874         estimate D2E/DX2                !
 ! A142  A(55,61,58)           111.1409         estimate D2E/DX2                !
 ! A143  A(55,61,66)           110.13           estimate D2E/DX2                !
 ! A144  A(55,61,67)           109.0974         estimate D2E/DX2                !
 ! A145  A(58,61,66)           110.125          estimate D2E/DX2                !
 ! A146  A(58,61,67)           109.2496         estimate D2E/DX2                !
 ! A147  A(66,61,67)           106.997          estimate D2E/DX2                !
 ! A148  A(31,72,73)           109.4712         estimate D2E/DX2                !
 ! A149  A(31,72,74)           109.4712         estimate D2E/DX2                !
 ! A150  A(31,72,75)           109.4712         estimate D2E/DX2                !
 ! A151  A(73,72,74)           109.4713         estimate D2E/DX2                !
 ! A152  A(73,72,75)           109.4712         estimate D2E/DX2                !
 ! A153  A(74,72,75)           109.4712         estimate D2E/DX2                !
 ! A154  A(31,76,77)           109.4712         estimate D2E/DX2                !
 ! A155  A(31,76,78)           109.4712         estimate D2E/DX2                !
 ! A156  A(31,76,79)           109.4712         estimate D2E/DX2                !
 ! A157  A(77,76,78)           109.4713         estimate D2E/DX2                !
 ! A158  A(77,76,79)           109.4712         estimate D2E/DX2                !
 ! A159  A(78,76,79)           109.4712         estimate D2E/DX2                !
 ! A160  A(31,80,81)           109.4712         estimate D2E/DX2                !
 ! A161  A(31,80,82)           109.4712         estimate D2E/DX2                !
 ! A162  A(31,80,83)           109.4712         estimate D2E/DX2                !
 ! A163  A(81,80,82)           109.4713         estimate D2E/DX2                !
 ! A164  A(81,80,83)           109.4712         estimate D2E/DX2                !
 ! A165  A(82,80,83)           109.4712         estimate D2E/DX2                !
 ! A166  A(30,84,85)           109.4712         estimate D2E/DX2                !
 ! A167  A(30,84,86)           109.4712         estimate D2E/DX2                !
 ! A168  A(30,84,87)           109.4712         estimate D2E/DX2                !
 ! A169  A(85,84,86)           109.4713         estimate D2E/DX2                !
 ! A170  A(85,84,87)           109.4712         estimate D2E/DX2                !
 ! A171  A(86,84,87)           109.4712         estimate D2E/DX2                !
 ! A172  A(30,88,89)           109.4712         estimate D2E/DX2                !
 ! A173  A(30,88,90)           109.4712         estimate D2E/DX2                !
 ! A174  A(30,88,91)           109.4712         estimate D2E/DX2                !
 ! A175  A(89,88,90)           109.4713         estimate D2E/DX2                !
 ! A176  A(89,88,91)           109.4712         estimate D2E/DX2                !
 ! A177  A(90,88,91)           109.4712         estimate D2E/DX2                !
 ! A178  A(30,92,93)           109.4712         estimate D2E/DX2                !
 ! A179  A(30,92,94)           109.4712         estimate D2E/DX2                !
 ! A180  A(30,92,95)           109.4712         estimate D2E/DX2                !
 ! A181  A(93,92,94)           109.4713         estimate D2E/DX2                !
 ! A182  A(93,92,95)           109.4712         estimate D2E/DX2                !
 ! A183  A(94,92,95)           109.4712         estimate D2E/DX2                !
 ! D1    D(6,1,2,3)              0.1968         estimate D2E/DX2                !
 ! D2    D(6,1,2,21)          -179.6092         estimate D2E/DX2                !
 ! D3    D(35,1,2,3)          -179.9277         estimate D2E/DX2                !
 ! D4    D(35,1,2,21)            0.2663         estimate D2E/DX2                !
 ! D5    D(2,1,6,5)             -0.12           estimate D2E/DX2                !
 ! D6    D(2,1,6,36)           179.8973         estimate D2E/DX2                !
 ! D7    D(35,1,6,5)          -179.9685         estimate D2E/DX2                !
 ! D8    D(35,1,6,36)            0.0488         estimate D2E/DX2                !
 ! D9    D(2,1,35,7)            -0.2884         estimate D2E/DX2                !
 ! D10   D(6,1,35,7)           179.5714         estimate D2E/DX2                !
 ! D11   D(1,2,3,4)             -0.0631         estimate D2E/DX2                !
 ! D12   D(1,2,3,8)            179.8715         estimate D2E/DX2                !
 ! D13   D(21,2,3,4)           179.6788         estimate D2E/DX2                !
 ! D14   D(21,2,3,8)            -0.3867         estimate D2E/DX2                !
 ! D15   D(1,2,21,7)            -0.1372         estimate D2E/DX2                !
 ! D16   D(1,2,21,69)         -179.9888         estimate D2E/DX2                !
 ! D17   D(3,2,21,7)          -179.9117         estimate D2E/DX2                !
 ! D18   D(3,2,21,69)            0.2367         estimate D2E/DX2                !
 ! D19   D(2,3,4,5)             -0.1436         estimate D2E/DX2                !
 ! D20   D(2,3,4,9)            179.8203         estimate D2E/DX2                !
 ! D21   D(8,3,4,5)            179.9216         estimate D2E/DX2                !
 ! D22   D(8,3,4,9)             -0.1144         estimate D2E/DX2                !
 ! D23   D(3,4,5,6)              0.2198         estimate D2E/DX2                !
 ! D24   D(3,4,5,10)           179.8499         estimate D2E/DX2                !
 ! D25   D(9,4,5,6)           -179.7442         estimate D2E/DX2                !
 ! D26   D(9,4,5,10)            -0.1142         estimate D2E/DX2                !
 ! D27   D(4,5,6,1)             -0.0807         estimate D2E/DX2                !
 ! D28   D(4,5,6,36)           179.9011         estimate D2E/DX2                !
 ! D29   D(10,5,6,1)          -179.7074         estimate D2E/DX2                !
 ! D30   D(10,5,6,36)            0.2745         estimate D2E/DX2                !
 ! D31   D(1,6,36,37)            2.7693         estimate D2E/DX2                !
 ! D32   D(1,6,36,38)         -177.8147         estimate D2E/DX2                !
 ! D33   D(5,6,36,37)         -177.2123         estimate D2E/DX2                !
 ! D34   D(5,6,36,38)            2.2036         estimate D2E/DX2                !
 ! D35   D(21,7,16,11)           0.6333         estimate D2E/DX2                !
 ! D36   D(21,7,16,15)        -179.1995         estimate D2E/DX2                !
 ! D37   D(35,7,16,11)         179.9546         estimate D2E/DX2                !
 ! D38   D(35,7,16,15)           0.1218         estimate D2E/DX2                !
 ! D39   D(16,7,21,2)          179.371          estimate D2E/DX2                !
 ! D40   D(16,7,21,69)          -0.7639         estimate D2E/DX2                !
 ! D41   D(35,7,21,2)           -0.0382         estimate D2E/DX2                !
 ! D42   D(35,7,21,69)         179.8269         estimate D2E/DX2                !
 ! D43   D(16,7,35,1)         -179.1763         estimate D2E/DX2                !
 ! D44   D(21,7,35,1)            0.2012         estimate D2E/DX2                !
 ! D45   D(16,11,12,13)         -0.3423         estimate D2E/DX2                !
 ! D46   D(16,11,12,34)        179.9967         estimate D2E/DX2                !
 ! D47   D(33,11,12,13)        179.5111         estimate D2E/DX2                !
 ! D48   D(33,11,12,34)         -0.1499         estimate D2E/DX2                !
 ! D49   D(12,11,16,7)        -179.404          estimate D2E/DX2                !
 ! D50   D(12,11,16,15)          0.4355         estimate D2E/DX2                !
 ! D51   D(33,11,16,7)           0.7754         estimate D2E/DX2                !
 ! D52   D(33,11,16,15)       -179.385          estimate D2E/DX2                !
 ! D53   D(12,11,33,17)          0.0168         estimate D2E/DX2                !
 ! D54   D(16,11,33,17)        179.8508         estimate D2E/DX2                !
 ! D55   D(11,12,13,14)          0.1243         estimate D2E/DX2                !
 ! D56   D(11,12,13,18)        179.9977         estimate D2E/DX2                !
 ! D57   D(34,12,13,14)        179.677          estimate D2E/DX2                !
 ! D58   D(34,12,13,18)         -0.4496         estimate D2E/DX2                !
 ! D59   D(11,12,34,17)          0.2217         estimate D2E/DX2                !
 ! D60   D(11,12,34,70)        179.5568         estimate D2E/DX2                !
 ! D61   D(13,12,34,17)       -179.3889         estimate D2E/DX2                !
 ! D62   D(13,12,34,70)         -0.0537         estimate D2E/DX2                !
 ! D63   D(12,13,14,15)         -0.0187         estimate D2E/DX2                !
 ! D64   D(12,13,14,19)        179.9636         estimate D2E/DX2                !
 ! D65   D(18,13,14,15)       -179.892          estimate D2E/DX2                !
 ! D66   D(18,13,14,19)          0.0902         estimate D2E/DX2                !
 ! D67   D(13,14,15,16)          0.1355         estimate D2E/DX2                !
 ! D68   D(13,14,15,20)        179.8991         estimate D2E/DX2                !
 ! D69   D(19,14,15,16)       -179.8468         estimate D2E/DX2                !
 ! D70   D(19,14,15,20)         -0.0833         estimate D2E/DX2                !
 ! D71   D(14,15,16,7)         179.4978         estimate D2E/DX2                !
 ! D72   D(14,15,16,11)         -0.341          estimate D2E/DX2                !
 ! D73   D(20,15,16,7)          -0.2685         estimate D2E/DX2                !
 ! D74   D(20,15,16,11)        179.8927         estimate D2E/DX2                !
 ! D75   D(33,17,23,22)        179.3097         estimate D2E/DX2                !
 ! D76   D(33,17,23,24)         -0.6004         estimate D2E/DX2                !
 ! D77   D(34,17,23,22)         -0.08           estimate D2E/DX2                !
 ! D78   D(34,17,23,24)       -179.9901         estimate D2E/DX2                !
 ! D79   D(23,17,33,11)       -179.3171         estimate D2E/DX2                !
 ! D80   D(34,17,33,11)          0.1287         estimate D2E/DX2                !
 ! D81   D(23,17,34,12)        179.2363         estimate D2E/DX2                !
 ! D82   D(23,17,34,70)         -0.1781         estimate D2E/DX2                !
 ! D83   D(33,17,34,12)         -0.2295         estimate D2E/DX2                !
 ! D84   D(33,17,34,70)       -179.644          estimate D2E/DX2                !
 ! D85   D(27,22,23,17)       -179.482          estimate D2E/DX2                !
 ! D86   D(27,22,23,24)          0.4286         estimate D2E/DX2                !
 ! D87   D(32,22,23,17)          0.5864         estimate D2E/DX2                !
 ! D88   D(32,22,23,24)       -179.503          estimate D2E/DX2                !
 ! D89   D(23,22,27,26)         -0.2585         estimate D2E/DX2                !
 ! D90   D(23,22,27,31)       -179.9377         estimate D2E/DX2                !
 ! D91   D(32,22,27,26)        179.6749         estimate D2E/DX2                !
 ! D92   D(32,22,27,31)         -0.0043         estimate D2E/DX2                !
 ! D93   D(17,23,24,25)        179.317          estimate D2E/DX2                !
 ! D94   D(17,23,24,28)         -0.4765         estimate D2E/DX2                !
 ! D95   D(22,23,24,25)         -0.5936         estimate D2E/DX2                !
 ! D96   D(22,23,24,28)        179.6129         estimate D2E/DX2                !
 ! D97   D(23,24,25,26)          0.5701         estimate D2E/DX2                !
 ! D98   D(23,24,25,30)       -178.1219         estimate D2E/DX2                !
 ! D99   D(28,24,25,26)       -179.638          estimate D2E/DX2                !
 ! D100  D(28,24,25,30)          1.67           estimate D2E/DX2                !
 ! D101  D(24,25,26,27)         -0.3945         estimate D2E/DX2                !
 ! D102  D(24,25,26,29)        179.5278         estimate D2E/DX2                !
 ! D103  D(30,25,26,27)        178.3077         estimate D2E/DX2                !
 ! D104  D(30,25,26,29)         -1.77           estimate D2E/DX2                !
 ! D105  D(24,25,30,84)         96.9137         estimate D2E/DX2                !
 ! D106  D(24,25,30,88)       -144.6288         estimate D2E/DX2                !
 ! D107  D(24,25,30,92)        -22.4861         estimate D2E/DX2                !
 ! D108  D(26,25,30,84)        -81.7697         estimate D2E/DX2                !
 ! D109  D(26,25,30,88)         36.6877         estimate D2E/DX2                !
 ! D110  D(26,25,30,92)        158.8305         estimate D2E/DX2                !
 ! D111  D(25,26,27,22)          0.2482         estimate D2E/DX2                !
 ! D112  D(25,26,27,31)        179.9099         estimate D2E/DX2                !
 ! D113  D(29,26,27,22)       -179.6735         estimate D2E/DX2                !
 ! D114  D(29,26,27,31)         -0.0117         estimate D2E/DX2                !
 ! D115  D(22,27,31,72)        -61.1614         estimate D2E/DX2                !
 ! D116  D(22,27,31,76)        177.7607         estimate D2E/DX2                !
 ! D117  D(22,27,31,80)         56.6754         estimate D2E/DX2                !
 ! D118  D(26,27,31,72)        119.171          estimate D2E/DX2                !
 ! D119  D(26,27,31,76)         -1.9069         estimate D2E/DX2                !
 ! D120  D(26,27,31,80)       -122.9921         estimate D2E/DX2                !
 ! D121  D(25,30,84,85)         84.1215         estimate D2E/DX2                !
 ! D122  D(25,30,84,86)       -155.8785         estimate D2E/DX2                !
 ! D123  D(25,30,84,87)        -35.8785         estimate D2E/DX2                !
 ! D124  D(88,30,84,85)        -36.767          estimate D2E/DX2                !
 ! D125  D(88,30,84,86)         83.233          estimate D2E/DX2                !
 ! D126  D(88,30,84,87)       -156.767          estimate D2E/DX2                !
 ! D127  D(92,30,84,85)       -154.3452         estimate D2E/DX2                !
 ! D128  D(92,30,84,86)        -34.3452         estimate D2E/DX2                !
 ! D129  D(92,30,84,87)         85.6548         estimate D2E/DX2                !
 ! D130  D(25,30,88,89)        165.9983         estimate D2E/DX2                !
 ! D131  D(25,30,88,90)        -74.0017         estimate D2E/DX2                !
 ! D132  D(25,30,88,91)         45.9983         estimate D2E/DX2                !
 ! D133  D(84,30,88,89)        -73.8083         estimate D2E/DX2                !
 ! D134  D(84,30,88,90)         46.1918         estimate D2E/DX2                !
 ! D135  D(84,30,88,91)        166.1917         estimate D2E/DX2                !
 ! D136  D(92,30,88,89)         42.7289         estimate D2E/DX2                !
 ! D137  D(92,30,88,90)        162.7289         estimate D2E/DX2                !
 ! D138  D(92,30,88,91)        -77.2711         estimate D2E/DX2                !
 ! D139  D(25,30,92,93)        -48.7901         estimate D2E/DX2                !
 ! D140  D(25,30,92,94)         71.2099         estimate D2E/DX2                !
 ! D141  D(25,30,92,95)       -168.7901         estimate D2E/DX2                !
 ! D142  D(84,30,92,93)       -169.5178         estimate D2E/DX2                !
 ! D143  D(84,30,92,94)        -49.5178         estimate D2E/DX2                !
 ! D144  D(84,30,92,95)         70.4822         estimate D2E/DX2                !
 ! D145  D(88,30,92,93)         74.3625         estimate D2E/DX2                !
 ! D146  D(88,30,92,94)       -165.6375         estimate D2E/DX2                !
 ! D147  D(88,30,92,95)        -45.6375         estimate D2E/DX2                !
 ! D148  D(27,31,72,73)         96.6449         estimate D2E/DX2                !
 ! D149  D(27,31,72,74)       -143.355          estimate D2E/DX2                !
 ! D150  D(27,31,72,75)        -23.3551         estimate D2E/DX2                !
 ! D151  D(76,31,72,73)       -141.1841         estimate D2E/DX2                !
 ! D152  D(76,31,72,74)        -21.184          estimate D2E/DX2                !
 ! D153  D(76,31,72,75)         98.816          estimate D2E/DX2                !
 ! D154  D(80,31,72,73)        -23.7476         estimate D2E/DX2                !
 ! D155  D(80,31,72,74)         96.2524         estimate D2E/DX2                !
 ! D156  D(80,31,72,75)       -143.7476         estimate D2E/DX2                !
 ! D157  D(27,31,76,77)        -58.5293         estimate D2E/DX2                !
 ! D158  D(27,31,76,78)         61.4707         estimate D2E/DX2                !
 ! D159  D(27,31,76,79)       -178.5293         estimate D2E/DX2                !
 ! D160  D(72,31,76,77)        179.3111         estimate D2E/DX2                !
 ! D161  D(72,31,76,78)        -60.6888         estimate D2E/DX2                !
 ! D162  D(72,31,76,79)         59.3112         estimate D2E/DX2                !
 ! D163  D(80,31,76,77)         63.5262         estimate D2E/DX2                !
 ! D164  D(80,31,76,78)       -176.4738         estimate D2E/DX2                !
 ! D165  D(80,31,76,79)        -56.4738         estimate D2E/DX2                !
 ! D166  D(27,31,80,81)        -89.7914         estimate D2E/DX2                !
 ! D167  D(27,31,80,82)         30.2086         estimate D2E/DX2                !
 ! D168  D(27,31,80,83)        150.2086         estimate D2E/DX2                !
 ! D169  D(72,31,80,81)         30.6788         estimate D2E/DX2                !
 ! D170  D(72,31,80,82)        150.6788         estimate D2E/DX2                !
 ! D171  D(72,31,80,83)        -89.3212         estimate D2E/DX2                !
 ! D172  D(76,31,80,81)        148.0688         estimate D2E/DX2                !
 ! D173  D(76,31,80,82)        -91.9312         estimate D2E/DX2                !
 ! D174  D(76,31,80,83)         28.0688         estimate D2E/DX2                !
 ! D175  D(6,36,37,43)         179.4212         estimate D2E/DX2                !
 ! D176  D(6,36,37,68)          -1.6262         estimate D2E/DX2                !
 ! D177  D(38,36,37,43)         -0.1007         estimate D2E/DX2                !
 ! D178  D(38,36,37,68)        178.852          estimate D2E/DX2                !
 ! D179  D(6,36,38,44)        -179.4238         estimate D2E/DX2                !
 ! D180  D(6,36,38,71)           2.4061         estimate D2E/DX2                !
 ! D181  D(37,36,38,44)          0.0632         estimate D2E/DX2                !
 ! D182  D(37,36,38,71)       -178.1069         estimate D2E/DX2                !
 ! D183  D(36,37,43,42)        179.9585         estimate D2E/DX2                !
 ! D184  D(36,37,43,44)          0.0971         estimate D2E/DX2                !
 ! D185  D(68,37,43,42)          1.1402         estimate D2E/DX2                !
 ! D186  D(68,37,43,44)       -178.7212         estimate D2E/DX2                !
 ! D187  D(36,38,44,39)       -179.244          estimate D2E/DX2                !
 ! D188  D(36,38,44,43)         -0.0029         estimate D2E/DX2                !
 ! D189  D(71,38,44,39)         -0.8485         estimate D2E/DX2                !
 ! D190  D(71,38,44,43)        178.3927         estimate D2E/DX2                !
 ! D191  D(44,39,40,41)         -0.6817         estimate D2E/DX2                !
 ! D192  D(44,39,40,45)       -179.9766         estimate D2E/DX2                !
 ! D193  D(48,39,40,41)        177.4119         estimate D2E/DX2                !
 ! D194  D(48,39,40,45)         -1.883          estimate D2E/DX2                !
 ! D195  D(40,39,44,38)       -179.9774         estimate D2E/DX2                !
 ! D196  D(40,39,44,43)          0.8847         estimate D2E/DX2                !
 ! D197  D(48,39,44,38)          1.8959         estimate D2E/DX2                !
 ! D198  D(48,39,44,43)       -177.2419         estimate D2E/DX2                !
 ! D199  D(40,39,48,49)          2.5063         estimate D2E/DX2                !
 ! D200  D(40,39,48,50)       -176.1105         estimate D2E/DX2                !
 ! D201  D(44,39,48,49)       -179.508          estimate D2E/DX2                !
 ! D202  D(44,39,48,50)          1.8752         estimate D2E/DX2                !
 ! D203  D(39,40,41,42)          0.221          estimate D2E/DX2                !
 ! D204  D(39,40,41,46)       -179.7497         estimate D2E/DX2                !
 ! D205  D(45,40,41,42)        179.5113         estimate D2E/DX2                !
 ! D206  D(45,40,41,46)         -0.4594         estimate D2E/DX2                !
 ! D207  D(40,41,42,43)          0.0851         estimate D2E/DX2                !
 ! D208  D(40,41,42,47)       -179.7126         estimate D2E/DX2                !
 ! D209  D(46,41,42,43)       -179.9442         estimate D2E/DX2                !
 ! D210  D(46,41,42,47)          0.2582         estimate D2E/DX2                !
 ! D211  D(41,42,43,37)       -179.735          estimate D2E/DX2                !
 ! D212  D(41,42,43,44)          0.1089         estimate D2E/DX2                !
 ! D213  D(47,42,43,37)          0.0635         estimate D2E/DX2                !
 ! D214  D(47,42,43,44)        179.9073         estimate D2E/DX2                !
 ! D215  D(37,43,44,38)         -0.0563         estimate D2E/DX2                !
 ! D216  D(37,43,44,39)        179.2552         estimate D2E/DX2                !
 ! D217  D(42,43,44,38)       -179.9379         estimate D2E/DX2                !
 ! D218  D(42,43,44,39)         -0.6264         estimate D2E/DX2                !
 ! D219  D(39,48,50,51)        178.0096         estimate D2E/DX2                !
 ! D220  D(49,48,50,51)         -0.497          estimate D2E/DX2                !
 ! D221  D(48,50,51,52)         -0.832          estimate D2E/DX2                !
 ! D222  D(48,50,51,53)        125.5969         estimate D2E/DX2                !
 ! D223  D(48,50,51,54)       -120.3738         estimate D2E/DX2                !
 ! D224  D(50,51,52,55)       -178.4208         estimate D2E/DX2                !
 ! D225  D(50,51,52,56)         60.9888         estimate D2E/DX2                !
 ! D226  D(50,51,52,57)        -56.2484         estimate D2E/DX2                !
 ! D227  D(53,51,52,55)         56.2556         estimate D2E/DX2                !
 ! D228  D(53,51,52,56)        -64.3348         estimate D2E/DX2                !
 ! D229  D(53,51,52,57)        178.4281         estimate D2E/DX2                !
 ! D230  D(54,51,52,55)        -60.3604         estimate D2E/DX2                !
 ! D231  D(54,51,52,56)        179.0492         estimate D2E/DX2                !
 ! D232  D(54,51,52,57)         61.812          estimate D2E/DX2                !
 ! D233  D(50,51,53,58)        174.0883         estimate D2E/DX2                !
 ! D234  D(50,51,53,59)        -65.0616         estimate D2E/DX2                !
 ! D235  D(50,51,53,60)         51.4246         estimate D2E/DX2                !
 ! D236  D(52,51,53,58)        -55.9918         estimate D2E/DX2                !
 ! D237  D(52,51,53,59)         64.8583         estimate D2E/DX2                !
 ! D238  D(52,51,53,60)       -178.6556         estimate D2E/DX2                !
 ! D239  D(54,51,53,58)         61.229          estimate D2E/DX2                !
 ! D240  D(54,51,53,59)       -177.9209         estimate D2E/DX2                !
 ! D241  D(54,51,53,60)        -61.4348         estimate D2E/DX2                !
 ! D242  D(51,52,55,61)        -56.0044         estimate D2E/DX2                !
 ! D243  D(51,52,55,62)       -178.7223         estimate D2E/DX2                !
 ! D244  D(51,52,55,63)         64.7117         estimate D2E/DX2                !
 ! D245  D(56,52,55,61)         64.4321         estimate D2E/DX2                !
 ! D246  D(56,52,55,62)        -58.2858         estimate D2E/DX2                !
 ! D247  D(56,52,55,63)       -174.8518         estimate D2E/DX2                !
 ! D248  D(57,52,55,61)       -178.2206         estimate D2E/DX2                !
 ! D249  D(57,52,55,62)         59.0615         estimate D2E/DX2                !
 ! D250  D(57,52,55,63)        -57.5045         estimate D2E/DX2                !
 ! D251  D(51,53,58,61)         55.2299         estimate D2E/DX2                !
 ! D252  D(51,53,58,64)        178.0522         estimate D2E/DX2                !
 ! D253  D(51,53,58,65)        -65.221          estimate D2E/DX2                !
 ! D254  D(59,53,58,61)        -64.6945         estimate D2E/DX2                !
 ! D255  D(59,53,58,64)         58.1278         estimate D2E/DX2                !
 ! D256  D(59,53,58,65)        174.8547         estimate D2E/DX2                !
 ! D257  D(60,53,58,61)        176.9386         estimate D2E/DX2                !
 ! D258  D(60,53,58,64)        -60.2391         estimate D2E/DX2                !
 ! D259  D(60,53,58,65)         56.4877         estimate D2E/DX2                !
 ! D260  D(52,55,61,58)         54.9892         estimate D2E/DX2                !
 ! D261  D(52,55,61,66)        177.3084         estimate D2E/DX2                !
 ! D262  D(52,55,61,67)        -65.5378         estimate D2E/DX2                !
 ! D263  D(62,55,61,58)        177.2825         estimate D2E/DX2                !
 ! D264  D(62,55,61,66)        -60.3982         estimate D2E/DX2                !
 ! D265  D(62,55,61,67)         56.7555         estimate D2E/DX2                !
 ! D266  D(63,55,61,58)        -65.7423         estimate D2E/DX2                !
 ! D267  D(63,55,61,66)         56.5769         estimate D2E/DX2                !
 ! D268  D(63,55,61,67)        173.7307         estimate D2E/DX2                !
 ! D269  D(53,58,61,55)        -54.5797         estimate D2E/DX2                !
 ! D270  D(53,58,61,66)       -176.9017         estimate D2E/DX2                !
 ! D271  D(53,58,61,67)         65.8574         estimate D2E/DX2                !
 ! D272  D(64,58,61,55)       -177.147          estimate D2E/DX2                !
 ! D273  D(64,58,61,66)         60.5309         estimate D2E/DX2                !
 ! D274  D(64,58,61,67)        -56.7099         estimate D2E/DX2                !
 ! D275  D(65,58,61,55)         65.8351         estimate D2E/DX2                !
 ! D276  D(65,58,61,66)        -56.487          estimate D2E/DX2                !
 ! D277  D(65,58,61,67)       -173.7278         estimate D2E/DX2                !
 --------------------------------------------------------------------------------
 Trust Radius=3.00D-01 FncErr=5.00D-06 GrdErr=5.00D-06 EigMax=2.50D+02 EigMin=1.00D-04
 Number of steps in this run=    570 maximum allowed number of steps=    570.
 GradGradGradGradGradGradGradGradGradGradGradGradGradGradGradGradGradGrad

 Leave Link  103 at Thu Dec 20 18:33:58 2018, MaxMem=  1342177280 cpu:               0.3 elap:               0.0
 (Enter /gpfs/apps/hpc/Apps/Restricted/Gaussian/Rev_A.03/g16/l202.exe)
 Symmetry turned off by external request.
 Stoichiometry    C42H45N7O(1+,2)
 Framework group  C1[X(C42H45N7O)]
 Deg. of freedom   279
 Full point group                 C1      NOp   1
                          Input orientation:                          
 ---------------------------------------------------------------------
 Center     Atomic      Atomic             Coordinates (Angstroms)
 Number     Number       Type             X           Y           Z
 ---------------------------------------------------------------------
      1          6           0        1.624017    0.478545    0.981630
      2          6           0        0.544991    1.349658    0.691242
      3          6           0        0.714797    2.725090    0.566296
      4          6           0        2.007759    3.225137    0.741477
      5          6           0        3.091594    2.388480    1.033229
      6          6           0        2.924428    1.001378    1.158463
      7          6           0       -0.128890   -0.762641    0.813547
      8          1           0       -0.116453    3.381111    0.342175
      9          1           0        2.178723    4.290495    0.648734
     10          1           0        4.073768    2.826985    1.156996
     11          6           0       -2.426689   -1.692709    0.532765
     12          6           0       -3.306152   -2.807732    0.532808
     13          6           0       -2.868586   -4.109411    0.776163
     14          6           0       -1.508222   -4.275988    1.026803
     15          6           0       -0.616830   -3.190179    1.034833
     16          6           0       -1.050043   -1.883382    0.794003
     17          6           0       -4.393053   -0.924578    0.087676
     18          1           0       -3.553139   -4.948279    0.772427
     19          1           0       -1.122382   -5.269318    1.221863
     20          1           0        0.433731   -3.358446    1.235266
     21          7           0       -0.550924    0.520323    0.594311
     22          6           0       -6.852517   -0.611112   -0.408805
     23          6           0       -5.504948   -0.054092   -0.238033
     24          6           0       -5.301407    1.309199   -0.391896
     25          6           0       -6.354702    2.176298   -0.721029
     26          6           0       -7.661307    1.649282   -0.888986
     27          6           0       -7.933851    0.311140   -0.748068
     28          1           0       -4.302713    1.707123   -0.256662
     29          1           0       -8.467441    2.332879   -1.135793
     30          6           0       -6.106491    3.639414   -0.923750
     31          6           0       -9.305409   -0.260191   -0.919750
     32          8           0       -7.096055   -1.838950   -0.271883
     33          7           0       -3.121597   -0.537768    0.254624
     34          7           0       -4.539160   -2.275668    0.250143
     35          7           0        1.184600   -0.824824    1.048781
     36          6           0        4.006420    0.096558    1.455407
     37          7           0        3.854748   -1.243430    1.522042
     38          7           0        5.302561    0.379562    1.699256
     39          6           0        7.345401   -1.005270    2.229319
     40          6           0        7.725901   -2.340030    2.397302
     41          6           0        6.803366   -3.395308    2.280900
     42          6           0        5.459568   -3.172896    1.987418
     43          6           0        5.070607   -1.844432    1.811543
     44          6           0        5.994200   -0.794961    1.924435
     45          1           0        8.760265   -2.561037    2.634957
     46          1           0        7.148869   -4.411430    2.424390
     47          1           0        4.750851   -3.986154    1.902893
     48          6           0        8.272286    0.115158    2.398905
     49          1           0        9.305591   -0.154800    2.626818
     50          7           0        7.862721    1.324603    2.307518
     51          6           0        8.787674    2.438311    2.521449
     52          6           0       10.235984    2.082999    2.872637
     53          6           0        8.733113    3.364648    1.295262
     54          1           0        8.365363    3.002302    3.365700
     55          6           0       11.068780    3.349090    3.103816
     56          1           0       10.673818    1.503941    2.050361
     57          1           0       10.263572    1.446740    3.762587
     58          6           0        9.570677    4.628042    1.519213
     59          1           0        9.115163    2.812144    0.428019
     60          1           0        7.690599    3.620424    1.082810
     61          6           0       11.017305    4.285945    1.892361
     62          1           0       12.103291    3.073957    3.330575
     63          1           0       10.683430    3.878081    3.984477
     64          1           0        9.546240    5.255661    0.623577
     65          1           0        9.121247    5.214989    2.329778
     66          1           0       11.579166    5.201769    2.100338
     67          1           0       11.504872    3.797224    1.039695
     68          1           0        2.930001   -1.663471    1.382138
     69          1           0       -1.524685    0.746490    0.396780
     70          1           0       -5.448362   -2.718867    0.148370
     71          1           0        5.785903    1.274805    1.758842
     72          6           0       -9.330949   -1.285135   -2.068853
     73          1           0       -9.227009   -2.272093   -1.668839
     74          1           0      -10.260126   -1.209145   -2.593976
     75          1           0       -8.523456   -1.086304   -2.742144
     76          6           0      -10.328082    0.851811   -1.218400
     77          1           0      -10.325715    1.562707   -0.418699
     78          1           0      -10.065068    1.342189   -2.132322
     79          1           0      -11.304022    0.423162   -1.311683
     80          6           0       -9.742153   -1.016501    0.348654
     81          1           0       -9.440071   -2.040344    0.275221
     82          1           0       -9.283389   -0.569886    1.205958
     83          1           0      -10.806452   -0.964761    0.446078
     84          6           0       -5.945271    3.943819   -2.424732
     85          1           0       -6.910513    4.071717   -2.868408
     86          1           0       -5.374634    4.840591   -2.547509
     87          1           0       -5.438648    3.130651   -2.901167
     88          6           0       -7.293404    4.479013   -0.415901
     89          1           0       -6.999518    5.505368   -0.344312
     90          1           0       -8.112001    4.389227   -1.099083
     91          1           0       -7.593367    4.125799    0.548549
     92          6           0       -4.818689    4.092607   -0.211162
     93          1           0       -4.822510    3.731651    0.796110
     94          1           0       -3.968040    3.699526   -0.727673
     95          1           0       -4.770745    5.161523   -0.206812
 ---------------------------------------------------------------------
 Rotational constants (GHZ):           0.1258541           0.0179329           0.0158365
 Leave Link  202 at Thu Dec 20 18:33:58 2018, MaxMem=  1342177280 cpu:               0.8 elap:               0.1
 (Enter /gpfs/apps/hpc/Apps/Restricted/Gaussian/Rev_A.03/g16/l301.exe)
 Standard basis: 6-31G(d,p) (6D, 7F)
 Ernie: Thresh=  0.10000D-02 Tol=  0.10000D-05 Strict=F.
   975 basis functions,  1715 primitive gaussians,   975 cartesian basis functions
   177 alpha electrons      176 beta electrons
       nuclear repulsion energy      5783.0397306170 Hartrees.
 IExCor=  402 DFT=T Ex+Corr=B3LYP ExCW=0 ScaHFX=  0.200000
 ScaDFX=  0.800000  0.720000  1.000000  0.810000 ScalE2=  1.000000  1.000000
 IRadAn=      5 IRanWt=     -1 IRanGd=            0 ICorTp=0 IEmpDi=141
 NAtoms=   95 NActive=   95 NUniq=   95 SFac= 1.00D+00 NAtFMM=   60 NAOKFM=T Big=T
 Integral buffers will be    131072 words long.
 Raffenetti 2 integral format.
 Two-electron integral symmetry is turned off.
 R6Disp:  Grimme-D3(BJ) Dispersion energy=       -0.2223455520 Hartrees.
 Nuclear repulsion after empirical dispersion term =     5782.8173850650 Hartrees.
 Using the following non-standard input for PCM:
 radii=bondi
 dis
 rep
 cav
 --- end of non-standard input.
 ------------------------------------------------------------------------------
 Polarizable Continuum Model (PCM)
 =================================
 Model                : C-PCM.
 Atomic radii         : Bondi.
 Polarization charges : Total charges.
 Charge compensation  : None.
 Solution method      : On-the-fly selection.
 Cavity type          : Scaled VdW (van der Waals Surface) (Alpha=1.100).
 Cavity algorithm     : GePol (No added spheres)
                        Default sphere list used, NSphG=   95.
                        Lebedev-Laikov grids with approx.  5.0 points / Ang**2.
                        Smoothing algorithm: York/Karplus (Gamma=1.0000).
                        Polarization charges: spherical gaussians, with
                                              point-specific exponents (IZeta= 3).
                        Self-potential: point-specific (ISelfS= 7).
                        Self-field    : sphere-specific E.n sum rule (ISelfD= 2).
 1st derivatives      : Analytical E(r).r(x)/FMM algorithm (CHGder, D1EAlg=3).
                        Cavity 1st derivative terms included.
 Solvent              : Dichloromethane, Eps=   8.930000 Eps(inf)=   2.028346
 ------------------------------------------------------------------------------
 GePol: Number of generator spheres                  =      95
 GePol: Total number of spheres                      =      95
 GePol: Number of exposed spheres                    =      95 (100.00%)
 GePol: Number of points                             =    6194
 GePol: Average weight of points                     =       0.12
 GePol: Minimum weight of points                     =   0.17D-11
 GePol: Maximum weight of points                     =    0.21770
 GePol: Number of points with low weight             =     465
 GePol: Fraction of low-weight points (<1% of avg)   =       7.51%
 GePol: Cavity surface area                          =    726.001 Ang**2
 GePol: Cavity volume                                =    718.697 Ang**3
 PCM non-electrostatic energy =         0.0304895753 Hartrees.
 Nuclear repulsion after PCM non-electrostatic terms =     5782.8478746403 Hartrees.
 Leave Link  301 at Thu Dec 20 18:33:59 2018, MaxMem=  1342177280 cpu:               4.7 elap:               0.3
 (Enter /gpfs/apps/hpc/Apps/Restricted/Gaussian/Rev_A.03/g16/l302.exe)
 NPDir=0 NMtPBC=     1 NCelOv=     1 NCel=       1 NClECP=     1 NCelD=      1
         NCelK=      1 NCelE2=     1 NClLst=     1 CellRange=     0.0.
 One-electron integrals computed using PRISM.
 NBasis=   975 RedAO= T EigKep=  2.84D-04  NBF=   975
 NBsUse=   975 1.00D-06 EigRej= -1.00D+00 NBFU=   975
 Precomputing XC quadrature grid using
 IXCGrd= 4 IRadAn=           5 IRanWt=          -1 IRanGd=           0 AccXCQ= 0.00D+00.
 Generated NRdTot=       0 NPtTot=           0 NUsed=           0 NTot=          32
 NSgBfM=   834   830   831   831   834 MxSgAt=    95 MxSgA2=    95.
 Leave Link  302 at Thu Dec 20 18:34:01 2018, MaxMem=  1342177280 cpu:              35.4 elap:               2.3
 (Enter /gpfs/apps/hpc/Apps/Restricted/Gaussian/Rev_A.03/g16/l303.exe)
 DipDrv:  MaxL=1.
[...]
 Center     Atomic      Atomic             Coordinates (Angstroms)
 Number     Number       Type             X           Y           Z
 ---------------------------------------------------------------------
      1          6           0        1.631923    0.412396    1.005403
      2          6           0        0.562244    1.271921    0.652457
      3          6           0        0.732331    2.643541    0.491874
      4          6           0        2.017035    3.152943    0.697643
      5          6           0        3.091761    2.328488    1.051291
      6          6           0        2.923928    0.945048    1.211599
      7          6           0       -0.111817   -0.837574    0.813161
      8          1           0       -0.093911    3.288871    0.221437
      9          1           0        2.188565    4.215888    0.581822
     10          1           0        4.067467    2.774509    1.197975
     11          6           0       -2.401780   -1.770005    0.490342
     12          6           0       -3.282734   -2.883359    0.471783
     13          6           0       -2.852504   -4.183846    0.733586
     14          6           0       -1.500659   -4.348683    1.030222
     15          6           0       -0.608139   -3.263719    1.055410
     16          6           0       -1.032282   -1.959165    0.788989
     17          6           0       -4.359464   -0.996954    0.008830
     18          1           0       -3.537097   -5.022365    0.715567
     19          1           0       -1.122700   -5.340751    1.246189
     20          1           0        0.436376   -3.431255    1.286044
     21          7           0       -0.528486    0.438015    0.546034
     22          6           0       -6.809492   -0.641987   -0.525264
     23          6           0       -5.458501   -0.105757   -0.307572
     24          6           0       -5.224021    1.260738   -0.381010
     25          6           0       -6.256915    2.161414   -0.660361
     26          6           0       -7.561275    1.646348   -0.898265
     27          6           0       -7.879755    0.310196   -0.846206
     28          1           0       -4.220258    1.616237   -0.197062
     29          1           0       -8.339845    2.358664   -1.127517
     30          6           0       -6.033383    3.667785   -0.731896
     31          6           0       -9.297440   -0.201502   -1.110214
     32          8           0       -7.033008   -1.877595   -0.422863
     33          7           0       -3.088685   -0.615413    0.196972
     34          7           0       -4.508534   -2.349217    0.160199
     35          7           0        1.194503   -0.890924    1.088164
     36          6           0        3.998274    0.055383    1.573620
     37          7           0        3.845343   -1.279434    1.707659
     38          7           0        5.288466    0.352775    1.830228
     39          6           0        7.329603   -1.001850    2.440529
     40          6           0        7.709480   -2.326548    2.676031
     41          6           0        6.786403   -3.386056    2.609348
     42          6           0        5.444998   -3.180188    2.293766
     43          6           0        5.056680   -1.862547    2.049220
     44          6           0        5.978979   -0.807943    2.120244
     45          1           0        8.743427   -2.535235    2.925990
     46          1           0        7.131158   -4.393319    2.807062
     47          1           0        4.737883   -3.997746    2.241469
     48          6           0        8.259521    0.126418    2.533653
     49          1           0        9.296667   -0.125032    2.767101
     50          7           0        7.844295    1.322770    2.349336
     51          6           0        8.754425    2.461230    2.455004
     52          6           0       10.221114    2.165730    2.782083
     53          6           0        8.641777    3.299506    1.170958
     54          1           0        8.342249    3.072527    3.270118
     55          6           0       11.012596    3.472832    2.918051
     56          1           0       10.656069    1.555879    1.979910
     57          1           0       10.293332    1.582835    3.706311
     58          6           0        9.434827    4.603689    1.297414
     59          1           0        9.031031    2.707120    0.334092
     60          1           0        7.586424    3.501005    0.963573
     61          6           0       10.900766    4.329887    1.652081
     62          1           0       12.060914    3.250655    3.138406
     63          1           0       10.622709    4.038536    3.773400
     64          1           0        9.365589    5.172537    0.365001
     65          1           0        8.981540    5.221950    2.082391
     66          1           0       11.443109    5.271748    1.781241
     67          1           0       11.376943    3.798835    0.817964
     68          1           0        2.926496   -1.709554    1.559221
     69          1           0       -1.495480    0.655807    0.309323
     70          1           0       -5.414854   -2.791894    0.042118
     71          1           0        5.772128    1.249748    1.843834
     72          6           0       -9.272156   -1.191529   -2.297385
     73          1           0       -8.588010   -2.017240   -2.109776
     74          1           0      -10.276999   -1.591636   -2.455382
     75          1           0       -8.962241   -0.682942   -3.214655
     76          6           0      -10.264185    0.939048   -1.467600
     77          1           0      -10.342752    1.676375   -0.664427
     78          1           0       -9.963298    1.457514   -2.381536
     79          1           0      -11.257700    0.517395   -1.631582
     80          6           0       -9.849014   -0.905220    0.151224
     81          1           0       -9.210669   -1.732197    0.455692
     82          1           0       -9.930950   -0.198297    0.980864
     83          1           0      -10.848708   -1.293951   -0.061791
     84          6           0       -6.304358    4.120920   -2.185833
     85          1           0       -7.322864    3.876110   -2.495078
     86          1           0       -6.175380    5.203496   -2.262541
     87          1           0       -5.611230    3.639630   -2.879207
     88          6           0       -7.013984    4.388386    0.219305
     89          1           0       -6.848876    5.466897    0.159863
     90          1           0       -8.056060    4.197290   -0.041707
     91          1           0       -6.858358    4.072471    1.253669
     92          6           0       -4.603261    4.066839   -0.341509
     93          1           0       -4.359098    3.730686    0.668905
     94          1           0       -3.862537    3.655815   -1.031339
     95          1           0       -4.513517    5.154966   -0.368304
 ---------------------------------------------------------------------
 Rotational constants (GHZ):           0.1235488           0.0180774           0.0159229
 Leave Link  202 at Thu Dec 20 19:12:15 2018, MaxMem=  1342177280 cpu:               0.5 elap:               0.1
 (Enter /gpfs/apps/hpc/Apps/Restricted/Gaussian/Rev_A.03/g16/l301.exe)
 Standard basis: 6-31G(d,p) (6D, 7F)
 Ernie: Thresh=  0.10000D-02 Tol=  0.10000D-05 Strict=F.
   975 basis functions,  1715 primitive gaussians,   975 cartesian basis functions
   177 alpha electrons      176 beta electrons
       nuclear repulsion energy      5777.8950922824 Hartrees.
 IExCor=  402 DFT=T Ex+Corr=B3LYP ExCW=0 ScaHFX=  0.200000
 ScaDFX=  0.800000  0.720000  1.000000  0.810000 ScalE2=  1.000000  1.000000
 IRadAn=      5 IRanWt=     -1 IRanGd=            0 ICorTp=0 IEmpDi=141
 NAtoms=   95 NActive=   95 NUniq=   95 SFac= 1.00D+00 NAtFMM=   60 NAOKFM=T Big=T
 Integral buffers will be    131072 words long.
 Raffenetti 2 integral format.
 Two-electron integral symmetry is turned off.
 R6Disp:  Grimme-D3(BJ) Dispersion energy=       -0.2212949334 Hartrees.
 Nuclear repulsion after empirical dispersion term =     5777.6737973490 Hartrees.
 ------------------------------------------------------------------------------
 Polarizable Continuum Model (PCM)
 =================================
 Model                : C-PCM.
 Atomic radii         : Bondi.
 Polarization charges : Total charges.
 Charge compensation  : None.
 Solution method      : On-the-fly selection.
 Cavity type          : Scaled VdW (van der Waals Surface) (Alpha=1.100).
 Cavity algorithm     : GePol (No added spheres)
                        Default sphere list used, NSphG=   95.
                        Lebedev-Laikov grids with approx.  5.0 points / Ang**2.
                        Smoothing algorithm: York/Karplus (Gamma=1.0000).
                        Polarization charges: spherical gaussians, with
                                              point-specific exponents (IZeta= 3).
                        Self-potential: point-specific (ISelfS= 7).
                        Self-field    : sphere-specific E.n sum rule (ISelfD= 2).
 1st derivatives      : Analytical E(r).r(x)/FMM algorithm (CHGder, D1EAlg=3).
                        Cavity 1st derivative terms included.
 Solvent              : Dichloromethane, Eps=   8.930000 Eps(inf)=   2.028346
 ------------------------------------------------------------------------------
 GePol: Number of generator spheres                  =      95
 GePol: Total number of spheres                      =      95
 GePol: Number of exposed spheres                    =      95 (100.00%)
 GePol: Number of points                             =    6235
 GePol: Average weight of points                     =       0.12
 GePol: Minimum weight of points                     =   0.68D-10
 GePol: Maximum weight of points                     =    0.21770
 GePol: Number of points with low weight             =     448
 GePol: Fraction of low-weight points (<1% of avg)   =       7.19%
 GePol: Cavity surface area                          =    733.114 Ang**2
 GePol: Cavity volume                                =    720.725 Ang**3
 PCM non-electrostatic energy =         0.0320060367 Hartrees.
 Nuclear repulsion after PCM non-electrostatic terms =     5777.7058033857 Hartrees.
 Leave Link  301 at Thu Dec 20 19:12:15 2018, MaxMem=  1342177280 cpu:               4.3 elap:               0.3
 (Enter /gpfs/apps/hpc/Apps/Restricted/Gaussian/Rev_A.03/g16/l302.exe)
 NPDir=0 NMtPBC=     1 NCelOv=     1 NCel=       1 NClECP=     1 NCelD=      1
         NCelK=      1 NCelE2=     1 NClLst=     1 CellRange=     0.0.
 One-electron integrals computed using PRISM.
 NBasis=   975 RedAO= T EigKep=  2.84D-04  NBF=   975
 NBsUse=   975 1.00D-06 EigRej= -1.00D+00 NBFU=   975
 Precomputing XC quadrature grid using
 IXCGrd= 4 IRadAn=           5 IRanWt=          -1 IRanGd=           0 AccXCQ= 0.00D+00.
 Generated NRdTot=       0 NPtTot=           0 NUsed=           0 NTot=          32
 NSgBfM=   848   840   844   847   848 MxSgAt=    95 MxSgA2=    95.
 Leave Link  302 at Thu Dec 20 19:12:17 2018, MaxMem=  1342177280 cpu:              33.6 elap:               2.1
 (Enter /gpfs/apps/hpc/Apps/Restricted/Gaussian/Rev_A.03/g16/l303.exe)
 DipDrv:  MaxL=1.
 Leave Link  303 at Thu Dec 20 19:12:17 2018, MaxMem=  1342177280 cpu:               3.4 elap:               0.3
 (Enter /gpfs/apps/hpc/Apps/Restricted/Gaussian/Rev_A.03/g16/l401.exe)
 Initial guess from the checkpoint file:  "cyclohexyl-triBIP-E3PT.chk"
 B after Tr=     0.018852    0.003615   -0.055358
         Rot=    0.999997   -0.001957    0.001369   -0.000530 Ang=  -0.28 deg.
 Guess basis will be translated and rotated to current coordinates.
 JPrj=2 DoOrth=T DoCkMO=T.
 Initial guess <Sx>= 0.0000 <Sy>= 0.0000 <Sz>= 0.5000 <S**2>= 0.7743 S= 0.5121
 Generating alternative initial guess.
 ExpMin= 1.61D-01 ExpMax= 5.48D+03 ExpMxC= 8.25D+02 IAcc=2 IRadAn=         4 AccDes= 0.00D+00
 Harris functional with IExCor=  402 and IRadAn=       4 diagonalized for initial guess.
 HarFok:  IExCor=  402 AccDes= 0.00D+00 IRadAn=         4 IDoV= 1 UseB2=F ITyADJ=14
 ICtDFT=  3500011 ScaDFX=  1.000000  1.000000  1.000000  1.000000
 FoFCou: FMM=F IPFlag=           0 FMFlag=      100000 FMFlg1=        2001
         NFxFlg=           0 DoJE=T BraDBF=F KetDBF=T FulRan=T
         wScrn=  0.000000 ICntrl=       500 IOpCl=  0 I1Cent=   200000004 NGrid=           0
         NMat0=    1 NMatS0=      1 NMatT0=    0 NMatD0=    1 NMtDS0=    0 NMtDT0=    0
 Symmetry not used in FoFCou.
 Harris En= -2086.16997952772    
 Leave Link  401 at Thu Dec 20 19:12:24 2018, MaxMem=  1342177280 cpu:             108.8 elap:               6.9
 (Enter /gpfs/apps/hpc/Apps/Restricted/Gaussian/Rev_A.03/g16/l502.exe)
 Two-electron integral symmetry not used.
 UHF open shell SCF:
 Using DIIS extrapolation, IDIIS=  1040.
 NGot=  1342177280 LenX=  1340252438 LenY=  1339300838
 Requested convergence on RMS density matrix=1.00D-08 within 128 cycles.
 Requested convergence on MAX density matrix=1.00D-06.
 Requested convergence on             energy=1.00D-06.
 No special actions if energy rises.
 Fock matrices will be formed incrementally for  20 cycles.

 Cycle   1  Pass 1  IDiag  1:
 FoFJK:  IHMeth= 1 ICntrl=       0 DoSepK=F KAlg= 0 I1Cent=           0 FoldK=F
 IRaf= 540000000 NMat=       1 IRICut=       1 DoRegI=T DoRafI=F ISym2E= 0 IDoP0=0 IntGTp=1.
 FoFCou: FMM=T IPFlag=           0 FMFlag=      100000 FMFlg1=        2001
         NFxFlg=           0 DoJE=F BraDBF=F KetDBF=F FulRan=T
         wScrn=  0.000000 ICntrl=         0 IOpCl=  1 I1Cent=           0 NGrid=           0
         NMat0=    1 NMatS0=      1 NMatT0=    0 NMatD0=    1 NMtDS0=    0 NMtDT0=    0
 Symmetry not used in FoFCou.
 FMM levels:  10  Number of levels for PrismC:   9
 Inv3:  Mode=1 IEnd=   116625675.
 Iteration    1 A*A^-1 deviation from unit magnitude is 1.72D-14 for   2933.
 Iteration    1 A*A^-1 deviation from orthogonality  is 6.30D-15 for   2931    577.
 Iteration    1 A^-1*A deviation from unit magnitude is 1.72D-14 for   2933.
 Iteration    1 A^-1*A deviation from orthogonality  is 3.87D-15 for   6222   2582.
 E= -2086.22757993142    
 DIIS: error= 9.59D-03 at cycle   1 NSaved=   1.
 NSaved= 1 IEnMin= 1 EnMin= -2086.22757993142     IErMin= 1 ErrMin= 9.59D-03
 ErrMax= 9.59D-03  0.00D+00 EMaxC= 1.00D-01 BMatC= 1.49D-01 BMatP= 1.49D-01
 IDIUse=3 WtCom= 9.04D-01 WtEn= 9.59D-02
 Coeff-Com:  0.100D+01
 Coeff-En:   0.100D+01
 Coeff:      0.100D+01
 Gap=     1.599 Goal=   None    Shift=    0.000
 Gap=     1.608 Goal=   None    Shift=    0.000
 GapD=    1.599 DampG=2.000 DampE=1.000 DampFc=2.0000 IDamp=-1.
 RMSDP=3.03D-04 MaxDP=2.25D-02              OVMax= 4.20D-02

 Cycle   2  Pass 1  IDiag  1:
 RMSU=  3.03D-04    CP:  9.99D-01
 E= -2086.30135505214     Delta-E=       -0.073775120722 Rises=F Damp=F
 DIIS: error= 8.62D-04 at cycle   2 NSaved=   2.
 NSaved= 2 IEnMin= 2 EnMin= -2086.30135505214     IErMin= 2 ErrMin= 8.62D-04
 ErrMax= 8.62D-04  0.00D+00 EMaxC= 1.00D-01 BMatC= 1.44D-03 BMatP= 1.49D-01
 IDIUse=3 WtCom= 9.91D-01 WtEn= 8.62D-03
 Coeff-Com: -0.842D-01 0.108D+01
 Coeff-En:   0.000D+00 0.100D+01
 Coeff:     -0.835D-01 0.108D+01
 Gap=     0.122 Goal=   None    Shift=    0.000
 Gap=     0.076 Goal=   None    Shift=    0.000
 RMSDP=4.63D-05 MaxDP=3.43D-03 DE=-7.38D-02 OVMax= 8.13D-03

 Cycle   3  Pass 1  IDiag  1:
 RMSU=  3.18D-05    CP:  9.99D-01  1.11D+00
 E= -2086.30218632150     Delta-E=       -0.000831269357 Rises=F Damp=F
 DIIS: error= 1.84D-04 at cycle   3 NSaved=   3.
 NSaved= 3 IEnMin= 3 EnMin= -2086.30218632150     IErMin= 3 ErrMin= 1.84D-04
 ErrMax= 1.84D-04  0.00D+00 EMaxC= 1.00D-01 BMatC= 2.40D-04 BMatP= 1.44D-03
 IDIUse=3 WtCom= 9.98D-01 WtEn= 1.84D-03
 Coeff-Com: -0.328D-01 0.394D+00 0.639D+00
 Coeff-En:   0.000D+00 0.000D+00 0.100D+01
 Coeff:     -0.327D-01 0.394D+00 0.639D+00
 Gap=     0.122 Goal=   None    Shift=    0.000
 Gap=     0.075 Goal=   None    Shift=    0.000
 RMSDP=1.36D-05 MaxDP=2.12D-03 DE=-8.31D-04 OVMax= 3.32D-03

 Cycle   4  Pass 1  IDiag  1:
 RMSU=  1.30D-05    CP:  9.99D-01  1.12D+00  8.88D-01
 E= -2086.30221744620     Delta-E=       -0.000031124696 Rises=F Damp=F
 DIIS: error= 1.88D-04 at cycle   4 NSaved=   4.
 NSaved= 4 IEnMin= 4 EnMin= -2086.30221744620     IErMin= 3 ErrMin= 1.84D-04
 ErrMax= 1.88D-04  0.00D+00 EMaxC= 1.00D-01 BMatC= 1.35D-04 BMatP= 2.40D-04
 IDIUse=3 WtCom= 9.98D-01 WtEn= 1.88D-03
 Coeff-Com: -0.609D-02 0.608D-01 0.422D+00 0.523D+00
 Coeff-En:   0.000D+00 0.000D+00 0.332D+00 0.668D+00
 Coeff:     -0.608D-02 0.606D-01 0.422D+00 0.524D+00
 Gap=     0.122 Goal=   None    Shift=    0.000
 Gap=     0.075 Goal=   None    Shift=    0.000
 RMSDP=7.15D-06 MaxDP=1.71D-03 DE=-3.11D-05 OVMax= 1.97D-03

 Cycle   5  Pass 1  IDiag  1:
 RMSU=  4.02D-06    CP:  9.99D-01  1.12D+00  9.83D-01  6.12D-01
 E= -2086.30224512242     Delta-E=       -0.000027676228 Rises=F Damp=F
 DIIS: error= 4.86D-05 at cycle   5 NSaved=   5.
 NSaved= 5 IEnMin= 5 EnMin= -2086.30224512242     IErMin= 5 ErrMin= 4.86D-05
 ErrMax= 4.86D-05  0.00D+00 EMaxC= 1.00D-01 BMatC= 1.08D-05 BMatP= 1.35D-04
 IDIUse=1 WtCom= 1.00D+00 WtEn= 0.00D+00
 Coeff-Com:  0.328D-03-0.121D-01 0.168D+00 0.291D+00 0.553D+00
 Coeff:      0.328D-03-0.121D-01 0.168D+00 0.291D+00 0.553D+00
 Gap=     0.122 Goal=   None    Shift=    0.000
 Gap=     0.075 Goal=   None    Shift=    0.000
 RMSDP=2.26D-06 MaxDP=4.02D-04 DE=-2.77D-05 OVMax= 1.13D-03

 Cycle   6  Pass 1  IDiag  1:
 RMSU=  1.85D-06    CP:  9.99D-01  1.12D+00  9.95D-01  6.83D-01  7.99D-01
 E= -2086.30224772244     Delta-E=       -0.000002600015 Rises=F Damp=F
 DIIS: error= 1.46D-05 at cycle   6 NSaved=   6.
 NSaved= 6 IEnMin= 6 EnMin= -2086.30224772244     IErMin= 6 ErrMin= 1.46D-05
 ErrMax= 1.46D-05  0.00D+00 EMaxC= 1.00D-01 BMatC= 1.38D-06 BMatP= 1.08D-05
 IDIUse=1 WtCom= 1.00D+00 WtEn= 0.00D+00
 Coeff-Com:  0.124D-02-0.176D-01 0.181D-01 0.631D-01 0.290D+00 0.645D+00
 Coeff:      0.124D-02-0.176D-01 0.181D-01 0.631D-01 0.290D+00 0.645D+00
 Gap=     0.122 Goal=   None    Shift=    0.000
 Gap=     0.075 Goal=   None    Shift=    0.000
 RMSDP=1.15D-06 MaxDP=2.78D-04 DE=-2.60D-06 OVMax= 1.00D-03

 Cycle   7  Pass 1  IDiag  1:
 RMSU=  8.68D-07    CP:  9.99D-01  1.12D+00  1.00D+00  6.98D-01  9.63D-01
                    CP:  1.08D+00
 E= -2086.30224835885     Delta-E=       -0.000000636411 Rises=F Damp=F
 DIIS: error= 1.06D-05 at cycle   7 NSaved=   7.
 NSaved= 7 IEnMin= 7 EnMin= -2086.30224835885     IErMin= 7 ErrMin= 1.06D-05
 ErrMax= 1.06D-05  0.00D+00 EMaxC= 1.00D-01 BMatC= 1.87D-07 BMatP= 1.38D-06
 IDIUse=1 WtCom= 1.00D+00 WtEn= 0.00D+00
 Coeff-Com:  0.418D-03-0.495D-02-0.125D-01-0.130D-01 0.375D-01 0.234D+00
 Coeff-Com:  0.758D+00
 Coeff:      0.418D-03-0.495D-02-0.125D-01-0.130D-01 0.375D-01 0.234D+00
 Coeff:      0.758D+00
 Gap=     0.122 Goal=   None    Shift=    0.000
 Gap=     0.075 Goal=   None    Shift=    0.000
 RMSDP=7.59D-07 MaxDP=2.18D-04 DE=-6.36D-07 OVMax= 7.83D-04

 Cycle   8  Pass 1  IDiag  1:
 RMSU=  3.63D-07    CP:  9.99D-01  1.12D+00  1.01D+00  7.06D-01  1.05D+00
                    CP:  1.36D+00  1.23D+00
 E= -2086.30224856727     Delta-E=       -0.000000208420 Rises=F Damp=F
 DIIS: error= 6.93D-06 at cycle   8 NSaved=   8.
 NSaved= 8 IEnMin= 8 EnMin= -2086.30224856727     IErMin= 8 ErrMin= 6.93D-06
 ErrMax= 6.93D-06  0.00D+00 EMaxC= 1.00D-01 BMatC= 9.66D-08 BMatP= 1.87D-07
 IDIUse=1 WtCom= 1.00D+00 WtEn= 0.00D+00
 Coeff-Com: -0.383D-03 0.613D-02-0.169D-01-0.425D-01-0.129D+00-0.197D+00
 Coeff-Com:  0.485D+00 0.895D+00
 Coeff:     -0.383D-03 0.613D-02-0.169D-01-0.425D-01-0.129D+00-0.197D+00
 Coeff:      0.485D+00 0.895D+00
 Gap=     0.122 Goal=   None    Shift=    0.000
 Gap=     0.075 Goal=   None    Shift=    0.000
 RMSDP=8.44D-07 MaxDP=2.50D-04 DE=-2.08D-07 OVMax= 9.23D-04

 Cycle   9  Pass 1  IDiag  1:
 RMSU=  2.07D-07    CP:  9.99D-01  1.12D+00  1.01D+00  7.17D-01  1.15D+00
                    CP:  1.63D+00  1.77D+00  1.17D+00
