 Entering Gaussian System, Link 0=g16
 Initial command:
 /gpfs/apps/hpc/Apps/Restricted/Gaussian/Rev_A.03/g16/l1.exe "/gpfs/scratch60/fas/hammes_schiffer/jg2487/c14n04/Gau-11767.inp" -scrdir="/gpfs/scratch60/fas/hammes_schiffer/jg2487/c14n04/"
 Entering Link 1 = /gpfs/apps/hpc/Apps/Restricted/Gaussian/Rev_A.03/g16/l1.exe PID=     11769.
  
 Copyright (c) 1988,1990,1992,1993,1995,1998,2003,2009,2016,
            Gaussian, Inc.  All Rights Reserved.
  
 This is part of the Gaussian(R) 16 program.  It is based on
 the Gaussian(R) 09 system (copyright 2009, Gaussian, Inc.),
 the Gaussian(R) 03 system (copyright 2003, Gaussian, Inc.),
 the Gaussian(R) 98 system (copyright 1998, Gaussian, Inc.),
 the Gaussian(R) 94 system (copyright 1995, Gaussian, Inc.),
 the Gaussian 92(TM) system (copyright 1992, Gaussian, Inc.),
 the Gaussian 90(TM) system (copyright 1990, Gaussian, Inc.),
 the Gaussian 88(TM) system (copyright 1988, Gaussian, Inc.),
 the Gaussian 86(TM) system (copyright 1986, Carnegie Mellon
 University), and the Gaussian 82(TM) system (copyright 1983,
 Carnegie Mellon University). Gaussian is a federally registered
 trademark of Gaussian, Inc.
  
 This software contains proprietary and confidential information,
 including trade secrets, belonging to Gaussian, Inc.
  
 This software is provided under written license and may be
 used, copied, transmitted, or stored only in accord with that
 written license.
  
 The following legend is applicable only to US Government
 contracts under FAR:
  
                    RESTRICTED RIGHTS LEGEND
  
 Use, reproduction and disclosure by the US Government is
 subject to restrictions as set forth in subparagraphs (a)
 and (c) of the Commercial Computer Software - Restricted
 Rights clause in FAR 52.227-19.
  
 Gaussian, Inc.
 340 Quinnipiac St., Bldg. 40, Wallingford CT 06492
  
  
 ---------------------------------------------------------------
 Warning -- This program may not be used in any manner that
 competes with the business of Gaussian, Inc. or will provide
 assistance to any competitor of Gaussian, Inc.  The licensee
 of this program is prohibited from giving any competitor of
 Gaussian, Inc. access to this program.  By using this program,
 the user acknowledges that Gaussian, Inc. is engaged in the
 business of creating and licensing software in the field of
 computational chemistry and represents and warrants to the
 licensee that it is not a competitor of Gaussian, Inc. and that
 it will not use this program in any manner prohibited above.
 ---------------------------------------------------------------
  

 Cite this work as:
 Gaussian 16, Revision A.03,
 M. J. Frisch, G. W. Trucks, H. B. Schlegel, G. E. Scuseria, 
 M. A. Robb, J. R. Cheeseman, G. Scalmani, V. Barone, 
 G. A. Petersson, H. Nakatsuji, X. Li, M. Caricato, A. V. Marenich, 
 J. Bloino, B. G. Janesko, R. Gomperts, B. Mennucci, H. P. Hratchian, 
 J. V. Ortiz, A. F. Izmaylov, J. L. Sonnenberg, D. Williams-Young, 
 F. Ding, F. Lipparini, F. Egidi, J. Goings, B. Peng, A. Petrone, 
 T. Henderson, D. Ranasinghe, V. G. Zakrzewski, J. Gao, N. Rega, 
 G. Zheng, W. Liang, M. Hada, M. Ehara, K. Toyota, R. Fukuda, 
 J. Hasegawa, M. Ishida, T. Nakajima, Y. Honda, O. Kitao, H. Nakai, 
 T. Vreven, K. Throssell, J. A. Montgomery, Jr., J. E. Peralta, 
 F. Ogliaro, M. J. Bearpark, J. J. Heyd, E. N. Brothers, K. N. Kudin, 
 V. N. Staroverov, T. A. Keith, R. Kobayashi, J. Normand, 
 K. Raghavachari, A. P. Rendell, J. C. Burant, S. S. Iyengar, 
 J. Tomasi, M. Cossi, J. M. Millam, M. Klene, C. Adamo, R. Cammi, 
 J. W. Ochterski, R. L. Martin, K. Morokuma, O. Farkas, 
 J. B. Foresman, and D. J. Fox, Gaussian, Inc., Wallingford CT, 2016.
 
 ******************************************
 Gaussian 16:  ES64L-G16RevA.03 25-Dec-2016
                16-Dec-2018 
 ******************************************
 %chk=cyclohexyl-triBIP-E0PT.chk
 %mem=10GB
 %nprocshared=16
 Will use up to   16 processors via shared memory.
 ----------------------------------------------------------------------
 #p opt=tight freq=internalmodes b3lyp/6-31g(d,p) scrf=(cpcm,solvent=di
 chloromethane,read) nosymm empiricaldispersion=gd3bj int=grid=ultrafin
 e
 ----------------------------------------------------------------------
 1/7=10,18=20,19=15,26=6,38=1,40=2/1,3;
 2/9=110,12=2,15=1,17=6,18=5,40=1/2;
 3/5=1,6=6,7=101,11=2,25=1,30=1,70=2103,71=1,72=9,74=-5,75=-5,124=41/1,2,3;
 4//1;
 5/5=2,38=5,53=9/2;
 6/7=2,8=2,9=2,10=2,28=1/1;
 7/30=1/1,2,3,16;
 1/7=10,18=20,19=15,26=6/3(2);
 2/9=110,15=1/2;
 99//99;
 2/9=110,15=1/2;
 3/5=1,6=6,7=101,11=2,25=1,30=1,70=2105,71=1,72=9,74=-5,75=-5,124=41/1,2,3;
 4/5=5,16=3,69=1/1;
 5/5=2,38=5,53=9/2;
 7/30=1/1,2,3,16;
 1/7=10,18=20,19=15,26=6/3(-5);
 2/9=110,15=1/2;
 6/7=2,8=2,9=2,10=2,19=2,28=1/1;
 99/9=1/99;
 Leave Link    1 at Sun Dec 16 10:41:12 2018, MaxMem=  1342177280 cpu:               7.3 elap:               0.5
 (Enter /gpfs/apps/hpc/Apps/Restricted/Gaussian/Rev_A.03/g16/l101.exe)
 ----------------------------------------------------------------
 cyclohexylimine triBIP oxidized, no proton transfer optimization
 ----------------------------------------------------------------
 Symbolic Z-matrix:
 Charge =  1 Multiplicity = 2
 C                     1.67909   0.39252   0.9517 
 C                     0.58314   1.23902   0.66246 
 C                     0.78508   2.61741   0.52156 
 C                     2.08217   3.10051   0.67603 
 C                     3.1619    2.24961   0.96754 
 C                     2.98962   0.86785   1.11402 
 C                    -0.1903   -0.77716   0.79391 
 H                    -0.04169   3.28014   0.29793 
 H                     2.27041   4.16211   0.5681 
 H                     4.15357   2.67444   1.06984 
 C                    -2.4769   -1.67209   0.54491 
 C                    -3.4444   -2.7124    0.53535 
 C                    -3.05805  -4.03896   0.78371 
 C                    -1.71293  -4.26882   1.03011 
 C                    -0.75692  -3.22734   1.03566 
 C                    -1.11207  -1.90011   0.7969 
 C                    -4.46994  -0.84121   0.09331 
 H                    -3.78444  -4.84156   0.78074 
 H                    -1.37354  -5.27812   1.22661 
 H                     0.27896  -3.47402   1.23416 
 N                    -0.5717    0.47947   0.57181 
 C                    -6.8746   -0.53114  -0.40656 
 C                    -5.55005   0.05013  -0.23539 
 C                    -5.39636   1.4198   -0.39948 
 C                    -6.48693   2.23163  -0.73798 
 C                    -7.77486   1.64328  -0.89973 
 C                    -7.99786   0.29861  -0.74353 
 H                    -4.42355   1.87569  -0.26866 
 H                    -8.60812   2.28742  -1.15646 
 C                    -6.30703   3.69663  -0.96465 
 H                    -5.41853   4.07211  -0.45647 
 H                    -6.185     3.88617  -2.03859 
 H                    -7.18468   4.25744  -0.63769 
 C                    -9.34417  -0.33326  -0.90491 
 H                    -9.32916  -1.08128  -1.70266 
 H                    -9.63889  -0.85281   0.01097 
 H                    -10.0922   0.42269  -1.13995 
 O                    -7.07992  -1.80715  -0.25967 
 H                    -6.16498  -2.26258  -0.01788 
 N                    -3.15279  -0.51632   0.26617 
 N                    -4.66733  -2.15937   0.25339 
 H                    -2.6653    0.37707   0.21541 
 N                     1.15721  -0.8758    1.02614 
 H                     1.73126  -1.69266   1.20432 
 C                     4.0663   -0.05848   1.42033 
 N                     3.92242  -1.38223   1.46164 
 N                     5.35478   0.32941   1.69613 
 C                     7.4351   -0.983     2.26937 
 C                     7.85313  -2.30818   2.43722 
 C                     6.96809  -3.38971   2.28075 
 C                     5.6273   -3.19697   1.9515 
 C                     5.17797  -1.88137   1.77655 
 C                     6.08489  -0.80795   1.93081 
 H                     8.8881   -2.49843   2.70062 
 H                     7.34082  -4.39714   2.42286 
 H                     4.94879  -4.03425   1.84032 
 H                     5.76228   1.25439   1.77681 
 C                     8.33709   0.15123   2.46061 
 H                     9.37125  -0.1062    2.70413 
 N                     7.92244   1.35921   2.35988 
 C                     8.84357   2.4768    2.56896 
 C                     10.29514   2.13329   2.92133 
 C                     8.78654   3.39178   1.33417 
 H                     8.42147   3.04864   3.40835 
 C                     11.12303   3.4052    3.13792 
 H                     10.73409   1.54782   2.10414 
 H                     10.32812   1.5056    3.81729 
 C                     9.61764   4.66183   1.5424 
 H                     9.17171   2.832     0.47286 
 H                     7.74256   3.6382    1.11797 
 C                     11.06622   4.32934   1.91686 
 H                     12.15942   3.13769   3.36626 
 H                     10.73637   3.94205   4.0133 
 H                     9.58972   5.27975   0.63974 
 H                     9.16709   5.25598   2.34719 
 H                     11.62608   5.24909   2.11346 
 H                     11.55342   3.83281   1.06835 
 
 ITRead=  0  0  0  0  0  0  0  0  0  0  0  0  0  0  0  0  0  0  0  0
 ITRead=  0  0  0  0  0  0  0  0  0  0  0  0  0  0  0  0  0  0  0  0
 ITRead=  0  0  0  0  0  0  0  0  0  0  0  0  0  0  0  0  0  0  0  0
 ITRead=  0  0  0  0  0  0  0  0  0  0  0  0  0  0  0  0  0
 MicOpt= -1 -1 -1 -1 -1 -1 -1 -1 -1 -1 -1 -1 -1 -1 -1 -1 -1 -1 -1 -1
 MicOpt= -1 -1 -1 -1 -1 -1 -1 -1 -1 -1 -1 -1 -1 -1 -1 -1 -1 -1 -1 -1
 MicOpt= -1 -1 -1 -1 -1 -1 -1 -1 -1 -1 -1 -1 -1 -1 -1 -1 -1 -1 -1 -1
 MicOpt= -1 -1 -1 -1 -1 -1 -1 -1 -1 -1 -1 -1 -1 -1 -1 -1 -1
 NAtoms=     77 NQM=       77 NQMF=       0 NMMI=      0 NMMIF=      0
                NMic=       0 NMicF=      0.
                    Isotopes and Nuclear Properties:
 (Nuclear quadrupole moments (NQMom) in fm**2, nuclear magnetic moments (NMagM)
  in nuclear magnetons)

  Atom         1           2           3           4           5           6           7           8           9          10
 IAtWgt=          12          12          12          12          12          12          12           1           1           1
 AtmWgt=  12.0000000  12.0000000  12.0000000  12.0000000  12.0000000  12.0000000  12.0000000   1.0078250   1.0078250   1.0078250
 NucSpn=           0           0           0           0           0           0           0           1           1           1
 AtZEff=  -0.0000000  -0.0000000  -0.0000000  -0.0000000  -0.0000000  -0.0000000  -0.0000000  -0.0000000  -0.0000000  -0.0000000
 NQMom=    0.0000000   0.0000000   0.0000000   0.0000000   0.0000000   0.0000000   0.0000000   0.0000000   0.0000000   0.0000000
 NMagM=    0.0000000   0.0000000   0.0000000   0.0000000   0.0000000   0.0000000   0.0000000   2.7928460   2.7928460   2.7928460
 AtZNuc=   6.0000000   6.0000000   6.0000000   6.0000000   6.0000000   6.0000000   6.0000000   1.0000000   1.0000000   1.0000000

  Atom        11          12          13          14          15          16          17          18          19          20
 IAtWgt=          12          12          12          12          12          12          12           1           1           1
 AtmWgt=  12.0000000  12.0000000  12.0000000  12.0000000  12.0000000  12.0000000  12.0000000   1.0078250   1.0078250   1.0078250
 NucSpn=           0           0           0           0           0           0           0           1           1           1
 AtZEff=  -0.0000000  -0.0000000  -0.0000000  -0.0000000  -0.0000000  -0.0000000  -0.0000000  -0.0000000  -0.0000000  -0.0000000
 NQMom=    0.0000000   0.0000000   0.0000000   0.0000000   0.0000000   0.0000000   0.0000000   0.0000000   0.0000000   0.0000000
 NMagM=    0.0000000   0.0000000   0.0000000   0.0000000   0.0000000   0.0000000   0.0000000   2.7928460   2.7928460   2.7928460
 AtZNuc=   6.0000000   6.0000000   6.0000000   6.0000000   6.0000000   6.0000000   6.0000000   1.0000000   1.0000000   1.0000000

  Atom        21          22          23          24          25          26          27          28          29          30
 IAtWgt=          14          12          12          12          12          12          12           1           1          12
 AtmWgt=  14.0030740  12.0000000  12.0000000  12.0000000  12.0000000  12.0000000  12.0000000   1.0078250   1.0078250  12.0000000
 NucSpn=           2           0           0           0           0           0           0           1           1           0
 AtZEff=  -0.0000000  -0.0000000  -0.0000000  -0.0000000  -0.0000000  -0.0000000  -0.0000000  -0.0000000  -0.0000000  -0.0000000
 NQMom=    2.0440000   0.0000000   0.0000000   0.0000000   0.0000000   0.0000000   0.0000000   0.0000000   0.0000000   0.0000000
 NMagM=    0.4037610   0.0000000   0.0000000   0.0000000   0.0000000   0.0000000   0.0000000   2.7928460   2.7928460   0.0000000
 AtZNuc=   7.0000000   6.0000000   6.0000000   6.0000000   6.0000000   6.0000000   6.0000000   1.0000000   1.0000000   6.0000000

  Atom        31          32          33          34          35          36          37          38          39          40
 IAtWgt=           1           1           1          12           1           1           1          16           1          14
 AtmWgt=   1.0078250   1.0078250   1.0078250  12.0000000   1.0078250   1.0078250   1.0078250  15.9949146   1.0078250  14.0030740
 NucSpn=           1           1           1           0           1           1           1           0           1           2
 AtZEff=  -0.0000000  -0.0000000  -0.0000000  -0.0000000  -0.0000000  -0.0000000  -0.0000000  -0.0000000  -0.0000000  -0.0000000
 NQMom=    0.0000000   0.0000000   0.0000000   0.0000000   0.0000000   0.0000000   0.0000000   0.0000000   0.0000000   2.0440000
 NMagM=    2.7928460   2.7928460   2.7928460   0.0000000   2.7928460   2.7928460   2.7928460   0.0000000   2.7928460   0.4037610
 AtZNuc=   1.0000000   1.0000000   1.0000000   6.0000000   1.0000000   1.0000000   1.0000000   8.0000000   1.0000000   7.0000000

  Atom        41          42          43          44          45          46          47          48          49          50
 IAtWgt=          14           1          14           1          12          14          14          12          12          12
 AtmWgt=  14.0030740   1.0078250  14.0030740   1.0078250  12.0000000  14.0030740  14.0030740  12.0000000  12.0000000  12.0000000
 NucSpn=           2           1           2           1           0           2           2           0           0           0
 AtZEff=  -0.0000000  -0.0000000  -0.0000000  -0.0000000  -0.0000000  -0.0000000  -0.0000000  -0.0000000  -0.0000000  -0.0000000
 NQMom=    2.0440000   0.0000000   2.0440000   0.0000000   0.0000000   2.0440000   2.0440000   0.0000000   0.0000000   0.0000000
 NMagM=    0.4037610   2.7928460   0.4037610   2.7928460   0.0000000   0.4037610   0.4037610   0.0000000   0.0000000   0.0000000
 AtZNuc=   7.0000000   1.0000000   7.0000000   1.0000000   6.0000000   7.0000000   7.0000000   6.0000000   6.0000000   6.0000000

  Atom        51          52          53          54          55          56          57          58          59          60
 IAtWgt=          12          12          12           1           1           1           1          12           1          14
 AtmWgt=  12.0000000  12.0000000  12.0000000   1.0078250   1.0078250   1.0078250   1.0078250  12.0000000   1.0078250  14.0030740
 NucSpn=           0           0           0           1           1           1           1           0           1           2
 AtZEff=  -0.0000000  -0.0000000  -0.0000000  -0.0000000  -0.0000000  -0.0000000  -0.0000000  -0.0000000  -0.0000000  -0.0000000
 NQMom=    0.0000000   0.0000000   0.0000000   0.0000000   0.0000000   0.0000000   0.0000000   0.0000000   0.0000000   2.0440000
 NMagM=    0.0000000   0.0000000   0.0000000   2.7928460   2.7928460   2.7928460   2.7928460   0.0000000   2.7928460   0.4037610
 AtZNuc=   6.0000000   6.0000000   6.0000000   1.0000000   1.0000000   1.0000000   1.0000000   6.0000000   1.0000000   7.0000000

  Atom        61          62          63          64          65          66          67          68          69          70
 IAtWgt=          12          12          12           1          12           1           1          12           1           1
 AtmWgt=  12.0000000  12.0000000  12.0000000   1.0078250  12.0000000   1.0078250   1.0078250  12.0000000   1.0078250   1.0078250
 NucSpn=           0           0           0           1           0           1           1           0           1           1
 AtZEff=  -0.0000000  -0.0000000  -0.0000000  -0.0000000  -0.0000000  -0.0000000  -0.0000000  -0.0000000  -0.0000000  -0.0000000
 NQMom=    0.0000000   0.0000000   0.0000000   0.0000000   0.0000000   0.0000000   0.0000000   0.0000000   0.0000000   0.0000000
 NMagM=    0.0000000   0.0000000   0.0000000   2.7928460   0.0000000   2.7928460   2.7928460   0.0000000   2.7928460   2.7928460
 AtZNuc=   6.0000000   6.0000000   6.0000000   1.0000000   6.0000000   1.0000000   1.0000000   6.0000000   1.0000000   1.0000000

  Atom        71          72          73          74          75          76          77
 IAtWgt=          12           1           1           1           1           1           1
 AtmWgt=  12.0000000   1.0078250   1.0078250   1.0078250   1.0078250   1.0078250   1.0078250
 NucSpn=           0           1           1           1           1           1           1
 AtZEff=  -0.0000000  -0.0000000  -0.0000000  -0.0000000  -0.0000000  -0.0000000  -0.0000000
 NQMom=    0.0000000   0.0000000   0.0000000   0.0000000   0.0000000   0.0000000   0.0000000
 NMagM=    0.0000000   2.7928460   2.7928460   2.7928460   2.7928460   2.7928460   2.7928460
 AtZNuc=   6.0000000   1.0000000   1.0000000   1.0000000   1.0000000   1.0000000   1.0000000
 Leave Link  101 at Sun Dec 16 10:41:12 2018, MaxMem=  1342177280 cpu:               4.9 elap:               0.3
 (Enter /gpfs/apps/hpc/Apps/Restricted/Gaussian/Rev_A.03/g16/l103.exe)

 GradGradGradGradGradGradGradGradGradGradGradGradGradGradGradGradGradGrad
 Berny optimization.
 Initialization pass.
                           ----------------------------
                           !    Initial Parameters    !
                           ! (Angstroms and Degrees)  !
 --------------------------                            --------------------------
 ! Name  Definition              Value          Derivative Info.                !
 --------------------------------------------------------------------------------
 ! R1    R(1,2)                  1.4147         estimate D2E/DX2                !
 ! R2    R(1,6)                  1.4035         estimate D2E/DX2                !
 ! R3    R(1,43)                 1.3735         estimate D2E/DX2                !
 ! R4    R(2,3)                  1.4002         estimate D2E/DX2                !
 ! R5    R(2,21)                 1.3852         estimate D2E/DX2                !
 ! R6    R(3,4)                  1.3927         estimate D2E/DX2                !
 ! R7    R(3,8)                  1.0829         estimate D2E/DX2                !
 ! R8    R(4,5)                  1.4053         estimate D2E/DX2                !
 ! R9    R(4,9)                  1.0835         estimate D2E/DX2                !
 ! R10   R(5,6)                  1.4001         estimate D2E/DX2                !
 ! R11   R(5,10)                 1.0837         estimate D2E/DX2                !
 ! R12   R(6,45)                 1.453          estimate D2E/DX2                !
 ! R13   R(7,16)                 1.4528         estimate D2E/DX2                !
 ! R14   R(7,21)                 1.3319         estimate D2E/DX2                !
 ! R15   R(7,43)                 1.3709         estimate D2E/DX2                !
 ! R16   R(11,12)                1.4207         estimate D2E/DX2                !
 ! R17   R(11,16)                1.4065         estimate D2E/DX2                !
 ! R18   R(11,40)                1.3676         estimate D2E/DX2                !
 ! R19   R(12,13)                1.4038         estimate D2E/DX2                !
 ! R20   R(12,41)                1.3715         estimate D2E/DX2                !
 ! R21   R(13,14)                1.3867         estimate D2E/DX2                !
 ! R22   R(13,18)                1.0825         estimate D2E/DX2                !
 ! R23   R(14,15)                1.4137         estimate D2E/DX2                !
 ! R24   R(14,19)                1.0828         estimate D2E/DX2                !
 ! R25   R(15,16)                1.3945         estimate D2E/DX2                !
 ! R26   R(15,20)                1.0832         estimate D2E/DX2                !
 ! R27   R(17,23)                1.4385         estimate D2E/DX2                !
 ! R28   R(17,40)                1.3676         estimate D2E/DX2                !
 ! R29   R(17,41)                1.3424         estimate D2E/DX2                !
 ! R30   R(22,23)                1.4566         estimate D2E/DX2                !
 ! R31   R(22,27)                1.4366         estimate D2E/DX2                !
 ! R32   R(22,38)                1.3007         estimate D2E/DX2                !
 ! R33   R(23,24)                1.388          estimate D2E/DX2                !
 ! R34   R(24,25)                1.4011         estimate D2E/DX2                !
 ! R35   R(24,28)                1.0823         estimate D2E/DX2                !
 ! R36   R(25,26)                1.4252         estimate D2E/DX2                !
 ! R37   R(25,30)                1.4933         estimate D2E/DX2                !
 ! R38   R(26,27)                1.372          estimate D2E/DX2                !
 ! R39   R(26,29)                1.084          estimate D2E/DX2                !
 ! R40   R(27,34)                1.4959         estimate D2E/DX2                !
 ! R41   R(30,31)                1.0903         estimate D2E/DX2                !
 ! R42   R(30,32)                1.0973         estimate D2E/DX2                !
 ! R43   R(30,33)                1.0916         estimate D2E/DX2                !
 ! R44   R(34,35)                1.0937         estimate D2E/DX2                !
 ! R45   R(34,36)                1.0934         estimate D2E/DX2                !
 ! R46   R(34,37)                1.0892         estimate D2E/DX2                !
 ! R47   R(38,39)                1.0502         estimate D2E/DX2                !
 ! R48   R(40,42)                1.019          estimate D2E/DX2                !
 ! R49   R(43,44)                1.0142         estimate D2E/DX2                !
 ! R50   R(45,46)                1.3322         estimate D2E/DX2                !
 ! R51   R(45,47)                1.3736         estimate D2E/DX2                !
 ! R52   R(46,52)                1.3873         estimate D2E/DX2                !
 ! R53   R(47,53)                1.3718         estimate D2E/DX2                !
 ! R54   R(47,57)                1.014          estimate D2E/DX2                !
 ! R55   R(48,49)                1.3997         estimate D2E/DX2                !
 ! R56   R(48,53)                1.403          estimate D2E/DX2                !
 ! R57   R(48,58)                1.4617         estimate D2E/DX2                !
 ! R58   R(49,50)                1.4062         estimate D2E/DX2                !
 ! R59   R(49,54)                1.0848         estimate D2E/DX2                !
 ! R60   R(50,51)                1.394          estimate D2E/DX2                !
 ! R61   R(50,55)                1.0835         estimate D2E/DX2                !
 ! R62   R(51,52)                1.4012         estimate D2E/DX2                !
 ! R63   R(51,56)                1.0834         estimate D2E/DX2                !
 ! R64   R(52,53)                1.4137         estimate D2E/DX2                !
 ! R65   R(58,59)                1.0932         estimate D2E/DX2                !
 ! R66   R(58,60)                1.2811         estimate D2E/DX2                !
 ! R67   R(60,61)                1.4633         estimate D2E/DX2                !
 ! R68   R(61,62)                1.5327         estimate D2E/DX2                !
 ! R69   R(61,63)                1.5379         estimate D2E/DX2                !
 ! R70   R(61,64)                1.0999         estimate D2E/DX2                !
 ! R71   R(62,65)                1.533          estimate D2E/DX2                !
 ! R72   R(62,66)                1.0969         estimate D2E/DX2                !
 ! R73   R(62,67)                1.0945         estimate D2E/DX2                !
 ! R74   R(63,68)                1.532          estimate D2E/DX2                !
 ! R75   R(63,69)                1.0971         estimate D2E/DX2                !
 ! R76   R(63,70)                1.0942         estimate D2E/DX2                !
 ! R77   R(65,71)                1.5324         estimate D2E/DX2                !
 ! R78   R(65,72)                1.0944         estimate D2E/DX2                !
 ! R79   R(65,73)                1.0973         estimate D2E/DX2                !
 ! R80   R(68,71)                1.5327         estimate D2E/DX2                !
 ! R81   R(68,74)                1.0943         estimate D2E/DX2                !
 ! R82   R(68,75)                1.0971         estimate D2E/DX2                !
 ! R83   R(71,76)                1.0945         estimate D2E/DX2                !
 ! R84   R(71,77)                1.0972         estimate D2E/DX2                !
 ! A1    A(2,1,6)              122.9818         estimate D2E/DX2                !
 ! A2    A(2,1,43)             105.6203         estimate D2E/DX2                !
 ! A3    A(6,1,43)             131.3972         estimate D2E/DX2                !
 ! A4    A(1,2,3)              119.8601         estimate D2E/DX2                !
 ! A5    A(1,2,21)             109.3377         estimate D2E/DX2                !
 ! A6    A(3,2,21)             130.8017         estimate D2E/DX2                !
 ! A7    A(2,3,4)              117.6864         estimate D2E/DX2                !
 ! A8    A(2,3,8)              120.8708         estimate D2E/DX2                !
 ! A9    A(4,3,8)              121.4427         estimate D2E/DX2                !
 ! A10   A(3,4,5)              121.9074         estimate D2E/DX2                !
 ! A11   A(3,4,9)              119.3797         estimate D2E/DX2                !
 ! A12   A(5,4,9)              118.7129         estimate D2E/DX2                !
 ! A13   A(4,5,6)              121.6487         estimate D2E/DX2                !
 ! A14   A(4,5,10)             119.033          estimate D2E/DX2                !
 ! A15   A(6,5,10)             119.3146         estimate D2E/DX2                !
 ! A16   A(1,6,5)              115.915          estimate D2E/DX2                !
 ! A17   A(1,6,45)             120.0259         estimate D2E/DX2                !
 ! A18   A(5,6,45)             124.0587         estimate D2E/DX2                !
 ! A19   A(16,7,21)            123.2248         estimate D2E/DX2                !
 ! A20   A(16,7,43)            124.5883         estimate D2E/DX2                !
 ! A21   A(21,7,43)            112.185          estimate D2E/DX2                !
 ! A22   A(12,11,16)           122.91           estimate D2E/DX2                !
 ! A23   A(12,11,40)           106.3141         estimate D2E/DX2                !
 ! A24   A(16,11,40)           130.7751         estimate D2E/DX2                !
 ! A25   A(11,12,13)           120.2213         estimate D2E/DX2                !
 ! A26   A(11,12,41)           108.2616         estimate D2E/DX2                !
 ! A27   A(13,12,41)           131.5161         estimate D2E/DX2                !
 ! A28   A(12,13,14)           117.0675         estimate D2E/DX2                !
 ! A29   A(12,13,18)           121.0285         estimate D2E/DX2                !
 ! A30   A(14,13,18)           121.904          estimate D2E/DX2                !
 ! A31   A(13,14,15)           122.3129         estimate D2E/DX2                !
 ! A32   A(13,14,19)           119.3927         estimate D2E/DX2                !
 ! A33   A(15,14,19)           118.2944         estimate D2E/DX2                !
 ! A34   A(14,15,16)           121.8866         estimate D2E/DX2                !
 ! A35   A(14,15,20)           118.6623         estimate D2E/DX2                !
 ! A36   A(16,15,20)           119.4509         estimate D2E/DX2                !
 ! A37   A(7,16,11)            119.3407         estimate D2E/DX2                !
 ! A38   A(7,16,15)            125.0583         estimate D2E/DX2                !
 ! A39   A(11,16,15)           115.601          estimate D2E/DX2                !
 ! A40   A(23,17,40)           127.2189         estimate D2E/DX2                !
 ! A41   A(23,17,41)           121.6873         estimate D2E/DX2                !
 ! A42   A(40,17,41)           111.0883         estimate D2E/DX2                !
 ! A43   A(2,21,7)             105.5276         estimate D2E/DX2                !
 ! A44   A(23,22,27)           120.5374         estimate D2E/DX2                !
 ! A45   A(23,22,38)           121.4494         estimate D2E/DX2                !
 ! A46   A(27,22,38)           118.0131         estimate D2E/DX2                !
 ! A47   A(17,23,22)           117.5418         estimate D2E/DX2                !
 ! A48   A(17,23,24)           123.7339         estimate D2E/DX2                !
 ! A49   A(22,23,24)           118.7241         estimate D2E/DX2                !
 ! A50   A(23,24,25)           120.9414         estimate D2E/DX2                !
 ! A51   A(23,24,28)           120.0602         estimate D2E/DX2                !
 ! A52   A(25,24,28)           118.9982         estimate D2E/DX2                !
 ! A53   A(24,25,26)           119.4486         estimate D2E/DX2                !
 ! A54   A(24,25,30)           120.7542         estimate D2E/DX2                !
 ! A55   A(26,25,30)           119.7784         estimate D2E/DX2                !
 ! A56   A(25,26,27)           122.5874         estimate D2E/DX2                !
 ! A57   A(25,26,29)           118.439          estimate D2E/DX2                !
 ! A58   A(27,26,29)           118.9735         estimate D2E/DX2                !
 ! A59   A(22,27,26)           117.7566         estimate D2E/DX2                !
 ! A60   A(22,27,34)           119.0142         estimate D2E/DX2                !
 ! A61   A(26,27,34)           123.2291         estimate D2E/DX2                !
 ! A62   A(25,30,31)           111.4258         estimate D2E/DX2                !
 ! A63   A(25,30,32)           109.3536         estimate D2E/DX2                !
 ! A64   A(25,30,33)           111.2029         estimate D2E/DX2                !
 ! A65   A(31,30,32)           107.8219         estimate D2E/DX2                !
 ! A66   A(31,30,33)           109.7954         estimate D2E/DX2                !
 ! A67   A(32,30,33)           107.0853         estimate D2E/DX2                !
 ! A68   A(27,34,35)           110.8071         estimate D2E/DX2                !
 ! A69   A(27,34,36)           110.6647         estimate D2E/DX2                !
 ! A70   A(27,34,37)           110.3778         estimate D2E/DX2                !
 ! A71   A(35,34,36)           106.8394         estimate D2E/DX2                !
 ! A72   A(35,34,37)           109.0707         estimate D2E/DX2                !
 ! A73   A(36,34,37)           108.9915         estimate D2E/DX2                !
 ! A74   A(22,38,39)           108.2933         estimate D2E/DX2                !
 ! A75   A(11,40,17)           107.5165         estimate D2E/DX2                !
 ! A76   A(11,40,42)           120.9748         estimate D2E/DX2                !
 ! A77   A(17,40,42)           131.5082         estimate D2E/DX2                !
 ! A78   A(12,41,17)           106.8193         estimate D2E/DX2                !
 ! A79   A(1,43,7)             107.329          estimate D2E/DX2                !
 ! A80   A(1,43,44)            122.5621         estimate D2E/DX2                !
 ! A81   A(7,43,44)            130.0958         estimate D2E/DX2                !
 ! A82   A(6,45,46)            124.0562         estimate D2E/DX2                !
 ! A83   A(6,45,47)            123.8762         estimate D2E/DX2                !
 ! A84   A(46,45,47)           112.0672         estimate D2E/DX2                !
 ! A85   A(45,46,52)           105.4736         estimate D2E/DX2                !
 ! A86   A(45,47,53)           107.4266         estimate D2E/DX2                !
 ! A87   A(45,47,57)           130.5847         estimate D2E/DX2                !
 ! A88   A(53,47,57)           121.9267         estimate D2E/DX2                !
 ! A89   A(49,48,53)           115.7541         estimate D2E/DX2                !
 ! A90   A(49,48,58)           122.3216         estimate D2E/DX2                !
 ! A91   A(53,48,58)           121.9126         estimate D2E/DX2                !
 ! A92   A(48,49,50)           121.7931         estimate D2E/DX2                !
 ! A93   A(48,49,54)           118.6938         estimate D2E/DX2                !
 ! A94   A(50,49,54)           119.5122         estimate D2E/DX2                !
 ! A95   A(49,50,51)           121.6874         estimate D2E/DX2                !
 ! A96   A(49,50,55)           118.9458         estimate D2E/DX2                !
 ! A97   A(51,50,55)           119.3667         estimate D2E/DX2                !
 ! A98   A(50,51,52)           117.888          estimate D2E/DX2                !
 ! A99   A(50,51,56)           121.3148         estimate D2E/DX2                !
 ! A100  A(52,51,56)           120.7958         estimate D2E/DX2                !
 ! A101  A(46,52,51)           131.0228         estimate D2E/DX2                !
 ! A102  A(46,52,53)           109.4007         estimate D2E/DX2                !
 ! A103  A(51,52,53)           119.5761         estimate D2E/DX2                !
 ! A104  A(47,53,48)           131.0687         estimate D2E/DX2                !
 ! A105  A(47,53,52)           105.6307         estimate D2E/DX2                !
 ! A106  A(48,53,52)           123.2981         estimate D2E/DX2                !
 ! A107  A(48,58,59)           115.4786         estimate D2E/DX2                !
 ! A108  A(48,58,60)           121.4422         estimate D2E/DX2                !
 ! A109  A(59,58,60)           123.0751         estimate D2E/DX2                !
 ! A110  A(58,60,61)           120.3425         estimate D2E/DX2                !
 ! A111  A(60,61,62)           117.2482         estimate D2E/DX2                !
 ! A112  A(60,61,63)           108.441          estimate D2E/DX2                !
 ! A113  A(60,61,64)           105.3398         estimate D2E/DX2                !
 ! A114  A(62,61,63)           110.6742         estimate D2E/DX2                !
 ! A115  A(62,61,64)           107.7292         estimate D2E/DX2                !
 ! A116  A(63,61,64)           106.8099         estimate D2E/DX2                !
 ! A117  A(61,62,65)           110.9768         estimate D2E/DX2                !
 ! A118  A(61,62,66)           109.1059         estimate D2E/DX2                !
 ! A119  A(61,62,67)           110.199          estimate D2E/DX2                !
 ! A120  A(65,62,66)           109.3894         estimate D2E/DX2                !
 ! A121  A(65,62,67)           110.1155         estimate D2E/DX2                !
 ! A122  A(66,62,67)           106.9598         estimate D2E/DX2                !
 ! A123  A(61,63,68)           111.3436         estimate D2E/DX2                !
 ! A124  A(61,63,69)           108.286          estimate D2E/DX2                !
 ! A125  A(61,63,70)           109.1475         estimate D2E/DX2                !
 ! A126  A(68,63,69)           109.8309         estimate D2E/DX2                !
 ! A127  A(68,63,70)           110.9613         estimate D2E/DX2                !
 ! A128  A(69,63,70)           107.1432         estimate D2E/DX2                !
 ! A129  A(62,65,71)           111.5776         estimate D2E/DX2                !
 ! A130  A(62,65,72)           109.7603         estimate D2E/DX2                !
 ! A131  A(62,65,73)           109.1683         estimate D2E/DX2                !
 ! A132  A(71,65,72)           110.4111         estimate D2E/DX2                !
 ! A133  A(71,65,73)           109.1214         estimate D2E/DX2                !
 ! A134  A(72,65,73)           106.6685         estimate D2E/DX2                !
 ! A135  A(63,68,71)           111.4746         estimate D2E/DX2                !
 ! A136  A(63,68,74)           110.0087         estimate D2E/DX2                !
 ! A137  A(63,68,75)           109.0178         estimate D2E/DX2                !
 ! A138  A(71,68,74)           110.3744         estimate D2E/DX2                !
 ! A139  A(71,68,75)           109.0501         estimate D2E/DX2                !
 ! A140  A(74,68,75)           106.7868         estimate D2E/DX2                !
 ! A141  A(65,71,68)           111.1331         estimate D2E/DX2                !
 ! A142  A(65,71,76)           110.1617         estimate D2E/DX2                !
 ! A143  A(65,71,77)           109.077          estimate D2E/DX2                !
 ! A144  A(68,71,76)           110.1832         estimate D2E/DX2                !
 ! A145  A(68,71,77)           109.2017         estimate D2E/DX2                !
 ! A146  A(76,71,77)           106.9812         estimate D2E/DX2                !
 ! D1    D(6,1,2,3)              0.2244         estimate D2E/DX2                !
 ! D2    D(6,1,2,21)          -179.5561         estimate D2E/DX2                !
 ! D3    D(43,1,2,3)           179.9734         estimate D2E/DX2                !
 ! D4    D(43,1,2,21)            0.1928         estimate D2E/DX2                !
 ! D5    D(2,1,6,5)             -0.2235         estimate D2E/DX2                !
 ! D6    D(2,1,6,45)           179.5332         estimate D2E/DX2                !
 ! D7    D(43,1,6,5)          -179.9011         estimate D2E/DX2                !
 ! D8    D(43,1,6,45)           -0.1444         estimate D2E/DX2                !
 ! D9    D(2,1,43,7)            -0.1635         estimate D2E/DX2                !
 ! D10   D(2,1,43,44)          178.6396         estimate D2E/DX2                !
 ! D11   D(6,1,43,7)           179.5557         estimate D2E/DX2                !
 ! D12   D(6,1,43,44)           -1.6412         estimate D2E/DX2                !
 ! D13   D(1,2,3,4)             -0.0036         estimate D2E/DX2                !
 ! D14   D(1,2,3,8)            179.8568         estimate D2E/DX2                !
 ! D15   D(21,2,3,4)           179.7228         estimate D2E/DX2                !
 ! D16   D(21,2,3,8)            -0.4168         estimate D2E/DX2                !
 ! D17   D(1,2,21,7)            -0.1441         estimate D2E/DX2                !
 ! D18   D(3,2,21,7)          -179.8926         estimate D2E/DX2                !
 ! D19   D(2,3,4,5)             -0.2037         estimate D2E/DX2                !
 ! D20   D(2,3,4,9)            179.7119         estimate D2E/DX2                !
 ! D21   D(8,3,4,5)            179.9367         estimate D2E/DX2                !
 ! D22   D(8,3,4,9)             -0.1477         estimate D2E/DX2                !
 ! D23   D(3,4,5,6)              0.2039         estimate D2E/DX2                !
 ! D24   D(3,4,5,10)           179.4925         estimate D2E/DX2                !
 ! D25   D(9,4,5,6)           -179.7122         estimate D2E/DX2                !
 ! D26   D(9,4,5,10)            -0.4236         estimate D2E/DX2                !
 ! D27   D(4,5,6,1)              0.0123         estimate D2E/DX2                !
 ! D28   D(4,5,6,45)          -179.7335         estimate D2E/DX2                !
 ! D29   D(10,5,6,1)          -179.2744         estimate D2E/DX2                !
 ! D30   D(10,5,6,45)            0.9799         estimate D2E/DX2                !
 ! D31   D(1,6,45,46)            5.4831         estimate D2E/DX2                !
 ! D32   D(1,6,45,47)         -174.7982         estimate D2E/DX2                !
 ! D33   D(5,6,45,46)         -174.781          estimate D2E/DX2                !
 ! D34   D(5,6,45,47)            4.9376         estimate D2E/DX2                !
 ! D35   D(21,7,16,11)           0.5076         estimate D2E/DX2                !
 ! D36   D(21,7,16,15)        -179.4311         estimate D2E/DX2                !
 ! D37   D(43,7,16,11)         179.9708         estimate D2E/DX2                !
 ! D38   D(43,7,16,15)           0.0321         estimate D2E/DX2                !
 ! D39   D(16,7,21,2)          179.5627         estimate D2E/DX2                !
 ! D40   D(43,7,21,2)            0.0399         estimate D2E/DX2                !
 ! D41   D(16,7,43,1)         -179.4336         estimate D2E/DX2                !
 ! D42   D(16,7,43,44)           1.8852         estimate D2E/DX2                !
 ! D43   D(21,7,43,1)            0.0814         estimate D2E/DX2                !
 ! D44   D(21,7,43,44)        -178.5998         estimate D2E/DX2                !
 ! D45   D(16,11,12,13)         -0.0229         estimate D2E/DX2                !
 ! D46   D(16,11,12,41)       -179.6934         estimate D2E/DX2                !
 ! D47   D(40,11,12,13)        179.667          estimate D2E/DX2                !
 ! D48   D(40,11,12,41)         -0.0035         estimate D2E/DX2                !
 ! D49   D(12,11,16,7)        -179.7146         estimate D2E/DX2                !
 ! D50   D(12,11,16,15)          0.2298         estimate D2E/DX2                !
 ! D51   D(40,11,16,7)           0.6785         estimate D2E/DX2                !
 ! D52   D(40,11,16,15)       -179.3772         estimate D2E/DX2                !
 ! D53   D(12,11,40,17)         -0.091          estimate D2E/DX2                !
 ! D54   D(12,11,40,42)       -179.8579         estimate D2E/DX2                !
 ! D55   D(16,11,40,17)        179.5652         estimate D2E/DX2                !
 ! D56   D(16,11,40,42)         -0.2017         estimate D2E/DX2                !
 ! D57   D(11,12,13,14)         -0.0993         estimate D2E/DX2                !
 ! D58   D(11,12,13,18)        179.9287         estimate D2E/DX2                !
 ! D59   D(41,12,13,14)        179.4829         estimate D2E/DX2                !
 ! D60   D(41,12,13,18)         -0.4892         estimate D2E/DX2                !
 ! D61   D(11,12,41,17)          0.0981         estimate D2E/DX2                !
 ! D62   D(13,12,41,17)       -179.5217         estimate D2E/DX2                !
 ! D63   D(12,13,14,15)          0.0073         estimate D2E/DX2                !
 ! D64   D(12,13,14,19)        179.9817         estimate D2E/DX2                !
 ! D65   D(18,13,14,15)        179.979          estimate D2E/DX2                !
 ! D66   D(18,13,14,19)         -0.0466         estimate D2E/DX2                !
 ! D67   D(13,14,15,16)          0.216          estimate D2E/DX2                !
 ! D68   D(13,14,15,20)       -179.9375         estimate D2E/DX2                !
 ! D69   D(19,14,15,16)       -179.7587         estimate D2E/DX2                !
 ! D70   D(19,14,15,20)          0.0879         estimate D2E/DX2                !
 ! D71   D(14,15,16,7)         179.6193         estimate D2E/DX2                !
 ! D72   D(14,15,16,11)         -0.3215         estimate D2E/DX2                !
 ! D73   D(20,15,16,7)          -0.2261         estimate D2E/DX2                !
 ! D74   D(20,15,16,11)        179.8332         estimate D2E/DX2                !
 ! D75   D(40,17,23,22)        178.3398         estimate D2E/DX2                !
 ! D76   D(40,17,23,24)         -1.4867         estimate D2E/DX2                !
 ! D77   D(41,17,23,22)         -0.7332         estimate D2E/DX2                !
 ! D78   D(41,17,23,24)        179.4403         estimate D2E/DX2                !
 ! D79   D(23,17,40,11)       -178.9952         estimate D2E/DX2                !
 ! D80   D(23,17,40,42)          0.7379         estimate D2E/DX2                !
 ! D81   D(41,17,40,11)          0.1594         estimate D2E/DX2                !
 ! D82   D(41,17,40,42)        179.8925         estimate D2E/DX2                !
 ! D83   D(23,17,41,12)        179.049          estimate D2E/DX2                !
 ! D84   D(40,17,41,12)         -0.1598         estimate D2E/DX2                !
 ! D85   D(27,22,23,17)       -179.6118         estimate D2E/DX2                !
 ! D86   D(27,22,23,24)          0.2236         estimate D2E/DX2                !
 ! D87   D(38,22,23,17)          0.4607         estimate D2E/DX2                !
 ! D88   D(38,22,23,24)       -179.7039         estimate D2E/DX2                !
 ! D89   D(23,22,27,26)          0.1931         estimate D2E/DX2                !
 ! D90   D(23,22,27,34)       -179.7171         estimate D2E/DX2                !
 ! D91   D(38,22,27,26)       -179.877          estimate D2E/DX2                !
 ! D92   D(38,22,27,34)          0.2128         estimate D2E/DX2                !
 ! D93   D(23,22,38,39)         -0.0985         estimate D2E/DX2                !
 ! D94   D(27,22,38,39)        179.9723         estimate D2E/DX2                !
 ! D95   D(17,23,24,25)        179.1159         estimate D2E/DX2                !
 ! D96   D(17,23,24,28)         -0.7233         estimate D2E/DX2                !
 ! D97   D(22,23,24,25)         -0.7087         estimate D2E/DX2                !
 ! D98   D(22,23,24,28)        179.4522         estimate D2E/DX2                !
 ! D99   D(23,24,25,26)          0.7716         estimate D2E/DX2                !
 ! D100  D(23,24,25,30)       -177.6463         estimate D2E/DX2                !
 ! D101  D(28,24,25,26)       -179.3876         estimate D2E/DX2                !
 ! D102  D(28,24,25,30)          2.1946         estimate D2E/DX2                !
 ! D103  D(24,25,26,27)         -0.3366         estimate D2E/DX2                !
 ! D104  D(24,25,26,29)        179.675          estimate D2E/DX2                !
 ! D105  D(30,25,26,27)        178.097          estimate D2E/DX2                !
 ! D106  D(30,25,26,29)         -1.8915         estimate D2E/DX2                !
 ! D107  D(24,25,30,31)        -23.3992         estimate D2E/DX2                !
 ! D108  D(24,25,30,32)         95.6989         estimate D2E/DX2                !
 ! D109  D(24,25,30,33)       -146.2498         estimate D2E/DX2                !
 ! D110  D(26,25,30,31)        158.1881         estimate D2E/DX2                !
 ! D111  D(26,25,30,32)        -82.7138         estimate D2E/DX2                !
 ! D112  D(26,25,30,33)         35.3375         estimate D2E/DX2                !
 ! D113  D(25,26,27,22)         -0.137          estimate D2E/DX2                !
 ! D114  D(25,26,27,34)        179.7691         estimate D2E/DX2                !
 ! D115  D(29,26,27,22)        179.8513         estimate D2E/DX2                !
 ! D116  D(29,26,27,34)         -0.2425         estimate D2E/DX2                !
 ! D117  D(22,27,34,35)        -60.1425         estimate D2E/DX2                !
 ! D118  D(22,27,34,36)         58.1867         estimate D2E/DX2                !
 ! D119  D(22,27,34,37)        178.9255         estimate D2E/DX2                !
 ! D120  D(26,27,34,35)        119.9525         estimate D2E/DX2                !
 ! D121  D(26,27,34,36)       -121.7183         estimate D2E/DX2                !
 ! D122  D(26,27,34,37)         -0.9795         estimate D2E/DX2                !
 ! D123  D(6,45,46,52)         179.6135         estimate D2E/DX2                !
 ! D124  D(47,45,46,52)         -0.1344         estimate D2E/DX2                !
 ! D125  D(6,45,47,53)        -179.8329         estimate D2E/DX2                !
 ! D126  D(6,45,47,57)           3.0493         estimate D2E/DX2                !
 ! D127  D(46,45,47,53)         -0.0844         estimate D2E/DX2                !
 ! D128  D(46,45,47,57)       -177.2022         estimate D2E/DX2                !
 ! D129  D(45,46,52,51)       -179.9229         estimate D2E/DX2                !
 ! D130  D(45,46,52,53)          0.2991         estimate D2E/DX2                !
 ! D131  D(45,47,53,48)       -179.1592         estimate D2E/DX2                !
 ! D132  D(45,47,53,52)          0.261          estimate D2E/DX2                !
 ! D133  D(57,47,53,48)         -1.738          estimate D2E/DX2                !
 ! D134  D(57,47,53,52)        177.6822         estimate D2E/DX2                !
 ! D135  D(53,48,49,50)         -0.2845         estimate D2E/DX2                !
 ! D136  D(53,48,49,54)       -179.9354         estimate D2E/DX2                !
 ! D137  D(58,48,49,50)        178.4944         estimate D2E/DX2                !
 ! D138  D(58,48,49,54)         -1.1565         estimate D2E/DX2                !
 ! D139  D(49,48,53,47)        179.9942         estimate D2E/DX2                !
 ! D140  D(49,48,53,52)          0.6623         estimate D2E/DX2                !
 ! D141  D(58,48,53,47)          1.2099         estimate D2E/DX2                !
 ! D142  D(58,48,53,52)       -178.1221         estimate D2E/DX2                !
 ! D143  D(49,48,58,59)          2.3797         estimate D2E/DX2                !
 ! D144  D(49,48,58,60)       -176.9005         estimate D2E/DX2                !
 ! D145  D(53,48,58,59)       -178.916          estimate D2E/DX2                !
 ! D146  D(53,48,58,60)          1.8038         estimate D2E/DX2                !
 ! D147  D(48,49,50,51)         -0.0704         estimate D2E/DX2                !
 ! D148  D(48,49,50,55)       -179.9207         estimate D2E/DX2                !
 ! D149  D(54,49,50,51)        179.5777         estimate D2E/DX2                !
 ! D150  D(54,49,50,55)         -0.2725         estimate D2E/DX2                !
 ! D151  D(49,50,51,52)          0.0731         estimate D2E/DX2                !
 ! D152  D(49,50,51,56)       -179.4969         estimate D2E/DX2                !
 ! D153  D(55,50,51,52)        179.9227         estimate D2E/DX2                !
 ! D154  D(55,50,51,56)          0.3527         estimate D2E/DX2                !
 ! D155  D(50,51,52,46)       -179.4753         estimate D2E/DX2                !
 ! D156  D(50,51,52,53)          0.2838         estimate D2E/DX2                !
 ! D157  D(56,51,52,46)          0.097          estimate D2E/DX2                !
 ! D158  D(56,51,52,53)        179.8562         estimate D2E/DX2                !
 ! D159  D(46,52,53,47)         -0.3507         estimate D2E/DX2                !
 ! D160  D(46,52,53,48)        179.1263         estimate D2E/DX2                !
 ! D161  D(51,52,53,47)        179.8419         estimate D2E/DX2                !
 ! D162  D(51,52,53,48)         -0.6811         estimate D2E/DX2                !
 ! D163  D(48,58,60,61)        179.4031         estimate D2E/DX2                !
 ! D164  D(59,58,60,61)          0.1785         estimate D2E/DX2                !
 ! D165  D(58,60,61,62)         -0.6044         estimate D2E/DX2                !
 ! D166  D(58,60,61,63)        125.5769         estimate D2E/DX2                !
 ! D167  D(58,60,61,64)       -120.37           estimate D2E/DX2                !
 ! D168  D(60,61,62,65)       -178.7709         estimate D2E/DX2                !
 ! D169  D(60,61,62,66)         60.6261         estimate D2E/DX2                !
 ! D170  D(60,61,62,67)        -56.5275         estimate D2E/DX2                !
 ! D171  D(63,61,62,65)         56.155          estimate D2E/DX2                !
 ! D172  D(63,61,62,66)        -64.448          estimate D2E/DX2                !
 ! D173  D(63,61,62,67)        178.3983         estimate D2E/DX2                !
 ! D174  D(64,61,62,65)        -60.2783         estimate D2E/DX2                !
 ! D175  D(64,61,62,66)        179.1187         estimate D2E/DX2                !
 ! D176  D(64,61,62,67)         61.9651         estimate D2E/DX2                !
 ! D177  D(60,61,63,68)        174.1163         estimate D2E/DX2                !
 ! D178  D(60,61,63,69)        -65.0383         estimate D2E/DX2                !
 ! D179  D(60,61,63,70)         51.2796         estimate D2E/DX2                !
 ! D180  D(62,61,63,68)        -55.9667         estimate D2E/DX2                !
 ! D181  D(62,61,63,69)         64.8786         estimate D2E/DX2                !
 ! D182  D(62,61,63,70)       -178.8035         estimate D2E/DX2                !
 ! D183  D(64,61,63,68)         61.0344         estimate D2E/DX2                !
 ! D184  D(64,61,63,69)       -178.1203         estimate D2E/DX2                !
 ! D185  D(64,61,63,70)        -61.8024         estimate D2E/DX2                !
 ! D186  D(61,62,65,71)        -56.0339         estimate D2E/DX2                !
 ! D187  D(61,62,65,72)       -178.7565         estimate D2E/DX2                !
 ! D188  D(61,62,65,73)         64.6571         estimate D2E/DX2                !
 ! D189  D(66,62,65,71)         64.4011         estimate D2E/DX2                !
 ! D190  D(66,62,65,72)        -58.3214         estimate D2E/DX2                !
 ! D191  D(66,62,65,73)       -174.9079         estimate D2E/DX2                !
 ! D192  D(67,62,65,71)       -178.3259         estimate D2E/DX2                !
 ! D193  D(67,62,65,72)         58.9516         estimate D2E/DX2                !
 ! D194  D(67,62,65,73)        -57.6349         estimate D2E/DX2                !
 ! D195  D(61,63,68,71)         55.2927         estimate D2E/DX2                !
 ! D196  D(61,63,68,74)        178.0724         estimate D2E/DX2                !
 ! D197  D(61,63,68,75)        -65.1441         estimate D2E/DX2                !
 ! D198  D(69,63,68,71)        -64.6426         estimate D2E/DX2                !
 ! D199  D(69,63,68,74)         58.1371         estimate D2E/DX2                !
 ! D200  D(69,63,68,75)        174.9206         estimate D2E/DX2                !
 ! D201  D(70,63,68,71)        177.0826         estimate D2E/DX2                !
 ! D202  D(70,63,68,74)        -60.1377         estimate D2E/DX2                !
 ! D203  D(70,63,68,75)         56.6457         estimate D2E/DX2                !
 ! D204  D(62,65,71,68)         54.9978         estimate D2E/DX2                !
 ! D205  D(62,65,71,76)        177.4075         estimate D2E/DX2                !
 ! D206  D(62,65,71,77)        -65.4515         estimate D2E/DX2                !
 ! D207  D(72,65,71,68)        177.3473         estimate D2E/DX2                !
 ! D208  D(72,65,71,76)        -60.243          estimate D2E/DX2                !
 ! D209  D(72,65,71,77)         56.898          estimate D2E/DX2                !
 ! D210  D(73,65,71,68)        -65.7206         estimate D2E/DX2                !
 ! D211  D(73,65,71,76)         56.6891         estimate D2E/DX2                !
 ! D212  D(73,65,71,77)        173.8301         estimate D2E/DX2                !
 ! D213  D(63,68,71,65)        -54.5433         estimate D2E/DX2                !
 ! D214  D(63,68,71,76)       -176.9406         estimate D2E/DX2                !
 ! D215  D(63,68,71,77)         65.8322         estimate D2E/DX2                !
 ! D216  D(74,68,71,65)       -177.1133         estimate D2E/DX2                !
 ! D217  D(74,68,71,76)         60.4894         estimate D2E/DX2                !
 ! D218  D(74,68,71,77)        -56.7378         estimate D2E/DX2                !
 ! D219  D(75,68,71,65)         65.8746         estimate D2E/DX2                !
 ! D220  D(75,68,71,76)        -56.5227         estimate D2E/DX2                !
 ! D221  D(75,68,71,77)       -173.7499         estimate D2E/DX2                !
 --------------------------------------------------------------------------------
 Trust Radius=3.00D-01 FncErr=5.00D-06 GrdErr=5.00D-06 EigMax=2.50D+02 EigMin=1.00D-04
 Number of steps in this run=    461 maximum allowed number of steps=    462.
 GradGradGradGradGradGradGradGradGradGradGradGradGradGradGradGradGradGrad

 Leave Link  103 at Sun Dec 16 10:41:12 2018, MaxMem=  1342177280 cpu:               0.4 elap:               0.0
 (Enter /gpfs/apps/hpc/Apps/Restricted/Gaussian/Rev_A.03/g16/l202.exe)
 Symmetry turned off by external request.
 Stoichiometry    C36H33N7O(1+,2)
 Framework group  C1[X(C36H33N7O)]
 Deg. of freedom   225
 Full point group                 C1      NOp   1
                          Input orientation:                          
 ---------------------------------------------------------------------
 Center     Atomic      Atomic             Coordinates (Angstroms)
 Number     Number       Type             X           Y           Z
 ---------------------------------------------------------------------
      1          6           0        1.679093    0.392516    0.951704
      2          6           0        0.583138    1.239020    0.662460
      3          6           0        0.785084    2.617408    0.521563
      4          6           0        2.082175    3.100512    0.676029
      5          6           0        3.161904    2.249613    0.967544
      6          6           0        2.989619    0.867853    1.114017
      7          6           0       -0.190301   -0.777162    0.793914
      8          1           0       -0.041688    3.280139    0.297933
      9          1           0        2.270411    4.162112    0.568099
     10          1           0        4.153565    2.674439    1.069845
     11          6           0       -2.476903   -1.672090    0.544911
     12          6           0       -3.444403   -2.712401    0.535354
     13          6           0       -3.058054   -4.038958    0.783708
     14          6           0       -1.712933   -4.268819    1.030112
     15          6           0       -0.756916   -3.227339    1.035657
     16          6           0       -1.112074   -1.900105    0.796896
     17          6           0       -4.469938   -0.841212    0.093306
     18          1           0       -3.784443   -4.841559    0.780738
     19          1           0       -1.373544   -5.278116    1.226608
     20          1           0        0.278962   -3.474016    1.234157
     21          7           0       -0.571698    0.479469    0.571814
     22          6           0       -6.874604   -0.531138   -0.406558
     23          6           0       -5.550051    0.050128   -0.235386
     24          6           0       -5.396360    1.419798   -0.399483
     25          6           0       -6.486925    2.231631   -0.737984
     26          6           0       -7.774862    1.643283   -0.899728
     27          6           0       -7.997861    0.298611   -0.743528
     28          1           0       -4.423547    1.875690   -0.268655
     29          1           0       -8.608121    2.287418   -1.156460
     30          6           0       -6.307026    3.696629   -0.964649
     31          1           0       -5.418532    4.072108   -0.456473
     32          1           0       -6.184999    3.886168   -2.038590
     33          1           0       -7.184685    4.257440   -0.637686
     34          6           0       -9.344172   -0.333262   -0.904914
     35          1           0       -9.329156   -1.081283   -1.702661
     36          1           0       -9.638885   -0.852807    0.010969
     37          1           0      -10.092203    0.422694   -1.139948
     38          8           0       -7.079924   -1.807151   -0.259669
     39          1           0       -6.164981   -2.262578   -0.017879
     40          7           0       -3.152785   -0.516324    0.266169
     41          7           0       -4.667327   -2.159371    0.253390
     42          1           0       -2.665299    0.377074    0.215405
     43          7           0        1.157208   -0.875798    1.026136
     44          1           0        1.731256   -1.692664    1.204316
     45          6           0        4.066303   -0.058482    1.420333
     46          7           0        3.922424   -1.382233    1.461635
     47          7           0        5.354775    0.329406    1.696127
     48          6           0        7.435098   -0.982999    2.269366
     49          6           0        7.853135   -2.308182    2.437224
     50          6           0        6.968089   -3.389711    2.280750
     51          6           0        5.627296   -3.196965    1.951499
     52          6           0        5.177973   -1.881367    1.776546
     53          6           0        6.084890   -0.807952    1.930807
     54          1           0        8.888097   -2.498431    2.700623
     55          1           0        7.340823   -4.397142    2.422858
     56          1           0        4.948789   -4.034253    1.840316
     57          1           0        5.762279    1.254391    1.776811
     58          6           0        8.337090    0.151230    2.460613
     59          1           0        9.371245   -0.106199    2.704127
     60          7           0        7.922440    1.359214    2.359876
     61          6           0        8.843572    2.476804    2.568957
     62          6           0       10.295143    2.133293    2.921334
     63          6           0        8.786536    3.391781    1.334166
     64          1           0        8.421471    3.048639    3.408346
     65          6           0       11.123033    3.405197    3.137920
     66          1           0       10.734085    1.547820    2.104138
     67          1           0       10.328123    1.505600    3.817289
     68          6           0        9.617645    4.661828    1.542403
     69          1           0        9.171712    2.831995    0.472857
     70          1           0        7.742556    3.638202    1.117971
     71          6           0       11.066225    4.329340    1.916860
     72          1           0       12.159418    3.137691    3.366255
     73          1           0       10.736374    3.942052    4.013305
     74          1           0        9.589721    5.279750    0.639743
     75          1           0        9.167089    5.255978    2.347193
     76          1           0       11.626082    5.249087    2.113462
     77          1           0       11.553417    3.832807    1.068352
 ---------------------------------------------------------------------
 Rotational constants (GHZ):           0.1709926           0.0229883           0.0203326
 Leave Link  202 at Sun Dec 16 10:41:12 2018, MaxMem=  1342177280 cpu:               0.3 elap:               0.0
 (Enter /gpfs/apps/hpc/Apps/Restricted/Gaussian/Rev_A.03/g16/l301.exe)
 Standard basis: 6-31G(d,p) (6D, 7F)
 Ernie: Thresh=  0.10000D-02 Tol=  0.10000D-05 Strict=F.
   825 basis functions,  1463 primitive gaussians,   825 cartesian basis functions
   153 alpha electrons      152 beta electrons
       nuclear repulsion energy      4585.7125768506 Hartrees.
 IExCor=  402 DFT=T Ex+Corr=B3LYP ExCW=0 ScaHFX=  0.200000
 ScaDFX=  0.800000  0.720000  1.000000  0.810000 ScalE2=  1.000000  1.000000
 IRadAn=      5 IRanWt=     -1 IRanGd=            0 ICorTp=0 IEmpDi=141
 NAtoms=   77 NActive=   77 NUniq=   77 SFac= 1.00D+00 NAtFMM=   60 NAOKFM=T Big=T
 Integral buffers will be    131072 words long.
 Raffenetti 2 integral format.
 Two-electron integral symmetry is turned off.
 R6Disp:  Grimme-D3(BJ) Dispersion energy=       -0.1786680329 Hartrees.
 Nuclear repulsion after empirical dispersion term =     4585.5339088178 Hartrees.
 Using the following non-standard input for PCM:
 radii=bondi
 dis
 rep
 cav
 --- end of non-standard input.
 ------------------------------------------------------------------------------
 Polarizable Continuum Model (PCM)
 =================================
 Model                : C-PCM.
 Atomic radii         : Bondi.
 Polarization charges : Total charges.
 Charge compensation  : None.
 Solution method      : On-the-fly selection.
 Cavity type          : Scaled VdW (van der Waals Surface) (Alpha=1.100).
 Cavity algorithm     : GePol (No added spheres)
                        Default sphere list used, NSphG=   77.
                        Lebedev-Laikov grids with approx.  5.0 points / Ang**2.
                        Smoothing algorithm: York/Karplus (Gamma=1.0000).
                        Polarization charges: spherical gaussians, with
                                              point-specific exponents (IZeta= 3).
                        Self-potential: point-specific (ISelfS= 7).
                        Self-field    : sphere-specific E.n sum rule (ISelfD= 2).
 1st derivatives      : Analytical E(r).r(x)/FMM algorithm (CHGder, D1EAlg=3).
                        Cavity 1st derivative terms included.
 Solvent              : Dichloromethane, Eps=   8.930000 Eps(inf)=   2.028346
 ------------------------------------------------------------------------------
 GePol: Number of generator spheres                  =      77
 GePol: Total number of spheres                      =      77
 GePol: Number of exposed spheres                    =      77 (100.00%)
 GePol: Number of points                             =    5344
 GePol: Average weight of points                     =       0.12
 GePol: Minimum weight of points                     =   0.34D-11
 GePol: Maximum weight of points                     =    0.21770
 GePol: Number of points with low weight             =     359
 GePol: Fraction of low-weight points (<1% of avg)   =       6.72%
 GePol: Cavity surface area                          =    624.603 Ang**2
 GePol: Cavity volume                                =    608.648 Ang**3
 PCM non-electrostatic energy =         0.0209419415 Hartrees.
 Nuclear repulsion after PCM non-electrostatic terms =     4585.5548507592 Hartrees.
 Leave Link  301 at Sun Dec 16 10:41:13 2018, MaxMem=  1342177280 cpu:               5.4 elap:               0.4
 (Enter /gpfs/apps/hpc/Apps/Restricted/Gaussian/Rev_A.03/g16/l302.exe)
 NPDir=0 NMtPBC=     1 NCelOv=     1 NCel=       1 NClECP=     1 NCelD=      1
         NCelK=      1 NCelE2=     1 NClLst=     1 CellRange=     0.0.
 One-electron integrals computed using PRISM.
 NBasis=   825 RedAO= T EigKep=  2.72D-04  NBF=   825
 NBsUse=   825 1.00D-06 EigRej= -1.00D+00 NBFU=   825
 Precomputing XC quadrature grid using
 IXCGrd= 4 IRadAn=           5 IRanWt=          -1 IRanGd=           0 AccXCQ= 0.00D+00.
 Generated NRdTot=       0 NPtTot=           0 NUsed=           0 NTot=          32
 NSgBfM=   714   712   713   714   714 MxSgAt=    77 MxSgA2=    77.
 Leave Link  302 at Sun Dec 16 10:41:15 2018, MaxMem=  1342177280 cpu:              28.4 elap:               1.8
 (Enter /gpfs/apps/hpc/Apps/Restricted/Gaussian/Rev_A.03/g16/l303.exe)
 DipDrv:  MaxL=1.
 Leave Link  303 at Sun Dec 16 10:41:15 2018, MaxMem=  1342177280 cpu:               1.3 elap:               0.1
 (Enter /gpfs/apps/hpc/Apps/Restricted/Gaussian/Rev_A.03/g16/l401.exe)
 ExpMin= 1.61D-01 ExpMax= 5.48D+03 ExpMxC= 8.25D+02 IAcc=3 IRadAn=         5 AccDes= 0.00D+00
 Harris functional with IExCor=  402 and IRadAn=       5 diagonalized for initial guess.
 HarFok:  IExCor=  402 AccDes= 0.00D+00 IRadAn=         5 IDoV= 1 UseB2=F ITyADJ=14
 ICtDFT=  3500011 ScaDFX=  1.000000  1.000000  1.000000  1.000000
 FoFCou: FMM=F IPFlag=           0 FMFlag=      100000 FMFlg1=        2001
         NFxFlg=           0 DoJE=T BraDBF=F KetDBF=T FulRan=T
         wScrn=  0.000000 ICntrl=       500 IOpCl=  0 I1Cent=   200000004 NGrid=           0
         NMat0=    1 NMatS0=      1 NMatT0=    0 NMatD0=    1 NMtDS0=    0 NMtDT0=    0
 Symmetry not used in FoFCou.
 Harris En= -1850.16798114150    
 JPrj=0 DoOrth=F DoCkMO=F.
 Initial guess <Sx>= 0.0000 <Sy>= 0.0000 <Sz>= 0.5000 <S**2>= 0.7500 S= 0.5000
 Leave Link  401 at Sun Dec 16 10:41:21 2018, MaxMem=  1342177280 cpu:              89.8 elap:               5.7
 (Enter /gpfs/apps/hpc/Apps/Restricted/Gaussian/Rev_A.03/g16/l502.exe)
 Two-electron integral symmetry not used.
 UHF open shell SCF:
 Using DIIS extrapolation, IDIIS=  1040.
 NGot=  1342177280 LenX=  1340796146 LenY=  1340114696
 Requested convergence on RMS density matrix=1.00D-08 within 128 cycles.
 Requested convergence on MAX density matrix=1.00D-06.
 Requested convergence on             energy=1.00D-06.
 No special actions if energy rises.
 Fock matrices will be formed incrementally for  20 cycles.

 Cycle   1  Pass 1  IDiag  1:
 FoFJK:  IHMeth= 1 ICntrl=       0 DoSepK=F KAlg= 0 I1Cent=           0 FoldK=F
 IRaf= 580000000 NMat=       1 IRICut=       1 DoRegI=T DoRafI=F ISym2E= 0 IDoP0=0 IntGTp=1.
 FoFCou: FMM=T IPFlag=           0 FMFlag=      100000 FMFlg1=        2001
         NFxFlg=           0 DoJE=F BraDBF=F KetDBF=F FulRan=T
         wScrn=  0.000000 ICntrl=         0 IOpCl=  1 I1Cent=           0 NGrid=           0
         NMat0=    1 NMatS0=      1 NMatT0=    0 NMatD0=    1 NMtDS0=    0 NMtDT0=    0
 Symmetry not used in FoFCou.
 FMM levels:  10  Number of levels for PrismC:   9
 Inv3:  Mode=1 IEnd=    85675008.
 Iteration    1 A*A^-1 deviation from unit magnitude is 1.05D-14 for   1741.
 Iteration    1 A*A^-1 deviation from orthogonality  is 3.95D-15 for   4837   1743.
 Iteration    1 A^-1*A deviation from unit magnitude is 1.01D-14 for   3536.
 Iteration    1 A^-1*A deviation from orthogonality  is 2.79D-15 for   4842   2798.
 E= -1849.50906456155    
 DIIS: error= 2.32D-02 at cycle   1 NSaved=   1.
 NSaved= 1 IEnMin= 1 EnMin= -1849.50906456155     IErMin= 1 ErrMin= 2.32D-02
 ErrMax= 2.32D-02  0.00D+00 EMaxC= 1.00D-01 BMatC= 3.27D+00 BMatP= 3.27D+00
 IDIUse=3 WtCom= 7.68D-01 WtEn= 2.32D-01
 Coeff-Com:  0.100D+01
 Coeff-En:   0.100D+01
 Coeff:      0.100D+01
 Gap=     0.184 Goal=   None    Shift=    0.000
 Gap=     0.012 Goal=   None    Shift=    0.000
 GapD=    0.012 DampG=0.250 DampE=0.500 DampFc=0.2500 IDamp=-1.
 Damping current iteration by 2.50D-01
 RMSDP=2.85D-03 MaxDP=1.61D-01              OVMax= 9.16D-01

 Cycle   2  Pass 1  IDiag  1:
 RMSU=  6.87D-04    CP:  9.83D-01
 E= -1849.80509440711     Delta-E=       -0.296029845559 Rises=F Damp=T
 DIIS: error= 1.40D-02 at cycle   2 NSaved=   2.
 NSaved= 2 IEnMin= 2 EnMin= -1849.80509440711     IErMin= 2 ErrMin= 1.40D-02
 ErrMax= 1.40D-02  0.00D+00 EMaxC= 1.00D-01 BMatC= 9.26D-01 BMatP= 3.27D+00
 IDIUse=3 WtCom= 8.60D-01 WtEn= 1.40D-01
 Coeff-Com: -0.859D+00 0.186D+01
 Coeff-En:   0.000D+00 0.100D+01
 Coeff:     -0.739D+00 0.174D+01
 Gap=     0.203 Goal=   None    Shift=    0.000
 Gap=    -0.052 Goal=   None    Shift=    0.000
 RMSDP=1.21D-03 MaxDP=7.20D-02 DE=-2.96D-01 OVMax= 6.82D-01

 Cycle   3  Pass 1  IDiag  1:
 RMSU=  9.23D-04    CP:  9.47D-01  1.96D+00
 E= -1850.29950806701     Delta-E=       -0.494413659896 Rises=F Damp=F
 DIIS: error= 7.92D-03 at cycle   3 NSaved=   3.
 NSaved= 3 IEnMin= 3 EnMin= -1850.29950806701     IErMin= 3 ErrMin= 7.92D-03
 ErrMax= 7.92D-03  0.00D+00 EMaxC= 1.00D-01 BMatC= 2.11D-01 BMatP= 9.26D-01
 IDIUse=3 WtCom= 9.21D-01 WtEn= 7.92D-02
 Coeff-Com: -0.437D+00 0.883D+00 0.554D+00
 Coeff-En:   0.000D+00 0.000D+00 0.100D+01
 Coeff:     -0.403D+00 0.813D+00 0.589D+00
 Gap=     0.172 Goal=   None    Shift=    0.000
 Gap=     0.023 Goal=   None    Shift=    0.000
 RMSDP=4.37D-04 MaxDP=4.10D-02 DE=-4.94D-01 OVMax= 8.91D-02

 Cycle   4  Pass 1  IDiag  1:
 RMSU=  3.65D-04    CP:  9.51D-01  2.01D+00  7.47D-01
 E= -1850.34970113013     Delta-E=       -0.050193063125 Rises=F Damp=F
 DIIS: error= 2.39D-03 at cycle   4 NSaved=   4.
 NSaved= 4 IEnMin= 4 EnMin= -1850.34970113013     IErMin= 4 ErrMin= 2.39D-03
 ErrMax= 2.39D-03  0.00D+00 EMaxC= 1.00D-01 BMatC= 3.29D-02 BMatP= 2.11D-01
 IDIUse=3 WtCom= 9.76D-01 WtEn= 2.39D-02
 Coeff-Com: -0.109D+00 0.206D+00 0.289D+00 0.614D+00
 Coeff-En:   0.000D+00 0.000D+00 0.620D-01 0.938D+00
 Coeff:     -0.107D+00 0.201D+00 0.284D+00 0.622D+00
 Gap=     0.128 Goal=   None    Shift=    0.000
 Gap=     0.024 Goal=   None    Shift=    0.000
 RMSDP=1.69D-04 MaxDP=1.38D-02 DE=-5.02D-02 OVMax= 6.94D-02

 Cycle   5  Pass 1  IDiag  1:
 RMSU=  1.31D-04    CP:  9.50D-01  1.99D+00  8.00D-01  7.44D-01
 E= -1850.35648098709     Delta-E=       -0.006779856957 Rises=F Damp=F
 DIIS: error= 9.78D-04 at cycle   5 NSaved=   5.
 NSaved= 5 IEnMin= 5 EnMin= -1850.35648098709     IErMin= 5 ErrMin= 9.78D-04
 ErrMax= 9.78D-04  0.00D+00 EMaxC= 1.00D-01 BMatC= 7.87D-03 BMatP= 3.29D-02
 IDIUse=3 WtCom= 9.90D-01 WtEn= 9.78D-03
 Coeff-Com: -0.258D-01 0.404D-01 0.103D+00 0.378D+00 0.504D+00
 Coeff-En:   0.000D+00 0.000D+00 0.000D+00 0.162D+00 0.838D+00
 Coeff:     -0.255D-01 0.400D-01 0.102D+00 0.376D+00 0.508D+00
 Gap=     0.130 Goal=   None    Shift=    0.000
 Gap=     0.028 Goal=   None    Shift=    0.000
 RMSDP=6.69D-05 MaxDP=5.91D-03 DE=-6.78D-03 OVMax= 1.35D-02

 Cycle   6  Pass 1  IDiag  1:
 RMSU=  4.82D-05    CP:  9.50D-01  2.01D+00  7.99D-01  7.98D-01  6.93D-01
 E= -1850.35836979061     Delta-E=       -0.001888803521 Rises=F Damp=F
 DIIS: error= 3.65D-04 at cycle   6 NSaved=   6.
 NSaved= 6 IEnMin= 6 EnMin= -1850.35836979061     IErMin= 6 ErrMin= 3.65D-04
 ErrMax= 3.65D-04  0.00D+00 EMaxC= 1.00D-01 BMatC= 3.84D-04 BMatP= 7.87D-03
 IDIUse=3 WtCom= 9.96D-01 WtEn= 3.65D-03
 Coeff-Com: -0.673D-02 0.878D-02 0.282D-01 0.134D+00 0.232D+00 0.604D+00
 Coeff-En:   0.000D+00 0.000D+00 0.000D+00 0.000D+00 0.000D+00 0.100D+01
 Coeff:     -0.671D-02 0.875D-02 0.281D-01 0.133D+00 0.232D+00 0.605D+00
 Gap=     0.130 Goal=   None    Shift=    0.000
 Gap=     0.029 Goal=   None    Shift=    0.000
 RMSDP=2.23D-05 MaxDP=3.24D-03 DE=-1.89D-03 OVMax= 1.27D-02

 Cycle   7  Pass 1  IDiag  1:
 RMSU=  2.01D-05    CP:  9.50D-01  2.01D+00  8.00D-01  8.04D-01  7.63D-01
                    CP:  9.65D-01
 E= -1850.35850067048     Delta-E=       -0.000130879871 Rises=F Damp=F
 DIIS: error= 2.58D-04 at cycle   7 NSaved=   7.
 NSaved= 7 IEnMin= 7 EnMin= -1850.35850067048     IErMin= 7 ErrMin= 2.58D-04
 ErrMax= 2.58D-04  0.00D+00 EMaxC= 1.00D-01 BMatC= 1.24D-04 BMatP= 3.84D-04
 IDIUse=3 WtCom= 9.97D-01 WtEn= 2.58D-03
 Coeff-Com:  0.371D-02-0.681D-02-0.952D-02-0.156D-01-0.184D-02 0.349D+00
 Coeff-Com:  0.681D+00
 Coeff-En:   0.000D+00 0.000D+00 0.000D+00 0.000D+00 0.000D+00 0.000D+00
 Coeff-En:   0.100D+01
 Coeff:      0.370D-02-0.680D-02-0.950D-02-0.155D-01-0.183D-02 0.348D+00
 Coeff:      0.682D+00
 Gap=     0.130 Goal=   None    Shift=    0.000
 Gap=     0.029 Goal=   None    Shift=    0.000
 RMSDP=1.58D-05 MaxDP=1.71D-03 DE=-1.31D-04 OVMax= 1.12D-02

 Cycle   8  Pass 1  IDiag  1:
 RMSU=  9.99D-06    CP:  9.50D-01  2.01D+00  8.01D-01  8.09D-01  8.01D-01
                    CP:  1.18D+00  1.16D+00
 E= -1850.35856769854     Delta-E=       -0.000067028059 Rises=F Damp=F
 DIIS: error= 1.26D-04 at cycle   8 NSaved=   8.
 NSaved= 8 IEnMin= 8 EnMin= -1850.35856769854     IErMin= 8 ErrMin= 1.26D-04
 ErrMax= 1.26D-04  0.00D+00 EMaxC= 1.00D-01 BMatC= 2.05D-05 BMatP= 1.24D-04
 IDIUse=3 WtCom= 9.99D-01 WtEn= 1.26D-03
 Coeff-Com:  0.272D-02-0.390D-02-0.911D-02-0.354D-01-0.627D-01 0.675D-02
 Coeff-Com:  0.258D+00 0.843D+00
 Coeff-En:   0.000D+00 0.000D+00 0.000D+00 0.000D+00 0.000D+00 0.000D+00
 Coeff-En:   0.000D+00 0.100D+01
 Coeff:      0.272D-02-0.390D-02-0.910D-02-0.354D-01-0.626D-01 0.674D-02
 Coeff:      0.258D+00 0.843D+00
 Gap=     0.130 Goal=   None    Shift=    0.000
 Gap=     0.030 Goal=   None    Shift=    0.000
 RMSDP=1.17D-05 MaxDP=1.40D-03 DE=-6.70D-05 OVMax= 9.65D-03

 Cycle   9  Pass 1  IDiag  1:
 RMSU=  4.86D-06    CP:  9.50D-01  2.01D+00  8.02D-01  8.11D-01  8.26D-01
                    CP:  1.31D+00  1.52D+00  1.36D+00
 E= -1850.35859241076     Delta-E=       -0.000024712215 Rises=F Damp=F
 DIIS: error= 6.70D-05 at cycle   9 NSaved=   9.
 NSaved= 9 IEnMin= 9 EnMin= -1850.35859241076     IErMin= 9 ErrMin= 6.70D-05
 ErrMax= 6.70D-05  0.00D+00 EMaxC= 1.00D-01 BMatC= 9.32D-06 BMatP= 2.05D-05
 IDIUse=1 WtCom= 1.00D+00 WtEn= 0.00D+00
 Coeff-Com:  0.868D-03-0.877D-03-0.283D-02-0.152D-01-0.376D-01-0.844D-01
 Coeff-Com: -0.567D-01 0.484D+00 0.713D+00
 Coeff:      0.868D-03-0.877D-03-0.283D-02-0.152D-01-0.376D-01-0.844D-01
 Coeff:     -0.567D-01 0.484D+00 0.713D+00
 Gap=     0.130 Goal=   None    Shift=    0.000
 Gap=     0.030 Goal=   None    Shift=    0.000
 RMSDP=7.48D-06 MaxDP=9.11D-04 DE=-2.47D-05 OVMax= 5.91D-03

 Cycle  10  Pass 1  IDiag  1:
 RMSU=  2.64D-06    CP:  9.50D-01  2.01D+00  8.02D-01  8.11D-01  8.42D-01
                    CP:  1.39D+00  1.73D+00  1.72D+00  1.13D+00
 E= -1850.35860211223     Delta-E=       -0.000009701472 Rises=F Damp=F
 DIIS: error= 4.06D-05 at cycle  10 NSaved=  10.
 NSaved=10 IEnMin=10 EnMin= -1850.35860211223     IErMin=10 ErrMin= 4.06D-05
 ErrMax= 4.06D-05  0.00D+00 EMaxC= 1.00D-01 BMatC= 2.65D-06 BMatP= 9.32D-06
 IDIUse=1 WtCom= 1.00D+00 WtEn= 0.00D+00
 Coeff-Com: -0.287D-03 0.524D-03 0.118D-02 0.430D-02 0.872D-03-0.326D-01
 Coeff-Com: -0.114D+00-0.422D-01 0.344D+00 0.838D+00
 Coeff:     -0.287D-03 0.524D-03 0.118D-02 0.430D-02 0.872D-03-0.326D-01
 Coeff:     -0.114D+00-0.422D-01 0.344D+00 0.838D+00
 Gap=     0.130 Goal=   None    Shift=    0.000
 Gap=     0.030 Goal=   None    Shift=    0.000
 RMSDP=4.81D-06 MaxDP=5.75D-04 DE=-9.70D-06 OVMax= 3.81D-03

 Cycle  11  Pass 1  IDiag  1:
 RMSU=  1.55D-06    CP:  9.50D-01  2.01D+00  8.02D-01  8.12D-01  8.50D-01
                    CP:  1.43D+00  1.85D+00  1.95D+00  1.50D+00  1.20D+00
 E= -1850.35860561030     Delta-E=       -0.000003498075 Rises=F Damp=F
 DIIS: error= 2.73D-05 at cycle  11 NSaved=  11.
 NSaved=11 IEnMin=11 EnMin= -1850.35860561030     IErMin=11 ErrMin= 2.73D-05
 ErrMax= 2.73D-05  0.00D+00 EMaxC= 1.00D-01 BMatC= 9.63D-07 BMatP= 2.65D-06
 IDIUse=1 WtCom= 1.00D+00 WtEn= 0.00D+00
 Coeff-Com: -0.418D-03 0.514D-03 0.149D-02 0.785D-02 0.131D-01 0.141D-01
 Coeff-Com: -0.484D-01-0.191D+00-0.378D-01 0.482D+00 0.759D+00
 Coeff:     -0.418D-03 0.514D-03 0.149D-02 0.785D-02 0.131D-01 0.141D-01
 Coeff:     -0.484D-01-0.191D+00-0.378D-01 0.482D+00 0.759D+00
 Gap=     0.130 Goal=   None    Shift=    0.000
 Gap=     0.030 Goal=   None    Shift=    0.000
 RMSDP=2.77D-06 MaxDP=3.98D-04 DE=-3.50D-06 OVMax= 2.02D-03

 Cycle  12  Pass 1  IDiag  1:
 RMSU=  8.33D-07    CP:  9.50D-01  2.01D+00  8.02D-01  8.12D-01  8.55D-01
                    CP:  1.45D+00  1.92D+00  2.07D+00  1.70D+00  1.61D+00
                    CP:  1.10D+00
 E= -1850.35860672568     Delta-E=       -0.000001115380 Rises=F Damp=F
 DIIS: error= 1.23D-05 at cycle  12 NSaved=  12.
 NSaved=12 IEnMin=12 EnMin= -1850.35860672568     IErMin=12 ErrMin= 1.23D-05
 ErrMax= 1.23D-05  0.00D+00 EMaxC= 1.00D-01 BMatC= 2.27D-07 BMatP= 9.63D-07
 IDIUse=1 WtCom= 1.00D+00 WtEn= 0.00D+00
 Coeff-Com: -0.279D-04-0.442D-04 0.536D-04 0.122D-02 0.391D-02 0.170D-01
 Coeff-Com:  0.196D-01-0.527D-01-0.126D+00-0.117D+00 0.331D+00 0.923D+00
 Coeff:     -0.279D-04-0.442D-04 0.536D-04 0.122D-02 0.391D-02 0.170D-01
 Coeff:      0.196D-01-0.527D-01-0.126D+00-0.117D+00 0.331D+00 0.923D+00
 Gap=     0.130 Goal=   None    Shift=    0.000
 Gap=     0.030 Goal=   None    Shift=    0.000
 RMSDP=1.48D-06 MaxDP=2.70D-04 DE=-1.12D-06 OVMax= 1.03D-03

 Cycle  13  Pass 1  IDiag  1:
 RMSU=  4.24D-07    CP:  9.50D-01  2.01D+00  8.02D-01  8.12D-01  8.57D-01
                    CP:  1.46D+00  1.94D+00  2.13D+00  1.81D+00  1.81D+00
                    CP:  1.50D+00  1.16D+00
 E= -1850.35860699994     Delta-E=       -0.000000274254 Rises=F Damp=F
 DIIS: error= 6.75D-06 at cycle  13 NSaved=  13.
 NSaved=13 IEnMin=13 EnMin= -1850.35860699994     IErMin=13 ErrMin= 6.75D-06
 ErrMax= 6.75D-06  0.00D+00 EMaxC= 1.00D-01 BMatC= 8.58D-08 BMatP= 2.27D-07
 IDIUse=1 WtCom= 1.00D+00 WtEn= 0.00D+00
 Coeff-Com:  0.406D-04-0.769D-04-0.243D-03-0.989D-03-0.601D-03 0.706D-02
 Coeff-Com:  0.218D-01 0.103D-01-0.655D-01-0.176D+00 0.349D-01 0.551D+00
 Coeff-Com:  0.618D+00
 Coeff:      0.406D-04-0.769D-04-0.243D-03-0.989D-03-0.601D-03 0.706D-02
 Coeff:      0.218D-01 0.103D-01-0.655D-01-0.176D+00 0.349D-01 0.551D+00
 Coeff:      0.618D+00
 Gap=     0.130 Goal=   None    Shift=    0.000
 Gap=     0.030 Goal=   None    Shift=    0.000
 RMSDP=4.84D-07 MaxDP=7.98D-05 DE=-2.74D-07 OVMax= 2.19D-04

 Cycle  14  Pass 1  IDiag  1:
[...]
 .00000033,-0.00003681,0.00000838,-0.00000625,-0.00000067,-0.00003842,-
 0.00003574,-0.00001340,0.00002313,-0.00000673,-0.00002369,-0.00000525,
 0.00000137,0.00000632,-0.00001935,0.00000195,0.00000576,0.00000724,0.0
 0000228,0.00001308,-0.00002865,0.00000630,0.00000188,0.00000208,-0.000
 00249,-0.00000053,-0.00000329,0.00000009,-0.00000072,-0.00000111,-0.00
 000114,0.00002535,-0.00000153,-0.00000150,0.00003960,0.00007123,-0.000
 06569,0.00000551,-0.00000275,-0.00000425,-0.00008957,0.00008584,0.0003
 7310,-0.00005139,0.00072496,0.00041056,-0.00007627,0.00008223,0.000088
 57,0.00156933,-0.00290208,-0.00476480,-0.00004478,-0.00027301,0.000551
 97,-0.00029220,0.00025158,0.00096018,0.00001698,-0.00000207,-0.0001627
 9,0.00004313,-0.00006523,0.00000021,0.07734299,-0.09911254,-0.18824941
 ,-0.00094892,-0.00107432,0.00101392,-0.00023585,0.00008137,0.00010629,
 -0.00363370,0.00488255,0.00565141,0.00008092,-0.00013105,0.00021603,0.
 00028657,-0.00049644,0.00014959,0.01074489,-0.01429312,-0.01946089,-0.
 08386822,0.11130319,0.20193228,0.00000010,0.00000916,-0.00000098,0.000
 00222,-0.00000246,0.00000055,0.00000127,0.00000752,-0.00000071,-0.0000
 0913,-0.00000291,-0.00000086,0.00000568,-0.00000355,0.00000205,-0.0000
 0099,0.00000270,-0.00000071,0.00000774,-0.00000269,0.00000136,-0.00000
 100,0.00000014,-0.00000025,0.00000063,0.00000027,-0.00000015,0.0000022
 3,-0.00000092,-0.00000132,-0.00000040,0.00000255,-0.00000046,-0.000003
 85,-0.00000180,-0.00000040,0.00000010,-0.00000212,0.00000037,-0.000003
 90,-0.00000035,-0.00000055,0.00000065,0.00000351,-0.00000037,0.0000044
 1,-0.00000008,0.00000081,-0.00000258,0.00000429,-0.00000110,-0.0000000
 7,0.00000005,-0.00000005,0.00000007,-0.00000014,0.,-0.00000002,0.00000
 056,-0.00000014,-0.00000527,0.00000179,-0.00000084,-0.00000080,0.00000
 373,-0.00000073,0.00000122,-0.00000579,0.00000101,-0.00000379,0.000007
 95,-0.00000181,0.00000543,-0.00000370,0.00000196,0.00000032,-0.0000008
 6,0.00000017,0.00000286,-0.00000096,0.00000069,0.00000015,-0.00000009,
 -0.00000004,-0.00000026,0.00000012,-0.00000011,-0.00000004,0.00000092,
 -0.00000110,-0.00000004,0.00000006,0.00000005,0.00000012,0.00000031,0.
 00000023,0.,0.00000026,0.00000027,-0.00000015,-0.00000063,0.00000007,-
 0.00000021,-0.00000001,-0.00000003,-0.00000023,-0.00000004,-0.00000002
 ,-0.00000023,0.00000008,-0.00000005,-0.00000090,-0.00000363,0.00000033
 ,0.00000046,0.00000037,-0.00000002,0.00000018,-0.00000191,0.00000039,0
 .00000035,-0.00000402,0.00000064,0.00000296,0.00000079,0.00000028,-0.0
 0001061,-0.00000411,-0.00000113,0.00000610,0.00000078,0.00000073,0.000
 04305,0.00001785,0.00000745,-0.00001653,-0.00001884,-0.00000185,-0.000
 05634,0.00000770,-0.00001072,0.00000188,-0.00005803,-0.00001152,-0.000
 02890,0.00003403,-0.00001130,-0.00003408,-0.00001024,-0.00000383,0.000
 00795,-0.00003139,0.00000295,0.00000753,0.00000874,0.00000223,0.000017
 05,-0.00004356,0.00000666,0.00000375,0.00000313,-0.00000048,-0.0000010
 3,-0.00000688,0.00000018,-0.00000175,-0.00000215,-0.00000081,0.0000414
 8,0.00001523,0.00000015,0.00003931,0.00003919,-0.00002264,-0.00000237,
 -0.00002998,-0.00002343,0.00011013,-0.00025052,0.00029870,0.00025620,0
 .00072392,-0.00054572,0.00070893,0.00043509,-0.00028180,-0.00541071,0.
 00383830,-0.00123767,-0.00004048,-0.00002024,0.00007526,0.00036479,0.0
 0181860,0.00090738,-0.00010655,-0.00024267,-0.00014681,0.00022469,0.00
 004932,-0.00017597,-0.01630665,-0.02740628,-0.00602828,0.00019869,-0.0
 0002801,-0.00018000,-0.00127597,-0.00176961,-0.00019628,-0.11470387,-0
 .11023395,-0.02449203,0.00027927,-0.00013605,0.00057907,0.00000327,-0.
 00007485,0.00001502,0.00130906,0.00018679,-0.00010878,0.00131380,-0.00
 006161,0.00069411,0.12530889,-0.00000032,0.00000885,-0.00000105,0.0000
 0154,-0.00000241,0.00000054,0.00000075,0.00000681,-0.00000073,-0.00000
 730,-0.00000136,-0.00000091,-0.00000003,-0.00000469,0.00000017,0.00000
 118,0.00000037,-0.00000015,0.00000823,-0.00000260,0.00000158,-0.000000
 68,0.00000019,-0.00000017,0.00000013,0.00000087,-0.00000006,0.00000012
 ,-0.00000241,0.00000083,-0.00000013,0.00000288,-0.00000043,-0.00000409
 ,-0.00000169,-0.00000043,0.00000035,-0.00000194,0.00000038,-0.00000393
 ,-0.00000045,-0.00000056,0.00000094,0.00000358,-0.00000036,0.00000379,
 -0.00000037,0.00000075,-0.00000298,0.00000435,-0.00000113,-0.00000004,
 0.00000006,-0.00000004,0.00000012,-0.00000009,0.00000002,-0.00000009,0
 .00000045,-0.00000009,-0.00000458,0.00000273,-0.00000104,-0.00000109,0
 .00000359,-0.00000073,0.00000130,-0.00000605,0.00000108,-0.00000401,0.
 00000846,-0.00000195,0.00000599,-0.00000378,0.00000207,0.00000021,-0.0
 0000098,0.00000017,0.00000300,-0.00000102,0.00000073,0.00000014,-0.000
 00008,0.,-0.00000027,0.00000014,-0.00000011,-0.00000009,0.00000078,-0.
 00000105,0.,0.00000010,0.00000010,0.00000009,0.00000033,0.00000016,0.,
 0.00000028,0.00000027,-0.00000011,-0.00000061,0.00000008,-0.00000021,-
 0.00000004,-0.00000005,-0.00000025,-0.00000005,0.,-0.00000025,0.000000
 09,-0.00000005,-0.00000064,-0.00000372,0.00000032,0.00000009,0.0000004
 4,-0.00000006,0.00000063,-0.00000174,0.00000038,0.00000072,-0.00000404
 ,0.00000064,0.00000251,0.00000064,0.00000033,-0.00000998,-0.00000300,-
 0.00000145,0.00000632,0.00000026,0.00000113,0.00003455,0.00000839,0.00
 000747,-0.00002078,-0.00001473,-0.00000368,-0.00005646,0.00000025,-0.0
 0001465,-0.00003403,-0.00001025,-0.00000758,-0.00001860,0.00002931,-0.
 00000607,-0.00002471,-0.00000854,-0.00000637,0.00000658,-0.00002224,0.
 00000264,0.00000372,0.00001127,-0.00000030,0.00000911,-0.00004534,0.00
 000544,0.00000192,0.00000579,0.00000077,-0.00000094,-0.00000559,-0.000
 00002,-0.00000198,-0.00000204,-0.00000007,0.00004464,0.00000176,0.0000
 1325,0.00007661,0.00007505,-0.00000783,-0.00001825,0.00007460,0.000013
 77,-0.00027758,-0.00008006,-0.00012978,0.00089754,-0.00004813,0.000091
 26,0.00094289,-0.00067910,0.00467758,0.00144847,0.00052008,0.00045707,
 -0.00008362,0.00002735,-0.00000954,-0.00957852,-0.01656785,-0.00498617
 ,0.00022722,0.00032164,-0.00002909,-0.00108679,-0.00121061,-0.00005972
 ,0.00554926,0.00785906,0.00170133,0.00006071,0.00007605,0.00007960,0.0
 0029826,0.00023276,0.00009004,-0.11164041,-0.23431601,-0.04230732,0.00
 038148,0.00036294,-0.00033878,-0.00007743,0.00110414,0.00002480,-0.000
 66815,0.00026165,-0.00018046,-0.00054740,0.00051761,0.00018144,0.12079
 808,0.25350133,0.,-0.00000253,0.00000032,0.00000006,0.00000040,-0.0000
 0003,0.00000068,-0.00000106,0.00000022,0.00000005,-0.00000033,0.000000
 05,0.00000304,0.00000102,0.00000068,-0.00000095,0.00000179,-0.00000013
 ,-0.00000138,0.00000046,-0.00000021,-0.00000004,-0.00000004,0.00000002
 ,0.00000054,-0.00000067,0.00000019,-0.00000011,0.00000115,-0.00000083,
 -0.00000027,0.00000022,-0.00000009,-0.00000009,-0.00000020,0.,-0.00000
 009,-0.00000006,0.,-0.00000013,0.00000011,-0.00000003,-0.00000008,0.00
 000020,-0.00000002,0.00000064,0.00000004,0.00000004,0.00000013,0.00000
 025,-0.00000008,-0.00000003,0.,0.,0.,-0.00000005,0.,-0.00000002,0.0000
 0006,-0.00000004,0.00000025,-0.00000123,0.00000014,0.00000004,0.000000
 44,-0.00000009,-0.00000003,-0.00000019,0.00000002,-0.00000009,0.000000
 30,-0.00000007,0.00000024,-0.00000009,0.00000006,0.,-0.00000012,0.,0.0
 0000023,-0.00000002,0.00000003,0.,0.00000001,0.00000002,-0.00000001,0.
 00000001,0.00000001,0.00000002,0.00000005,0.,-0.00000002,-0.00000001,-
 0.00000002,0.00000004,0.00000001,-0.00000001,0.,0.,0.00000002,-0.00000
 001,-0.00000006,0.,-0.00000002,0.,-0.00000001,-0.00000002,0.,0.,-0.000
 00002,0.00000001,0.,-0.00000020,-0.00000035,0.00000005,0.00000020,0.00
 000004,0.00000007,-0.00000004,-0.00000032,0.00000005,-0.00000018,-0.00
 000027,0.00000004,0.00000027,0.00000018,0.00000002,0.00000160,0.000000
 30,0.00000028,-0.00000156,0.00000016,-0.00000042,-0.00000684,0.0000013
 4,-0.00000224,0.00001007,0.00000360,0.00000240,0.00002493,0.,0.0000079
 7,0.00004128,-0.00002591,-0.00000378,0.00000588,-0.00001111,0.00000342
 ,0.00000657,0.00000449,0.00000326,-0.00000204,0.00000652,-0.00000103,0
 .00000077,-0.00000715,0.00000219,-0.00000072,0.00002930,-0.00000355,-0
 .00000083,-0.00000319,-0.00000162,0.00000077,0.00000219,0.,0.00000076,
 0.00000077,-0.00000031,-0.00002169,0.00000488,-0.00000901,-0.00006072,
 0.00000770,0.00001015,0.00003342,-0.00008270,-0.00001264,0.00027856,0.
 00002080,0.00023789,-0.00080540,0.00004551,-0.00040106,-0.00076425,0.0
 0237849,-0.00456403,-0.00189509,0.00124023,0.00031329,0.00007993,-0.00
 004286,-0.00000206,0.01473069,0.02384778,0.00519576,-0.00010657,0.0001
 4340,0.00017468,0.00089645,0.00147301,0.00011535,-0.00304331,-0.007158
 01,-0.00241505,0.00021169,0.00040536,0.00012253,-0.00055141,-0.0005679
 2,0.00023328,-0.02534637,-0.04331926,-0.05707153,-0.00018945,-0.000738
 19,0.00099525,0.00012868,-0.00079718,0.00120898,0.00030032,-0.00010171
 ,-0.00015389,0.00018593,0.00051177,0.00049838,0.02882532,0.04339163,0.
 06007452,-0.00000002,0.00000094,0.00000008,0.00000041,-0.00000004,0.00
 000022,0.00000071,0.00000015,-0.00000011,-0.00000070,0.00000081,-0.000
 00075,0.00000119,-0.00000065,-0.00000060,-0.00000052,0.00000062,-0.000
 00025,-0.00000056,0.00000012,0.00000010,0.00000007,0.00000011,0.000000
 18,0.00000038,-0.00000046,0.00000069,-0.00000012,0.00000107,0.00000098
 ,-0.00000040,-0.00000024,0.00000003,0.00000037,-0.00000023,0.00000016,
 -0.00000031,0.00000010,-0.00000012,0.00000027,0.00000029,-0.00000007,-
 0.00000028,-0.00000021,-0.00000012,0.00000059,0.00000014,0.00000011,0.
 00000048,-0.00000018,0.00000020,-0.00000005,0.,0.00000004,-0.00000002,
 -0.00000010,0.00000008,0.00000003,0.00000013,0.00000012,-0.00000019,-0
 .00000093,-0.00000034,0.00000009,0.00000030,0.00000005,-0.00000025,0.0
 0000044,-0.00000008,0.00000031,-0.00000047,0.00000004,-0.00000025,0.00
 000042,-0.00000013,-0.00000008,-0.00000006,-0.00000002,0.00000004,0.00
 000005,0.,-0.00000004,0.00000005,0.00000008,0.00000002,0.00000002,0.00
 000004,0.00000008,-0.00000014,0.00000019,-0.00000005,0.,-0.00000001,0.
 ,0.,-0.00000004,0.,-0.00000002,0.,0.,-0.00000002,0.,-0.00000002,-0.000
 00002,-0.00000002,-0.00000001,0.00000002,0.,0.,0.,0.00000002,-0.000000
 09,-0.00000021,-0.00000008,0.00000017,0.00000008,0.00000013,-0.0000003
 5,-0.00000029,-0.00000021,-0.00000039,0.00000009,-0.00000021,0.0000002
 9,0.00000031,0.00000028,-0.00000032,-0.00000131,-0.00000035,-0.0000002
 1,0.00000051,0.00000050,0.00000339,0.00000454,0.00000129,-0.00000075,-
 0.00000351,-0.00000095,-0.00000683,0.00000364,-0.00000464,0.00000970,-
 0.00001800,-0.00001301,-0.00000783,0.00000391,-0.00000373,-0.00000481,
 -0.00000240,-0.00000039,0.00000076,-0.00000599,-0.00000005,0.00000163,
 0.00000086,0.00000105,0.00000487,-0.00000934,0.00000315,0.00000125,-0.
 00000010,0.00000090,-0.00000043,-0.00000156,0.00000038,-0.00000028,-0.
 00000030,0.00000013,0.00000325,0.00000247,0.00000467,-0.00003669,0.000
 01528,-0.00000714,0.00000873,-0.00000314,0.00001253,0.00003102,-0.0000
 9780,0.00008056,-0.00006589,0.00001123,-0.00023693,-0.00005225,0.00017
 788,0.00039758,0.00155506,0.00086081,0.00100951,0.00006258,0.00004728,
 -0.00009968,0.00049493,-0.00085020,-0.00205008,-0.00007990,-0.00012273
 ,0.00000658,-0.00002937,-0.00010992,-0.00006698,-0.01596774,0.01571694
 ,0.02468104,-0.00012800,-0.00065621,-0.00031963,0.00028244,-0.00000955
 ,-0.00039113,-0.09629196,0.04954183,0.08501504,0.00052228,-0.00054350,
 -0.00006053,0.00111981,0.00050852,-0.00044353,0.00134379,-0.00030593,-
 0.00001986,-0.00616058,0.00132860,-0.00157093,0.00774468,-0.00664247,-
 0.01296992,0.10564282,0.00000013,-0.00000277,0.00000021,-0.00000073,0.
 00000082,-0.00000028,-0.00000075,-0.00000227,0.00000031,0.00000296,0.0
 0000020,0.00000077,-0.00000169,0.00000148,0.,0.00000018,-0.00000086,0.
 00000027,-0.00000214,0.00000078,-0.00000058,0.00000016,-0.00000009,-0.
 00000009,-0.00000033,0.00000009,-0.00000042,-0.00000006,0.,-0.00000042
 ,0.00000042,-0.00000102,0.00000018,0.00000141,0.00000073,0.00000009,0.
 00000013,0.00000068,-0.00000003,0.00000125,0.00000009,0.00000023,-0.00
 000021,-0.00000117,0.00000020,-0.00000189,-0.00000002,-0.00000030,0.00
 000086,-0.00000151,0.00000034,0.00000002,-0.00000006,-0.00000003,-0.00
 000001,0.00000005,-0.00000006,0.,-0.00000024,-0.00000005,0.00000156,-0
 .00000024,0.00000059,0.00000036,-0.00000158,0.00000025,-0.00000035,0.0
 0000180,-0.00000035,0.00000111,-0.00000256,0.00000065,-0.00000198,0.00
 000091,-0.00000064,0.00000010,0.00000052,-0.00000001,-0.00000123,0.000
 00025,-0.00000026,-0.00000002,-0.00000002,-0.00000007,0.00000008,-0.00
 000007,-0.00000001,-0.00000006,-0.00000021,0.00000024,0.00000008,-0.00
 000002,0.,-0.00000004,-0.00000010,-0.00000004,-0.00000002,-0.00000008,
 -0.00000009,0.00000008,0.00000028,-0.00000004,0.00000010,0.00000002,0.
 00000003,0.00000009,-0.00000002,0.00000002,0.00000008,-0.00000003,0.,0
 .00000015,0.00000167,-0.00000017,0.00000012,-0.00000031,-0.00000003,-0
 .00000004,0.00000094,0.,-0.00000020,0.00000149,-0.00000016,-0.00000109
 ,-0.00000051,-0.00000031,0.00000312,0.00000164,0.00000047,-0.00000168,
 -0.00000042,-0.00000047,-0.00001182,-0.00000567,-0.00000260,0.00000489
 ,0.00000586,0.00000111,0.00001490,-0.00000145,0.00000393,0.00000490,0.
 00001217,0.00000559,0.00000738,-0.00000959,0.00000348,0.00000944,0.000
 00270,0.00000111,-0.00000211,0.00000844,-0.00000068,-0.00000189,-0.000
 00279,0.00000006,-0.00000406,0.00001410,-0.00000240,-0.00000133,-0.000
 00130,-0.00000007,0.00000028,0.00000210,-0.00000025,0.00000066,0.00000
 065,0.00000008,-0.00000978,-0.00000385,-0.00000212,-0.00000881,-0.0000
 1022,-0.00000449,0.00000486,0.00000008,0.00000613,-0.00000045,0.000077
 99,-0.00008549,-0.00002734,-0.00008777,0.00015502,-0.00002061,0.001444
 57,0.00037479,-0.00080865,0.00041813,0.00036117,0.00006293,-0.00011161
 ,-0.00007927,-0.00922467,0.00842991,0.01673106,0.00034363,-0.00011149,
 -0.00031933,0.00025001,0.00018238,-0.00013346,0.00401044,-0.00484480,-
 0.00590223,0.00003848,0.00038779,0.00003516,0.00002387,0.00005022,0.00
 015782,0.05031639,-0.10231081,-0.09000250,-0.00007108,0.00078725,-0.00
 083616,-0.00029179,-0.00166906,0.00376841,-0.00024770,0.00004290,-0.00
 000764,0.00203767,0.00075724,0.00074481,0.01244375,-0.01198363,-0.0206
 6319,-0.05884238,0.10853129,-0.00000004,-0.00000275,0.00000014,-0.0000
 0052,0.00000055,-0.00000029,-0.00000047,-0.00000170,0.00000037,0.00000
 194,0.00000021,0.00000079,-0.00000084,0.00000137,0.00000052,0.00000026
 ,-0.00000029,0.00000016,-0.00000146,0.00000045,-0.00000052,0.00000010,
 -0.00000009,-0.00000018,-0.00000010,-0.00000010,-0.00000042,-0.0000002
 5,0.00000001,-0.00000086,0.00000035,-0.00000052,0.00000004,0.00000068,
 0.00000050,-0.00000005,0.00000018,0.00000033,0.00000005,0.00000059,-0.
 00000009,0.00000020,-0.00000004,-0.00000055,0.00000022,-0.00000120,-0.
 00000002,-0.00000023,0.00000036,-0.00000078,0.00000005,0.00000004,-0.0
 0000005,-0.00000006,0.,0.00000007,-0.00000011,0.,-0.00000021,-0.000000
 15,0.00000103,-0.00000011,0.00000067,0.00000024,-0.00000095,0.00000007
 ,-0.00000011,0.00000091,-0.00000020,0.00000058,-0.00000142,0.00000043,
 -0.00000115,0.00000042,-0.00000036,0.00000009,0.00000030,0.00000001,-0
 .00000072,0.00000015,-0.00000016,0.00000001,-0.00000002,-0.00000011,0.
 00000004,-0.00000005,-0.00000003,-0.00000007,-0.00000002,0.00000007,0.
 00000006,-0.00000003,-0.00000003,0.,-0.00000006,0.00000001,-0.00000002
 ,-0.00000004,-0.00000006,0.00000002,0.00000016,-0.00000003,0.00000007,
 0.00000003,0.00000003,0.00000006,-0.00000003,0.,0.00000005,-0.00000002
 ,-0.00000001,0.00000006,0.00000100,0.,0.00000005,-0.00000022,-0.000000
 10,0.00000007,0.00000064,0.00000016,0.,0.00000080,0.00000007,-0.000000
 68,-0.00000040,-0.00000039,0.00000236,0.00000147,0.00000073,-0.0000013
 0,-0.00000046,-0.00000087,-0.00001304,-0.00000478,-0.00000340,0.000005
 92,0.00000777,0.00000203,0.00002299,0.00000024,0.00000859,0.00000448,0
 .00001873,0.00000270,0.00001085,-0.00001074,0.00000590,0.00000904,0.00
 000466,0.00000254,-0.00000226,0.00000949,-0.00000042,-0.00000120,-0.00
 000370,-0.00000063,-0.00000538,0.00001502,-0.00000235,-0.00000155,-0.0
 0000113,-0.00000190,0.00000075,0.00000276,-0.00000050,0.00000065,0.000
 00074,-0.00000021,-0.00001922,-0.00000325,-0.00000818,0.00004406,-0.00
 006870,0.00001772,-0.00000918,-0.00001887,-0.00001363,0.00014043,0.000
 11132,0.00002214,-0.00029923,0.00014190,0.00004832,-0.00024305,-0.0013
 8994,0.00091649,0.00017089,0.00028325,0.00033898,-0.00007365,-0.000064
 21,-0.00004109,0.01145407,-0.01217065,-0.02344005,0.00023427,0.0006778
 8,0.00057314,-0.00032074,0.00016751,0.00026547,-0.00467825,0.00430259,
 0.00681216,0.00032898,0.00016103,-0.00003742,0.00015794,0.00019297,0.0
 0005530,0.08560999,-0.08946493,-0.19888154,-0.00047442,-0.00024783,0.0
 0114028,-0.00004802,0.00415673,-0.00404780,0.00095236,-0.00011201,0.00
 067763,-0.00207006,0.00026531,0.00079601,0.00206739,-0.00264979,-0.004
 55780,-0.09295613,0.09569226,0.21935195\\-0.00000113,-0.00000115,0.000
 00026,0.,0.00000001,-0.00000084,0.00000059,-0.00000112,-0.00000286,-0.
 00000030,-0.00000061,-0.00000392,-0.00000011,-0.00000006,-0.00000306,0
 .00000096,-0.00000011,-0.00000057,-0.00000002,-0.00000007,0.00000269,-
 0.00000046,-0.00000071,-0.00000373,0.00000002,-0.00000055,-0.00000562,
 0.00000019,0.00000001,-0.00000392,-0.00000091,0.00000021,0.00000429,-0
 .00000024,-0.00000087,0.00000637,0.00000064,0.00000078,0.00000810,-0.0
 0000093,-0.00000030,0.00000818,0.00000002,0.,0.00000621,0.00000022,-0.
 00000021,0.00000449,-0.00000032,-0.00000106,0.00000370,-0.00000071,-0.
 00000071,0.00000963,-0.00000013,0.00000058,0.00000955,0.00000004,0.000
 00041,0.00000647,-0.00000014,-0.00000055,0.00000062,-0.00000017,-0.000
 00203,0.00000387,-0.00000066,-0.00000157,0.00000275,-0.00000062,-0.000
 00184,0.00000063,-0.00000071,-0.00000298,-0.00000040,0.00000024,-0.000
 00277,0.00000122,-0.00000035,-0.00000155,0.00000312,0.00000005,-0.0000
 0150,-0.00000030,-0.00000084,-0.00000272,0.00000012,-0.00000012,-0.000
 00249,-0.00000234,-0.00000041,-0.00000193,-0.00000349,-0.00000067,-0.0
 0000425,-0.00000298,-0.00000050,-0.00000200,-0.00000305,-0.00000050,-0
 .00000299,0.00000455,-0.00000093,-0.00000359,0.00000539,-0.00000035,-0
 .00000093,0.00000511,-0.00000070,-0.00000271,0.00000335,-0.00000069,-0
 .00000151,0.00000592,-0.00000040,-0.00000126,0.00000637,-0.00000024,-0
 .00000175,0.00000309,-0.00000003,-0.00000089,0.00000585,-0.00000018,-0
 .00000077,0.00000137,0.00000062,0.00000059,0.00000214,-0.00000011,0.00
 000032,0.00000322,-0.00000065,0.00000117,0.00000040,0.00000005,0.00000
 005,0.00000188,0.00000079,0.00000038,-0.00000074,0.00000008,0.00000176
 ,0.00000049,0.00000028,0.00000107,0.00000269,0.00000071,0.00000218,0.0
 0000453,-0.00000006,0.00000061,0.00000452,0.00000007,0.00000172,0.0000
 0286,-0.00000014,0.00000135,0.00000065,0.00000037,0.00000230,0.0000025
 2,0.00000013,0.00000208,0.00000577,0.00000010,0.00000135,0.00000592,0.
 00000031,0.00000116,-0.00000223,0.00000013,0.00000315,-0.00000118,0.00
 000044,0.00000218,-0.00000121,0.00000056,0.00000079,-0.00000286,0.0000
 0060,0.00000174,-0.00000497,0.00000100,0.00000303,-0.00000530,-0.00000
 039,0.00000065,-0.00000632,0.00000066,0.00000342,-0.00000561,0.0000008
 1,0.00000237,-0.00000718,0.00000021,0.00000148,-0.00000375,0.00000083,
 0.00000369,-0.00000357,0.00000004,0.00000120,-0.00000826,0.00000004,-0
 .00000131,-0.00000569,0.00000051,-0.00000019,-0.00000627,0.00000055,0.
 00000047,-0.00000856,0.00000073,0.00000317,-0.00000679,0.00000083,0.00
 000428,-0.00000733,0.00000010,-0.00000102,-0.00000908,0.00000071,0.000
 00149,-0.00000951,0.00000056,0.00000158,-0.00000978,0.00000007,-0.0000
 0020,-0.00000759\\\@


 ERWIN WITH HIS PSI CAN DO
 CALCULATIONS QUITE A FEW.
 BUT ONE THING HAS NOT BEEN SEEN
 JUST WHAT DOES PSI REALLY MEAN.
 -- WALTER HUCKEL, TRANS. BY FELIX BLOCH
 Job cpu time:       0 days 23 hours 51 minutes 43.7 seconds.
 Elapsed time:       0 days  1 hours 29 minutes 40.9 seconds.
 File lengths (MBytes):  RWF=  10456 Int=      0 D2E=      0 Chk=    104 Scr=      8
 Normal termination of Gaussian 16 at Sun Dec 16 12:18:43 2018.
