 Entering Gaussian System, Link 0=g16
 Initial command:
 /gpfs/apps/hpc/Apps/Restricted/Gaussian/Rev_A.03/g16/l1.exe "/gpfs/scratch60/fas/hammes_schiffer/jg2487/c27n01/Gau-3559.inp" -scrdir="/gpfs/scratch60/fas/hammes_schiffer/jg2487/c27n01/"
 Entering Link 1 = /gpfs/apps/hpc/Apps/Restricted/Gaussian/Rev_A.03/g16/l1.exe PID=      3560.
  
 Copyright (c) 1988,1990,1992,1993,1995,1998,2003,2009,2016,
            Gaussian, Inc.  All Rights Reserved.
  
 This is part of the Gaussian(R) 16 program.  It is based on
 the Gaussian(R) 09 system (copyright 2009, Gaussian, Inc.),
 the Gaussian(R) 03 system (copyright 2003, Gaussian, Inc.),
 the Gaussian(R) 98 system (copyright 1998, Gaussian, Inc.),
 the Gaussian(R) 94 system (copyright 1995, Gaussian, Inc.),
 the Gaussian 92(TM) system (copyright 1992, Gaussian, Inc.),
 the Gaussian 90(TM) system (copyright 1990, Gaussian, Inc.),
 the Gaussian 88(TM) system (copyright 1988, Gaussian, Inc.),
 the Gaussian 86(TM) system (copyright 1986, Carnegie Mellon
 University), and the Gaussian 82(TM) system (copyright 1983,
 Carnegie Mellon University). Gaussian is a federally registered
 trademark of Gaussian, Inc.
  
 This software contains proprietary and confidential information,
 including trade secrets, belonging to Gaussian, Inc.
  
 This software is provided under written license and may be
 used, copied, transmitted, or stored only in accord with that
 written license.
  
 The following legend is applicable only to US Government
 contracts under FAR:
  
                    RESTRICTED RIGHTS LEGEND
  
 Use, reproduction and disclosure by the US Government is
 subject to restrictions as set forth in subparagraphs (a)
 and (c) of the Commercial Computer Software - Restricted
 Rights clause in FAR 52.227-19.
  
 Gaussian, Inc.
 340 Quinnipiac St., Bldg. 40, Wallingford CT 06492
  
  
 ---------------------------------------------------------------
 Warning -- This program may not be used in any manner that
 competes with the business of Gaussian, Inc. or will provide
 assistance to any competitor of Gaussian, Inc.  The licensee
 of this program is prohibited from giving any competitor of
 Gaussian, Inc. access to this program.  By using this program,
 the user acknowledges that Gaussian, Inc. is engaged in the
 business of creating and licensing software in the field of
 computational chemistry and represents and warrants to the
 licensee that it is not a competitor of Gaussian, Inc. and that
 it will not use this program in any manner prohibited above.
 ---------------------------------------------------------------
  

 Cite this work as:
 Gaussian 16, Revision A.03,
 M. J. Frisch, G. W. Trucks, H. B. Schlegel, G. E. Scuseria, 
 M. A. Robb, J. R. Cheeseman, G. Scalmani, V. Barone, 
 G. A. Petersson, H. Nakatsuji, X. Li, M. Caricato, A. V. Marenich, 
 J. Bloino, B. G. Janesko, R. Gomperts, B. Mennucci, H. P. Hratchian, 
 J. V. Ortiz, A. F. Izmaylov, J. L. Sonnenberg, D. Williams-Young, 
 F. Ding, F. Lipparini, F. Egidi, J. Goings, B. Peng, A. Petrone, 
 T. Henderson, D. Ranasinghe, V. G. Zakrzewski, J. Gao, N. Rega, 
 G. Zheng, W. Liang, M. Hada, M. Ehara, K. Toyota, R. Fukuda, 
 J. Hasegawa, M. Ishida, T. Nakajima, Y. Honda, O. Kitao, H. Nakai, 
 T. Vreven, K. Throssell, J. A. Montgomery, Jr., J. E. Peralta, 
 F. Ogliaro, M. J. Bearpark, J. J. Heyd, E. N. Brothers, K. N. Kudin, 
 V. N. Staroverov, T. A. Keith, R. Kobayashi, J. Normand, 
 K. Raghavachari, A. P. Rendell, J. C. Burant, S. S. Iyengar, 
 J. Tomasi, M. Cossi, J. M. Millam, M. Klene, C. Adamo, R. Cammi, 
 J. W. Ochterski, R. L. Martin, K. Morokuma, O. Farkas, 
 J. B. Foresman, and D. J. Fox, Gaussian, Inc., Wallingford CT, 2016.
 
 ******************************************
 Gaussian 16:  ES64L-G16RevA.03 25-Dec-2016
                20-Dec-2018 
 ******************************************
 %chk=cyclohexyl-triBIP-E0PT.chk
 %mem=10GB
 %nprocshared=16
 Will use up to   16 processors via shared memory.
 ----------------------------------------------------------------------
 #p opt=tight freq=internalmodes b3lyp/6-31g(d,p) scrf=(cpcm,solvent=di
 chloromethane,read) nosymm empiricaldispersion=gd3bj int=grid=ultrafin
 e
 ----------------------------------------------------------------------
 1/7=10,18=20,19=15,26=6,38=1,40=2/1,3;
 2/9=110,12=2,15=1,17=6,18=5,40=1/2;
 3/5=1,6=6,7=101,11=2,25=1,30=1,70=2103,71=1,72=9,74=-5,75=-5,124=41/1,2,3;
 4//1;
 5/5=2,38=5,53=9/2;
 6/7=2,8=2,9=2,10=2,28=1/1;
 7/30=1/1,2,3,16;
 1/7=10,18=20,19=15,26=6/3(2);
 2/9=110,15=1/2;
 99//99;
 2/9=110,15=1/2;
 3/5=1,6=6,7=101,11=2,25=1,30=1,70=2105,71=1,72=9,74=-5,75=-5,124=41/1,2,3;
 4/5=5,16=3,69=1/1;
 5/5=2,38=5,53=9/2;
 7/30=1/1,2,3,16;
 1/7=10,18=20,19=15,26=6/3(-5);
 2/9=110,15=1/2;
 6/7=2,8=2,9=2,10=2,19=2,28=1/1;
 99/9=1/99;
 Leave Link    1 at Thu Dec 20 18:27:54 2018, MaxMem=  1342177280 cpu:               9.2 elap:               0.6
 (Enter /gpfs/apps/hpc/Apps/Restricted/Gaussian/Rev_A.03/g16/l101.exe)
 ----------------------------------------------------------------
 cyclohexylimine triBIP oxidized, no proton transfer optimization
 ----------------------------------------------------------------
 Symbolic Z-matrix:
 Charge =  1 Multiplicity = 2
 C                     1.67909   0.39252   0.9517 
 C                     0.58314   1.23902   0.66246 
 C                     0.78508   2.61741   0.52156 
 C                     2.08217   3.10051   0.67603 
 C                     3.1619    2.24961   0.96754 
 C                     2.98962   0.86785   1.11402 
 C                    -0.1903   -0.77716   0.79391 
 H                    -0.04169   3.28014   0.29793 
 H                     2.27041   4.16211   0.5681 
 H                     4.15357   2.67444   1.06984 
 C                    -2.4769   -1.67209   0.54491 
 C                    -3.4444   -2.7124    0.53535 
 C                    -3.05805  -4.03896   0.78371 
 C                    -1.71293  -4.26882   1.03011 
 C                    -0.75692  -3.22734   1.03566 
 C                    -1.11207  -1.90011   0.7969 
 C                    -4.46994  -0.84121   0.09331 
 H                    -3.78444  -4.84156   0.78074 
 H                    -1.37354  -5.27812   1.22661 
 H                     0.27896  -3.47402   1.23416 
 N                    -0.5717    0.47947   0.57181 
 C                    -6.8746   -0.53114  -0.40656 
 C                    -5.55005   0.05013  -0.23539 
 C                    -5.39636   1.4198   -0.39948 
 C                    -6.48693   2.23163  -0.73798 
 C                    -7.77486   1.64328  -0.89973 
 C                    -7.99786   0.29861  -0.74353 
 H                    -4.42355   1.87569  -0.26866 
 H                    -8.60812   2.28742  -1.15646 
 C                    -6.30703   3.69663  -0.96465 
 C                    -9.34417  -0.33326  -0.90491 
 O                    -7.07992  -1.80715  -0.25967 
 H                    -6.16498  -2.26258  -0.01788 
 N                    -3.15279  -0.51632   0.26617 
 N                    -4.66733  -2.15937   0.25339 
 H                    -2.6653    0.37707   0.21541 
 N                     1.15721  -0.8758    1.02614 
 H                     1.73126  -1.69266   1.20432 
 C                     4.0663   -0.05848   1.42033 
 N                     3.92242  -1.38223   1.46164 
 N                     5.35478   0.32941   1.69613 
 C                     7.4351   -0.983     2.26937 
 C                     7.85313  -2.30818   2.43722 
 C                     6.96809  -3.38971   2.28075 
 C                     5.6273   -3.19697   1.9515 
 C                     5.17797  -1.88137   1.77655 
 C                     6.08489  -0.80795   1.93081 
 H                     8.8881   -2.49843   2.70062 
 H                     7.34082  -4.39714   2.42286 
 H                     4.94879  -4.03425   1.84032 
 H                     5.76228   1.25439   1.77681 
 C                     8.33709   0.15123   2.46061 
 H                     9.37125  -0.1062    2.70413 
 N                     7.92244   1.35921   2.35988 
 C                     8.84357   2.4768    2.56896 
 C                     10.29514   2.13329   2.92133 
 C                     8.78654   3.39178   1.33417 
 H                     8.42147   3.04864   3.40835 
 C                     11.12303   3.4052    3.13792 
 H                     10.73409   1.54782   2.10414 
 H                     10.32812   1.5056    3.81729 
 C                     9.61764   4.66183   1.5424 
 H                     9.17171   2.832     0.47286 
 H                     7.74256   3.6382    1.11797 
 C                     11.06622   4.32934   1.91686 
 H                     12.15942   3.13769   3.36626 
 H                     10.73637   3.94205   4.0133 
 H                     9.58972   5.27975   0.63974 
 H                     9.16709   5.25598   2.34719 
 H                     11.62608   5.24909   2.11346 
 H                     11.55342   3.83281   1.06835 
 C                    -6.13577   3.96263  -2.4718 
 H                    -7.08164   3.86111  -2.96164 
 H                    -5.76266   4.95464  -2.61877 
 H                    -5.44404   3.25695  -2.88219 
 C                    -7.54515   4.48777  -0.5034 
 H                    -7.31356   5.5322   -0.48234 
 H                    -8.35261   4.31513  -1.18392 
 H                    -7.82953   4.16567   0.47654 
 C                    -5.05201   4.227    -0.24684 
 H                    -5.04877   3.88347   0.76651 
 H                    -4.17673   3.86914  -0.74757 
 H                    -5.05855   5.29689  -0.26073 
 C                    -9.32303  -1.38653  -2.0282 
 H                    -9.1889   -2.35909  -1.60272 
 H                    -10.24912  -1.35594  -2.5633 
 H                    -8.51637  -1.17638  -2.69906 
 C                    -10.40184   0.73561  -1.23724 
 H                    -10.43656   1.45979  -0.45031 
 H                    -10.14357   1.2194   -2.15601 
 H                    -11.36027   0.27031  -1.33629 
 C                    -9.75924  -1.06498   0.38501 
 H                    -9.42484  -2.08049   0.34237 
 H                    -9.31646  -0.57881   1.22909 
 H                    -10.82483  -1.04406   0.47981 
 
 ITRead=  0  0  0  0  0  0  0  0  0  0  0  0  0  0  0  0  0  0  0  0
 ITRead=  0  0  0  0  0  0  0  0  0  0  0  0  0  0  0  0  0  0  0  0
 ITRead=  0  0  0  0  0  0  0  0  0  0  0  0  0  0  0  0  0  0  0  0
 ITRead=  0  0  0  0  0  0  0  0  0  0  0  0  0  0  0  0  0  0  0  0
 ITRead=  0  0  0  0  0  0  0  0  0  0  0  0  0  0  0
 MicOpt= -1 -1 -1 -1 -1 -1 -1 -1 -1 -1 -1 -1 -1 -1 -1 -1 -1 -1 -1 -1
 MicOpt= -1 -1 -1 -1 -1 -1 -1 -1 -1 -1 -1 -1 -1 -1 -1 -1 -1 -1 -1 -1
 MicOpt= -1 -1 -1 -1 -1 -1 -1 -1 -1 -1 -1 -1 -1 -1 -1 -1 -1 -1 -1 -1
 MicOpt= -1 -1 -1 -1 -1 -1 -1 -1 -1 -1 -1 -1 -1 -1 -1 -1 -1 -1 -1 -1
 MicOpt= -1 -1 -1 -1 -1 -1 -1 -1 -1 -1 -1 -1 -1 -1 -1
 NAtoms=     95 NQM=       95 NQMF=       0 NMMI=      0 NMMIF=      0
                NMic=       0 NMicF=      0.
                    Isotopes and Nuclear Properties:
 (Nuclear quadrupole moments (NQMom) in fm**2, nuclear magnetic moments (NMagM)
  in nuclear magnetons)

  Atom         1           2           3           4           5           6           7           8           9          10
 IAtWgt=          12          12          12          12          12          12          12           1           1           1
 AtmWgt=  12.0000000  12.0000000  12.0000000  12.0000000  12.0000000  12.0000000  12.0000000   1.0078250   1.0078250   1.0078250
 NucSpn=           0           0           0           0           0           0           0           1           1           1
 AtZEff=  -0.0000000  -0.0000000  -0.0000000  -0.0000000  -0.0000000  -0.0000000  -0.0000000  -0.0000000  -0.0000000  -0.0000000
 NQMom=    0.0000000   0.0000000   0.0000000   0.0000000   0.0000000   0.0000000   0.0000000   0.0000000   0.0000000   0.0000000
 NMagM=    0.0000000   0.0000000   0.0000000   0.0000000   0.0000000   0.0000000   0.0000000   2.7928460   2.7928460   2.7928460
 AtZNuc=   6.0000000   6.0000000   6.0000000   6.0000000   6.0000000   6.0000000   6.0000000   1.0000000   1.0000000   1.0000000

  Atom        11          12          13          14          15          16          17          18          19          20
 IAtWgt=          12          12          12          12          12          12          12           1           1           1
 AtmWgt=  12.0000000  12.0000000  12.0000000  12.0000000  12.0000000  12.0000000  12.0000000   1.0078250   1.0078250   1.0078250
 NucSpn=           0           0           0           0           0           0           0           1           1           1
 AtZEff=  -0.0000000  -0.0000000  -0.0000000  -0.0000000  -0.0000000  -0.0000000  -0.0000000  -0.0000000  -0.0000000  -0.0000000
 NQMom=    0.0000000   0.0000000   0.0000000   0.0000000   0.0000000   0.0000000   0.0000000   0.0000000   0.0000000   0.0000000
 NMagM=    0.0000000   0.0000000   0.0000000   0.0000000   0.0000000   0.0000000   0.0000000   2.7928460   2.7928460   2.7928460
 AtZNuc=   6.0000000   6.0000000   6.0000000   6.0000000   6.0000000   6.0000000   6.0000000   1.0000000   1.0000000   1.0000000

  Atom        21          22          23          24          25          26          27          28          29          30
 IAtWgt=          14          12          12          12          12          12          12           1           1          12
 AtmWgt=  14.0030740  12.0000000  12.0000000  12.0000000  12.0000000  12.0000000  12.0000000   1.0078250   1.0078250  12.0000000
 NucSpn=           2           0           0           0           0           0           0           1           1           0
 AtZEff=  -0.0000000  -0.0000000  -0.0000000  -0.0000000  -0.0000000  -0.0000000  -0.0000000  -0.0000000  -0.0000000  -0.0000000
 NQMom=    2.0440000   0.0000000   0.0000000   0.0000000   0.0000000   0.0000000   0.0000000   0.0000000   0.0000000   0.0000000
 NMagM=    0.4037610   0.0000000   0.0000000   0.0000000   0.0000000   0.0000000   0.0000000   2.7928460   2.7928460   0.0000000
 AtZNuc=   7.0000000   6.0000000   6.0000000   6.0000000   6.0000000   6.0000000   6.0000000   1.0000000   1.0000000   6.0000000

  Atom        31          32          33          34          35          36          37          38          39          40
 IAtWgt=          12          16           1          14          14           1          14           1          12          14
 AtmWgt=  12.0000000  15.9949146   1.0078250  14.0030740  14.0030740   1.0078250  14.0030740   1.0078250  12.0000000  14.0030740
 NucSpn=           0           0           1           2           2           1           2           1           0           2
 AtZEff=  -0.0000000  -0.0000000  -0.0000000  -0.0000000  -0.0000000  -0.0000000  -0.0000000  -0.0000000  -0.0000000  -0.0000000
 NQMom=    0.0000000   0.0000000   0.0000000   2.0440000   2.0440000   0.0000000   2.0440000   0.0000000   0.0000000   2.0440000
 NMagM=    0.0000000   0.0000000   2.7928460   0.4037610   0.4037610   2.7928460   0.4037610   2.7928460   0.0000000   0.4037610
 AtZNuc=   6.0000000   8.0000000   1.0000000   7.0000000   7.0000000   1.0000000   7.0000000   1.0000000   6.0000000   7.0000000

  Atom        41          42          43          44          45          46          47          48          49          50
 IAtWgt=          14          12          12          12          12          12          12           1           1           1
 AtmWgt=  14.0030740  12.0000000  12.0000000  12.0000000  12.0000000  12.0000000  12.0000000   1.0078250   1.0078250   1.0078250
 NucSpn=           2           0           0           0           0           0           0           1           1           1
 AtZEff=  -0.0000000  -0.0000000  -0.0000000  -0.0000000  -0.0000000  -0.0000000  -0.0000000  -0.0000000  -0.0000000  -0.0000000
 NQMom=    2.0440000   0.0000000   0.0000000   0.0000000   0.0000000   0.0000000   0.0000000   0.0000000   0.0000000   0.0000000
 NMagM=    0.4037610   0.0000000   0.0000000   0.0000000   0.0000000   0.0000000   0.0000000   2.7928460   2.7928460   2.7928460
 AtZNuc=   7.0000000   6.0000000   6.0000000   6.0000000   6.0000000   6.0000000   6.0000000   1.0000000   1.0000000   1.0000000

  Atom        51          52          53          54          55          56          57          58          59          60
 IAtWgt=           1          12           1          14          12          12          12           1          12           1
 AtmWgt=   1.0078250  12.0000000   1.0078250  14.0030740  12.0000000  12.0000000  12.0000000   1.0078250  12.0000000   1.0078250
 NucSpn=           1           0           1           2           0           0           0           1           0           1
 AtZEff=  -0.0000000  -0.0000000  -0.0000000  -0.0000000  -0.0000000  -0.0000000  -0.0000000  -0.0000000  -0.0000000  -0.0000000
 NQMom=    0.0000000   0.0000000   0.0000000   2.0440000   0.0000000   0.0000000   0.0000000   0.0000000   0.0000000   0.0000000
 NMagM=    2.7928460   0.0000000   2.7928460   0.4037610   0.0000000   0.0000000   0.0000000   2.7928460   0.0000000   2.7928460
 AtZNuc=   1.0000000   6.0000000   1.0000000   7.0000000   6.0000000   6.0000000   6.0000000   1.0000000   6.0000000   1.0000000

  Atom        61          62          63          64          65          66          67          68          69          70
 IAtWgt=           1          12           1           1          12           1           1           1           1           1
 AtmWgt=   1.0078250  12.0000000   1.0078250   1.0078250  12.0000000   1.0078250   1.0078250   1.0078250   1.0078250   1.0078250
 NucSpn=           1           0           1           1           0           1           1           1           1           1
 AtZEff=  -0.0000000  -0.0000000  -0.0000000  -0.0000000  -0.0000000  -0.0000000  -0.0000000  -0.0000000  -0.0000000  -0.0000000
 NQMom=    0.0000000   0.0000000   0.0000000   0.0000000   0.0000000   0.0000000   0.0000000   0.0000000   0.0000000   0.0000000
 NMagM=    2.7928460   0.0000000   2.7928460   2.7928460   0.0000000   2.7928460   2.7928460   2.7928460   2.7928460   2.7928460
 AtZNuc=   1.0000000   6.0000000   1.0000000   1.0000000   6.0000000   1.0000000   1.0000000   1.0000000   1.0000000   1.0000000

  Atom        71          72          73          74          75          76          77          78          79          80
 IAtWgt=           1          12           1           1           1          12           1           1           1          12
 AtmWgt=   1.0078250  12.0000000   1.0078250   1.0078250   1.0078250  12.0000000   1.0078250   1.0078250   1.0078250  12.0000000
 NucSpn=           1           0           1           1           1           0           1           1           1           0
 AtZEff=  -0.0000000  -0.0000000  -0.0000000  -0.0000000  -0.0000000  -0.0000000  -0.0000000  -0.0000000  -0.0000000  -0.0000000
 NQMom=    0.0000000   0.0000000   0.0000000   0.0000000   0.0000000   0.0000000   0.0000000   0.0000000   0.0000000   0.0000000
 NMagM=    2.7928460   0.0000000   2.7928460   2.7928460   2.7928460   0.0000000   2.7928460   2.7928460   2.7928460   0.0000000
 AtZNuc=   1.0000000   6.0000000   1.0000000   1.0000000   1.0000000   6.0000000   1.0000000   1.0000000   1.0000000   6.0000000

  Atom        81          82          83          84          85          86          87          88          89          90
 IAtWgt=           1           1           1          12           1           1           1          12           1           1
 AtmWgt=   1.0078250   1.0078250   1.0078250  12.0000000   1.0078250   1.0078250   1.0078250  12.0000000   1.0078250   1.0078250
 NucSpn=           1           1           1           0           1           1           1           0           1           1
 AtZEff=  -0.0000000  -0.0000000  -0.0000000  -0.0000000  -0.0000000  -0.0000000  -0.0000000  -0.0000000  -0.0000000  -0.0000000
 NQMom=    0.0000000   0.0000000   0.0000000   0.0000000   0.0000000   0.0000000   0.0000000   0.0000000   0.0000000   0.0000000
 NMagM=    2.7928460   2.7928460   2.7928460   0.0000000   2.7928460   2.7928460   2.7928460   0.0000000   2.7928460   2.7928460
 AtZNuc=   1.0000000   1.0000000   1.0000000   6.0000000   1.0000000   1.0000000   1.0000000   6.0000000   1.0000000   1.0000000

  Atom        91          92          93          94          95
 IAtWgt=           1          12           1           1           1
 AtmWgt=   1.0078250  12.0000000   1.0078250   1.0078250   1.0078250
 NucSpn=           1           0           1           1           1
 AtZEff=  -0.0000000  -0.0000000  -0.0000000  -0.0000000  -0.0000000
 NQMom=    0.0000000   0.0000000   0.0000000   0.0000000   0.0000000
 NMagM=    2.7928460   0.0000000   2.7928460   2.7928460   2.7928460
 AtZNuc=   1.0000000   6.0000000   1.0000000   1.0000000   1.0000000
 Leave Link  101 at Thu Dec 20 18:27:54 2018, MaxMem=  1342177280 cpu:               4.2 elap:               0.3
 (Enter /gpfs/apps/hpc/Apps/Restricted/Gaussian/Rev_A.03/g16/l103.exe)

 GradGradGradGradGradGradGradGradGradGradGradGradGradGradGradGradGradGrad
 Berny optimization.
 Initialization pass.
                           ----------------------------
                           !    Initial Parameters    !
                           ! (Angstroms and Degrees)  !
 --------------------------                            --------------------------
 ! Name  Definition              Value          Derivative Info.                !
 --------------------------------------------------------------------------------
 ! R1    R(1,2)                  1.4147         estimate D2E/DX2                !
 ! R2    R(1,6)                  1.4035         estimate D2E/DX2                !
 ! R3    R(1,37)                 1.3735         estimate D2E/DX2                !
 ! R4    R(2,3)                  1.4002         estimate D2E/DX2                !
 ! R5    R(2,21)                 1.3852         estimate D2E/DX2                !
 ! R6    R(3,4)                  1.3927         estimate D2E/DX2                !
 ! R7    R(3,8)                  1.0829         estimate D2E/DX2                !
 ! R8    R(4,5)                  1.4053         estimate D2E/DX2                !
 ! R9    R(4,9)                  1.0835         estimate D2E/DX2                !
 ! R10   R(5,6)                  1.4001         estimate D2E/DX2                !
 ! R11   R(5,10)                 1.0837         estimate D2E/DX2                !
 ! R12   R(6,39)                 1.453          estimate D2E/DX2                !
 ! R13   R(7,16)                 1.4528         estimate D2E/DX2                !
 ! R14   R(7,21)                 1.3319         estimate D2E/DX2                !
 ! R15   R(7,37)                 1.3709         estimate D2E/DX2                !
 ! R16   R(11,12)                1.4207         estimate D2E/DX2                !
 ! R17   R(11,16)                1.4065         estimate D2E/DX2                !
 ! R18   R(11,34)                1.3676         estimate D2E/DX2                !
 ! R19   R(12,13)                1.4038         estimate D2E/DX2                !
 ! R20   R(12,35)                1.3715         estimate D2E/DX2                !
 ! R21   R(13,14)                1.3867         estimate D2E/DX2                !
 ! R22   R(13,18)                1.0825         estimate D2E/DX2                !
 ! R23   R(14,15)                1.4137         estimate D2E/DX2                !
 ! R24   R(14,19)                1.0828         estimate D2E/DX2                !
 ! R25   R(15,16)                1.3945         estimate D2E/DX2                !
 ! R26   R(15,20)                1.0832         estimate D2E/DX2                !
 ! R27   R(17,23)                1.4385         estimate D2E/DX2                !
 ! R28   R(17,34)                1.3676         estimate D2E/DX2                !
 ! R29   R(17,35)                1.3424         estimate D2E/DX2                !
 ! R30   R(22,23)                1.4566         estimate D2E/DX2                !
 ! R31   R(22,27)                1.4366         estimate D2E/DX2                !
 ! R32   R(22,32)                1.3007         estimate D2E/DX2                !
 ! R33   R(23,24)                1.388          estimate D2E/DX2                !
 ! R34   R(24,25)                1.4011         estimate D2E/DX2                !
 ! R35   R(24,28)                1.0823         estimate D2E/DX2                !
 ! R36   R(25,26)                1.4252         estimate D2E/DX2                !
 ! R37   R(25,30)                1.4933         estimate D2E/DX2                !
 ! R38   R(26,27)                1.372          estimate D2E/DX2                !
 ! R39   R(26,29)                1.084          estimate D2E/DX2                !
 ! R40   R(27,31)                1.4959         estimate D2E/DX2                !
 ! R41   R(30,72)                1.54           estimate D2E/DX2                !
 ! R42   R(30,76)                1.54           estimate D2E/DX2                !
 ! R43   R(30,80)                1.54           estimate D2E/DX2                !
 ! R44   R(31,84)                1.54           estimate D2E/DX2                !
 ! R45   R(31,88)                1.54           estimate D2E/DX2                !
 ! R46   R(31,92)                1.54           estimate D2E/DX2                !
 ! R47   R(32,33)                1.0502         estimate D2E/DX2                !
 ! R48   R(34,36)                1.019          estimate D2E/DX2                !
 ! R49   R(37,38)                1.0142         estimate D2E/DX2                !
 ! R50   R(39,40)                1.3322         estimate D2E/DX2                !
 ! R51   R(39,41)                1.3736         estimate D2E/DX2                !
 ! R52   R(40,46)                1.3873         estimate D2E/DX2                !
 ! R53   R(41,47)                1.3718         estimate D2E/DX2                !
 ! R54   R(41,51)                1.014          estimate D2E/DX2                !
 ! R55   R(42,43)                1.3997         estimate D2E/DX2                !
 ! R56   R(42,47)                1.403          estimate D2E/DX2                !
 ! R57   R(42,52)                1.4617         estimate D2E/DX2                !
 ! R58   R(43,44)                1.4062         estimate D2E/DX2                !
 ! R59   R(43,48)                1.0848         estimate D2E/DX2                !
 ! R60   R(44,45)                1.394          estimate D2E/DX2                !
 ! R61   R(44,49)                1.0835         estimate D2E/DX2                !
 ! R62   R(45,46)                1.4012         estimate D2E/DX2                !
 ! R63   R(45,50)                1.0834         estimate D2E/DX2                !
 ! R64   R(46,47)                1.4137         estimate D2E/DX2                !
 ! R65   R(52,53)                1.0932         estimate D2E/DX2                !
 ! R66   R(52,54)                1.2811         estimate D2E/DX2                !
 ! R67   R(54,55)                1.4633         estimate D2E/DX2                !
 ! R68   R(55,56)                1.5327         estimate D2E/DX2                !
 ! R69   R(55,57)                1.5379         estimate D2E/DX2                !
 ! R70   R(55,58)                1.0999         estimate D2E/DX2                !
 ! R71   R(56,59)                1.533          estimate D2E/DX2                !
 ! R72   R(56,60)                1.0969         estimate D2E/DX2                !
 ! R73   R(56,61)                1.0945         estimate D2E/DX2                !
 ! R74   R(57,62)                1.532          estimate D2E/DX2                !
 ! R75   R(57,63)                1.0971         estimate D2E/DX2                !
 ! R76   R(57,64)                1.0942         estimate D2E/DX2                !
 ! R77   R(59,65)                1.5324         estimate D2E/DX2                !
 ! R78   R(59,66)                1.0944         estimate D2E/DX2                !
 ! R79   R(59,67)                1.0973         estimate D2E/DX2                !
 ! R80   R(62,65)                1.5327         estimate D2E/DX2                !
 ! R81   R(62,68)                1.0943         estimate D2E/DX2                !
 ! R82   R(62,69)                1.0971         estimate D2E/DX2                !
 ! R83   R(65,70)                1.0945         estimate D2E/DX2                !
 ! R84   R(65,71)                1.0972         estimate D2E/DX2                !
 ! R85   R(72,73)                1.07           estimate D2E/DX2                !
 ! R86   R(72,74)                1.07           estimate D2E/DX2                !
 ! R87   R(72,75)                1.07           estimate D2E/DX2                !
 ! R88   R(76,77)                1.07           estimate D2E/DX2                !
 ! R89   R(76,78)                1.07           estimate D2E/DX2                !
 ! R90   R(76,79)                1.07           estimate D2E/DX2                !
 ! R91   R(80,81)                1.07           estimate D2E/DX2                !
 ! R92   R(80,82)                1.07           estimate D2E/DX2                !
 ! R93   R(80,83)                1.07           estimate D2E/DX2                !
 ! R94   R(84,85)                1.07           estimate D2E/DX2                !
 ! R95   R(84,86)                1.07           estimate D2E/DX2                !
 ! R96   R(84,87)                1.07           estimate D2E/DX2                !
 ! R97   R(88,89)                1.07           estimate D2E/DX2                !
 ! R98   R(88,90)                1.07           estimate D2E/DX2                !
 ! R99   R(88,91)                1.07           estimate D2E/DX2                !
 ! R100  R(92,93)                1.07           estimate D2E/DX2                !
 ! R101  R(92,94)                1.07           estimate D2E/DX2                !
 ! R102  R(92,95)                1.07           estimate D2E/DX2                !
 ! A1    A(2,1,6)              122.9818         estimate D2E/DX2                !
 ! A2    A(2,1,37)             105.6203         estimate D2E/DX2                !
 ! A3    A(6,1,37)             131.3972         estimate D2E/DX2                !
 ! A4    A(1,2,3)              119.8601         estimate D2E/DX2                !
 ! A5    A(1,2,21)             109.3377         estimate D2E/DX2                !
 ! A6    A(3,2,21)             130.8017         estimate D2E/DX2                !
 ! A7    A(2,3,4)              117.6864         estimate D2E/DX2                !
 ! A8    A(2,3,8)              120.8708         estimate D2E/DX2                !
 ! A9    A(4,3,8)              121.4427         estimate D2E/DX2                !
 ! A10   A(3,4,5)              121.9074         estimate D2E/DX2                !
 ! A11   A(3,4,9)              119.3797         estimate D2E/DX2                !
 ! A12   A(5,4,9)              118.7129         estimate D2E/DX2                !
 ! A13   A(4,5,6)              121.6487         estimate D2E/DX2                !
 ! A14   A(4,5,10)             119.033          estimate D2E/DX2                !
 ! A15   A(6,5,10)             119.3146         estimate D2E/DX2                !
 ! A16   A(1,6,5)              115.915          estimate D2E/DX2                !
 ! A17   A(1,6,39)             120.0259         estimate D2E/DX2                !
 ! A18   A(5,6,39)             124.0587         estimate D2E/DX2                !
 ! A19   A(16,7,21)            123.2248         estimate D2E/DX2                !
 ! A20   A(16,7,37)            124.5883         estimate D2E/DX2                !
 ! A21   A(21,7,37)            112.185          estimate D2E/DX2                !
 ! A22   A(12,11,16)           122.91           estimate D2E/DX2                !
 ! A23   A(12,11,34)           106.3141         estimate D2E/DX2                !
 ! A24   A(16,11,34)           130.7751         estimate D2E/DX2                !
 ! A25   A(11,12,13)           120.2213         estimate D2E/DX2                !
 ! A26   A(11,12,35)           108.2616         estimate D2E/DX2                !
 ! A27   A(13,12,35)           131.5161         estimate D2E/DX2                !
 ! A28   A(12,13,14)           117.0675         estimate D2E/DX2                !
 ! A29   A(12,13,18)           121.0285         estimate D2E/DX2                !
 ! A30   A(14,13,18)           121.904          estimate D2E/DX2                !
 ! A31   A(13,14,15)           122.3129         estimate D2E/DX2                !
 ! A32   A(13,14,19)           119.3927         estimate D2E/DX2                !
 ! A33   A(15,14,19)           118.2944         estimate D2E/DX2                !
 ! A34   A(14,15,16)           121.8866         estimate D2E/DX2                !
 ! A35   A(14,15,20)           118.6623         estimate D2E/DX2                !
 ! A36   A(16,15,20)           119.4509         estimate D2E/DX2                !
 ! A37   A(7,16,11)            119.3407         estimate D2E/DX2                !
 ! A38   A(7,16,15)            125.0583         estimate D2E/DX2                !
 ! A39   A(11,16,15)           115.601          estimate D2E/DX2                !
 ! A40   A(23,17,34)           127.2189         estimate D2E/DX2                !
 ! A41   A(23,17,35)           121.6873         estimate D2E/DX2                !
 ! A42   A(34,17,35)           111.0883         estimate D2E/DX2                !
 ! A43   A(2,21,7)             105.5276         estimate D2E/DX2                !
 ! A44   A(23,22,27)           120.5374         estimate D2E/DX2                !
 ! A45   A(23,22,32)           121.4494         estimate D2E/DX2                !
 ! A46   A(27,22,32)           118.0131         estimate D2E/DX2                !
 ! A47   A(17,23,22)           117.5418         estimate D2E/DX2                !
 ! A48   A(17,23,24)           123.7339         estimate D2E/DX2                !
 ! A49   A(22,23,24)           118.7241         estimate D2E/DX2                !
 ! A50   A(23,24,25)           120.9414         estimate D2E/DX2                !
 ! A51   A(23,24,28)           120.0602         estimate D2E/DX2                !
 ! A52   A(25,24,28)           118.9982         estimate D2E/DX2                !
 ! A53   A(24,25,26)           119.4486         estimate D2E/DX2                !
 ! A54   A(24,25,30)           120.7542         estimate D2E/DX2                !
 ! A55   A(26,25,30)           119.7784         estimate D2E/DX2                !
 ! A56   A(25,26,27)           122.5874         estimate D2E/DX2                !
 ! A57   A(25,26,29)           118.439          estimate D2E/DX2                !
 ! A58   A(27,26,29)           118.9735         estimate D2E/DX2                !
 ! A59   A(22,27,26)           117.7566         estimate D2E/DX2                !
 ! A60   A(22,27,31)           119.0142         estimate D2E/DX2                !
 ! A61   A(26,27,31)           123.2291         estimate D2E/DX2                !
 ! A62   A(25,30,72)           109.3536         estimate D2E/DX2                !
 ! A63   A(25,30,76)           111.2029         estimate D2E/DX2                !
 ! A64   A(25,30,80)           111.4258         estimate D2E/DX2                !
 ! A65   A(72,30,76)           107.0853         estimate D2E/DX2                !
 ! A66   A(72,30,80)           107.8219         estimate D2E/DX2                !
 ! A67   A(76,30,80)           109.7954         estimate D2E/DX2                !
 ! A68   A(27,31,84)           110.8071         estimate D2E/DX2                !
 ! A69   A(27,31,88)           110.3778         estimate D2E/DX2                !
 ! A70   A(27,31,92)           110.6647         estimate D2E/DX2                !
 ! A71   A(84,31,88)           109.0707         estimate D2E/DX2                !
 ! A72   A(84,31,92)           106.8394         estimate D2E/DX2                !
 ! A73   A(88,31,92)           108.9915         estimate D2E/DX2                !
 ! A74   A(22,32,33)           108.2933         estimate D2E/DX2                !
 ! A75   A(11,34,17)           107.5165         estimate D2E/DX2                !
 ! A76   A(11,34,36)           120.9748         estimate D2E/DX2                !
 ! A77   A(17,34,36)           131.5082         estimate D2E/DX2                !
 ! A78   A(12,35,17)           106.8193         estimate D2E/DX2                !
 ! A79   A(1,37,7)             107.329          estimate D2E/DX2                !
 ! A80   A(1,37,38)            122.5621         estimate D2E/DX2                !
 ! A81   A(7,37,38)            130.0958         estimate D2E/DX2                !
 ! A82   A(6,39,40)            124.0562         estimate D2E/DX2                !
 ! A83   A(6,39,41)            123.8762         estimate D2E/DX2                !
 ! A84   A(40,39,41)           112.0672         estimate D2E/DX2                !
 ! A85   A(39,40,46)           105.4736         estimate D2E/DX2                !
 ! A86   A(39,41,47)           107.4266         estimate D2E/DX2                !
 ! A87   A(39,41,51)           130.5847         estimate D2E/DX2                !
 ! A88   A(47,41,51)           121.9267         estimate D2E/DX2                !
 ! A89   A(43,42,47)           115.7541         estimate D2E/DX2                !
 ! A90   A(43,42,52)           122.3216         estimate D2E/DX2                !
 ! A91   A(47,42,52)           121.9126         estimate D2E/DX2                !
 ! A92   A(42,43,44)           121.7931         estimate D2E/DX2                !
 ! A93   A(42,43,48)           118.6938         estimate D2E/DX2                !
 ! A94   A(44,43,48)           119.5122         estimate D2E/DX2                !
 ! A95   A(43,44,45)           121.6874         estimate D2E/DX2                !
 ! A96   A(43,44,49)           118.9458         estimate D2E/DX2                !
 ! A97   A(45,44,49)           119.3667         estimate D2E/DX2                !
 ! A98   A(44,45,46)           117.888          estimate D2E/DX2                !
 ! A99   A(44,45,50)           121.3148         estimate D2E/DX2                !
 ! A100  A(46,45,50)           120.7958         estimate D2E/DX2                !
 ! A101  A(40,46,45)           131.0228         estimate D2E/DX2                !
 ! A102  A(40,46,47)           109.4007         estimate D2E/DX2                !
 ! A103  A(45,46,47)           119.5761         estimate D2E/DX2                !
 ! A104  A(41,47,42)           131.0687         estimate D2E/DX2                !
 ! A105  A(41,47,46)           105.6307         estimate D2E/DX2                !
 ! A106  A(42,47,46)           123.2981         estimate D2E/DX2                !
 ! A107  A(42,52,53)           115.4786         estimate D2E/DX2                !
 ! A108  A(42,52,54)           121.4422         estimate D2E/DX2                !
 ! A109  A(53,52,54)           123.0751         estimate D2E/DX2                !
 ! A110  A(52,54,55)           120.3425         estimate D2E/DX2                !
 ! A111  A(54,55,56)           117.2482         estimate D2E/DX2                !
 ! A112  A(54,55,57)           108.441          estimate D2E/DX2                !
 ! A113  A(54,55,58)           105.3398         estimate D2E/DX2                !
 ! A114  A(56,55,57)           110.6742         estimate D2E/DX2                !
 ! A115  A(56,55,58)           107.7292         estimate D2E/DX2                !
 ! A116  A(57,55,58)           106.8099         estimate D2E/DX2                !
 ! A117  A(55,56,59)           110.9768         estimate D2E/DX2                !
 ! A118  A(55,56,60)           109.1059         estimate D2E/DX2                !
 ! A119  A(55,56,61)           110.199          estimate D2E/DX2                !
 ! A120  A(59,56,60)           109.3894         estimate D2E/DX2                !
 ! A121  A(59,56,61)           110.1155         estimate D2E/DX2                !
 ! A122  A(60,56,61)           106.9598         estimate D2E/DX2                !
 ! A123  A(55,57,62)           111.3436         estimate D2E/DX2                !
 ! A124  A(55,57,63)           108.286          estimate D2E/DX2                !
 ! A125  A(55,57,64)           109.1475         estimate D2E/DX2                !
 ! A126  A(62,57,63)           109.8309         estimate D2E/DX2                !
 ! A127  A(62,57,64)           110.9613         estimate D2E/DX2                !
 ! A128  A(63,57,64)           107.1432         estimate D2E/DX2                !
 ! A129  A(56,59,65)           111.5776         estimate D2E/DX2                !
 ! A130  A(56,59,66)           109.7603         estimate D2E/DX2                !
 ! A131  A(56,59,67)           109.1683         estimate D2E/DX2                !
 ! A132  A(65,59,66)           110.4111         estimate D2E/DX2                !
 ! A133  A(65,59,67)           109.1214         estimate D2E/DX2                !
 ! A134  A(66,59,67)           106.6685         estimate D2E/DX2                !
 ! A135  A(57,62,65)           111.4746         estimate D2E/DX2                !
 ! A136  A(57,62,68)           110.0087         estimate D2E/DX2                !
 ! A137  A(57,62,69)           109.0178         estimate D2E/DX2                !
 ! A138  A(65,62,68)           110.3744         estimate D2E/DX2                !
 ! A139  A(65,62,69)           109.0501         estimate D2E/DX2                !
 ! A140  A(68,62,69)           106.7868         estimate D2E/DX2                !
 ! A141  A(59,65,62)           111.1331         estimate D2E/DX2                !
 ! A142  A(59,65,70)           110.1617         estimate D2E/DX2                !
 ! A143  A(59,65,71)           109.077          estimate D2E/DX2                !
 ! A144  A(62,65,70)           110.1832         estimate D2E/DX2                !
 ! A145  A(62,65,71)           109.2017         estimate D2E/DX2                !
 ! A146  A(70,65,71)           106.9812         estimate D2E/DX2                !
 ! A147  A(30,72,73)           109.4712         estimate D2E/DX2                !
 ! A148  A(30,72,74)           109.4712         estimate D2E/DX2                !
 ! A149  A(30,72,75)           109.4712         estimate D2E/DX2                !
 ! A150  A(73,72,74)           109.4713         estimate D2E/DX2                !
 ! A151  A(73,72,75)           109.4712         estimate D2E/DX2                !
 ! A152  A(74,72,75)           109.4712         estimate D2E/DX2                !
 ! A153  A(30,76,77)           109.4712         estimate D2E/DX2                !
 ! A154  A(30,76,78)           109.4712         estimate D2E/DX2                !
 ! A155  A(30,76,79)           109.4712         estimate D2E/DX2                !
 ! A156  A(77,76,78)           109.4713         estimate D2E/DX2                !
 ! A157  A(77,76,79)           109.4712         estimate D2E/DX2                !
 ! A158  A(78,76,79)           109.4712         estimate D2E/DX2                !
 ! A159  A(30,80,81)           109.4712         estimate D2E/DX2                !
 ! A160  A(30,80,82)           109.4712         estimate D2E/DX2                !
 ! A161  A(30,80,83)           109.4712         estimate D2E/DX2                !
 ! A162  A(81,80,82)           109.4713         estimate D2E/DX2                !
 ! A163  A(81,80,83)           109.4712         estimate D2E/DX2                !
 ! A164  A(82,80,83)           109.4712         estimate D2E/DX2                !
 ! A165  A(31,84,85)           109.4712         estimate D2E/DX2                !
 ! A166  A(31,84,86)           109.4712         estimate D2E/DX2                !
 ! A167  A(31,84,87)           109.4712         estimate D2E/DX2                !
 ! A168  A(85,84,86)           109.4713         estimate D2E/DX2                !
 ! A169  A(85,84,87)           109.4712         estimate D2E/DX2                !
 ! A170  A(86,84,87)           109.4712         estimate D2E/DX2                !
 ! A171  A(31,88,89)           109.4712         estimate D2E/DX2                !
 ! A172  A(31,88,90)           109.4712         estimate D2E/DX2                !
 ! A173  A(31,88,91)           109.4712         estimate D2E/DX2                !
 ! A174  A(89,88,90)           109.4713         estimate D2E/DX2                !
 ! A175  A(89,88,91)           109.4712         estimate D2E/DX2                !
 ! A176  A(90,88,91)           109.4712         estimate D2E/DX2                !
 ! A177  A(31,92,93)           109.4712         estimate D2E/DX2                !
 ! A178  A(31,92,94)           109.4712         estimate D2E/DX2                !
 ! A179  A(31,92,95)           109.4712         estimate D2E/DX2                !
 ! A180  A(93,92,94)           109.4713         estimate D2E/DX2                !
 ! A181  A(93,92,95)           109.4712         estimate D2E/DX2                !
 ! A182  A(94,92,95)           109.4712         estimate D2E/DX2                !
 ! D1    D(6,1,2,3)              0.2244         estimate D2E/DX2                !
 ! D2    D(6,1,2,21)          -179.5561         estimate D2E/DX2                !
 ! D3    D(37,1,2,3)           179.9734         estimate D2E/DX2                !
 ! D4    D(37,1,2,21)            0.1928         estimate D2E/DX2                !
 ! D5    D(2,1,6,5)             -0.2235         estimate D2E/DX2                !
 ! D6    D(2,1,6,39)           179.5332         estimate D2E/DX2                !
 ! D7    D(37,1,6,5)          -179.9011         estimate D2E/DX2                !
 ! D8    D(37,1,6,39)           -0.1444         estimate D2E/DX2                !
 ! D9    D(2,1,37,7)            -0.1635         estimate D2E/DX2                !
 ! D10   D(2,1,37,38)          178.6396         estimate D2E/DX2                !
 ! D11   D(6,1,37,7)           179.5557         estimate D2E/DX2                !
 ! D12   D(6,1,37,38)           -1.6412         estimate D2E/DX2                !
 ! D13   D(1,2,3,4)             -0.0036         estimate D2E/DX2                !
 ! D14   D(1,2,3,8)            179.8568         estimate D2E/DX2                !
 ! D15   D(21,2,3,4)           179.7228         estimate D2E/DX2                !
 ! D16   D(21,2,3,8)            -0.4168         estimate D2E/DX2                !
 ! D17   D(1,2,21,7)            -0.1441         estimate D2E/DX2                !
 ! D18   D(3,2,21,7)          -179.8926         estimate D2E/DX2                !
 ! D19   D(2,3,4,5)             -0.2037         estimate D2E/DX2                !
 ! D20   D(2,3,4,9)            179.7119         estimate D2E/DX2                !
 ! D21   D(8,3,4,5)            179.9367         estimate D2E/DX2                !
 ! D22   D(8,3,4,9)             -0.1477         estimate D2E/DX2                !
 ! D23   D(3,4,5,6)              0.2039         estimate D2E/DX2                !
 ! D24   D(3,4,5,10)           179.4925         estimate D2E/DX2                !
 ! D25   D(9,4,5,6)           -179.7122         estimate D2E/DX2                !
 ! D26   D(9,4,5,10)            -0.4236         estimate D2E/DX2                !
 ! D27   D(4,5,6,1)              0.0123         estimate D2E/DX2                !
 ! D28   D(4,5,6,39)          -179.7335         estimate D2E/DX2                !
 ! D29   D(10,5,6,1)          -179.2744         estimate D2E/DX2                !
 ! D30   D(10,5,6,39)            0.9799         estimate D2E/DX2                !
 ! D31   D(1,6,39,40)            5.4831         estimate D2E/DX2                !
 ! D32   D(1,6,39,41)         -174.7982         estimate D2E/DX2                !
 ! D33   D(5,6,39,40)         -174.781          estimate D2E/DX2                !
 ! D34   D(5,6,39,41)            4.9376         estimate D2E/DX2                !
 ! D35   D(21,7,16,11)           0.5076         estimate D2E/DX2                !
 ! D36   D(21,7,16,15)        -179.4311         estimate D2E/DX2                !
 ! D37   D(37,7,16,11)         179.9708         estimate D2E/DX2                !
 ! D38   D(37,7,16,15)           0.0321         estimate D2E/DX2                !
 ! D39   D(16,7,21,2)          179.5627         estimate D2E/DX2                !
 ! D40   D(37,7,21,2)            0.0399         estimate D2E/DX2                !
 ! D41   D(16,7,37,1)         -179.4336         estimate D2E/DX2                !
 ! D42   D(16,7,37,38)           1.8852         estimate D2E/DX2                !
 ! D43   D(21,7,37,1)            0.0814         estimate D2E/DX2                !
 ! D44   D(21,7,37,38)        -178.5998         estimate D2E/DX2                !
 ! D45   D(16,11,12,13)         -0.0229         estimate D2E/DX2                !
 ! D46   D(16,11,12,35)       -179.6934         estimate D2E/DX2                !
 ! D47   D(34,11,12,13)        179.667          estimate D2E/DX2                !
 ! D48   D(34,11,12,35)         -0.0035         estimate D2E/DX2                !
 ! D49   D(12,11,16,7)        -179.7146         estimate D2E/DX2                !
 ! D50   D(12,11,16,15)          0.2298         estimate D2E/DX2                !
 ! D51   D(34,11,16,7)           0.6785         estimate D2E/DX2                !
 ! D52   D(34,11,16,15)       -179.3772         estimate D2E/DX2                !
 ! D53   D(12,11,34,17)         -0.091          estimate D2E/DX2                !
 ! D54   D(12,11,34,36)       -179.8579         estimate D2E/DX2                !
 ! D55   D(16,11,34,17)        179.5652         estimate D2E/DX2                !
 ! D56   D(16,11,34,36)         -0.2017         estimate D2E/DX2                !
 ! D57   D(11,12,13,14)         -0.0993         estimate D2E/DX2                !
 ! D58   D(11,12,13,18)        179.9287         estimate D2E/DX2                !
 ! D59   D(35,12,13,14)        179.4829         estimate D2E/DX2                !
 ! D60   D(35,12,13,18)         -0.4892         estimate D2E/DX2                !
 ! D61   D(11,12,35,17)          0.0981         estimate D2E/DX2                !
 ! D62   D(13,12,35,17)       -179.5217         estimate D2E/DX2                !
 ! D63   D(12,13,14,15)          0.0073         estimate D2E/DX2                !
 ! D64   D(12,13,14,19)        179.9817         estimate D2E/DX2                !
 ! D65   D(18,13,14,15)        179.979          estimate D2E/DX2                !
 ! D66   D(18,13,14,19)         -0.0466         estimate D2E/DX2                !
 ! D67   D(13,14,15,16)          0.216          estimate D2E/DX2                !
 ! D68   D(13,14,15,20)       -179.9375         estimate D2E/DX2                !
 ! D69   D(19,14,15,16)       -179.7587         estimate D2E/DX2                !
 ! D70   D(19,14,15,20)          0.0879         estimate D2E/DX2                !
 ! D71   D(14,15,16,7)         179.6193         estimate D2E/DX2                !
 ! D72   D(14,15,16,11)         -0.3215         estimate D2E/DX2                !
 ! D73   D(20,15,16,7)          -0.2261         estimate D2E/DX2                !
 ! D74   D(20,15,16,11)        179.8332         estimate D2E/DX2                !
 ! D75   D(34,17,23,22)        178.3398         estimate D2E/DX2                !
 ! D76   D(34,17,23,24)         -1.4867         estimate D2E/DX2                !
 ! D77   D(35,17,23,22)         -0.7332         estimate D2E/DX2                !
 ! D78   D(35,17,23,24)        179.4403         estimate D2E/DX2                !
 ! D79   D(23,17,34,11)       -178.9952         estimate D2E/DX2                !
 ! D80   D(23,17,34,36)          0.7379         estimate D2E/DX2                !
 ! D81   D(35,17,34,11)          0.1594         estimate D2E/DX2                !
 ! D82   D(35,17,34,36)        179.8925         estimate D2E/DX2                !
 ! D83   D(23,17,35,12)        179.049          estimate D2E/DX2                !
 ! D84   D(34,17,35,12)         -0.1598         estimate D2E/DX2                !
 ! D85   D(27,22,23,17)       -179.6118         estimate D2E/DX2                !
 ! D86   D(27,22,23,24)          0.2236         estimate D2E/DX2                !
 ! D87   D(32,22,23,17)          0.4607         estimate D2E/DX2                !
 ! D88   D(32,22,23,24)       -179.7039         estimate D2E/DX2                !
 ! D89   D(23,22,27,26)          0.1931         estimate D2E/DX2                !
 ! D90   D(23,22,27,31)       -179.7171         estimate D2E/DX2                !
 ! D91   D(32,22,27,26)       -179.877          estimate D2E/DX2                !
 ! D92   D(32,22,27,31)          0.2128         estimate D2E/DX2                !
 ! D93   D(23,22,32,33)         -0.0985         estimate D2E/DX2                !
 ! D94   D(27,22,32,33)        179.9723         estimate D2E/DX2                !
 ! D95   D(17,23,24,25)        179.1159         estimate D2E/DX2                !
 ! D96   D(17,23,24,28)         -0.7233         estimate D2E/DX2                !
 ! D97   D(22,23,24,25)         -0.7087         estimate D2E/DX2                !
 ! D98   D(22,23,24,28)        179.4522         estimate D2E/DX2                !
 ! D99   D(23,24,25,26)          0.7716         estimate D2E/DX2                !
 ! D100  D(23,24,25,30)       -177.6463         estimate D2E/DX2                !
 ! D101  D(28,24,25,26)       -179.3876         estimate D2E/DX2                !
 ! D102  D(28,24,25,30)          2.1946         estimate D2E/DX2                !
 ! D103  D(24,25,26,27)         -0.3366         estimate D2E/DX2                !
 ! D104  D(24,25,26,29)        179.675          estimate D2E/DX2                !
 ! D105  D(30,25,26,27)        178.097          estimate D2E/DX2                !
 ! D106  D(30,25,26,29)         -1.8915         estimate D2E/DX2                !
 ! D107  D(24,25,30,72)         95.6989         estimate D2E/DX2                !
 ! D108  D(24,25,30,76)       -146.2498         estimate D2E/DX2                !
 ! D109  D(24,25,30,80)        -23.3992         estimate D2E/DX2                !
 ! D110  D(26,25,30,72)        -82.7138         estimate D2E/DX2                !
 ! D111  D(26,25,30,76)         35.3375         estimate D2E/DX2                !
 ! D112  D(26,25,30,80)        158.1881         estimate D2E/DX2                !
 ! D113  D(25,26,27,22)         -0.137          estimate D2E/DX2                !
 ! D114  D(25,26,27,31)        179.7691         estimate D2E/DX2                !
 ! D115  D(29,26,27,22)        179.8513         estimate D2E/DX2                !
 ! D116  D(29,26,27,31)         -0.2425         estimate D2E/DX2                !
 ! D117  D(22,27,31,84)        -60.1425         estimate D2E/DX2                !
 ! D118  D(22,27,31,88)        178.9255         estimate D2E/DX2                !
 ! D119  D(22,27,31,92)         58.1867         estimate D2E/DX2                !
 ! D120  D(26,27,31,84)        119.9525         estimate D2E/DX2                !
 ! D121  D(26,27,31,88)         -0.9795         estimate D2E/DX2                !
 ! D122  D(26,27,31,92)       -121.7183         estimate D2E/DX2                !
 ! D123  D(25,30,72,73)         74.3104         estimate D2E/DX2                !
 ! D124  D(25,30,72,74)       -165.6896         estimate D2E/DX2                !
 ! D125  D(25,30,72,75)        -45.6896         estimate D2E/DX2                !
 ! D126  D(76,30,72,73)        -46.2863         estimate D2E/DX2                !
 ! D127  D(76,30,72,74)         73.7137         estimate D2E/DX2                !
 ! D128  D(76,30,72,75)       -166.2863         estimate D2E/DX2                !
 ! D129  D(80,30,72,73)       -164.3835         estimate D2E/DX2                !
 ! D130  D(80,30,72,74)        -44.3835         estimate D2E/DX2                !
 ! D131  D(80,30,72,75)         75.6165         estimate D2E/DX2                !
 ! D132  D(25,30,76,77)        168.1094         estimate D2E/DX2                !
 ! D133  D(25,30,76,78)        -71.8906         estimate D2E/DX2                !
 ! D134  D(25,30,76,79)         48.1094         estimate D2E/DX2                !
 ! D135  D(72,30,76,77)        -72.4773         estimate D2E/DX2                !
 ! D136  D(72,30,76,78)         47.5227         estimate D2E/DX2                !
 ! D137  D(72,30,76,79)        167.5227         estimate D2E/DX2                !
 ! D138  D(80,30,76,77)         44.3259         estimate D2E/DX2                !
 ! D139  D(80,30,76,78)        164.3259         estimate D2E/DX2                !
 ! D140  D(80,30,76,79)        -75.6741         estimate D2E/DX2                !
 ! D141  D(25,30,80,81)        -48.6245         estimate D2E/DX2                !
 ! D142  D(25,30,80,82)         71.3755         estimate D2E/DX2                !
 ! D143  D(25,30,80,83)       -168.6245         estimate D2E/DX2                !
 ! D144  D(72,30,80,81)       -168.6311         estimate D2E/DX2                !
 ! D145  D(72,30,80,82)        -48.6311         estimate D2E/DX2                !
 ! D146  D(72,30,80,83)         71.3689         estimate D2E/DX2                !
 ! D147  D(76,30,80,81)         75.0288         estimate D2E/DX2                !
 ! D148  D(76,30,80,82)       -164.9712         estimate D2E/DX2                !
 ! D149  D(76,30,80,83)        -44.9712         estimate D2E/DX2                !
 ! D150  D(27,31,84,85)         97.1573         estimate D2E/DX2                !
 ! D151  D(27,31,84,86)       -142.8427         estimate D2E/DX2                !
 ! D152  D(27,31,84,87)        -22.8427         estimate D2E/DX2                !
 ! D153  D(88,31,84,85)       -141.1403         estimate D2E/DX2                !
 ! D154  D(88,31,84,86)        -21.1403         estimate D2E/DX2                !
 ! D155  D(88,31,84,87)         98.8597         estimate D2E/DX2                !
 ! D156  D(92,31,84,85)        -23.4699         estimate D2E/DX2                !
 ! D157  D(92,31,84,86)         96.5302         estimate D2E/DX2                !
 ! D158  D(92,31,84,87)       -143.4698         estimate D2E/DX2                !
 ! D159  D(27,31,88,89)        -59.2351         estimate D2E/DX2                !
 ! D160  D(27,31,88,90)         60.7649         estimate D2E/DX2                !
 ! D161  D(27,31,88,91)       -179.2351         estimate D2E/DX2                !
 ! D162  D(84,31,88,89)        178.8027         estimate D2E/DX2                !
 ! D163  D(84,31,88,90)        -61.1973         estimate D2E/DX2                !
 ! D164  D(84,31,88,91)         58.8027         estimate D2E/DX2                !
 ! D165  D(92,31,88,89)         62.4986         estimate D2E/DX2                !
 ! D166  D(92,31,88,90)       -177.5014         estimate D2E/DX2                !
 ! D167  D(92,31,88,91)        -57.5014         estimate D2E/DX2                !
 ! D168  D(27,31,92,93)        -90.4077         estimate D2E/DX2                !
 ! D169  D(27,31,92,94)         29.5923         estimate D2E/DX2                !
 ! D170  D(27,31,92,95)        149.5923         estimate D2E/DX2                !
 ! D171  D(84,31,92,93)         30.3103         estimate D2E/DX2                !
 ! D172  D(84,31,92,94)        150.3103         estimate D2E/DX2                !
 ! D173  D(84,31,92,95)        -89.6897         estimate D2E/DX2                !
 ! D174  D(88,31,92,93)        148.0328         estimate D2E/DX2                !
 ! D175  D(88,31,92,94)        -91.9672         estimate D2E/DX2                !
 ! D176  D(88,31,92,95)         28.0328         estimate D2E/DX2                !
 ! D177  D(6,39,40,46)         179.6135         estimate D2E/DX2                !
 ! D178  D(41,39,40,46)         -0.1344         estimate D2E/DX2                !
 ! D179  D(6,39,41,47)        -179.8329         estimate D2E/DX2                !
 ! D180  D(6,39,41,51)           3.0493         estimate D2E/DX2                !
 ! D181  D(40,39,41,47)         -0.0844         estimate D2E/DX2                !
 ! D182  D(40,39,41,51)       -177.2022         estimate D2E/DX2                !
 ! D183  D(39,40,46,45)       -179.9229         estimate D2E/DX2                !
 ! D184  D(39,40,46,47)          0.2991         estimate D2E/DX2                !
 ! D185  D(39,41,47,42)       -179.1592         estimate D2E/DX2                !
 ! D186  D(39,41,47,46)          0.261          estimate D2E/DX2                !
 ! D187  D(51,41,47,42)         -1.738          estimate D2E/DX2                !
 ! D188  D(51,41,47,46)        177.6822         estimate D2E/DX2                !
 ! D189  D(47,42,43,44)         -0.2845         estimate D2E/DX2                !
 ! D190  D(47,42,43,48)       -179.9354         estimate D2E/DX2                !
 ! D191  D(52,42,43,44)        178.4944         estimate D2E/DX2                !
 ! D192  D(52,42,43,48)         -1.1565         estimate D2E/DX2                !
 ! D193  D(43,42,47,41)        179.9942         estimate D2E/DX2                !
 ! D194  D(43,42,47,46)          0.6623         estimate D2E/DX2                !
 ! D195  D(52,42,47,41)          1.2099         estimate D2E/DX2                !
 ! D196  D(52,42,47,46)       -178.1221         estimate D2E/DX2                !
 ! D197  D(43,42,52,53)          2.3797         estimate D2E/DX2                !
 ! D198  D(43,42,52,54)       -176.9005         estimate D2E/DX2                !
 ! D199  D(47,42,52,53)       -178.916          estimate D2E/DX2                !
 ! D200  D(47,42,52,54)          1.8038         estimate D2E/DX2                !
 ! D201  D(42,43,44,45)         -0.0704         estimate D2E/DX2                !
 ! D202  D(42,43,44,49)       -179.9207         estimate D2E/DX2                !
 ! D203  D(48,43,44,45)        179.5777         estimate D2E/DX2                !
 ! D204  D(48,43,44,49)         -0.2725         estimate D2E/DX2                !
 ! D205  D(43,44,45,46)          0.0731         estimate D2E/DX2                !
 ! D206  D(43,44,45,50)       -179.4969         estimate D2E/DX2                !
 ! D207  D(49,44,45,46)        179.9227         estimate D2E/DX2                !
 ! D208  D(49,44,45,50)          0.3527         estimate D2E/DX2                !
 ! D209  D(44,45,46,40)       -179.4753         estimate D2E/DX2                !
 ! D210  D(44,45,46,47)          0.2838         estimate D2E/DX2                !
 ! D211  D(50,45,46,40)          0.097          estimate D2E/DX2                !
 ! D212  D(50,45,46,47)        179.8562         estimate D2E/DX2                !
 ! D213  D(40,46,47,41)         -0.3507         estimate D2E/DX2                !
 ! D214  D(40,46,47,42)        179.1263         estimate D2E/DX2                !
 ! D215  D(45,46,47,41)        179.8419         estimate D2E/DX2                !
 ! D216  D(45,46,47,42)         -0.6811         estimate D2E/DX2                !
 ! D217  D(42,52,54,55)        179.4031         estimate D2E/DX2                !
 ! D218  D(53,52,54,55)          0.1785         estimate D2E/DX2                !
 ! D219  D(52,54,55,56)         -0.6044         estimate D2E/DX2                !
 ! D220  D(52,54,55,57)        125.5769         estimate D2E/DX2                !
 ! D221  D(52,54,55,58)       -120.37           estimate D2E/DX2                !
 ! D222  D(54,55,56,59)       -178.7709         estimate D2E/DX2                !
 ! D223  D(54,55,56,60)         60.6261         estimate D2E/DX2                !
 ! D224  D(54,55,56,61)        -56.5275         estimate D2E/DX2                !
 ! D225  D(57,55,56,59)         56.155          estimate D2E/DX2                !
 ! D226  D(57,55,56,60)        -64.448          estimate D2E/DX2                !
 ! D227  D(57,55,56,61)        178.3983         estimate D2E/DX2                !
 ! D228  D(58,55,56,59)        -60.2783         estimate D2E/DX2                !
 ! D229  D(58,55,56,60)        179.1187         estimate D2E/DX2                !
 ! D230  D(58,55,56,61)         61.9651         estimate D2E/DX2                !
 ! D231  D(54,55,57,62)        174.1163         estimate D2E/DX2                !
 ! D232  D(54,55,57,63)        -65.0383         estimate D2E/DX2                !
 ! D233  D(54,55,57,64)         51.2796         estimate D2E/DX2                !
 ! D234  D(56,55,57,62)        -55.9667         estimate D2E/DX2                !
 ! D235  D(56,55,57,63)         64.8786         estimate D2E/DX2                !
 ! D236  D(56,55,57,64)       -178.8035         estimate D2E/DX2                !
 ! D237  D(58,55,57,62)         61.0344         estimate D2E/DX2                !
 ! D238  D(58,55,57,63)       -178.1203         estimate D2E/DX2                !
 ! D239  D(58,55,57,64)        -61.8024         estimate D2E/DX2                !
 ! D240  D(55,56,59,65)        -56.0339         estimate D2E/DX2                !
 ! D241  D(55,56,59,66)       -178.7565         estimate D2E/DX2                !
 ! D242  D(55,56,59,67)         64.6571         estimate D2E/DX2                !
 ! D243  D(60,56,59,65)         64.4011         estimate D2E/DX2                !
 ! D244  D(60,56,59,66)        -58.3214         estimate D2E/DX2                !
 ! D245  D(60,56,59,67)       -174.9079         estimate D2E/DX2                !
 ! D246  D(61,56,59,65)       -178.3259         estimate D2E/DX2                !
 ! D247  D(61,56,59,66)         58.9516         estimate D2E/DX2                !
 ! D248  D(61,56,59,67)        -57.6349         estimate D2E/DX2                !
 ! D249  D(55,57,62,65)         55.2927         estimate D2E/DX2                !
 ! D250  D(55,57,62,68)        178.0724         estimate D2E/DX2                !
 ! D251  D(55,57,62,69)        -65.1441         estimate D2E/DX2                !
 ! D252  D(63,57,62,65)        -64.6426         estimate D2E/DX2                !
 ! D253  D(63,57,62,68)         58.1371         estimate D2E/DX2                !
 ! D254  D(63,57,62,69)        174.9206         estimate D2E/DX2                !
 ! D255  D(64,57,62,65)        177.0826         estimate D2E/DX2                !
 ! D256  D(64,57,62,68)        -60.1377         estimate D2E/DX2                !
 ! D257  D(64,57,62,69)         56.6457         estimate D2E/DX2                !
 ! D258  D(56,59,65,62)         54.9978         estimate D2E/DX2                !
 ! D259  D(56,59,65,70)        177.4075         estimate D2E/DX2                !
 ! D260  D(56,59,65,71)        -65.4515         estimate D2E/DX2                !
 ! D261  D(66,59,65,62)        177.3473         estimate D2E/DX2                !
 ! D262  D(66,59,65,70)        -60.243          estimate D2E/DX2                !
 ! D263  D(66,59,65,71)         56.898          estimate D2E/DX2                !
 ! D264  D(67,59,65,62)        -65.7206         estimate D2E/DX2                !
 ! D265  D(67,59,65,70)         56.6891         estimate D2E/DX2                !
 ! D266  D(67,59,65,71)        173.8301         estimate D2E/DX2                !
 ! D267  D(57,62,65,59)        -54.5433         estimate D2E/DX2                !
 ! D268  D(57,62,65,70)       -176.9406         estimate D2E/DX2                !
 ! D269  D(57,62,65,71)         65.8322         estimate D2E/DX2                !
 ! D270  D(68,62,65,59)       -177.1133         estimate D2E/DX2                !
 ! D271  D(68,62,65,70)         60.4894         estimate D2E/DX2                !
 ! D272  D(68,62,65,71)        -56.7378         estimate D2E/DX2                !
 ! D273  D(69,62,65,59)         65.8746         estimate D2E/DX2                !
 ! D274  D(69,62,65,70)        -56.5227         estimate D2E/DX2                !
 ! D275  D(69,62,65,71)       -173.7499         estimate D2E/DX2                !
 --------------------------------------------------------------------------------
 Trust Radius=3.00D-01 FncErr=5.00D-06 GrdErr=5.00D-06 EigMax=2.50D+02 EigMin=1.00D-04
 Number of steps in this run=    569 maximum allowed number of steps=    570.
 GradGradGradGradGradGradGradGradGradGradGradGradGradGradGradGradGradGrad

 Leave Link  103 at Thu Dec 20 18:27:54 2018, MaxMem=  1342177280 cpu:               0.3 elap:               0.0
 (Enter /gpfs/apps/hpc/Apps/Restricted/Gaussian/Rev_A.03/g16/l202.exe)
 Symmetry turned off by external request.
 Stoichiometry    C42H45N7O(1+,2)
 Framework group  C1[X(C42H45N7O)]
 Deg. of freedom   279
 Full point group                 C1      NOp   1
                          Input orientation:                          
 ---------------------------------------------------------------------
 Center     Atomic      Atomic             Coordinates (Angstroms)
 Number     Number       Type             X           Y           Z
 ---------------------------------------------------------------------
      1          6           0        1.679093    0.392516    0.951704
      2          6           0        0.583138    1.239020    0.662460
      3          6           0        0.785084    2.617408    0.521563
      4          6           0        2.082175    3.100512    0.676029
      5          6           0        3.161904    2.249613    0.967544
      6          6           0        2.989619    0.867853    1.114017
      7          6           0       -0.190301   -0.777162    0.793914
      8          1           0       -0.041688    3.280139    0.297933
      9          1           0        2.270411    4.162112    0.568099
     10          1           0        4.153565    2.674439    1.069845
     11          6           0       -2.476903   -1.672090    0.544911
     12          6           0       -3.444403   -2.712401    0.535354
     13          6           0       -3.058054   -4.038958    0.783708
     14          6           0       -1.712933   -4.268819    1.030112
     15          6           0       -0.756916   -3.227339    1.035657
     16          6           0       -1.112074   -1.900105    0.796896
     17          6           0       -4.469938   -0.841212    0.093306
     18          1           0       -3.784443   -4.841559    0.780738
     19          1           0       -1.373544   -5.278116    1.226608
     20          1           0        0.278962   -3.474016    1.234157
     21          7           0       -0.571698    0.479469    0.571814
     22          6           0       -6.874604   -0.531138   -0.406558
     23          6           0       -5.550051    0.050128   -0.235386
     24          6           0       -5.396360    1.419798   -0.399483
     25          6           0       -6.486925    2.231631   -0.737984
     26          6           0       -7.774862    1.643283   -0.899728
     27          6           0       -7.997861    0.298611   -0.743528
     28          1           0       -4.423547    1.875690   -0.268655
     29          1           0       -8.608121    2.287418   -1.156460
     30          6           0       -6.307026    3.696629   -0.964649
     31          6           0       -9.344172   -0.333262   -0.904914
     32          8           0       -7.079924   -1.807151   -0.259669
     33          1           0       -6.164981   -2.262578   -0.017879
     34          7           0       -3.152785   -0.516324    0.266169
     35          7           0       -4.667327   -2.159371    0.253390
     36          1           0       -2.665299    0.377074    0.215405
     37          7           0        1.157208   -0.875798    1.026136
     38          1           0        1.731256   -1.692664    1.204316
     39          6           0        4.066303   -0.058482    1.420333
     40          7           0        3.922424   -1.382233    1.461635
     41          7           0        5.354775    0.329406    1.696127
     42          6           0        7.435098   -0.982999    2.269366
     43          6           0        7.853135   -2.308182    2.437224
     44          6           0        6.968089   -3.389711    2.280750
     45          6           0        5.627296   -3.196965    1.951499
     46          6           0        5.177973   -1.881367    1.776546
     47          6           0        6.084890   -0.807952    1.930807
     48          1           0        8.888097   -2.498431    2.700623
     49          1           0        7.340823   -4.397142    2.422858
     50          1           0        4.948789   -4.034253    1.840316
     51          1           0        5.762279    1.254391    1.776811
     52          6           0        8.337090    0.151230    2.460613
     53          1           0        9.371245   -0.106199    2.704127
     54          7           0        7.922440    1.359214    2.359876
     55          6           0        8.843572    2.476804    2.568957
     56          6           0       10.295143    2.133293    2.921334
     57          6           0        8.786536    3.391781    1.334166
     58          1           0        8.421471    3.048639    3.408346
     59          6           0       11.123033    3.405197    3.137920
     60          1           0       10.734085    1.547820    2.104138
     61          1           0       10.328123    1.505600    3.817289
     62          6           0        9.617645    4.661828    1.542403
     63          1           0        9.171712    2.831995    0.472857
     64          1           0        7.742556    3.638202    1.117971
     65          6           0       11.066225    4.329340    1.916860
     66          1           0       12.159418    3.137691    3.366255
     67          1           0       10.736374    3.942052    4.013305
     68          1           0        9.589721    5.279750    0.639743
     69          1           0        9.167089    5.255978    2.347193
     70          1           0       11.626082    5.249087    2.113462
     71          1           0       11.553417    3.832807    1.068352
     72          6           0       -6.135775    3.962626   -2.471805
     73          1           0       -7.081640    3.861107   -2.961635
     74          1           0       -5.762663    4.954638   -2.618769
     75          1           0       -5.444036    3.256948   -2.882190
     76          6           0       -7.545147    4.487770   -0.503399
     77          1           0       -7.313560    5.532195   -0.482343
     78          1           0       -8.352608    4.315133   -1.183916
     79          1           0       -7.829527    4.165671    0.476540
     80          6           0       -5.052012    4.227000   -0.246841
     81          1           0       -5.048765    3.883469    0.766508
     82          1           0       -4.176733    3.869145   -0.747567
     83          1           0       -5.058549    5.296890   -0.260728
     84          6           0       -9.323028   -1.386532   -2.028202
     85          1           0       -9.188904   -2.359093   -1.602719
     86          1           0      -10.249116   -1.355943   -2.563297
     87          1           0       -8.516374   -1.176377   -2.699055
     88          6           0      -10.401842    0.735614   -1.237238
     89          1           0      -10.436565    1.459792   -0.450307
     90          1           0      -10.143567    1.219398   -2.156013
     91          1           0      -11.360269    0.270311   -1.336294
     92          6           0       -9.759243   -1.064985    0.385008
     93          1           0       -9.424838   -2.080492    0.342368
     94          1           0       -9.316456   -0.578811    1.229089
     95          1           0      -10.824830   -1.044056    0.479809
 ---------------------------------------------------------------------
 Rotational constants (GHZ):           0.1253313           0.0175376           0.0155227
 Leave Link  202 at Thu Dec 20 18:27:55 2018, MaxMem=  1342177280 cpu:               0.2 elap:               0.0
 (Enter /gpfs/apps/hpc/Apps/Restricted/Gaussian/Rev_A.03/g16/l301.exe)
 Standard basis: 6-31G(d,p) (6D, 7F)
 Ernie: Thresh=  0.10000D-02 Tol=  0.10000D-05 Strict=F.
   975 basis functions,  1715 primitive gaussians,   975 cartesian basis functions
   177 alpha electrons      176 beta electrons
       nuclear repulsion energy      5762.1893316170 Hartrees.
 IExCor=  402 DFT=T Ex+Corr=B3LYP ExCW=0 ScaHFX=  0.200000
 ScaDFX=  0.800000  0.720000  1.000000  0.810000 ScalE2=  1.000000  1.000000
 IRadAn=      5 IRanWt=     -1 IRanGd=            0 ICorTp=0 IEmpDi=141
 NAtoms=   95 NActive=   95 NUniq=   95 SFac= 1.00D+00 NAtFMM=   60 NAOKFM=T Big=T
 Integral buffers will be    131072 words long.
 Raffenetti 2 integral format.
 Two-electron integral symmetry is turned off.
 R6Disp:  Grimme-D3(BJ) Dispersion energy=       -0.2218226096 Hartrees.
 Nuclear repulsion after empirical dispersion term =     5761.9675090074 Hartrees.
 Using the following non-standard input for PCM:
 radii=bondi
 dis
 rep
 cav
 --- end of non-standard input.
 ------------------------------------------------------------------------------
 Polarizable Continuum Model (PCM)
 =================================
 Model                : C-PCM.
 Atomic radii         : Bondi.
 Polarization charges : Total charges.
 Charge compensation  : None.
 Solution method      : On-the-fly selection.
 Cavity type          : Scaled VdW (van der Waals Surface) (Alpha=1.100).
 Cavity algorithm     : GePol (No added spheres)
                        Default sphere list used, NSphG=   95.
                        Lebedev-Laikov grids with approx.  5.0 points / Ang**2.
                        Smoothing algorithm: York/Karplus (Gamma=1.0000).
                        Polarization charges: spherical gaussians, with
                                              point-specific exponents (IZeta= 3).
                        Self-potential: point-specific (ISelfS= 7).
                        Self-field    : sphere-specific E.n sum rule (ISelfD= 2).
 1st derivatives      : Analytical E(r).r(x)/FMM algorithm (CHGder, D1EAlg=3).
                        Cavity 1st derivative terms included.
 Solvent              : Dichloromethane, Eps=   8.930000 Eps(inf)=   2.028346
 ------------------------------------------------------------------------------
 GePol: Number of generator spheres                  =      95
 GePol: Total number of spheres                      =      95
 GePol: Number of exposed spheres                    =      95 (100.00%)
 GePol: Number of points                             =    6169
 GePol: Average weight of points                     =       0.12
 GePol: Minimum weight of points                     =   0.28D-11
 GePol: Maximum weight of points                     =    0.21770
 GePol: Number of points with low weight             =     444
 GePol: Fraction of low-weight points (<1% of avg)   =       7.20%
 GePol: Cavity surface area                          =    725.471 Ang**2
 GePol: Cavity volume                                =    717.407 Ang**3
 PCM non-electrostatic energy =         0.0300926895 Hartrees.
 Nuclear repulsion after PCM non-electrostatic terms =     5761.9976016969 Hartrees.
 Leave Link  301 at Thu Dec 20 18:27:55 2018, MaxMem=  1342177280 cpu:               6.2 elap:               0.4
 (Enter /gpfs/apps/hpc/Apps/Restricted/Gaussian/Rev_A.03/g16/l302.exe)
 NPDir=0 NMtPBC=     1 NCelOv=     1 NCel=       1 NClECP=     1 NCelD=      1
         NCelK=      1 NCelE2=     1 NClLst=     1 CellRange=     0.0.
 One-electron integrals computed using PRISM.
 NBasis=   975 RedAO= T EigKep=  2.72D-04  NBF=   975
 NBsUse=   975 1.00D-06 EigRej= -1.00D+00 NBFU=   975
 Precomputing XC quadrature grid using
 IXCGrd= 4 IRadAn=           5 IRanWt=          -1 IRanGd=           0 AccXCQ= 0.00D+00.
 Generated NRdTot=       0 NPtTot=           0 NUsed=           0 NTot=          32
 NSgBfM=   839   835   835   836   839 MxSgAt=    95 MxSgA2=    95.
 Leave Link  302 at Thu Dec 20 18:27:58 2018, MaxMem=  1342177280 cpu:              47.2 elap:               3.0
 (Enter /gpfs/apps/hpc/Apps/Restricted/Gaussian/Rev_A.03/g16/l303.exe)
 DipDrv:  MaxL=1.
 Leave Link  303 at Thu Dec 20 18:27:58 2018, MaxMem=  1342177280 cpu:               2.2 elap:               0.2
 (Enter /gpfs/apps/hpc/Apps/Restricted/Gaussian/Rev_A.03/g16/l401.exe)
 ExpMin= 1.61D-01 ExpMax= 5.48D+03 ExpMxC= 8.25D+02 IAcc=3 IRadAn=         5 AccDes= 0.00D+00
[...]
      7          6           0       -0.202524   -0.834486    0.834188
      8          1           0       -0.077822    3.221870    0.333628
      9          1           0        2.227793    4.119627    0.611212
     10          1           0        4.118281    2.645132    1.125272
     11          6           0       -2.481835   -1.732714    0.565070
     12          6           0       -3.449647   -2.772581    0.540744
     13          6           0       -3.063979   -4.099600    0.786987
     14          6           0       -1.720706   -4.329988    1.045695
     15          6           0       -0.765580   -3.288564    1.065194
     16          6           0       -1.120181   -1.960458    0.828085
     17          6           0       -4.467973   -0.905241    0.095320
     18          1           0       -3.788866   -4.903279    0.773280
     19          1           0       -1.382686   -5.340051    1.240592
     20          1           0        0.268323   -3.535385    1.272325
     21          7           0       -0.590247    0.419348    0.609341
     22          6           0       -6.862863   -0.557112   -0.441625
     23          6           0       -5.534352   -0.000143   -0.236458
     24          6           0       -5.342911    1.367382   -0.364004
     25          6           0       -6.411201    2.215512   -0.675817
     26          6           0       -7.701360    1.645694   -0.885418
     27          6           0       -7.965816    0.303902   -0.779023
     28          1           0       -4.354225    1.778997   -0.211068
     29          1           0       -8.511637    2.313752   -1.141552
     30          6           0       -6.207188    3.708285   -0.859324
     31          6           0       -9.348830   -0.293314   -1.009013
     32          8           0       -7.066483   -1.838716   -0.342299
     33          1           0       -6.158035   -2.306780   -0.131211
     34          7           0       -3.155237   -0.575396    0.288432
     35          7           0       -4.671776   -2.221277    0.246738
     36          1           0       -2.676436    0.322476    0.250601
     37          7           0        1.144479   -0.924950    1.075118
     38          1           0        1.723945   -1.737331    1.257157
     39          6           0        4.048410   -0.085215    1.484461
     40          7           0        3.917034   -1.410216    1.532211
     41          7           0        5.331912    0.316314    1.763602
     42          6           0        7.424802   -0.972948    2.341068
     43          6           0        7.856882   -2.293300    2.511199
     44          6           0        6.983029   -3.384470    2.357675
     45          6           0        5.639664   -3.205903    2.030534
     46          6           0        5.176789   -1.895474    1.852424
     47          6           0        6.072602   -0.812666    2.004412
     48          1           0        8.894639   -2.472440    2.771135
     49          1           0        7.366808   -4.387878    2.499336
     50          1           0        4.969631   -4.049944    1.919385
     51          1           0        5.730958    1.245434    1.838291
     52          6           0        8.316179    0.172111    2.515267
     53          1           0        9.358169   -0.070797    2.739265
     54          7           0        7.884499    1.373713    2.410171
     55          6           0        8.799788    2.505469    2.558277
     56          6           0       10.274644    2.185056    2.826701
     57          6           0        8.657672    3.402015    1.316280
     58          1           0        8.419503    3.082335    3.413923
     59          6           0       11.098443    3.469978    2.972689
     60          1           0       10.672181    1.593125    1.993019
     61          1           0       10.370294    1.570820    3.727577
     62          6           0        9.484668    4.683949    1.454238
     63          1           0        8.995847    2.832608    0.441591
     64          1           0        7.599945    3.633908    1.159213
     65          6           0       10.957159    4.372758    1.742383
     66          1           0       12.149638    3.217589    3.142065
     67          1           0       10.759784    4.017113    3.861363
     68          1           0        9.392591    5.287036    0.546148
     69          1           0        9.078224    5.286096    2.276457
     70          1           0       11.517295    5.301441    1.889487
     71          1           0       11.397100    3.868265    0.872972
     72          6           0       -6.081268    3.955907   -2.381270
     73          1           0       -7.025378    3.744864   -2.892528
     74          1           0       -5.817879    5.005592   -2.553441
     75          1           0       -5.298830    3.329871   -2.818902
     76          6           0       -7.410071    4.497924   -0.317592
     77          1           0       -7.189597    5.568154   -0.376059
     78          1           0       -8.321045    4.321150   -0.896341
     79          1           0       -7.610870    4.248704    0.729076
     80          6           0       -4.931543    4.193916   -0.159228
     81          1           0       -4.918089    3.911457    0.898099
     82          1           0       -4.023560    3.804125   -0.631796
     83          1           0       -4.886868    5.285007   -0.221457
     84          6           0       -9.268828   -1.339752   -2.145270
     85          1           0       -9.018924   -2.328000   -1.752544
     86          1           0      -10.232186   -1.401036   -2.660458
     87          1           0       -8.511577   -1.063854   -2.884965
     88          6           0      -10.346471    0.798288   -1.412469
     89          1           0      -10.458208    1.562198   -0.635040
     90          1           0      -10.055086    1.298398   -2.342812
     91          1           0      -11.323989    0.335335   -1.573344
     92          6           0       -9.833606   -0.956391    0.298516
     93          1           0       -9.397705   -1.950618    0.421732
     94          1           0       -9.564107   -0.347119    1.167160
     95          1           0      -10.923467   -1.051942    0.283117
 ---------------------------------------------------------------------
 Rotational constants (GHZ):           0.1239103           0.0176996           0.0156292
 Leave Link  202 at Thu Dec 20 19:10:14 2018, MaxMem=  1342177280 cpu:               0.3 elap:               0.0
 (Enter /gpfs/apps/hpc/Apps/Restricted/Gaussian/Rev_A.03/g16/l301.exe)
 Standard basis: 6-31G(d,p) (6D, 7F)
 Ernie: Thresh=  0.10000D-02 Tol=  0.10000D-05 Strict=F.
   975 basis functions,  1715 primitive gaussians,   975 cartesian basis functions
   177 alpha electrons      176 beta electrons
       nuclear repulsion energy      5762.5124793639 Hartrees.
 IExCor=  402 DFT=T Ex+Corr=B3LYP ExCW=0 ScaHFX=  0.200000
 ScaDFX=  0.800000  0.720000  1.000000  0.810000 ScalE2=  1.000000  1.000000
 IRadAn=      5 IRanWt=     -1 IRanGd=            0 ICorTp=0 IEmpDi=141
 NAtoms=   95 NActive=   95 NUniq=   95 SFac= 1.00D+00 NAtFMM=   60 NAOKFM=T Big=T
 Integral buffers will be    131072 words long.
 Raffenetti 2 integral format.
 Two-electron integral symmetry is turned off.
 R6Disp:  Grimme-D3(BJ) Dispersion energy=       -0.2210385536 Hartrees.
 Nuclear repulsion after empirical dispersion term =     5762.2914408103 Hartrees.
 ------------------------------------------------------------------------------
 Polarizable Continuum Model (PCM)
 =================================
 Model                : C-PCM.
 Atomic radii         : Bondi.
 Polarization charges : Total charges.
 Charge compensation  : None.
 Solution method      : On-the-fly selection.
 Cavity type          : Scaled VdW (van der Waals Surface) (Alpha=1.100).
 Cavity algorithm     : GePol (No added spheres)
                        Default sphere list used, NSphG=   95.
                        Lebedev-Laikov grids with approx.  5.0 points / Ang**2.
                        Smoothing algorithm: York/Karplus (Gamma=1.0000).
                        Polarization charges: spherical gaussians, with
                                              point-specific exponents (IZeta= 3).
                        Self-potential: point-specific (ISelfS= 7).
                        Self-field    : sphere-specific E.n sum rule (ISelfD= 2).
 1st derivatives      : Analytical E(r).r(x)/FMM algorithm (CHGder, D1EAlg=3).
                        Cavity 1st derivative terms included.
 Solvent              : Dichloromethane, Eps=   8.930000 Eps(inf)=   2.028346
 ------------------------------------------------------------------------------
 GePol: Number of generator spheres                  =      95
 GePol: Total number of spheres                      =      95
 GePol: Number of exposed spheres                    =      95 (100.00%)
 GePol: Number of points                             =    6184
 GePol: Average weight of points                     =       0.12
 GePol: Minimum weight of points                     =   0.84D-11
 GePol: Maximum weight of points                     =    0.21770
 GePol: Number of points with low weight             =     398
 GePol: Fraction of low-weight points (<1% of avg)   =       6.44%
 GePol: Cavity surface area                          =    731.010 Ang**2
 GePol: Cavity volume                                =    720.150 Ang**3
 PCM non-electrostatic energy =         0.0315687845 Hartrees.
 Nuclear repulsion after PCM non-electrostatic terms =     5762.3230095948 Hartrees.
 Leave Link  301 at Thu Dec 20 19:10:15 2018, MaxMem=  1342177280 cpu:               6.9 elap:               0.5
 (Enter /gpfs/apps/hpc/Apps/Restricted/Gaussian/Rev_A.03/g16/l302.exe)
 NPDir=0 NMtPBC=     1 NCelOv=     1 NCel=       1 NClECP=     1 NCelD=      1
         NCelK=      1 NCelE2=     1 NClLst=     1 CellRange=     0.0.
 One-electron integrals computed using PRISM.
 NBasis=   975 RedAO= T EigKep=  2.72D-04  NBF=   975
 NBsUse=   975 1.00D-06 EigRej= -1.00D+00 NBFU=   975
 Precomputing XC quadrature grid using
 IXCGrd= 4 IRadAn=           5 IRanWt=          -1 IRanGd=           0 AccXCQ= 0.00D+00.
 Generated NRdTot=       0 NPtTot=           0 NUsed=           0 NTot=          32
 NSgBfM=   845   840   840   843   845 MxSgAt=    95 MxSgA2=    95.
 Leave Link  302 at Thu Dec 20 19:10:18 2018, MaxMem=  1342177280 cpu:              45.4 elap:               2.9
 (Enter /gpfs/apps/hpc/Apps/Restricted/Gaussian/Rev_A.03/g16/l303.exe)
 DipDrv:  MaxL=1.
 Leave Link  303 at Thu Dec 20 19:10:18 2018, MaxMem=  1342177280 cpu:               1.9 elap:               0.2
 (Enter /gpfs/apps/hpc/Apps/Restricted/Gaussian/Rev_A.03/g16/l401.exe)
 Initial guess from the checkpoint file:  "cyclohexyl-triBIP-E0PT.chk"
 B after Tr=    -0.003902   -0.015033    0.040550
         Rot=    0.999996    0.002623    0.001118    0.000522 Ang=   0.33 deg.
 Guess basis will be translated and rotated to current coordinates.
 JPrj=2 DoOrth=T DoCkMO=T.
 Initial guess <Sx>= 0.0000 <Sy>= 0.0000 <Sz>= 0.5000 <S**2>= 0.7619 S= 0.5059
 Generating alternative initial guess.
 ExpMin= 1.61D-01 ExpMax= 5.48D+03 ExpMxC= 8.25D+02 IAcc=2 IRadAn=         4 AccDes= 0.00D+00
 Harris functional with IExCor=  402 and IRadAn=       4 diagonalized for initial guess.
 HarFok:  IExCor=  402 AccDes= 0.00D+00 IRadAn=         4 IDoV= 1 UseB2=F ITyADJ=14
 ICtDFT=  3500011 ScaDFX=  1.000000  1.000000  1.000000  1.000000
 FoFCou: FMM=F IPFlag=           0 FMFlag=      100000 FMFlg1=        2001
         NFxFlg=           0 DoJE=T BraDBF=F KetDBF=T FulRan=T
         wScrn=  0.000000 ICntrl=       500 IOpCl=  0 I1Cent=   200000004 NGrid=           0
         NMat0=    1 NMatS0=      1 NMatT0=    0 NMatD0=    1 NMtDS0=    0 NMtDT0=    0
 Symmetry not used in FoFCou.
 Harris En= -2086.13522512074    
 Leave Link  401 at Thu Dec 20 19:10:28 2018, MaxMem=  1342177280 cpu:             157.2 elap:               9.9
 (Enter /gpfs/apps/hpc/Apps/Restricted/Gaussian/Rev_A.03/g16/l502.exe)
 Two-electron integral symmetry not used.
 UHF open shell SCF:
 Using DIIS extrapolation, IDIIS=  1040.
 NGot=  1342177280 LenX=  1340252438 LenY=  1339300838
 Requested convergence on RMS density matrix=1.00D-08 within 128 cycles.
 Requested convergence on MAX density matrix=1.00D-06.
 Requested convergence on             energy=1.00D-06.
 No special actions if energy rises.
 Fock matrices will be formed incrementally for  20 cycles.

 Cycle   1  Pass 1  IDiag  1:
 FoFJK:  IHMeth= 1 ICntrl=       0 DoSepK=F KAlg= 0 I1Cent=           0 FoldK=F
 IRaf= 540000000 NMat=       1 IRICut=       1 DoRegI=T DoRafI=F ISym2E= 0 IDoP0=0 IntGTp=1.
 FoFCou: FMM=T IPFlag=           0 FMFlag=      100000 FMFlg1=        2001
         NFxFlg=           0 DoJE=F BraDBF=F KetDBF=F FulRan=T
         wScrn=  0.000000 ICntrl=         0 IOpCl=  1 I1Cent=           0 NGrid=           0
         NMat0=    1 NMatS0=      1 NMatT0=    0 NMatD0=    1 NMtDS0=    0 NMtDT0=    0
 Symmetry not used in FoFCou.
 FMM levels:  10  Number of levels for PrismC:   9
 Inv3:  Mode=1 IEnd=   114725568.
 Iteration    1 A*A^-1 deviation from unit magnitude is 1.93D-14 for   4244.
 Iteration    1 A*A^-1 deviation from orthogonality  is 5.00D-15 for   4872    773.
 Iteration    1 A^-1*A deviation from unit magnitude is 1.93D-14 for   4244.
 Iteration    1 A^-1*A deviation from orthogonality  is 3.46D-15 for   5034   1920.
 E= -2086.22339723385    
 DIIS: error= 5.06D-03 at cycle   1 NSaved=   1.
 NSaved= 1 IEnMin= 1 EnMin= -2086.22339723385     IErMin= 1 ErrMin= 5.06D-03
 ErrMax= 5.06D-03  0.00D+00 EMaxC= 1.00D-01 BMatC= 9.82D-02 BMatP= 9.82D-02
 IDIUse=3 WtCom= 9.49D-01 WtEn= 5.06D-02
 Coeff-Com:  0.100D+01
 Coeff-En:   0.100D+01
 Coeff:      0.100D+01
 Gap=     1.590 Goal=   None    Shift=    0.000
 Gap=     1.589 Goal=   None    Shift=    0.000
 GapD=    1.589 DampG=2.000 DampE=1.000 DampFc=2.0000 IDamp=-1.
 RMSDP=2.57D-04 MaxDP=2.23D-02              OVMax= 3.00D-02

 Cycle   2  Pass 1  IDiag  1:
 RMSU=  2.56D-04    CP:  1.00D+00
 E= -2086.27116573365     Delta-E=       -0.047768499800 Rises=F Damp=F
 DIIS: error= 4.95D-04 at cycle   2 NSaved=   2.
 NSaved= 2 IEnMin= 2 EnMin= -2086.27116573365     IErMin= 2 ErrMin= 4.95D-04
 ErrMax= 4.95D-04  0.00D+00 EMaxC= 1.00D-01 BMatC= 1.15D-03 BMatP= 9.82D-02
 IDIUse=3 WtCom= 9.95D-01 WtEn= 4.95D-03
 Coeff-Com: -0.780D-01 0.108D+01
 Coeff-En:   0.000D+00 0.100D+01
 Coeff:     -0.776D-01 0.108D+01
 Gap=     0.131 Goal=   None    Shift=    0.000
 Gap=     0.031 Goal=   None    Shift=    0.000
 RMSDP=4.05D-05 MaxDP=3.07D-03 DE=-4.78D-02 OVMax= 4.99D-03

 Cycle   3  Pass 1  IDiag  1:
 RMSU=  3.21D-05    CP:  9.99D-01  1.10D+00
 E= -2086.27160593161     Delta-E=       -0.000440197964 Rises=F Damp=F
 DIIS: error= 3.92D-04 at cycle   3 NSaved=   3.
 NSaved= 3 IEnMin= 3 EnMin= -2086.27160593161     IErMin= 3 ErrMin= 3.92D-04
 ErrMax= 3.92D-04  0.00D+00 EMaxC= 1.00D-01 BMatC= 7.41D-04 BMatP= 1.15D-03
 IDIUse=3 WtCom= 9.96D-01 WtEn= 3.92D-03
 Coeff-Com: -0.455D-01 0.567D+00 0.479D+00
 Coeff-En:   0.000D+00 0.000D+00 0.100D+01
 Coeff:     -0.453D-01 0.565D+00 0.481D+00
 Gap=     0.131 Goal=   None    Shift=    0.000
 Gap=     0.030 Goal=   None    Shift=    0.000
 RMSDP=1.82D-05 MaxDP=3.27D-03 DE=-4.40D-04 OVMax= 4.61D-03

 Cycle   4  Pass 1  IDiag  1:
 RMSU=  1.43D-05    CP:  9.99D-01  1.10D+00  6.56D-01
 E= -2086.27174229605     Delta-E=       -0.000136364439 Rises=F Damp=F
 DIIS: error= 1.80D-04 at cycle   4 NSaved=   4.
 NSaved= 4 IEnMin= 4 EnMin= -2086.27174229605     IErMin= 4 ErrMin= 1.80D-04
 ErrMax= 1.80D-04  0.00D+00 EMaxC= 1.00D-01 BMatC= 1.22D-04 BMatP= 7.41D-04
 IDIUse=3 WtCom= 9.98D-01 WtEn= 1.80D-03
 Coeff-Com: -0.106D-01 0.117D+00 0.293D+00 0.601D+00
 Coeff-En:   0.000D+00 0.000D+00 0.144D+00 0.856D+00
 Coeff:     -0.106D-01 0.116D+00 0.292D+00 0.602D+00
 Gap=     0.131 Goal=   None    Shift=    0.000
 Gap=     0.030 Goal=   None    Shift=    0.000
 RMSDP=6.17D-06 MaxDP=1.09D-03 DE=-1.36D-04 OVMax= 1.53D-03

 Cycle   5  Pass 1  IDiag  1:
 RMSU=  3.73D-06    CP:  9.99D-01  1.11D+00  7.63D-01  7.56D-01
 E= -2086.27176699062     Delta-E=       -0.000024694566 Rises=F Damp=F
 DIIS: error= 3.52D-05 at cycle   5 NSaved=   5.
 NSaved= 5 IEnMin= 5 EnMin= -2086.27176699062     IErMin= 5 ErrMin= 3.52D-05
 ErrMax= 3.52D-05  0.00D+00 EMaxC= 1.00D-01 BMatC= 8.04D-06 BMatP= 1.22D-04
 IDIUse=1 WtCom= 1.00D+00 WtEn= 0.00D+00
 Coeff-Com: -0.111D-02 0.502D-02 0.102D+00 0.295D+00 0.598D+00
 Coeff:     -0.111D-02 0.502D-02 0.102D+00 0.295D+00 0.598D+00
 Gap=     0.131 Goal=   None    Shift=    0.000
 Gap=     0.030 Goal=   None    Shift=    0.000
 RMSDP=1.99D-06 MaxDP=2.40D-04 DE=-2.47D-05 OVMax= 5.76D-04

 Cycle   6  Pass 1  IDiag  1:
 RMSU=  1.43D-06    CP:  9.99D-01  1.11D+00  7.74D-01  8.02D-01  6.88D-01
 E= -2086.27176881442     Delta-E=       -0.000001823799 Rises=F Damp=F
 DIIS: error= 1.59D-05 at cycle   6 NSaved=   6.
 NSaved= 6 IEnMin= 6 EnMin= -2086.27176881442     IErMin= 6 ErrMin= 1.59D-05
 ErrMax= 1.59D-05  0.00D+00 EMaxC= 1.00D-01 BMatC= 1.11D-06 BMatP= 8.04D-06
 IDIUse=1 WtCom= 1.00D+00 WtEn= 0.00D+00
 Coeff-Com:  0.111D-02-0.166D-01 0.740D-02 0.558D-01 0.302D+00 0.650D+00
 Coeff:      0.111D-02-0.166D-01 0.740D-02 0.558D-01 0.302D+00 0.650D+00
 Gap=     0.131 Goal=   None    Shift=    0.000
 Gap=     0.030 Goal=   None    Shift=    0.000
 RMSDP=8.82D-07 MaxDP=1.30D-04 DE=-1.82D-06 OVMax= 7.07D-04

 Cycle   7  Pass 1  IDiag  1:
 RMSU=  6.72D-07    CP:  9.99D-01  1.11D+00  7.79D-01  8.11D-01  8.04D-01
                    CP:  7.82D-01
 E= -2086.27176913434     Delta-E=       -0.000000319928 Rises=F Damp=F
 DIIS: error= 6.75D-06 at cycle   7 NSaved=   7.
 NSaved= 7 IEnMin= 7 EnMin= -2086.27176913434     IErMin= 7 ErrMin= 6.75D-06
 ErrMax= 6.75D-06  0.00D+00 EMaxC= 1.00D-01 BMatC= 1.81D-07 BMatP= 1.11D-06
 IDIUse=1 WtCom= 1.00D+00 WtEn= 0.00D+00
 Coeff-Com:  0.715D-03-0.965D-02-0.446D-02 0.517D-02 0.113D+00 0.361D+00
 Coeff-Com:  0.534D+00
 Coeff:      0.715D-03-0.965D-02-0.446D-02 0.517D-02 0.113D+00 0.361D+00
 Coeff:      0.534D+00
 Gap=     0.131 Goal=   None    Shift=    0.000
 Gap=     0.030 Goal=   None    Shift=    0.000
 RMSDP=3.35D-07 MaxDP=4.17D-05 DE=-3.20D-07 OVMax= 1.73D-04

 Cycle   8  Pass 1  IDiag  1:
 RMSU=  2.65D-07    CP:  9.99D-01  1.11D+00  7.80D-01  8.13D-01  8.09D-01
                    CP:  9.21D-01  9.89D-01
 E= -2086.27176919850     Delta-E=       -0.000000064158 Rises=F Damp=F
 DIIS: error= 3.04D-06 at cycle   8 NSaved=   8.
 NSaved= 8 IEnMin= 8 EnMin= -2086.27176919850     IErMin= 8 ErrMin= 3.04D-06
 ErrMax= 3.04D-06  0.00D+00 EMaxC= 1.00D-01 BMatC= 2.29D-08 BMatP= 1.81D-07
 IDIUse=1 WtCom= 1.00D+00 WtEn= 0.00D+00
 Coeff-Com: -0.650D-04 0.143D-02-0.371D-02-0.159D-01-0.511D-01-0.481D-01
 Coeff-Com:  0.193D+00 0.924D+00
 Coeff:     -0.650D-04 0.143D-02-0.371D-02-0.159D-01-0.511D-01-0.481D-01
 Coeff:      0.193D+00 0.924D+00
 Gap=     0.131 Goal=   None    Shift=    0.000
 Gap=     0.030 Goal=   None    Shift=    0.000
 RMSDP=3.18D-07 MaxDP=5.02D-05 DE=-6.42D-08 OVMax= 2.81D-04

 Cycle   9  Pass 1  IDiag  1:
 RMSU=  1.41D-07    CP:  9.99D-01  1.11D+00  7.80D-01  8.16D-01  8.30D-01
                    CP:  1.01D+00  1.33D+00  1.27D+00
 E= -2086.27176922602     Delta-E=       -0.000000027513 Rises=F Damp=F
 DIIS: error= 1.85D-06 at cycle   9 NSaved=   9.
 NSaved= 9 IEnMin= 9 EnMin= -2086.27176922602     IErMin= 9 ErrMin= 1.85D-06
 ErrMax= 1.85D-06  0.00D+00 EMaxC= 1.00D-01 BMatC= 7.17D-09 BMatP= 2.29D-08
 IDIUse=1 WtCom= 1.00D+00 WtEn= 0.00D+00
 Coeff-Com: -0.127D-03 0.196D-02-0.697D-03-0.729D-02-0.378D-01-0.668D-01
 Coeff-Com: -0.169D-01 0.405D+00 0.723D+00
 Coeff:     -0.127D-03 0.196D-02-0.697D-03-0.729D-02-0.378D-01-0.668D-01
 Coeff:     -0.169D-01 0.405D+00 0.723D+00
 Gap=     0.131 Goal=   None    Shift=    0.000
 Gap=     0.030 Goal=   None    Shift=    0.000
